<event>
12    1  0.1052008E+000  0.8483434E+03  0.7818608E-02  0.9492563E-01
         -2   -1    0    0    0  501 -0.00000000000E+00  0.00000000000E+00  0.46403698077E+03  0.46403698077E+03  0.00000000000E+00 0.  1.
          2   -1    0    0  502    0  0.00000000000E+00 -0.00000000000E+00 -0.19690675956E+04  0.19690675956E+04  0.00000000000E+00 0. -1.
          6    2    1    2  502    0 -0.39959041698E+03  0.72846177973E+03 -0.19213444485E+03  0.87015190121E+03  0.17297288923E+03 0.  0.
         24    2    3    3    0    0 -0.32688717684E+03  0.61041319525E+03 -0.10121581935E+03  0.70429197269E+03  0.79517579155E+02 0.  0.
         -6    2    1    2    0  501  0.39959041698E+03 -0.72846177973E+03 -0.13128961700E+04  0.15629526752E+04  0.16969279818E+03 0.  0.
        -24    2    5    5    0    0  0.18634960734E+03 -0.23593070516E+03 -0.49544606354E+03  0.58504405528E+03  0.80126593238E+02 0.  0.
          5    1    3    3  502    0 -0.72703240136E+02  0.11804858449E+03 -0.90918625500E+02  0.16585992852E+03  0.47000000000E+01 0. -1.
        -11    1    4    4    0    0 -0.11544151278E+03  0.26910904978E+03 -0.73117585537E+02  0.30181551462E+03  0.00000000000E+00 0.  1.
         12    1    4    4    0    0 -0.21144566406E+03  0.34130414546E+03 -0.28098233816E+02  0.40247645807E+03  0.00000000000E+00 0. -1.
         -5    1    5    5    0  501  0.21324080964E+03 -0.49253107457E+03 -0.81745010644E+03  0.97790861988E+03  0.47000000000E+01 0.  1.
         11    1    6    6    0    0  0.16546228859E+03 -0.22071167092E+03 -0.39812488003E+03  0.48434990526E+03  0.00000000000E+00 0. -1.
        -12    1    6    6    0    0  0.20887318753E+02 -0.15219034237E+02 -0.97321183512E+02  0.10069415002E+03  0.00000000000E+00 0.  1.
</event>
<event>
12    1  0.9656379E-001  0.4163946E+03  0.7818608E-02  0.1038246E+00
          2   -1    0    0  502    0  0.00000000000E+00  0.00000000000E+00  0.11788597041E+04  0.11788597041E+04  0.00000000000E+00 0. -1.
         -2   -1    0    0    0  501 -0.00000000000E+00 -0.00000000000E+00 -0.23881899866E+03  0.23881899866E+03  0.00000000000E+00 0.  1.
          6    2    1    2  502    0  0.26925061105E+03  0.26582984137E+03  0.29961862204E+02  0.41642869347E+03  0.17132935371E+03 0.  0.
         24    2    3    3    0    0  0.15643234519E+03  0.23853120101E+03  0.44159482669E+02  0.29939519696E+03  0.79493468778E+02 0.  0.
         -6    2    1    2    0  501 -0.26925061105E+03 -0.26582984137E+03  0.91007884325E+03  0.10012500093E+04  0.17634251922E+03 0.  0.
        -24    2    5    5    0    0 -0.23206223565E+03 -0.26898305762E+03  0.88271364331E+03  0.95473267699E+03  0.78270952061E+02 0.  0.
          5    1    3    3  502    0  0.11281826586E+03  0.27298640365E+02 -0.14197620464E+02  0.11703349651E+03  0.47000000000E+01 0. -1.
        -13    1    4    4    0    0  0.71233521028E+02  0.17761760584E+03  0.27013450756E+02  0.19326653860E+03  0.00000000000E+00 0.  1.
         14    1    4    4    0    0  0.85198824158E+02  0.60913595172E+02  0.17146031913E+02  0.10612865836E+03  0.00000000000E+00 0. -1.
         -5    1    5    5    0  501 -0.37188375393E+02  0.31532162474E+01  0.27365199939E+02  0.46517332305E+02  0.47000000000E+01 0.  1.
         11    1    6    6    0    0 -0.16137895539E+03 -0.21437048446E+03  0.57893195521E+03  0.63809096579E+03  0.00000000000E+00 0. -1.
        -12    1    6    6    0    0 -0.70683280260E+02 -0.54612573164E+02  0.30378168809E+03  0.31664171121E+03  0.00000000000E+00 0.  1.
</event>
<event>
12    1  0.9656379E-001  0.2031259E+03  0.7818608E-02  0.1147128E+00
         -3   -1    0    0    0  501 -0.00000000000E+00  0.00000000000E+00  0.67769976864E+02  0.67769976864E+02  0.00000000000E+00 0.  1.
          3   -1    0    0  502    0  0.00000000000E+00 -0.00000000000E+00 -0.60886915719E+03  0.60886915719E+03  0.00000000000E+00 0. -1.
          6    2    1    2  502    0  0.79004605032E+02  0.72476236190E+02 -0.27232619210E+03  0.33935179867E+03  0.17176599177E+03 0.  0.
         24    2    3    3    0    0  0.20253370961E+02  0.12782727525E+02 -0.41037059852E+02  0.93319737390E+02  0.80317718761E+02 0.  0.
         -6    2    1    2    0  501 -0.79004605032E+02 -0.72476236190E+02 -0.26877298823E+03  0.33728733539E+03  0.17328962745E+03 0.  0.
        -24    2    5    5    0    0  0.27015181451E+02 -0.25669816359E+02 -0.11914444514E+03  0.14796795717E+03  0.79437762049E+02 0.  0.
          5    1    3    3  502    0  0.58751234071E+02  0.59693508665E+02 -0.23128913224E+03  0.24603206128E+03  0.47000000000E+01 0. -1.
        -13    1    4    4    0    0  0.51514370024E+02  0.93996399305E+01 -0.26084533627E+02  0.58502020857E+02  0.00000000000E+00 0.  1.
         14    1    4    4    0    0 -0.31260999063E+02  0.33830875943E+01 -0.14952526225E+02  0.34817716533E+02  0.00000000000E+00 0. -1.
         -5    1    5    5    0  501 -0.10601978648E+03 -0.46806419831E+02 -0.14962854309E+03  0.18931937822E+03  0.47000000000E+01 0.  1.
         11    1    6    6    0    0  0.13334095621E+02  0.46361094902E+01 -0.11333811832E+03  0.11421392508E+03  0.00000000000E+00 0. -1.
        -12    1    6    6    0    0  0.13681085829E+02 -0.30305925849E+02 -0.58063268197E+01  0.33754032088E+02  0.00000000000E+00 0.  1.
</event>
<event>
12    1  0.9656379E-001  0.4986529E+03  0.7818608E-02  0.1014131E+00
         -2   -1    0    0    0  501 -0.00000000000E+00  0.00000000000E+00  0.15252514555E+03  0.15252514555E+03  0.00000000000E+00 0.  1.
          2   -1    0    0  502    0  0.00000000000E+00 -0.00000000000E+00 -0.21466342245E+04  0.21466342245E+04  0.00000000000E+00 0. -1.
          6    2    1    2  502    0 -0.38696376872E+03 -0.26364105779E+03 -0.43339933246E+03  0.66075842606E+03  0.17181138081E+03 0.  0.
         24    2    3    3    0    0 -0.13808795513E+03 -0.12747281405E+03 -0.24540763875E+03  0.32039989730E+03  0.84342061631E+02 0.  0.
         -6    2    1    2    0  501  0.38696376872E+03  0.26364105779E+03 -0.15607097465E+04  0.16384009440E+04  0.17115833258E+03 0.  0.
        -24    2    5    5    0    0  0.13133837815E+03  0.38965651252E+02 -0.46092635398E+03  0.48715423757E+03  0.78090049500E+02 0.  0.
          5    1    3    3  502    0 -0.24887581359E+03 -0.13616824375E+03 -0.18799169371E+03  0.34035852876E+03  0.47000000000E+01 0. -1.
        -11    1    4    4    0    0 -0.12705038607E+03 -0.12169052845E+03 -0.25118405733E+03  0.30666564198E+03  0.00000000000E+00 0.  1.
         12    1    4    4    0    0 -0.11037569059E+02 -0.57822855950E+01  0.57764185824E+01  0.13734255316E+02  0.00000000000E+00 0. -1.
         -5    1    5    5    0  501  0.25562539057E+03  0.22467540654E+03 -0.10997833925E+04  0.11512467065E+04  0.47000000000E+01 0.  1.
         11    1    6    6    0    0  0.12084816121E+03  0.57675773905E+02 -0.36311463806E+03  0.38701810466E+03  0.00000000000E+00 0. -1.
        -12    1    6    6    0    0  0.10490216939E+02 -0.18710122654E+02 -0.97811715926E+02  0.10013613291E+03  0.00000000000E+00 0.  1.
</event>
<event>
12    1  0.9656379E-001  0.7758726E+03  0.7818608E-02  0.9595613E-01
          1   -1    0    0  502    0  0.00000000000E+00  0.00000000000E+00  0.31179914475E+03  0.31179914475E+03  0.00000000000E+00 0. -1.
         -1   -1    0    0    0  501 -0.00000000000E+00 -0.00000000000E+00 -0.19545041574E+04  0.19545041574E+04  0.00000000000E+00 0.  1.
          6    2    1    2  502    0 -0.74932141952E+03 -0.10434324795E+03 -0.94659794252E+03  0.12239917446E+04  0.17244715952E+03 0.  0.
         24    2    3    3    0    0 -0.41110371733E+03 -0.12534008237E+03 -0.52030493226E+03  0.67940024469E+03  0.78428740305E+02 0.  0.
         -6    2    1    2    0  501  0.74932141952E+03  0.10434324795E+03 -0.69610707012E+03  0.10423115576E+04  0.17169224456E+03 0.  0.
        -24    2    5    5    0    0  0.32631972443E+03  0.33944582721E+02 -0.22587411641E+03  0.40589382772E+03  0.78063343970E+02 0.  0.
          5    1    3    3  502    0 -0.33821770219E+03  0.20996834421E+02 -0.42629301026E+03  0.54459149987E+03  0.47000000000E+01 0. -1.
        -13    1    4    4    0    0 -0.34692012120E+03 -0.95678428939E+02 -0.38675017624E+03  0.52828366535E+03  0.00000000000E+00 0.  1.
         14    1    4    4    0    0 -0.64183596135E+02 -0.29661653432E+02 -0.13355475602E+03  0.15111657934E+03  0.00000000000E+00 0. -1.
         -5    1    5    5    0  501  0.42300169509E+03  0.70398665229E+02 -0.47023295371E+03  0.63641772986E+03  0.47000000000E+01 0.  1.
         13    1    6    6    0    0  0.40066304877E+02  0.27313013643E+02 -0.51062221964E+02  0.70417753533E+02  0.00000000000E+00 0. -1.
        -14    1    6    6    0    0  0.28625341955E+03  0.66315690787E+01 -0.17481189444E+03  0.33547607419E+03  0.00000000000E+00 0.  1.
</event>
<event>
12    1  0.9656379E-001  0.1089938E+04  0.7818608E-02  0.9215055E-01
         -1   -1    0    0    0  501 -0.00000000000E+00  0.00000000000E+00  0.11515433709E+04  0.11515433709E+04  0.00000000000E+00 0.  1.
          1   -1    0    0  502    0  0.00000000000E+00 -0.00000000000E+00 -0.17974853918E+04  0.17974853918E+04  0.00000000000E+00 0. -1.
          6    2    1    2  502    0 -0.32203380179E+03 -0.10272423158E+04  0.63952005321E+03  0.12636333463E+04  0.16985520444E+03 0.  0.
         24    2    3    3    0    0 -0.84064475976E+02 -0.24524539013E+03  0.14037910665E+03  0.30586909223E+03  0.81470672600E+02 0.  0.
         -6    2    1    2    0  501  0.32203380179E+03  0.10272423158E+04 -0.12854620741E+04  0.16853954164E+04  0.17091641436E+03 0.  0.
        -24    2    5    5    0    0  0.70994025449E+02  0.31956326247E+03 -0.43096972923E+03  0.54784987035E+03  0.85110178938E+02 0.  0.
          5    1    3    3  502    0 -0.23796932581E+03 -0.78199692568E+03  0.49914094656E+03  0.95776425405E+03  0.47000000000E+01 0. -1.
        -13    1    4    4    0    0 -0.87689850321E+02 -0.16240123060E+03  0.12106216763E+03  0.22072543574E+03  0.00000000000E+00 0.  1.
         14    1    4    4    0    0  0.36253743448E+01 -0.82844159528E+02  0.19316939019E+02  0.85143656488E+02  0.00000000000E+00 0. -1.
         -5    1    5    5    0  501  0.25103977634E+03  0.70767905334E+03 -0.85449234491E+03  0.11375455461E+04  0.47000000000E+01 0.  1.
         11    1    6    6    0    0  0.61085061560E+02  0.13929146642E+03 -0.24710982783E+03  0.29016678717E+03  0.00000000000E+00 0. -1.
        -12    1    6    6    0    0  0.99089638885E+01  0.18027179605E+03 -0.18385990139E+03  0.25768308318E+03  0.00000000000E+00 0.  1.
</event>
<event>
12    1  0.9656379E-001  0.5184601E+03  0.7818608E-02  0.1009070E+00
          1   -1    0    0  502    0  0.00000000000E+00  0.00000000000E+00  0.70390645157E+03  0.70390645157E+03  0.00000000000E+00 0. -1.
         -1   -1    0    0    0  501 -0.00000000000E+00 -0.00000000000E+00 -0.42608448339E+03  0.42608448339E+03  0.00000000000E+00 0.  1.
          6    2    1    2  502    0  0.48790891215E+03 -0.32827774886E+02 -0.43085041956E+02  0.52027634275E+03  0.17233218686E+03 0.  0.
         24    2    3    3    0    0  0.45998862550E+03 -0.69555124820E+02 -0.34225586939E+02  0.47306383823E+03  0.78680069029E+02 0.  0.
         -6    2    1    2    0  501 -0.48790891215E+03  0.32827774886E+02  0.32090701014E+03  0.60971459221E+03  0.17215634011E+03 0.  0.
        -24    2    5    5    0    0 -0.49682935421E+03  0.30990440591E+02  0.30058019805E+03  0.58695016000E+03  0.79763527094E+02 0.  0.
          5    1    3    3  502    0  0.27920286649E+02  0.36727349935E+02 -0.88594550169E+01  0.47212504519E+02  0.47000000000E+01 0. -1.
        -13    1    4    4    0    0  0.37362419983E+03 -0.45681315038E+02  0.20075541296E+01  0.37641181639E+03  0.00000000000E+00 0.  1.
         14    1    4    4    0    0  0.86364425669E+02 -0.23873809782E+02 -0.36233141069E+02  0.96652021843E+02  0.00000000000E+00 0. -1.
         -5    1    5    5    0  501  0.89204420635E+01  0.18373342941E+01  0.20326812095E+02  0.22764432211E+02  0.47000000000E+01 0.  1.
         11    1    6    6    0    0 -0.41444619334E+03  0.33234495570E+02  0.21475777794E+03  0.46796482993E+03  0.00000000000E+00 0. -1.
        -12    1    6    6    0    0 -0.82383160868E+02 -0.22440549788E+01  0.85822420111E+02  0.11898533007E+03  0.00000000000E+00 0.  1.
</event>
<event>
12    1  0.9656379E-001  0.2863617E+03  0.7818608E-02  0.1092264E+00
          2   -1    0    0  502    0  0.00000000000E+00  0.00000000000E+00  0.16574890415E+04  0.16574890415E+04  0.00000000000E+00 0. -1.
         -2   -1    0    0    0  501 -0.00000000000E+00 -0.00000000000E+00 -0.10339812319E+03  0.10339812319E+03  0.00000000000E+00 0.  1.
          6    2    1    2  502    0 -0.22574654750E+03  0.36003764788E+02  0.14076418076E+03  0.31877116342E+03  0.17187997339E+03 0.  0.
         24    2    3    3    0    0 -0.19020236542E+03 -0.18985070078E+02  0.14412598144E+03  0.25304025331E+03  0.81973767593E+02 0.  0.
         -6    2    1    2    0  501  0.22574654750E+03 -0.36003764788E+02  0.14133267375E+04  0.14421160012E+04  0.17305582700E+03 0.  0.
        -24    2    5    5    0    0  0.20549737928E+03 -0.40656282215E+01  0.13514730770E+04  0.13694658898E+04  0.81924618285E+02 0.  0.
          5    1    3    3  502    0 -0.35544182083E+02  0.54988834866E+02 -0.33618006706E+01  0.65730910108E+02  0.47000000000E+01 0. -1.
        -13    1    4    4    0    0 -0.21377631539E+02  0.53132058858E+01 -0.90277587043E+01  0.23806169667E+02  0.00000000000E+00 0.  1.
         14    1    4    4    0    0 -0.16882473388E+03 -0.24298275964E+02  0.15315374014E+03  0.22923408364E+03  0.00000000000E+00 0. -1.
         -5    1    5    5    0  501  0.20249168219E+02 -0.31938136566E+02  0.61853660493E+02  0.72650111475E+02  0.47000000000E+01 0.  1.
         13    1    6    6    0    0  0.18045458751E+03  0.21912701140E+02  0.12038439046E+04  0.12174909328E+04  0.00000000000E+00 0. -1.
        -14    1    6    6    0    0  0.25042791768E+02 -0.25978329362E+02  0.14762917238E+03  0.15197495700E+03  0.00000000000E+00 0.  1.
</event>
<event>
12    1  0.9656379E-001  0.2114333E+03  0.7818608E-02  0.1140436E+00
         -1   -1    0    0    0  501 -0.00000000000E+00  0.00000000000E+00  0.74544246046E+03  0.74544246046E+03  0.00000000000E+00 0.  1.
          1   -1    0    0  502    0  0.00000000000E+00 -0.00000000000E+00 -0.79124578556E+02  0.79124578556E+02  0.00000000000E+00 0. -1.
          6    2    1    2  502    0 -0.10519962117E+03  0.63266163081E+02  0.53512207412E+03  0.57510677381E+03  0.17123842846E+03 0.  0.
         24    2    3    3    0    0 -0.62909575598E+02 -0.10733093109E+02  0.42342913016E+03  0.43453031205E+03  0.73834611307E+02 0.  0.
         -6    2    1    2    0  501  0.10519962117E+03 -0.63266163081E+02  0.13119580778E+03  0.24946026521E+03  0.17305639616E+03 0.  0.
        -24    2    5    5    0    0  0.11173665154E+03 -0.68992116564E+02  0.41424730413E+02  0.15914716737E+03  0.79792362712E+02 0.  0.
          5    1    3    3  502    0 -0.42290045571E+02  0.73999256190E+02  0.11169294396E+03  0.14057646176E+03  0.47000000000E+01 0. -1.
        -11    1    4    4    0    0 -0.73102581230E+02  0.10627710571E+02  0.31438775505E+03  0.32294983533E+03  0.00000000000E+00 0.  1.
         12    1    4    4    0    0  0.10193005632E+02 -0.21360803679E+02  0.10904137512E+03  0.11158047672E+03  0.00000000000E+00 0. -1.
         -5    1    5    5    0  501 -0.65370303679E+01  0.57259534834E+01  0.89771077370E+02  0.90313097840E+02  0.47000000000E+01 0.  1.
         11    1    6    6    0    0  0.44767640811E+02 -0.68972384063E+02  0.37604082466E+01  0.82313255903E+02  0.00000000000E+00 0. -1.
        -12    1    6    6    0    0  0.66969010726E+02 -0.19732501192E-01  0.37664322167E+02  0.76833911467E+02  0.00000000000E+00 0.  1.
</event>
<event>
12    1  0.9656379E-001  0.2962359E+03  0.7818608E-02  0.1087138E+00
          1   -1    0    0  502    0  0.00000000000E+00  0.00000000000E+00  0.13635437804E+04  0.13635437804E+04  0.00000000000E+00 0. -1.
         -1   -1    0    0    0  501 -0.00000000000E+00 -0.00000000000E+00 -0.24174267872E+03  0.24174267872E+03  0.00000000000E+00 0.  1.
          6    2    1    2  502    0  0.18491534618E+03  0.15492148459E+03 -0.12668469212E+03  0.32212013514E+03  0.17180808657E+03 0.  0.
         24    2    3    3    0    0  0.52551680083E+02  0.73144985967E+02  0.45552000876E+01  0.11851872274E+03  0.76902989146E+02 0.  0.
         -6    2    1    2    0  501 -0.18491534618E+03 -0.15492148459E+03  0.12484857938E+04  0.12831663240E+04  0.17206012333E+03 0.  0.
        -24    2    5    5    0    0 -0.20293868478E+03 -0.16588196553E+03  0.11728855392E+04  0.12045376945E+04  0.80929803948E+02 0.  0.
          5    1    3    3  502    0  0.13236366609E+03  0.81776498618E+02 -0.13123989221E+03  0.20360141241E+03  0.47000000000E+01 0. -1.
        -13    1    4    4    0    0  0.58707246903E+02  0.29232378456E+02  0.24352580146E+02  0.69957994174E+02  0.00000000000E+00 0.  1.
         14    1    4    4    0    0 -0.61555668201E+01  0.43912607511E+02 -0.19797380058E+02  0.48560728562E+02  0.00000000000E+00 0. -1.
         -5    1    5    5    0  501  0.18023338599E+02  0.10960480942E+02  0.75600254604E+02  0.78628629474E+02  0.47000000000E+01 0.  1.
         13    1    6    6    0    0 -0.74207170966E+02 -0.11265185161E+03  0.59475326749E+03  0.60985948635E+03  0.00000000000E+00 0. -1.
        -14    1    6    6    0    0 -0.12873151381E+03 -0.53230113916E+02  0.57813227169E+03  0.59467820815E+03  0.00000000000E+00 0.  1.
</event>
<event>
12    1  0.9656379E-001  0.1364721E+04  0.7818608E-02  0.8979759E-01
          2   -1    0    0  502    0  0.00000000000E+00  0.00000000000E+00  0.19121387180E+04  0.19121387180E+04  0.00000000000E+00 0. -1.
         -2   -1    0    0    0  501 -0.00000000000E+00 -0.00000000000E+00 -0.99651251581E+03  0.99651251581E+03  0.00000000000E+00 0.  1.
          6    2    1    2  502    0 -0.12348830522E+04  0.55492561559E+03  0.23932006545E+03  0.13855353218E+04  0.17191696532E+03 0.  0.
         24    2    3    3    0    0 -0.11979936514E+04  0.51708893557E+03  0.20710712185E+03  0.13234691799E+04  0.78150841500E+02 0.  0.
         -6    2    1    2    0  501  0.12348830522E+04 -0.55492561559E+03  0.67630613676E+03  0.15231159120E+04  0.17208573260E+03 0.  0.
        -24    2    5    5    0    0  0.11898158971E+04 -0.56278913387E+03  0.65244661671E+03  0.14713061630E+04  0.81619603198E+02 0.  0.
          5    1    3    3  502    0 -0.36889400735E+02  0.37836680016E+02  0.32212943599E+02  0.62066141950E+02  0.47000000000E+01 0. -1.
        -11    1    4    4    0    0 -0.77546262695E+03  0.34942642123E+03  0.99739348636E+02  0.85638136791E+03  0.00000000000E+00 0.  1.
         12    1    4    4    0    0 -0.42253102449E+03  0.16766251434E+03  0.10736777321E+03  0.46708781197E+03  0.00000000000E+00 0. -1.
         -5    1    5    5    0  501  0.45067155100E+02  0.78635182890E+01  0.23859520058E+02  0.51809748948E+02  0.47000000000E+01 0.  1.
         13    1    6    6    0    0  0.88318694077E+03 -0.42379427330E+03  0.52425692986E+03  0.11110652937E+04  0.00000000000E+00 0. -1.
        -14    1    6    6    0    0  0.30662895630E+03 -0.13899486057E+03  0.12818968685E+03  0.36024086931E+03  0.00000000000E+00 0.  1.
</event>
<event>
12    1  0.9656379E-001  0.2911211E+03  0.7818608E-02  0.1089765E+00
         -2   -1    0    0    0  501 -0.00000000000E+00  0.00000000000E+00  0.19622662870E+03  0.19622662870E+03  0.00000000000E+00 0.  1.
          2   -1    0    0  502    0  0.00000000000E+00 -0.00000000000E+00 -0.54198888652E+03  0.54198888652E+03  0.00000000000E+00 0. -1.
          6    2    1    2  502    0  0.19142188157E+02  0.23412393437E+03 -0.64899325748E+01  0.29110206263E+03  0.17180760061E+03 0.  0.
         24    2    3    3    0    0  0.12957596718E+02  0.24068294797E+03  0.27416934835E+02  0.25570382131E+03  0.80849088817E+02 0.  0.
         -6    2    1    2    0  501 -0.19142188157E+02 -0.23412393437E+03 -0.33927232525E+03  0.44711345260E+03  0.17211707877E+03 0.  0.
        -24    2    5    5    0    0 -0.50562384850E+02 -0.18185159895E+03 -0.32556205068E+03  0.38442623349E+03  0.78525927876E+02 0.  0.
          5    1    3    3  502    0  0.61845914393E+01 -0.65590135985E+01 -0.33906867409E+02  0.35398241315E+02  0.47000000000E+01 0. -1.
        -13    1    4    4    0    0  0.31733082891E+01  0.14217058064E+03  0.55731990908E+02  0.15273702464E+03  0.00000000000E+00 0.  1.
         14    1    4    4    0    0  0.97842884285E+01  0.98512367325E+02 -0.28315056074E+02  0.10296679667E+03  0.00000000000E+00 0. -1.
         -5    1    5    5    0  501  0.31420196693E+02 -0.52272335425E+02 -0.13710274563E+02  0.62687219109E+02  0.47000000000E+01 0.  1.
         13    1    6    6    0    0 -0.21683409336E+02 -0.69986956868E+02 -0.20382561797E+03  0.21659461423E+03  0.00000000000E+00 0. -1.
        -14    1    6    6    0    0 -0.28878975514E+02 -0.11186464208E+03 -0.12173643271E+03  0.16783161926E+03  0.00000000000E+00 0.  1.
</event>
<event>
12    1  0.9656379E-001  0.1973048E+03  0.7818608E-02  0.1152033E+00
          2   -1    0    0  502    0  0.00000000000E+00  0.00000000000E+00  0.24419010309E+04  0.24419010309E+04  0.00000000000E+00 0. -1.
         -2   -1    0    0    0  501 -0.00000000000E+00 -0.00000000000E+00 -0.38818080503E+02  0.38818080503E+02  0.00000000000E+00 0.  1.
          6    2    1    2  502    0  0.68312691753E+02  0.68895825349E+02  0.24749914006E+03  0.31605594512E+03  0.17094524710E+03 0.  0.
         24    2    3    3    0    0  0.11950504279E+02 -0.15565640214E+02  0.64243064577E+02  0.10649613374E+03  0.82638680088E+02 0.  0.
         -6    2    1    2    0  501 -0.68312691753E+02 -0.68895825349E+02  0.21555838104E+04  0.21646631663E+04  0.17266094379E+03 0.  0.
        -24    2    5    5    0    0 -0.63509795708E+02  0.20624230560E+02  0.92248079847E+03  0.92829670117E+03  0.79404589336E+02 0.  0.
          5    1    3    3  502    0  0.56362187475E+02  0.84461465563E+02  0.18325607549E+03  0.20955981138E+03  0.47000000000E+01 0. -1.
        -13    1    4    4    0    0  0.30548517568E+02 -0.59857548508E+01  0.76260849809E+02  0.82369644896E+02  0.00000000000E+00 0.  1.
         14    1    4    4    0    0 -0.18598013289E+02 -0.95798853635E+01 -0.12017785232E+02  0.24126488840E+02  0.00000000000E+00 0. -1.
         -5    1    5    5    0  501 -0.48028960456E+01 -0.89520055908E+02  0.12331030119E+04  0.12363664651E+04  0.47000000000E+01 0.  1.
         11    1    6    6    0    0 -0.17616095439E+00  0.32314041279E+02  0.16852252631E+03  0.17159274510E+03  0.00000000000E+00 0. -1.
        -12    1    6    6    0    0 -0.63333634753E+02 -0.11689810720E+02  0.75395827216E+03  0.75670395607E+03  0.00000000000E+00 0.  1.
</event>
<event>
12    1  0.9656379E-001  0.1189369E+04  0.7818608E-02  0.9122213E-01
         -1   -1    0    0    0  501 -0.00000000000E+00  0.00000000000E+00  0.18352185396E+04  0.18352185396E+04  0.00000000000E+00 0.  1.
          1   -1    0    0  502    0  0.00000000000E+00 -0.00000000000E+00 -0.34287870394E+04  0.34287870394E+04  0.00000000000E+00 0. -1.
          6    2    1    2  502    0  0.31142195418E+03 -0.11349732519E+04  0.15205854281E+04  0.19304133058E+04  0.17078515947E+03 0.  0.
         24    2    3    3    0    0  0.17536203824E+03 -0.82997538189E+03  0.10267122843E+04  0.13342012850E+04  0.79649075809E+02 0.  0.
         -6    2    1    2    0  501 -0.31142195418E+03  0.11349732519E+04 -0.31141539279E+04  0.33335922733E+04  0.17243793611E+03 0.  0.
        -24    2    5    5    0    0 -0.25754509366E+03  0.10674739333E+04 -0.29321196962E+04  0.31320546202E+04  0.81302874511E+02 0.  0.
          5    1    3    3  502    0  0.13605991594E+03 -0.30499787001E+03  0.49387314385E+03  0.59621202073E+03  0.47000000000E+01 0. -1.
        -11    1    4    4    0    0  0.12894592895E+03 -0.52328488120E+03  0.70376774845E+03  0.88642154940E+03  0.00000000000E+00 0.  1.
         12    1    4    4    0    0  0.46416109288E+02 -0.30669050069E+03  0.32294453585E+03  0.44777973564E+03  0.00000000000E+00 0. -1.
         -5    1    5    5    0  501 -0.53876860512E+02  0.67499318596E+02 -0.18203423170E+03  0.20153765311E+03  0.47000000000E+01 0.  1.
         13    1    6    6    0    0 -0.13188859928E+03  0.58273598816E+03 -0.14818528416E+04  0.15977683432E+04  0.00000000000E+00 0. -1.
        -14    1    6    6    0    0 -0.12565649439E+03  0.48473794514E+03 -0.14502668546E+04  0.15342862770E+04  0.00000000000E+00 0.  1.
</event>
<event>
12    1  0.9656379E-001  0.1167214E+04  0.7818608E-02  0.9142048E-01
         -2   -1    0    0    0  501 -0.00000000000E+00  0.00000000000E+00  0.18735887536E+04  0.18735887536E+04  0.00000000000E+00 0.  1.
          2   -1    0    0  502    0  0.00000000000E+00 -0.00000000000E+00 -0.35797302411E+04  0.35797302411E+04  0.00000000000E+00 0. -1.
          6    2    1    2  502    0 -0.19143563735E+03 -0.11380522412E+04  0.15810071472E+04  0.19649627671E+04  0.17229210477E+03 0.  0.
         24    2    3    3    0    0 -0.20220151011E+03 -0.89905609422E+03  0.12011713348E+04  0.15160391692E+04  0.79842819440E+02 0.  0.
         -6    2    1    2    0  501  0.19143563735E+03  0.11380522412E+04 -0.32871486347E+04  0.34883562277E+04  0.17740495354E+03 0.  0.
        -24    2    5    5    0    0  0.10327015436E+03  0.94139240621E+03 -0.27465704345E+04  0.29063810361E+04  0.80729102354E+02 0.  0.
          5    1    3    3  502    0  0.10765872764E+02 -0.23899614701E+03  0.37983581245E+03  0.44892359787E+03  0.47000000000E+01 0. -1.
        -11    1    4    4    0    0 -0.15095645156E+03 -0.68276996692E+03  0.96505094052E+03  0.11917575239E+04  0.00000000000E+00 0.  1.
         12    1    4    4    0    0 -0.51245058554E+02 -0.21628612730E+03  0.23612039424E+03  0.32428164528E+03  0.00000000000E+00 0. -1.
         -5    1    5    5    0  501  0.88165482992E+02  0.19665983503E+03 -0.54057820020E+03  0.58197519159E+03  0.47000000000E+01 0.  1.
         13    1    6    6    0    0  0.10534325013E+03  0.60695183241E+03 -0.17827026066E+04  0.18861379352E+04  0.00000000000E+00 0. -1.
        -14    1    6    6    0    0 -0.20730957706E+01  0.33444057380E+03 -0.96386782791E+03  0.10202431008E+04  0.00000000000E+00 0.  1.
</event>
<event>
12    1  0.9656379E-001  0.2214034E+03  0.7818608E-02  0.1132841E+00
         -2   -1    0    0    0  501 -0.00000000000E+00  0.00000000000E+00  0.73330706749E+02  0.73330706749E+02  0.00000000000E+00 0.  1.
          2   -1    0    0  502    0  0.00000000000E+00 -0.00000000000E+00 -0.12979635154E+04  0.12979635154E+04  0.00000000000E+00 0. -1.
          6    2    1    2  502    0 -0.61423319640E+02  0.13688872110E+03 -0.13453674738E+03  0.25890084780E+03  0.16253666183E+03 0.  0.
         24    2    3    3    0    0 -0.49376098173E+02  0.85318189404E+02 -0.15462668453E+03  0.20206467218E+03  0.84873598148E+02 0.  0.
         -6    2    1    2    0  501  0.61423319640E+02 -0.13688872110E+03 -0.10900960613E+04  0.11123933743E+04  0.16308970026E+03 0.  0.
        -24    2    5    5    0    0  0.43259692236E+02 -0.14246011153E+03 -0.64073910957E+03  0.66261040691E+03  0.79621984816E+02 0.  0.
          5    1    3    3  502    0 -0.12047221467E+02  0.51570531692E+02  0.20089937150E+02  0.56836175617E+02  0.47000000000E+01 0. -1.
        -13    1    4    4    0    0 -0.63274683895E+02  0.64478809557E+02 -0.71394877968E+02  0.11514526088E+03  0.00000000000E+00 0.  1.
         14    1    4    4    0    0  0.13898585722E+02  0.20839379847E+02 -0.83231806562E+02  0.86919411302E+02  0.00000000000E+00 0. -1.
         -5    1    5    5    0  501  0.18163627404E+02  0.55713904344E+01 -0.44935695169E+03  0.44978296743E+03  0.47000000000E+01 0.  1.
         13    1    6    6    0    0  0.15687199308E+02 -0.70348149647E+02 -0.15705995660E+03  0.17280850774E+03  0.00000000000E+00 0. -1.
        -14    1    6    6    0    0  0.27572492929E+02 -0.72111961884E+02 -0.48367915297E+03  0.48980189917E+03  0.00000000000E+00 0.  1.
</event>
<event>
12    1  0.9656379E-001  0.4299017E+03  0.7818608E-02  0.1033891E+00
          2   -1    0    0  502    0  0.00000000000E+00  0.00000000000E+00  0.31058085893E+03  0.31058085893E+03  0.00000000000E+00 0. -1.
         -2   -1    0    0    0  501 -0.00000000000E+00 -0.00000000000E+00 -0.97241869257E+03  0.97241869257E+03  0.00000000000E+00 0.  1.
          6    2    1    2  502    0 -0.34349686464E+03 -0.19249277769E+03 -0.73034968866E+03  0.84728142057E+03  0.17155632441E+03 0.  0.
         24    2    3    3    0    0 -0.31531731975E+03 -0.20457068586E+03 -0.71703779937E+03  0.81352850941E+03  0.80070295690E+02 0.  0.
         -6    2    1    2    0  501  0.34349686464E+03  0.19249277769E+03  0.68511855024E+02  0.43571813093E+03  0.17353054447E+03 0.  0.
        -24    2    5    5    0    0  0.34752239247E+03  0.20096577100E+03  0.46966484442E+02  0.41175379319E+03  0.78589319627E+02 0.  0.
          5    1    3    3  502    0 -0.28179544884E+02  0.12077908167E+02 -0.13311889294E+02  0.33752911165E+02  0.47000000000E+01 0. -1.
        -13    1    4    4    0    0 -0.35708824365E+02 -0.59093096975E+02 -0.12320179317E+03  0.14122958645E+03  0.00000000000E+00 0.  1.
         14    1    4    4    0    0 -0.27960849539E+03 -0.14547758888E+03 -0.59383600620E+03  0.67229892296E+03  0.00000000000E+00 0. -1.
         -5    1    5    5    0  501 -0.40255278326E+01 -0.84729933131E+01  0.21545370582E+02  0.23964337744E+02  0.47000000000E+01 0.  1.
         11    1    6    6    0    0  0.12350531184E+03  0.34838317815E+02 -0.32931279984E+01  0.12836711079E+03  0.00000000000E+00 0. -1.
        -12    1    6    6    0    0  0.22401708063E+03  0.16612745319E+03  0.50259612440E+02  0.28338668240E+03  0.00000000000E+00 0.  1.
</event>
<event>
12    1  0.9656379E-001  0.7914618E+03  0.7818608E-02  0.9572459E-01
          2   -1    0    0  502    0  0.00000000000E+00  0.00000000000E+00  0.17075115871E+04  0.17075115871E+04  0.00000000000E+00 0. -1.
         -2   -1    0    0    0  501 -0.00000000000E+00 -0.00000000000E+00 -0.53773804936E+03  0.53773804936E+03  0.00000000000E+00 0.  1.
          6    2    1    2  502    0  0.60541352114E+03 -0.47960090771E+03 -0.47763324743E+02  0.79328560370E+03  0.17457992894E+03 0.  0.
         24    2    3    3    0    0  0.41731478858E+03 -0.25544817073E+03  0.35051718181E+01  0.49617260933E+03  0.82277404675E+02 0.  0.
         -6    2    1    2    0  501 -0.60541352114E+03  0.47960090771E+03  0.12175368625E+04  0.14519640327E+04  0.17105840713E+03 0.  0.
        -24    2    5    5    0    0 -0.60464770679E+03  0.47210757160E+03  0.12194844760E+04  0.14428744917E+04  0.79120180414E+02 0.  0.
          5    1    3    3  502    0  0.18809873257E+03 -0.22415273697E+03 -0.51268496561E+02  0.29711299437E+03  0.47000000000E+01 0. -1.
        -11    1    4    4    0    0  0.11019330127E+03 -0.33094772500E+02 -0.17737295716E+02  0.11641494436E+03  0.00000000000E+00 0.  1.
         12    1    4    4    0    0  0.30712148730E+03 -0.22235339823E+03  0.21242467534E+02  0.37975766496E+03  0.00000000000E+00 0. -1.
         -5    1    5    5    0  501 -0.76581435610E+00  0.74933361102E+01 -0.19476135945E+01  0.90895410446E+01  0.47000000000E+01 0.  1.
         13    1    6    6    0    0 -0.23613349976E+03  0.20050359333E+03  0.56189843959E+03  0.64163118461E+03  0.00000000000E+00 0. -1.
        -14    1    6    6    0    0 -0.36851420702E+03  0.27160397826E+03  0.65758603646E+03  0.80124330707E+03  0.00000000000E+00 0.  1.
</event>
<event>
12    1  0.9656379E-001  0.2972696E+03  0.7818608E-02  0.1086614E+00
          2   -1    0    0  502    0  0.00000000000E+00  0.00000000000E+00  0.34753027569E+04  0.34753027569E+04  0.00000000000E+00 0. -1.
         -2   -1    0    0    0  501 -0.00000000000E+00 -0.00000000000E+00 -0.11099643216E+03  0.11099643216E+03  0.00000000000E+00 0.  1.
          6    2    1    2  502    0  0.19061249676E+03 -0.15233391014E+03  0.10980966417E+03  0.31839803995E+03  0.17257000144E+03 0.  0.
         24    2    3    3    0    0  0.61270862175E+02 -0.11902800466E+03  0.97368498143E+02  0.18417652755E+03  0.80737750935E+02 0.  0.
         -6    2    1    2    0  501 -0.19061249676E+03  0.15233391014E+03  0.32544966606E+04  0.32679011491E+04  0.16700497785E+03 0.  0.
        -24    2    5    5    0    0 -0.12160483417E+03  0.76969709497E+02  0.12434393424E+04  0.12542439173E+04  0.79210693768E+02 0.  0.
          5    1    3    3  502    0  0.12934163459E+03 -0.33305905479E+02  0.12441166022E+02  0.13422151239E+03  0.47000000000E+01 0. -1.
        -11    1    4    4    0    0  0.58065799002E+02 -0.87730438635E+02  0.29332381556E+02  0.10921838437E+03  0.00000000000E+00 0.  1.
         12    1    4    4    0    0  0.32050631737E+01 -0.31297566021E+02  0.68036116587E+02  0.74958143180E+02  0.00000000000E+00 0. -1.
         -5    1    5    5    0  501 -0.69007662590E+02  0.75364200638E+02  0.20110573182E+04  0.20136572319E+04  0.47000000000E+01 0.  1.
         11    1    6    6    0    0 -0.40048953279E+02  0.52344015351E+02  0.79896232526E+03  0.80167612649E+03  0.00000000000E+00 0. -1.
        -12    1    6    6    0    0 -0.81555880894E+02  0.24625694146E+02  0.44447701712E+03  0.45256779080E+03  0.00000000000E+00 0.  1.
</event>
<event>
12    1  0.9656379E-001  0.6875713E+03  0.7818608E-02  0.9738726E-01
         -1   -1    0    0    0  501 -0.00000000000E+00  0.00000000000E+00  0.45161411546E+03  0.45161411546E+03  0.00000000000E+00 0.  1.
          1   -1    0    0  502    0  0.00000000000E+00 -0.00000000000E+00 -0.21297897029E+04  0.21297897029E+04  0.00000000000E+00 0. -1.
          6    2    1    2  502    0  0.38967592672E+03  0.53973708472E+03  0.81226843561E+02  0.69246261766E+03  0.17246225168E+03 0.  0.
         24    2    3    3    0    0  0.19554451805E+03  0.38463597992E+03  0.64608586285E+02  0.44338107876E+03  0.78930450390E+02 0.  0.
         -6    2    1    2    0  501 -0.38967592672E+03 -0.53973708472E+03 -0.17594024310E+04  0.18889412007E+04  0.17157650476E+03 0.  0.
        -24    2    5    5    0    0 -0.31605406937E+03 -0.42210056006E+03 -0.15340924689E+04  0.16242806656E+04  0.82394902501E+02 0.  0.
          5    1    3    3  502    0  0.19413140867E+03  0.15510110480E+03  0.16618257276E+02  0.24908153890E+03  0.47000000000E+01 0. -1.
        -11    1    4    4    0    0  0.14903499968E+03  0.23293835397E+03  0.67630307999E+02  0.28468503024E+03  0.00000000000E+00 0.  1.
         12    1    4    4    0    0  0.46509518369E+02  0.15169762594E+03 -0.30217217141E+01  0.15869604853E+03  0.00000000000E+00 0. -1.
         -5    1    5    5    0  501 -0.73621857351E+02 -0.11763652466E+03 -0.22530996213E+03  0.26466053512E+03  0.47000000000E+01 0.  1.
         13    1    6    6    0    0 -0.84011850021E+02 -0.15548028233E+03 -0.60273948285E+03  0.62811383787E+03  0.00000000000E+00 0. -1.
        -14    1    6    6    0    0 -0.23204221935E+03 -0.26662027773E+03 -0.93135298602E+03  0.99616682771E+03  0.00000000000E+00 0.  1.
</event>
<event>
12    1  0.9656379E-001  0.5354907E+03  0.7818608E-02  0.1004909E+00
          2   -1    0    0  502    0  0.00000000000E+00  0.00000000000E+00  0.15576496415E+04  0.15576496415E+04  0.00000000000E+00 0. -1.
         -2   -1    0    0    0  501 -0.00000000000E+00 -0.00000000000E+00 -0.59216725543E+03  0.59216725543E+03  0.00000000000E+00 0.  1.
          6    2    1    2  502    0 -0.25009634882E+03 -0.44157675329E+03 -0.40971777737E+03  0.67385398511E+03  0.16932903890E+03 0.  0.
         24    2    3    3    0    0 -0.14549353682E+03 -0.18000407548E+03 -0.24387055542E+03  0.34691453340E+03  0.85481046071E+02 0.  0.
         -6    2    1    2    0  501  0.25009634882E+03  0.44157675329E+03  0.13752001635E+04  0.14759629119E+04  0.17249004267E+03 0.  0.
        -24    2    5    5    0    0  0.21865692155E+03  0.44556542349E+03  0.12722244520E+04  0.13681184209E+04  0.82786239077E+02 0.  0.
          5    1    3    3  502    0 -0.10460281200E+03 -0.26157267781E+03 -0.16584722195E+03  0.32693945171E+03  0.47000000000E+01 0. -1.
        -13    1    4    4    0    0 -0.12686314075E+03 -0.95787878866E+02 -0.17599476830E+03  0.23715761149E+03  0.00000000000E+00 0.  1.
         14    1    4    4    0    0 -0.18630396070E+02 -0.84216196617E+02 -0.67875787124E+02  0.10975692191E+03  0.00000000000E+00 0. -1.
         -5    1    5    5    0  501  0.31439427271E+02 -0.39886701969E+01  0.10297571148E+03  0.10784449096E+03  0.47000000000E+01 0.  1.
         11    1    6    6    0    0  0.22369245045E+03  0.41992533658E+03  0.12248770264E+04  0.13140393185E+04  0.00000000000E+00 0. -1.
        -12    1    6    6    0    0 -0.50355289001E+01  0.25640086907E+02  0.47347425588E+02  0.54079102412E+02  0.00000000000E+00 0.  1.
</event>
<event>
12    1  0.9656379E-001  0.1731241E+03  0.7818608E-02  0.1174629E+00
          1   -1    0    0  502    0  0.00000000000E+00  0.00000000000E+00  0.12997930165E+04  0.12997930165E+04  0.00000000000E+00 0. -1.
         -1   -1    0    0    0  501 -0.00000000000E+00 -0.00000000000E+00 -0.23089678191E+02  0.23089678191E+02  0.00000000000E+00 0.  1.
          6    2    1    2  502    0 -0.16448146707E+02 -0.10257798719E+02  0.61531149124E+03  0.63927934446E+03  0.17231971752E+03 0.  0.
         24    2    3    3    0    0  0.13233520391E+02 -0.26234930775E+01  0.20888887581E+03  0.23167571800E+03  0.99282763317E+02 0.  0.
         -6    2    1    2    0  501  0.16448146707E+02  0.10257798719E+02  0.66139184702E+03  0.68360335018E+03  0.17175156797E+03 0.  0.
        -24    2    5    5    0    0 -0.51270171140E+02 -0.28554042066E+02  0.23556875757E+03  0.25066048666E+03  0.62402534115E+02 0.  0.
          5    1    3    3  502    0 -0.29681667098E+02 -0.76343056417E+01  0.40642261542E+03  0.40760362647E+03  0.47000000000E+01 0. -1.
        -13    1    4    4    0    0  0.83072689009E+01 -0.33988246618E+02  0.20337674801E+02  0.40470145058E+02  0.00000000000E+00 0.  1.
         14    1    4    4    0    0  0.49262514896E+01  0.31364753541E+02  0.18855120101E+03  0.19120557294E+03  0.00000000000E+00 0. -1.
         -5    1    5    5    0  501  0.67718317847E+02  0.38811840785E+02  0.42582308946E+03  0.43294286352E+03  0.47000000000E+01 0.  1.
         13    1    6    6    0    0 -0.47700442661E+02 -0.29380197465E+02  0.23909774070E+03  0.24557332477E+03  0.00000000000E+00 0. -1.
        -14    1    6    6    0    0 -0.35697284785E+01  0.82615539966E+00 -0.35289831293E+01  0.50871618886E+01  0.00000000000E+00 0.  1.
</event>
<event>
12    1  0.9656379E-001  0.5042413E+03  0.7818608E-02  0.1012678E+00
         -2   -1    0    0    0  501 -0.00000000000E+00  0.00000000000E+00  0.11016160370E+04  0.11016160370E+04  0.00000000000E+00 0.  1.
          2   -1    0    0  502    0  0.00000000000E+00 -0.00000000000E+00 -0.63526902498E+03  0.63526902498E+03  0.00000000000E+00 0. -1.
          6    2    1    2  502    0 -0.29849981570E+03  0.36800974424E+03  0.92610871802E+03  0.10544424768E+04  0.17215768185E+03 0.  0.
         24    2    3    3    0    0 -0.17866818821E+03  0.30168034871E+03  0.58254614180E+03  0.68455527582E+03  0.79514552422E+02 0.  0.
         -6    2    1    2    0  501  0.29849981570E+03 -0.36800974424E+03 -0.45976170598E+03  0.68244258522E+03  0.17266656888E+03 0.  0.
        -24    2    5    5    0    0  0.19655459439E+03 -0.33212450215E+03 -0.33028019539E+03  0.51371757127E+03  0.76683388436E+02 0.  0.
          5    1    3    3  502    0 -0.11983162749E+03  0.66329395529E+02  0.34356257623E+03  0.36988720097E+03  0.47000000000E+01 0. -1.
        -11    1    4    4    0    0 -0.44045978466E+02  0.65757729837E+02  0.75745721434E+02  0.10955154754E+03  0.00000000000E+00 0.  1.
         12    1    4    4    0    0 -0.13462220975E+03  0.23592261887E+03  0.50680042037E+03  0.57500372828E+03  0.00000000000E+00 0. -1.
         -5    1    5    5    0  501  0.10194522131E+03 -0.35885242094E+02 -0.12948151059E+03  0.16872501395E+03  0.47000000000E+01 0.  1.
         11    1    6    6    0    0  0.46507428160E+02 -0.39094631876E+02 -0.78479193397E+02  0.99248752696E+02  0.00000000000E+00 0. -1.
        -12    1    6    6    0    0  0.15004716623E+03 -0.29302987027E+03 -0.25180100200E+03  0.41446881857E+03  0.00000000000E+00 0.  1.
</event>
<event>
12    1  0.9656379E-001  0.5641161E+03  0.7818608E-02  0.9982784E-01
          2   -1    0    0  502    0  0.00000000000E+00  0.00000000000E+00  0.42743636008E+04  0.42743636008E+04  0.00000000000E+00 0. -1.
         -2   -1    0    0    0  501 -0.00000000000E+00 -0.00000000000E+00 -0.16704130769E+03  0.16704130769E+03  0.00000000000E+00 0.  1.
          6    2    1    2  502    0  0.38049234950E+03 -0.37923668689E+03  0.40052350591E+03  0.69194618157E+03  0.17255592334E+03 0.  0.
         24    2    3    3    0    0  0.29136799662E+03 -0.20219751565E+03  0.22883647314E+03  0.42967810182E+03  0.80485992308E+02 0.  0.
         -6    2    1    2    0  501 -0.38049234950E+03  0.37923668689E+03  0.37067987872E+04  0.37494587269E+04  0.17172246042E+03 0.  0.
        -24    2    5    5    0    0 -0.37247552112E+03  0.30359400270E+03  0.32466537338E+04  0.32830451278E+04  0.81960430512E+02 0.  0.
          5    1    3    3  502    0  0.89124352886E+02 -0.17703917124E+03  0.17168703277E+03  0.26226807974E+03  0.47000000000E+01 0. -1.
        -11    1    4    4    0    0  0.10708522084E+03 -0.38846839859E+02  0.45489025908E+02  0.12266039690E+03  0.00000000000E+00 0.  1.
         12    1    4    4    0    0  0.18428277578E+03 -0.16335067579E+03  0.18334744723E+03  0.30701770493E+03  0.00000000000E+00 0. -1.
         -5    1    5    5    0  501 -0.80168283827E+01  0.75642684187E+02  0.46014505342E+03  0.46641359907E+03  0.47000000000E+01 0.  1.
         11    1    6    6    0    0 -0.23122273966E+03  0.19188147133E+03  0.22853822028E+04  0.23050497321E+04  0.00000000000E+00 0. -1.
        -12    1    6    6    0    0 -0.14125278146E+03  0.11171253137E+03  0.96127153095E+03  0.97799539577E+03  0.00000000000E+00 0.  1.
</event>
<event>
12    1  0.9656379E-001  0.4345358E+03  0.7818608E-02  0.1032437E+00
          3   -1    0    0  502    0  0.00000000000E+00  0.00000000000E+00  0.51298317198E+03  0.51298317198E+03  0.00000000000E+00 0. -1.
         -3   -1    0    0    0  501 -0.00000000000E+00 -0.00000000000E+00 -0.86852977513E+03  0.86852977513E+03  0.00000000000E+00 0.  1.
          6    2    1    2  502    0  0.27515295253E+03 -0.28704190674E+03 -0.70240638206E+03  0.82686689917E+03  0.17953255936E+03 0.  0.
         24    2    3    3    0    0  0.12553804002E+03 -0.22380866430E+03 -0.49466731924E+03  0.56312332443E+03  0.81006197829E+02 0.  0.
         -6    2    1    2    0  501 -0.27515295253E+03  0.28704190674E+03  0.34685977891E+03  0.55464604794E+03  0.17093369698E+03 0.  0.
        -24    2    5    5    0    0 -0.37378336680E+02  0.64495582643E+02  0.77017804961E+02  0.13167983745E+03  0.76491941258E+02 0.  0.
          5    1    3    3  502    0  0.14961491250E+03 -0.63233242433E+02 -0.20773906283E+03  0.26374357474E+03  0.47000000000E+01 0. -1.
        -11    1    4    4    0    0  0.11922078438E+03 -0.14305797456E+03 -0.37390769676E+03  0.41771538781E+03  0.00000000000E+00 0.  1.
         12    1    4    4    0    0  0.63172556439E+01 -0.80750689741E+02 -0.12075962248E+03  0.14540793662E+03  0.00000000000E+00 0. -1.
         -5    1    5    5    0  501 -0.23777461585E+03  0.22254632409E+03  0.26984197395E+03  0.42296621049E+03  0.47000000000E+01 0.  1.
         11    1    6    6    0    0  0.60031297242E+01  0.62530439635E+02  0.52106185570E+02  0.81615856438E+02  0.00000000000E+00 0. -1.
        -12    1    6    6    0    0 -0.43381466404E+02  0.19651430079E+01  0.24911619391E+02  0.50063981016E+02  0.00000000000E+00 0.  1.
</event>
<event>
12    1  0.9656379E-001  0.2719809E+03  0.7818608E-02  0.1100151E+00
          2   -1    0    0  502    0  0.00000000000E+00  0.00000000000E+00  0.20780049830E+04  0.20780049830E+04  0.00000000000E+00 0. -1.
         -2   -1    0    0    0  501 -0.00000000000E+00 -0.00000000000E+00 -0.18178450816E+03  0.18178450816E+03  0.00000000000E+00 0.  1.
          6    2    1    2  502    0 -0.16388867266E+03 -0.13072649980E+03 -0.65674062198E+02  0.27902203844E+03  0.17202122169E+03 0.  0.
         24    2    3    3    0    0 -0.14419811179E+03 -0.67079535389E+02  0.97985171685E+01  0.17824081745E+03  0.79881277885E+02 0.  0.
         -6    2    1    2    0  501  0.16388867266E+03  0.13072649980E+03  0.19618945371E+04  0.19807674528E+04  0.17452968958E+03 0.  0.
        -24    2    5    5    0    0  0.40009719840E+02  0.62850736769E+02  0.12617038378E+04  0.12664550424E+04  0.80379148194E+02 0.  0.
          5    1    3    3  502    0 -0.19690560870E+02 -0.63646964412E+02 -0.75472579367E+02  0.10078122098E+03  0.47000000000E+01 0. -1.
        -11    1    4    4    0    0 -0.86298172582E+02 -0.43475457786E+02 -0.33403181204E+02  0.10224119784E+03  0.00000000000E+00 0.  1.
         12    1    4    4    0    0 -0.57899939207E+02 -0.23604077603E+02  0.43201698372E+02  0.75999619617E+02  0.00000000000E+00 0. -1.
         -5    1    5    5    0  501  0.12387895282E+03  0.67875763032E+02  0.70019069928E+03  0.71431241031E+03  0.47000000000E+01 0.  1.
         13    1    6    6    0    0  0.38911524510E+02  0.98410000636E+01  0.23654580936E+03  0.23992680540E+03  0.00000000000E+00 0. -1.
        -14    1    6    6    0    0  0.10981953304E+01  0.53009736705E+02  0.10251580284E+04  0.10265282370E+04  0.00000000000E+00 0.  1.
</event>
<event>
12    1  0.9656379E-001  0.7669191E+03  0.7818608E-02  0.9609175E-01
          1   -1    0    0  502    0  0.00000000000E+00  0.00000000000E+00  0.61948053353E+03  0.61948053353E+03  0.00000000000E+00 0. -1.
         -1   -1    0    0    0  501 -0.00000000000E+00 -0.00000000000E+00 -0.15992015533E+04  0.15992015533E+04  0.00000000000E+00 0.  1.
          6    2    1    2  502    0 -0.70665558533E+03  0.24323193720E+03 -0.11969643426E+04  0.14215694196E+04  0.17208162543E+03 0.  0.
         24    2    3    3    0    0 -0.70310530270E+03  0.25043250007E+03 -0.11475130085E+04  0.13712506651E+04  0.80428714401E+02 0.  0.
         -6    2    1    2    0  501  0.70665558533E+03 -0.24323193720E+03  0.21724332283E+03  0.79711266720E+03  0.17224996766E+03 0.  0.
        -24    2    5    5    0    0  0.66429138167E+03 -0.18380086145E+03  0.19678583760E+03  0.72116941722E+03  0.79340191743E+02 0.  0.
          5    1    3    3  502    0 -0.35502826294E+01 -0.72005628695E+01 -0.49451334095E+02  0.50318754517E+02  0.47000000000E+01 0. -1.
        -11    1    4    4    0    0 -0.28183991246E+03  0.13917523347E+03 -0.50932296800E+03  0.59850928782E+03  0.00000000000E+00 0.  1.
         12    1    4    4    0    0 -0.42126539023E+03  0.11125726659E+03 -0.63819004046E+03  0.77274137726E+03  0.00000000000E+00 0. -1.
         -5    1    5    5    0  501  0.42364203658E+02 -0.59431075751E+02  0.20457485229E+02  0.75943249986E+02  0.47000000000E+01 0.  1.
         13    1    6    6    0    0  0.39457536980E+03 -0.12802876296E+03  0.15376434584E+03  0.44240768602E+03  0.00000000000E+00 0. -1.
        -14    1    6    6    0    0  0.26971601187E+03 -0.55772098488E+02  0.43021491753E+02  0.27876173120E+03  0.00000000000E+00 0.  1.
</event>
<event>
12    1  0.2408011E+000  0.1113708E+04  0.7818608E-02  0.9191934E-01
         -2   -1    0    0    0  501 -0.00000000000E+00  0.00000000000E+00  0.14414981160E+04  0.14414981160E+04  0.00000000000E+00 0.  1.
          2   -1    0    0  502    0  0.00000000000E+00 -0.00000000000E+00 -0.14584008616E+04  0.14584008616E+04  0.00000000000E+00 0. -1.
          6    2    1    2  502    0 -0.95094944459E+03 -0.55479575408E+03  0.91997246101E+03  0.14441137465E+04  0.16435330500E+03 0.  0.
         24    2    3    3    0    0 -0.84019147319E+03 -0.45902170548E+03  0.74359032321E+03  0.12148262738E+04  0.79080142428E+02 0.  0.
         -6    2    1    2    0  501  0.95094944459E+03  0.55479575408E+03 -0.93687520665E+03  0.14557852311E+04  0.17167501676E+03 0.  0.
        -24    2    5    5    0    0  0.73905234386E+03  0.42087002765E+03 -0.79901483186E+03  0.11696662796E+04  0.79778172957E+02 0.  0.
          5    1    3    3  502    0 -0.11075797140E+03 -0.95774048598E+02  0.17638213780E+03  0.22928747273E+03  0.47000000000E+01 0. -1.
        -11    1    4    4    0    0 -0.23464148790E+03 -0.14281357366E+03  0.25642640588E+03  0.37577499424E+03  0.00000000000E+00 0.  1.
         12    1    4    4    0    0 -0.60554998529E+03 -0.31620813181E+03  0.48716391733E+03  0.83905127951E+03  0.00000000000E+00 0. -1.
         -5    1    5    5    0  501  0.21189710073E+03  0.13392572642E+03 -0.13786037479E+03  0.28611895155E+03  0.47000000000E+01 0.  1.
         13    1    6    6    0    0  0.32151104879E+03  0.20002745731E+03 -0.30544341899E+03  0.48649359746E+03  0.00000000000E+00 0. -1.
        -14    1    6    6    0    0  0.41754129507E+03  0.22084257035E+03 -0.49357141287E+03  0.68317268210E+03  0.00000000000E+00 0.  1.
</event>
<event>
12    1  0.9656379E-001  0.1879302E+03  0.7818608E-02  0.1160342E+00
         -2   -1    0    0    0  501 -0.00000000000E+00  0.00000000000E+00  0.83425908723E+03  0.83425908723E+03  0.00000000000E+00 0.  1.
          2   -1    0    0  502    0  0.00000000000E+00 -0.00000000000E+00 -0.66562410641E+02  0.66562410641E+02  0.00000000000E+00 0. -1.
          6    2    1    2  502    0 -0.67971344243E+02  0.34993087659E+02  0.65538028029E+03  0.68174840504E+03  0.17150205875E+03 0.  0.
         24    2    3    3    0    0 -0.86949806732E+01  0.66343515214E+02  0.24972985502E+03  0.27056609254E+03  0.79774339518E+02 0.  0.
         -6    2    1    2    0  501  0.67971344243E+02 -0.34993087659E+02  0.11231639630E+03  0.21907309283E+03  0.17185292347E+03 0.  0.
        -24    2    5    5    0    0  0.72874321811E+02  0.95674405044E+01  0.13093803785E+03  0.17030286223E+03  0.80349812894E+02 0.  0.
          5    1    3    3  502    0 -0.59276363570E+02 -0.31350427555E+02  0.40565042527E+03  0.41118231250E+03  0.47000000000E+01 0. -1.
        -13    1    4    4    0    0  0.84093268640E+01 -0.10806754725E+02  0.10303087589E+03  0.10393682750E+03  0.00000000000E+00 0.  1.
         14    1    4    4    0    0 -0.17104307537E+02  0.77150269938E+02  0.14669897913E+03  0.16662926504E+03  0.00000000000E+00 0. -1.
         -5    1    5    5    0  501 -0.49029775672E+01 -0.44560528163E+02 -0.18621641547E+02  0.48770230604E+02  0.47000000000E+01 0.  1.
         11    1    6    6    0    0  0.45140190051E+02  0.12092223856E+02  0.12138063525E+02  0.48282411101E+02  0.00000000000E+00 0. -1.
        -12    1    6    6    0    0  0.27734131760E+02 -0.25247833515E+01  0.11879997432E+03  0.12202045113E+03  0.00000000000E+00 0.  1.
</event>
<event>
12    1  0.9656379E-001  0.9890239E+03  0.7818608E-02  0.9320666E-01
         -2   -1    0    0    0  501 -0.00000000000E+00  0.00000000000E+00  0.45918381462E+03  0.45918381462E+03  0.00000000000E+00 0.  1.
          2   -1    0    0  502    0  0.00000000000E+00 -0.00000000000E+00 -0.22918960042E+04  0.22918960042E+04  0.00000000000E+00 0. -1.
          6    2    1    2  502    0  0.92778363782E+03 -0.29738932301E+03 -0.55060382527E+03  0.11315279469E+04  0.16723646184E+03 0.  0.
         24    2    3    3    0    0  0.36804486663E+03 -0.67103844171E+02 -0.23419810288E+03  0.44853924648E+03  0.79867105168E+02 0.  0.
         -6    2    1    2    0  501 -0.92778363782E+03  0.29738932301E+03 -0.12821083643E+04  0.16195518719E+04  0.17298416102E+03 0.  0.
        -24    2    5    5    0    0 -0.32092815644E+03  0.53935302886E+02 -0.46204690503E+03  0.57071140636E+03  0.79500115799E+02 0.  0.
          5    1    3    3  502    0  0.55973877119E+03 -0.23028547884E+03 -0.31640572239E+03  0.68298870042E+03  0.47000000000E+01 0. -1.
        -11    1    4    4    0    0  0.34898712899E+03 -0.71084392609E+02 -0.23845649486E+03  0.42860997073E+03  0.00000000000E+00 0.  1.
         12    1    4    4    0    0  0.19057737637E+02  0.39805484380E+01  0.42583919717E+01  0.19929275750E+02  0.00000000000E+00 0. -1.
         -5    1    5    5    0  501 -0.60685548138E+03  0.24345402012E+03 -0.82006145927E+03  0.10488404655E+04  0.47000000000E+01 0.  1.
         13    1    6    6    0    0 -0.27114707513E+03  0.63461515507E+02 -0.34647727380E+03  0.44451614320E+03  0.00000000000E+00 0. -1.
        -14    1    6    6    0    0 -0.49781081308E+02 -0.95262126208E+01 -0.11556963123E+03  0.12619526316E+03  0.00000000000E+00 0.  1.
</event>
<event>
12    1  0.9656379E-001  0.5613087E+03  0.7818608E-02  0.9989098E-01
         -1   -1    0    0    0  501 -0.00000000000E+00  0.00000000000E+00  0.14519751837E+04  0.14519751837E+04  0.00000000000E+00 0.  1.
          1   -1    0    0  502    0  0.00000000000E+00 -0.00000000000E+00 -0.18780848397E+04  0.18780848397E+04  0.00000000000E+00 0. -1.
          6    2    1    2  502    0 -0.40404225675E+03 -0.34966709797E+03  0.13528351515E+04  0.14646646005E+04  0.17193667499E+03 0.  0.
         24    2    3    3    0    0 -0.16707130161E+03 -0.22586685363E+03  0.77519902021E+03  0.82813704867E+03  0.77128432211E+02 0.  0.
         -6    2    1    2    0  501  0.40404225675E+03  0.34966709797E+03 -0.17789448075E+04  0.18653954229E+04  0.17186689884E+03 0.  0.
        -24    2    5    5    0    0  0.12620256678E+03  0.14419500120E+03 -0.51153919538E+03  0.55171633288E+03  0.77455001900E+02 0.  0.
          5    1    3    3  502    0 -0.23697095514E+03 -0.12380024434E+03  0.57763613132E+03  0.63652755186E+03  0.47000000000E+01 0. -1.
        -13    1    4    4    0    0 -0.15590972532E+03 -0.18387618574E+03  0.57897998815E+03  0.62716514636E+03  0.00000000000E+00 0.  1.
         14    1    4    4    0    0 -0.11161576290E+02 -0.41990667889E+02  0.19621903206E+03  0.20097190231E+03  0.00000000000E+00 0. -1.
         -5    1    5    5    0  501  0.27783968996E+03  0.20547209677E+03 -0.12674056121E+04  0.13136790900E+04  0.47000000000E+01 0.  1.
         11    1    6    6    0    0  0.95567280512E+02  0.11668569116E+03 -0.46838807357E+03  0.49207320907E+03  0.00000000000E+00 0. -1.
        -12    1    6    6    0    0  0.30635286270E+02  0.27509310035E+02 -0.43151121815E+02  0.59643123806E+02  0.00000000000E+00 0.  1.
</event>
<event>
12    1  0.9656379E-001  0.4176364E+03  0.7818608E-02  0.1037838E+00
         -2   -1    0    0    0  501 -0.00000000000E+00  0.00000000000E+00  0.14191179352E+03  0.14191179352E+03  0.00000000000E+00 0.  1.
          2   -1    0    0  502    0  0.00000000000E+00 -0.00000000000E+00 -0.20895520372E+04  0.20895520372E+04  0.00000000000E+00 0. -1.
          6    2    1    2  502    0 -0.37656182036E+03 -0.56259254526E+02 -0.25782786027E+03  0.49080548660E+03  0.17161267981E+03 0.  0.
         24    2    3    3    0    0 -0.34843666381E+03 -0.60568084175E+02 -0.17391547455E+03  0.40207573442E+03  0.79634806543E+02 0.  0.
         -6    2    1    2    0  501  0.37656182036E+03  0.56259254526E+02 -0.16898123834E+04  0.17406583442E+04  0.17164402583E+03 0.  0.
        -24    2    5    5    0    0  0.23387117614E+03  0.23730279182E+02 -0.75427614461E+03  0.79373231835E+03  0.76286549908E+02 0.  0.
          5    1    3    3  502    0 -0.28125156544E+02  0.43088296488E+01 -0.83912385722E+02  0.88729752176E+02  0.47000000000E+01 0. -1.
        -13    1    4    4    0    0 -0.25203737528E+03 -0.57973287122E+02 -0.16135626141E+03  0.30482713733E+03  0.00000000000E+00 0.  1.
         14    1    4    4    0    0 -0.96399288533E+02 -0.25947970532E+01 -0.12559213141E+02  0.97248597091E+02  0.00000000000E+00 0. -1.
         -5    1    5    5    0  501  0.14269064422E+03  0.32528975345E+02 -0.93553623883E+03  0.94692602581E+03  0.47000000000E+01 0.  1.
         11    1    6    6    0    0  0.90469671432E+02 -0.19872583760E+02 -0.21701946273E+03  0.23596001407E+03  0.00000000000E+00 0. -1.
        -12    1    6    6    0    0  0.14340150471E+03  0.43602862942E+02 -0.53725668188E+03  0.55777230429E+03  0.00000000000E+00 0.  1.
</event>
<event>
12    1  0.9656379E-001  0.3768215E+03  0.7818608E-02  0.1052115E+00
         -1   -1    0    0    0  501 -0.00000000000E+00  0.00000000000E+00  0.41017189900E+03  0.41017189900E+03  0.00000000000E+00 0.  1.
          1   -1    0    0  502    0  0.00000000000E+00 -0.00000000000E+00 -0.13701371178E+04  0.13701371178E+04  0.00000000000E+00 0. -1.
          6    2    1    2  502    0  0.25276247345E+03 -0.21893588522E+03  0.28953071284E+03  0.47524069671E+03  0.17379268197E+03 0.  0.
         24    2    3    3    0    0  0.61736969363E+02 -0.24194297583E+02  0.84089736691E+02  0.13371015071E+03  0.80065617870E+02 0.  0.
         -6    2    1    2    0  501 -0.25276247345E+03  0.21893588522E+03 -0.12494959316E+04  0.13050683201E+04  0.17361292313E+03 0.  0.
        -24    2    5    5    0    0 -0.26898385232E+03  0.18384360919E+03 -0.11581962104E+04  0.12058094159E+04  0.80044363482E+02 0.  0.
          5    1    3    3  502    0  0.19102550408E+03 -0.19474158764E+03  0.20544097615E+03  0.34153054600E+03  0.47000000000E+01 0. -1.
        -11    1    4    4    0    0  0.76701009403E+02 -0.15343722204E+01  0.59670333075E+02  0.97190265927E+02  0.00000000000E+00 0.  1.
         12    1    4    4    0    0 -0.14964040040E+02 -0.22659925363E+02  0.24419403616E+02  0.36519884785E+02  0.00000000000E+00 0. -1.
         -5    1    5    5    0  501  0.16221378879E+02  0.35092276036E+02 -0.91299721209E+02  0.99258904200E+02  0.47000000000E+01 0.  1.
         11    1    6    6    0    0 -0.65296059029E+02  0.44914120222E+02 -0.42333297833E+03  0.43068743198E+03  0.00000000000E+00 0. -1.
        -12    1    6    6    0    0 -0.20368779330E+03  0.13892948897E+03 -0.73486323206E+03  0.77512198387E+03  0.00000000000E+00 0.  1.
</event>
<event>
12    1  0.9656379E-001  0.6308797E+03  0.7818608E-02  0.9843334E-01
          2   -1    0    0  502    0  0.00000000000E+00  0.00000000000E+00  0.17616718658E+04  0.17616718658E+04  0.00000000000E+00 0. -1.
         -2   -1    0    0    0  501 -0.00000000000E+00 -0.00000000000E+00 -0.69025670773E+03  0.69025670773E+03  0.00000000000E+00 0.  1.
          6    2    1    2  502    0 -0.36335193469E+03  0.48627222480E+03 -0.46987118595E+03  0.78642805424E+03  0.17089425986E+03 0.  0.
         24    2    3    3    0    0 -0.23799132876E+03  0.31068306110E+03 -0.38477896382E+03  0.55445906452E+03  0.78779224428E+02 0.  0.
         -6    2    1    2    0  501  0.36335193469E+03 -0.48627222480E+03  0.15412863440E+04  0.16655005193E+04  0.17275149911E+03 0.  0.
        -24    2    5    5    0    0  0.91820789644E+02 -0.20432278940E+03  0.45987441996E+03  0.51541422411E+03  0.63154418752E+02 0.  0.
          5    1    3    3  502    0 -0.12536060593E+03  0.17558916369E+03 -0.85092222126E+02  0.23196898972E+03  0.47000000000E+01 0. -1.
        -13    1    4    4    0    0 -0.15091010929E+03  0.24134222793E+03 -0.24340817009E+03  0.37452298906E+03  0.00000000000E+00 0.  1.
         14    1    4    4    0    0 -0.87081219468E+02  0.69340833174E+02 -0.14137079373E+03  0.17993607546E+03  0.00000000000E+00 0. -1.
         -5    1    5    5    0  501  0.27153114505E+03 -0.28194943540E+03  0.10814119241E+04  0.11500862952E+04  0.47000000000E+01 0.  1.
         13    1    6    6    0    0  0.97633785476E+02 -0.16588569048E+03  0.40184901634E+03  0.44557047737E+03  0.00000000000E+00 0. -1.
        -14    1    6    6    0    0 -0.58129958317E+01 -0.38437098916E+02  0.58025403617E+02  0.69843746739E+02  0.00000000000E+00 0.  1.
</event>
<event>
12    1  0.9656379E-001  0.2714655E+03  0.7818608E-02  0.1100444E+00
          2   -1    0    0  502    0  0.00000000000E+00  0.00000000000E+00  0.21266268722E+04  0.21266268722E+04  0.00000000000E+00 0. -1.
         -2   -1    0    0    0  501 -0.00000000000E+00 -0.00000000000E+00 -0.35137879199E+02  0.35137879199E+02  0.00000000000E+00 0.  1.
          6    2    1    2  502    0 -0.48887620077E+02  0.20417137858E+03  0.91899214527E+03  0.95826691392E+03  0.17220036010E+03 0.  0.
         24    2    3    3    0    0 -0.25618418455E+02  0.16082661645E+03  0.42847187368E+03  0.46526341394E+03  0.79752077692E+02 0.  0.
         -6    2    1    2    0  501  0.48887620077E+02 -0.20417137858E+03  0.11724968478E+04  0.12034978375E+04  0.17199487101E+03 0.  0.
        -24    2    5    5    0    0  0.54671525358E+02 -0.46401906797E+02  0.47707442616E+03  0.49036454405E+03  0.87836583032E+02 0.  0.
          5    1    3    3  502    0 -0.23269201623E+02  0.43344762128E+02  0.49052027159E+03  0.49300349998E+03  0.47000000000E+01 0. -1.
        -13    1    4    4    0    0  0.10343702070E+01  0.17184484812E+02  0.59784315644E+01  0.18224107220E+02  0.00000000000E+00 0.  1.
         14    1    4    4    0    0 -0.26652788662E+02  0.14364213164E+03  0.42249344212E+03  0.44703930672E+03  0.00000000000E+00 0. -1.
         -5    1    5    5    0  501 -0.57839052812E+01 -0.15776947178E+03  0.69542242161E+03  0.71313329348E+03  0.47000000000E+01 0.  1.
         11    1    6    6    0    0  0.17213548206E+02 -0.67434037974E+02  0.26528757377E+03  0.27426474895E+03  0.00000000000E+00 0. -1.
        -12    1    6    6    0    0  0.37457977152E+02  0.21032131177E+02  0.21178685239E+03  0.21609979510E+03  0.00000000000E+00 0.  1.
</event>
<event>
12    1  0.9656379E-001  0.2171253E+03  0.7818608E-02  0.1136045E+00
          2   -1    0    0  502    0  0.00000000000E+00  0.00000000000E+00  0.10727821536E+04  0.10727821536E+04  0.00000000000E+00 0. -1.
         -2   -1    0    0    0  501 -0.00000000000E+00 -0.00000000000E+00 -0.44701734473E+02  0.44701734473E+02  0.00000000000E+00 0.  1.
          6    2    1    2  502    0 -0.73094457364E+02 -0.11115334153E+03  0.58533425996E+03  0.62410034091E+03  0.17084254333E+03 0.  0.
         24    2    3    3    0    0 -0.91517452661E+00 -0.11728383232E+03  0.36410104113E+03  0.39126207322E+03  0.82219869363E+02 0.  0.
         -6    2    1    2    0  501  0.73094457364E+02  0.11115334153E+03  0.44274615921E+03  0.49338354720E+03  0.17235225014E+03 0.  0.
        -24    2    5    5    0    0  0.73572483863E+02  0.14701594432E+03  0.38336192779E+03  0.42384987386E+03  0.75204718114E+02 0.  0.
          5    1    3    3  502    0 -0.72179282837E+02  0.61304907891E+01  0.22123321882E+03  0.23283826769E+03  0.47000000000E+01 0. -1.
        -13    1    4    4    0    0 -0.29241457950E+02 -0.97126101488E+02  0.20901582151E+03  0.23232769119E+03  0.00000000000E+00 0.  1.
         14    1    4    4    0    0  0.28326283423E+02 -0.20157730833E+02  0.15508521963E+03  0.15893438203E+03  0.00000000000E+00 0. -1.
         -5    1    5    5    0  501 -0.47802649899E+00 -0.35862602784E+02  0.59384231417E+02  0.69533673344E+02  0.47000000000E+01 0.  1.
         13    1    6    6    0    0  0.36364649863E+02  0.62560054731E+02  0.25941456848E+03  0.26931777986E+03  0.00000000000E+00 0. -1.
        -14    1    6    6    0    0  0.37207834000E+02  0.84455889585E+02  0.12394735931E+03  0.15453209400E+03  0.00000000000E+00 0.  1.
</event>
<event>
12    1  0.9656379E-001  0.4619400E+03  0.7818608E-02  0.1024220E+00
          2   -1    0    0  502    0  0.00000000000E+00  0.00000000000E+00  0.11391384222E+04  0.11391384222E+04  0.00000000000E+00 0. -1.
         -2   -1    0    0    0  501 -0.00000000000E+00 -0.00000000000E+00 -0.26458754232E+03  0.26458754232E+03  0.00000000000E+00 0.  1.
          6    2    1    2  502    0  0.14389507175E+03 -0.40291968338E+03  0.58052826677E+02  0.46565017698E+03  0.17438432757E+03 0.  0.
         24    2    3    3    0    0  0.15499845734E+03 -0.39386865089E+03  0.80942961167E+02  0.43824115259E+03  0.79664979329E+02 0.  0.
         -6    2    1    2    0  501 -0.14389507175E+03  0.40291968338E+03  0.81649805323E+03  0.93807578756E+03  0.17397427783E+03 0.  0.
        -24    2    5    5    0    0 -0.13321216907E+03  0.37713525171E+03  0.63807159122E+03  0.75741850519E+03  0.81061436067E+02 0.  0.
          5    1    3    3  502    0 -0.11103385589E+02 -0.90510324927E+01 -0.22890134490E+02  0.27409024385E+02  0.47000000000E+01 0. -1.
        -11    1    4    4    0    0  0.30658947860E+02 -0.75107806625E+02  0.48587360903E+02  0.94561542603E+02  0.00000000000E+00 0.  1.
         12    1    4    4    0    0  0.12433950948E+03 -0.31876084426E+03  0.32355600264E+02  0.34367960999E+03  0.00000000000E+00 0. -1.
         -5    1    5    5    0  501 -0.10682902679E+02  0.25784431677E+02  0.17842646202E+03  0.18065728237E+03  0.47000000000E+01 0.  1.
         11    1    6    6    0    0 -0.50932917855E+02  0.23166635333E+03  0.42395086320E+03  0.48579604341E+03  0.00000000000E+00 0. -1.
        -12    1    6    6    0    0 -0.82279251220E+02  0.14546889838E+03  0.21412072802E+03  0.27162246178E+03  0.00000000000E+00 0.  1.
</event>
<event>
12    1  0.9656379E-001  0.2201513E+03  0.7818608E-02  0.1133770E+00
          2   -1    0    0  502    0  0.00000000000E+00  0.00000000000E+00  0.79564562757E+02  0.79564562757E+02  0.00000000000E+00 0. -1.
         -2   -1    0    0    0  501 -0.00000000000E+00 -0.00000000000E+00 -0.73821566510E+03  0.73821566510E+03  0.00000000000E+00 0.  1.
          6    2    1    2  502    0 -0.84369365864E+02 -0.10389434553E+03 -0.50156790005E+03  0.54817535695E+03  0.17610689561E+03 0.  0.
         24    2    3    3    0    0 -0.30705284930E+02 -0.13393279917E+03 -0.37135340506E+03  0.40409188467E+03  0.80660340865E+02 0.  0.
         -6    2    1    2    0  501  0.84369365864E+02  0.10389434553E+03 -0.15708320229E+03  0.26960487090E+03  0.17349187025E+03 0.  0.
        -24    2    5    5    0    0  0.12662649177E+03  0.86409591054E+02 -0.12861654905E+03  0.21553249648E+03  0.80069685315E+02 0.  0.
          5    1    3    3  502    0 -0.53664080934E+02  0.30038453646E+02 -0.13021449499E+03  0.14408347228E+03  0.47000000000E+01 0. -1.
        -11    1    4    4    0    0 -0.19965226780E+02  0.22447949446E+01 -0.77144469242E+02  0.79717742814E+02  0.00000000000E+00 0.  1.
         12    1    4    4    0    0 -0.10740058150E+02 -0.13617759412E+03 -0.29420893582E+03  0.32437414186E+03  0.00000000000E+00 0. -1.
         -5    1    5    5    0  501 -0.42257125904E+02  0.17484754474E+02 -0.28466653239E+02  0.54072374419E+02  0.47000000000E+01 0.  1.
         11    1    6    6    0    0  0.10813969926E+03  0.34260254057E+02 -0.63198444085E+02  0.12985377506E+03  0.00000000000E+00 0. -1.
        -12    1    6    6    0    0  0.18486792511E+02  0.52149336998E+02 -0.65418104966E+02  0.85678721419E+02  0.00000000000E+00 0.  1.
</event>
<event>
12    1  0.9656379E-001  0.2257087E+03  0.7818608E-02  0.1129697E+00
         -2   -1    0    0    0  501 -0.00000000000E+00  0.00000000000E+00  0.90028178654E+02  0.90028178654E+02  0.00000000000E+00 0.  1.
          2   -1    0    0  502    0  0.00000000000E+00 -0.00000000000E+00 -0.17421517049E+04  0.17421517049E+04  0.00000000000E+00 0. -1.
          6    2    1    2  502    0  0.14627741312E+03  0.15787497532E+02 -0.72062725032E+02  0.23592932723E+03  0.16977421607E+03 0.  0.
         24    2    3    3    0    0  0.12826252919E+03 -0.43172822736E+02 -0.26009111649E+02  0.15883275977E+03  0.78969631307E+02 0.  0.
         -6    2    1    2    0  501 -0.14627741312E+03 -0.15787497532E+02 -0.15800608012E+04  0.15962505563E+04  0.17256122495E+03 0.  0.
        -24    2    5    5    0    0 -0.45585657714E+02  0.22174944842E+02 -0.38813814627E+03  0.39947084309E+03  0.79724234208E+02 0.  0.
          5    1    3    3  502    0  0.18014883930E+02  0.58960320268E+02 -0.46053613383E+02  0.77096567464E+02  0.47000000000E+01 0. -1.
        -11    1    4    4    0    0  0.13343373376E+03 -0.23972646568E+02 -0.15820488922E+02  0.13649006175E+03  0.00000000000E+00 0.  1.
         12    1    4    4    0    0 -0.51712045631E+01 -0.19200176168E+02 -0.10188622727E+02  0.22342698015E+02  0.00000000000E+00 0. -1.
         -5    1    5    5    0  501 -0.10069175541E+03 -0.37962442374E+02 -0.11919226549E+04  0.11967797132E+04  0.47000000000E+01 0.  1.
         11    1    6    6    0    0 -0.50546066909E+02  0.30612588109E+02 -0.38452235336E+03  0.38903659938E+03  0.00000000000E+00 0. -1.
        -12    1    6    6    0    0  0.49604091941E+01 -0.84376432666E+01 -0.36157929139E+01  0.10434243703E+02  0.00000000000E+00 0.  1.
</event>
<event>
12    1  0.9656379E-001  0.1874698E+03  0.7818608E-02  0.1160763E+00
          1   -1    0    0  502    0  0.00000000000E+00  0.00000000000E+00  0.47306153303E+03  0.47306153303E+03  0.00000000000E+00 0. -1.
         -1   -1    0    0    0  501 -0.00000000000E+00 -0.00000000000E+00 -0.67769919388E+03  0.67769919388E+03  0.00000000000E+00 0.  1.
          6    2    1    2  502    0 -0.36448673264E+02  0.64641570961E+02 -0.64526506750E+03  0.67203604070E+03  0.17250621493E+03 0.  0.
         24    2    3    3    0    0  0.37666637279E+01  0.85567801231E+02 -0.58533859466E+03  0.59674691406E+03  0.78419211203E+02 0.  0.
         -6    2    1    2    0  501  0.36448673264E+02 -0.64641570961E+02  0.44062740665E+03  0.47872468621E+03  0.17180737824E+03 0.  0.
        -24    2    5    5    0    0  0.20223267211E+02 -0.54865306733E+02  0.44723881988E+03  0.45811789295E+03  0.80188898306E+02 0.  0.
          5    1    3    3  502    0 -0.40215336992E+02 -0.20926230269E+02 -0.59926472842E+02  0.75289126639E+02  0.47000000000E+01 0. -1.
        -11    1    4    4    0    0 -0.32707488635E+02  0.61636074306E+02 -0.29440804648E+03  0.30256384996E+03  0.00000000000E+00 0.  1.
         12    1    4    4    0    0  0.36474152363E+02  0.23931726924E+02 -0.29093054817E+03  0.29418306410E+03  0.00000000000E+00 0. -1.
         -5    1    5    5    0  501  0.16225406054E+02 -0.97762642281E+01 -0.66114132269E+01  0.20606793266E+02  0.47000000000E+01 0.  1.
         11    1    6    6    0    0  0.44628102962E+01  0.19920499572E+02  0.14180730379E+03  0.14326916761E+03  0.00000000000E+00 0. -1.
        -12    1    6    6    0    0  0.15760456915E+02 -0.74785806305E+02  0.30543151609E+03  0.31484872534E+03  0.00000000000E+00 0.  1.
</event>
<event>
12    1  0.9656379E-001  0.1480854E+04  0.7818608E-02  0.8897286E-01
          2   -1    0    0  502    0  0.00000000000E+00  0.00000000000E+00  0.25715136847E+04  0.25715136847E+04  0.00000000000E+00 0. -1.
         -2   -1    0    0    0  501 -0.00000000000E+00 -0.00000000000E+00 -0.23644383264E+04  0.23644383264E+04  0.00000000000E+00 0.  1.
          6    2    1    2  502    0  0.32400256987E+03  0.14347906819E+04 -0.18698163006E+04  0.23851031252E+04  0.17000574504E+03 0.  0.
         24    2    3    3    0    0  0.10427634819E+03  0.69774105232E+03 -0.95652706657E+03  0.11911009962E+04  0.77855129003E+02 0.  0.
         -6    2    1    2    0  501 -0.32400256987E+03 -0.14347906819E+04  0.20768916590E+04  0.25508488859E+04  0.17247930181E+03 0.  0.
        -24    2    5    5    0    0 -0.12914256223E+03 -0.81625611628E+03  0.12351082418E+04  0.14882215557E+04  0.79744474645E+02 0.  0.
          5    1    3    3  502    0  0.21972622168E+03  0.73704962957E+03 -0.91328923407E+03  0.11940021290E+04  0.47000000000E+01 0. -1.
        -11    1    4    4    0    0  0.10511462098E+03  0.45340181003E+03 -0.62506641508E+03  0.77931399843E+03  0.00000000000E+00 0.  1.
         12    1    4    4    0    0 -0.83827279710E+00  0.24433924229E+03 -0.33146065148E+03  0.41178699774E+03  0.00000000000E+00 0. -1.
         -5    1    5    5    0  501 -0.19486000764E+03 -0.61853456561E+03  0.84178341718E+03  0.10626273302E+04  0.47000000000E+01 0.  1.
         11    1    6    6    0    0 -0.11785425942E+03 -0.80616945651E+03  0.12060603598E+04  0.14554657023E+04  0.00000000000E+00 0. -1.
        -12    1    6    6    0    0 -0.11288302817E+02 -0.10086659768E+02  0.29047881977E+02  0.32755853417E+02  0.00000000000E+00 0.  1.
</event>
<event>
12    1  0.9656379E-001  0.2027037E+03  0.7818608E-02  0.1147478E+00
         -2   -1    0    0    0  501 -0.00000000000E+00  0.00000000000E+00  0.92041165005E+02  0.92041165005E+02  0.00000000000E+00 0.  1.
          2   -1    0    0  502    0  0.00000000000E+00 -0.00000000000E+00 -0.17616940900E+04  0.17616940900E+04  0.00000000000E+00 0. -1.
          6    2    1    2  502    0  0.25463660556E+02 -0.10380999552E+03 -0.34249875984E+02  0.20585207910E+03  0.17256045690E+03 0.  0.
         24    2    3    3    0    0  0.51821190686E+02 -0.13019949173E+03 -0.11709164251E+02  0.16201945894E+03  0.80472710261E+02 0.  0.
         -6    2    1    2    0  501 -0.25463660556E+02  0.10380999552E+03 -0.16354030490E+04  0.16478831759E+04  0.17190379729E+03 0.  0.
        -24    2    5    5    0    0  0.53646260992E+00  0.18491665187E+02 -0.35686054246E+03  0.36622477564E+03  0.80180484258E+02 0.  0.
          5    1    3    3  502    0 -0.26357530129E+02  0.26389496209E+02 -0.22540711733E+02  0.43832620160E+02  0.47000000000E+01 0. -1.
        -13    1    4    4    0    0 -0.26890402285E+01 -0.94110788814E+02  0.58425225707E+01  0.94330305727E+02  0.00000000000E+00 0.  1.
         14    1    4    4    0    0  0.54510230914E+02 -0.36088702920E+02 -0.17551686822E+02  0.67689153216E+02  0.00000000000E+00 0. -1.
         -5    1    5    5    0  501 -0.26000123166E+02  0.85318330338E+02 -0.12785425065E+04  0.12816584002E+04  0.47000000000E+01 0.  1.
         11    1    6    6    0    0  0.38963978219E+02  0.19110966619E+02 -0.20835494257E+03  0.21282669649E+03  0.00000000000E+00 0. -1.
        -12    1    6    6    0    0 -0.38427515609E+02 -0.61930143267E+00 -0.14850559989E+03  0.15339807916E+03  0.00000000000E+00 0.  1.
</event>
<event>
12    1  0.9656379E-001  0.2271112E+03  0.7818608E-02  0.1128690E+00
          2   -1    0    0  502    0  0.00000000000E+00  0.00000000000E+00  0.17553751804E+04  0.17553751804E+04  0.00000000000E+00 0. -1.
         -2   -1    0    0    0  501 -0.00000000000E+00 -0.00000000000E+00 -0.48335594926E+02  0.48335594926E+02  0.00000000000E+00 0.  1.
          6    2    1    2  502    0 -0.15247275788E+01  0.14909015754E+03  0.28986407122E+03  0.36852565075E+03  0.17192956583E+03 0.  0.
         24    2    3    3    0    0  0.53767653596E+01  0.15060885132E+03  0.30590282708E+03  0.35037988746E+03  0.80483477940E+02 0.  0.
         -6    2    1    2    0  501  0.15247275788E+01 -0.14909015754E+03  0.14171755143E+04  0.14351851246E+04  0.17070355512E+03 0.  0.
        -24    2    5    5    0    0 -0.49102812808E+01 -0.17057481979E+03  0.10142132765E+04  0.10315718751E+04  0.79950505773E+02 0.  0.
          5    1    3    3  502    0 -0.69014929384E+01 -0.15186937736E+01 -0.16038755864E+02  0.18145763286E+02  0.47000000000E+01 0. -1.
        -13    1    4    4    0    0  0.22016330704E+02  0.99832848344E+02  0.12356073511E+03  0.16037010846E+03  0.00000000000E+00 0.  1.
         14    1    4    4    0    0 -0.16639565344E+02  0.50776002974E+02  0.18234209197E+03  0.19000977900E+03  0.00000000000E+00 0. -1.
         -5    1    5    5    0  501  0.64350088595E+01  0.21484662249E+02  0.40296223780E+03  0.40361324947E+03  0.47000000000E+01 0.  1.
         13    1    6    6    0    0 -0.53788238325E+01 -0.79609222300E+02  0.69764335387E+03  0.70219143346E+03  0.00000000000E+00 0. -1.
        -14    1    6    6    0    0  0.46854255177E+00 -0.90965597492E+02  0.31656992260E+03  0.32938044167E+03  0.00000000000E+00 0.  1.
</event>
<event>
12    1  0.9656379E-001  0.2119094E+03  0.7818608E-02  0.1140063E+00
         -1   -1    0    0    0  501 -0.00000000000E+00  0.00000000000E+00  0.13469599861E+02  0.13469599861E+02  0.00000000000E+00 0.  1.
          1   -1    0    0  502    0  0.00000000000E+00 -0.00000000000E+00 -0.40669305417E+04  0.40669305417E+04  0.00000000000E+00 0. -1.
          6    2    1    2  502    0  0.11867124573E+03 -0.39246873228E+02 -0.11600483306E+04  0.11792333943E+04  0.17104410884E+03 0.  0.
         24    2    3    3    0    0  0.28025121919E+02 -0.46694224754E+02 -0.31954438328E+03  0.33380973817E+03  0.79715558868E+02 0.  0.
         -6    2    1    2    0  501 -0.11867124573E+03  0.39246873228E+02 -0.28934126112E+04  0.29011667473E+04  0.17119805838E+03 0.  0.
        -24    2    5    5    0    0  0.89459444464E+01  0.18017851149E+02 -0.11715317736E+04  0.11744263129E+04  0.79911170204E+02 0.  0.
          5    1    3    3  502    0  0.90646123814E+02  0.74473515266E+01 -0.84050394734E+03  0.84542365611E+03  0.47000000000E+01 0. -1.
        -13    1    4    4    0    0  0.30758427838E+02 -0.15532914453E+02 -0.41187226793E+02  0.53700465225E+02  0.00000000000E+00 0.  1.
         14    1    4    4    0    0 -0.27333059184E+01 -0.31161310301E+02 -0.27835715649E+03  0.28010927295E+03  0.00000000000E+00 0. -1.
         -5    1    5    5    0  501 -0.12761719018E+03  0.21229022079E+02 -0.17218808377E+04  0.17267404344E+04  0.47000000000E+01 0.  1.
         11    1    6    6    0    0 -0.24443611705E+02 -0.83598640490E+01 -0.16632321660E+03  0.16831752690E+03  0.00000000000E+00 0. -1.
        -12    1    6    6    0    0  0.33389556151E+02  0.26377715198E+02 -0.10052085570E+04  0.10061087860E+04  0.00000000000E+00 0.  1.
</event>
<event>
12    1  0.9656379E-001  0.7831471E+03  0.7818608E-02  0.9584736E-01
         -2   -1    0    0    0  501 -0.00000000000E+00  0.00000000000E+00  0.33091397407E+03  0.33091397407E+03  0.00000000000E+00 0.  1.
          2   -1    0    0  502    0  0.00000000000E+00 -0.00000000000E+00 -0.21318279584E+04  0.21318279584E+04  0.00000000000E+00 0. -1.
          6    2    1    2  502    0 -0.58610459012E+03  0.48999745802E+03 -0.45546046040E+03  0.90596405086E+03  0.17236743029E+03 0.  0.
         24    2    3    3    0    0 -0.40468241780E+03  0.42000479995E+03 -0.34561536237E+03  0.68257870586E+03  0.79320991797E+02 0.  0.
         -6    2    1    2    0  501  0.58610459012E+03 -0.48999745802E+03 -0.13454535239E+04  0.15567778816E+04  0.17232552975E+03 0.  0.
        -24    2    5    5    0    0  0.56949741425E+03 -0.43130994423E+03 -0.12003261941E+04  0.13992848519E+04  0.82822409507E+02 0.  0.
          5    1    3    3  502    0 -0.18142217232E+03  0.69992658067E+02 -0.10984509803E+03  0.22338534499E+03  0.47000000000E+01 0. -1.
        -11    1    4    4    0    0 -0.25795697919E+03  0.25802619596E+03 -0.17152102688E+03  0.40316098965E+03  0.00000000000E+00 0.  1.
         12    1    4    4    0    0 -0.14672543861E+03  0.16197860399E+03 -0.17409433549E+03  0.27941771621E+03  0.00000000000E+00 0. -1.
         -5    1    5    5    0  501  0.16607175875E+02 -0.58687513790E+02 -0.14512732980E+03  0.15749302975E+03  0.47000000000E+01 0.  1.
         11    1    6    6    0    0  0.55750776521E+03 -0.40182474871E+03 -0.11416981680E+04  0.13325737292E+04  0.00000000000E+00 0. -1.
        -12    1    6    6    0    0  0.11989649034E+02 -0.29485195516E+02 -0.58628026143E+02  0.66711122671E+02  0.00000000000E+00 0.  1.
</event>
<event>
12    1  0.9656379E-001  0.1205625E+04  0.7818608E-02  0.9107947E-01
          2   -1    0    0  502    0  0.00000000000E+00  0.00000000000E+00  0.19194175771E+04  0.19194175771E+04  0.00000000000E+00 0. -1.
         -2   -1    0    0    0  501 -0.00000000000E+00 -0.00000000000E+00 -0.95103729521E+03  0.95103729521E+03  0.00000000000E+00 0.  1.
          6    2    1    2  502    0 -0.81711853792E+03 -0.86999840429E+03 -0.16360748226E+03  0.12167419335E+04  0.17062706694E+03 0.  0.
         24    2    3    3    0    0 -0.52590481699E+03 -0.58894685469E+03 -0.42911243316E+02  0.79438535796E+03  0.75976627741E+02 0.  0.
         -6    2    1    2    0  501  0.81711853792E+03  0.86999840429E+03  0.11319877641E+04  0.16537129388E+04  0.16967692043E+03 0.  0.
        -24    2    5    5    0    0  0.59686722292E+03  0.54735382260E+03  0.79950587582E+03  0.11407056641E+04  0.78441555926E+02 0.  0.
          5    1    3    3  502    0 -0.29121372094E+03 -0.28105154960E+03 -0.12069623894E+03  0.42235657553E+03  0.47000000000E+01 0. -1.
        -13    1    4    4    0    0 -0.13050310289E+03 -0.10009611999E+03 -0.70578895637E+01  0.16462110104E+03  0.00000000000E+00 0.  1.
         14    1    4    4    0    0 -0.39540171409E+03 -0.48885073470E+03 -0.35853353752E+02  0.62976425692E+03  0.00000000000E+00 0. -1.
         -5    1    5    5    0  501  0.22025131501E+03  0.32264458169E+03  0.33248188830E+03  0.51300727471E+03  0.47000000000E+01 0.  1.
         11    1    6    6    0    0  0.44426991550E+02  0.72536539671E+02  0.77656713366E+02  0.11517756855E+03  0.00000000000E+00 0. -1.
        -12    1    6    6    0    0  0.55244023137E+03  0.47481728293E+03  0.72184916246E+03  0.10255280955E+04  0.00000000000E+00 0.  1.
</event>
<event>
12    1  0.9656379E-001  0.5274546E+03  0.7818608E-02  0.1006851E+00
         -1   -1    0    0    0  501 -0.00000000000E+00  0.00000000000E+00  0.29263952005E+03  0.29263952005E+03  0.00000000000E+00 0.  1.
          1   -1    0    0  502    0  0.00000000000E+00 -0.00000000000E+00 -0.18534228502E+04  0.18534228502E+04  0.00000000000E+00 0. -1.
          6    2    1    2  502    0  0.33920301246E+03 -0.36509711709E+03 -0.31179877544E+02  0.52792359128E+03  0.17139587189E+03 0.  0.
         24    2    3    3    0    0  0.35061847732E+03 -0.37066571114E+03 -0.29724547149E+02  0.51430264917E+03  0.57421948653E+02 0.  0.
         -6    2    1    2    0  501 -0.33920301246E+03  0.36509711709E+03 -0.15296034526E+04  0.16181387789E+04  0.17416026292E+03 0.  0.
        -24    2    5    5    0    0 -0.21749184457E+03  0.23450330570E+03 -0.11863047276E+04  0.12311704901E+04  0.78532580650E+02 0.  0.
          5    1    3    3  502    0 -0.11415464854E+02  0.55685940526E+01 -0.14553303953E+01  0.13620942115E+02  0.47000000000E+01 0. -1.
        -13    1    4    4    0    0  0.90873508118E+02 -0.97799001913E+02  0.17433502418E+02  0.13463493699E+03  0.00000000000E+00 0.  1.
         14    1    4    4    0    0  0.25974496920E+03 -0.27286670923E+03 -0.47158049567E+02  0.37966771217E+03  0.00000000000E+00 0. -1.
         -5    1    5    5    0  501 -0.12171116789E+03  0.13059381139E+03 -0.34329872499E+03  0.38696828881E+03  0.47000000000E+01 0.  1.
         13    1    6    6    0    0 -0.17667470040E+03  0.14191798637E+03 -0.76309311351E+03  0.79603125850E+03  0.00000000000E+00 0. -1.
        -14    1    6    6    0    0 -0.40817144167E+02  0.92585319331E+02 -0.42321161405E+03  0.43513923160E+03  0.00000000000E+00 0.  1.
</event>
<event>
12    1  0.9656379E-001  0.1877468E+03  0.7818608E-02  0.1160509E+00
          2   -1    0    0  502    0  0.00000000000E+00  0.00000000000E+00  0.22430439506E+04  0.22430439506E+04  0.00000000000E+00 0. -1.
         -2   -1    0    0    0  501 -0.00000000000E+00 -0.00000000000E+00 -0.10288643137E+03  0.10288643137E+03  0.00000000000E+00 0.  1.
          6    2    1    2  502    0 -0.21547865726E+02 -0.72702429488E+02 -0.94779231417E+01  0.18812371866E+03  0.17190331214E+03 0.  0.
         24    2    3    3    0    0 -0.63083557426E+02 -0.48007483352E+02 -0.50882153503E+02  0.12431576977E+03  0.81124369916E+02 0.  0.
         -6    2    1    2    0  501  0.21547865726E+02  0.72702429488E+02  0.21496354424E+04  0.21578066634E+04  0.17160159471E+03 0.  0.
        -24    2    5    5    0    0  0.75913518708E+02  0.66947505239E+02  0.16903235132E+04  0.16952287978E+04  0.79763818918E+02 0.  0.
          5    1    3    3  502    0  0.41535691700E+02 -0.24694946136E+02  0.41404230361E+02  0.63807948889E+02  0.47000000000E+01 0. -1.
        -13    1    4    4    0    0 -0.31561632957E+02 -0.60781355597E+02 -0.57787864421E+02  0.89609972310E+02  0.00000000000E+00 0.  1.
         14    1    4    4    0    0 -0.31521924469E+02  0.12773872245E+02  0.69057109183E+01  0.34705797465E+02  0.00000000000E+00 0. -1.
         -5    1    5    5    0  501 -0.54365652982E+02  0.57549242487E+01  0.45931192922E+03  0.46257786556E+03  0.47000000000E+01 0.  1.
         11    1    6    6    0    0  0.41564069243E+02  0.81268138888E+02  0.11402006418E+04  0.11438485852E+04  0.00000000000E+00 0. -1.
        -12    1    6    6    0    0  0.34349449465E+02 -0.14320633649E+02  0.55012287140E+03  0.55138021261E+03  0.00000000000E+00 0.  1.
</event>
<event>
12    1  0.9656379E-001  0.1165113E+04  0.7818608E-02  0.9143953E-01
         -1   -1    0    0    0  501 -0.00000000000E+00  0.00000000000E+00  0.12484059281E+04  0.12484059281E+04  0.00000000000E+00 0.  1.
          1   -1    0    0  502    0  0.00000000000E+00 -0.00000000000E+00 -0.13603164908E+04  0.13603164908E+04  0.00000000000E+00 0. -1.
          6    2    1    2  502    0 -0.76684703060E+03  0.85975558950E+03  0.52830372713E+03  0.12794539993E+04  0.17511044010E+03 0.  0.
         24    2    3    3    0    0 -0.27789792503E+03  0.36984297761E+03  0.16465459327E+03  0.49756629786E+03  0.80311897336E+02 0.  0.
         -6    2    1    2    0  501  0.76684703060E+03 -0.85975558950E+03 -0.64021428975E+03  0.13292684196E+04  0.17276039036E+03 0.  0.
        -24    2    5    5    0    0  0.36774143102E+03 -0.51168880515E+03 -0.35916588541E+03  0.72973021265E+03  0.80292319751E+02 0.  0.
          5    1    3    3  502    0 -0.48894910557E+03  0.48991261189E+03  0.36364913387E+03  0.78188770146E+03  0.47000000000E+01 0. -1.
        -13    1    4    4    0    0 -0.25312447013E+03  0.28768874563E+03  0.12525134723E+03  0.40314353737E+03  0.00000000000E+00 0.  1.
         14    1    4    4    0    0 -0.24773454908E+02  0.82154231976E+02  0.39403246034E+02  0.94422760485E+02  0.00000000000E+00 0. -1.
         -5    1    5    5    0  501  0.39910559958E+03 -0.34806678435E+03 -0.28104840434E+03  0.59953820693E+03  0.47000000000E+01 0.  1.
         13    1    6    6    0    0  0.19868243327E+03 -0.20799591823E+03 -0.16376544149E+03  0.33099264511E+03  0.00000000000E+00 0. -1.
        -14    1    6    6    0    0  0.16905899775E+03 -0.30369288692E+03 -0.19540044392E+03  0.39873756754E+03  0.00000000000E+00 0.  1.
</event>
<event>
12    1  0.9656379E-001  0.2311927E+03  0.7818608E-02  0.1125803E+00
         -2   -1    0    0    0  501 -0.00000000000E+00  0.00000000000E+00  0.33884397420E+02  0.33884397420E+02  0.00000000000E+00 0.  1.
          2   -1    0    0  502    0  0.00000000000E+00 -0.00000000000E+00 -0.15917791086E+04  0.15917791086E+04  0.00000000000E+00 0. -1.
          6    2    1    2  502    0 -0.37585417571E+02  0.14960780661E+03 -0.70182376770E+03  0.73892891124E+03  0.17223291074E+03 0.  0.
         24    2    3    3    0    0  0.18317405775E+02  0.14144262525E+03 -0.41254431272E+03  0.44414680710E+03  0.82048965327E+02 0.  0.
         -6    2    1    2    0  501  0.37585417571E+02 -0.14960780661E+03 -0.85607094343E+03  0.88673459474E+03  0.17217904024E+03 0.  0.
        -24    2    5    5    0    0 -0.29691209953E+02 -0.39594671716E+02 -0.47165395994E+03  0.48123793426E+03  0.81750752079E+02 0.  0.
          5    1    3    3  502    0 -0.55902823347E+02  0.81651813608E+01 -0.28927945499E+03  0.29478210414E+03  0.47000000000E+01 0. -1.
        -13    1    4    4    0    0 -0.24568839292E+02  0.79036828417E+02 -0.27439989490E+03  0.28661079957E+03  0.00000000000E+00 0.  1.
         14    1    4    4    0    0  0.42886245067E+02  0.62405796829E+02 -0.13814441782E+03  0.15753600753E+03  0.00000000000E+00 0. -1.
         -5    1    5    5    0  501  0.67276627524E+02 -0.11001313489E+03 -0.38441698349E+03  0.40549666048E+03  0.47000000000E+01 0.  1.
         13    1    6    6    0    0  0.22385629241E+02 -0.21423853814E+02 -0.28285971600E+03  0.28455178236E+03  0.00000000000E+00 0. -1.
        -14    1    6    6    0    0 -0.52076839194E+02 -0.18170817903E+02 -0.18879424394E+03  0.19668615190E+03  0.00000000000E+00 0.  1.
</event>
<event>
12    1  0.9656379E-001  0.5816673E+03  0.7818608E-02  0.9944188E-01
         -1   -1    0    0    0  501 -0.00000000000E+00  0.00000000000E+00  0.99275441782E+03  0.99275441782E+03  0.00000000000E+00 0.  1.
          1   -1    0    0  502    0  0.00000000000E+00 -0.00000000000E+00 -0.92908304132E+03  0.92908304132E+03  0.00000000000E+00 0. -1.
          6    2    1    2  502    0 -0.52308124500E+03 -0.18761204307E+03  0.79646276797E+03  0.98621867953E+03  0.17164520240E+03 0.  0.
         24    2    3    3    0    0 -0.47080962027E+03 -0.12752284307E+03  0.73426584685E+03  0.88505751255E+03  0.79099258013E+02 0.  0.
         -6    2    1    2    0  501  0.52308124500E+03  0.18761204307E+03 -0.73279139147E+03  0.93561877961E+03  0.17200874910E+03 0.  0.
        -24    2    5    5    0    0  0.39852426543E+03  0.11076168257E+03 -0.62487015724E+03  0.75371357938E+03  0.80818969822E+02 0.  0.
          5    1    3    3  502    0 -0.52271624730E+02 -0.60089199998E+02  0.62196921126E+02  0.10116116699E+03  0.47000000000E+01 0. -1.
        -13    1    4    4    0    0 -0.12789281354E+03 -0.33798470393E+02  0.26661366769E+03  0.29762687405E+03  0.00000000000E+00 0.  1.
         14    1    4    4    0    0 -0.34291680673E+03 -0.93724372680E+02  0.46765217916E+03  0.58743063850E+03  0.00000000000E+00 0. -1.
         -5    1    5    5    0  501  0.12455697958E+03  0.76850360502E+02 -0.10792123423E+03  0.18190520022E+03  0.47000000000E+01 0.  1.
         11    1    6    6    0    0  0.22875190496E+03  0.91106143917E+02 -0.31475830084E+03  0.39962551399E+03  0.00000000000E+00 0. -1.
        -12    1    6    6    0    0  0.16977236047E+03  0.19655538652E+02 -0.31011185640E+03  0.35408806539E+03  0.00000000000E+00 0.  1.
</event>
<event>
12    1  0.9656379E-001  0.9831902E+03  0.7818608E-02  0.9327176E-01
         -2   -1    0    0    0  501 -0.00000000000E+00  0.00000000000E+00  0.13133237862E+04  0.13133237862E+04  0.00000000000E+00 0.  1.
          2   -1    0    0  502    0  0.00000000000E+00 -0.00000000000E+00 -0.39100732558E+04  0.39100732558E+04  0.00000000000E+00 0. -1.
          6    2    1    2  502    0 -0.13569977884E+03  0.95853866770E+03  0.10547360288E+04  0.14418263108E+04  0.17083387397E+03 0.  0.
         24    2    3    3    0    0 -0.75373888262E+02  0.56251101115E+03  0.52217024553E+03  0.77539887935E+03  0.80509602400E+02 0.  0.
         -6    2    1    2    0  501  0.13569977884E+03 -0.95853866770E+03 -0.36514854984E+04  0.37815707313E+04  0.17239502164E+03 0.  0.
        -24    2    5    5    0    0  0.12594800886E+03 -0.58449133025E+03 -0.24512860175E+04  0.25243884090E+04  0.78997997929E+02 0.  0.
          5    1    3    3  502    0 -0.60325890575E+02  0.39602765654E+03  0.53256578328E+03  0.66642743141E+03  0.47000000000E+01 0. -1.
        -13    1    4    4    0    0  0.32122361040E+01  0.27839642227E+03  0.25018089847E+03  0.37430651657E+03  0.00000000000E+00 0.  1.
         14    1    4    4    0    0 -0.78586124366E+02  0.28411458889E+03  0.27198934706E+03  0.40109236277E+03  0.00000000000E+00 0. -1.
         -5    1    5    5    0  501  0.97517699731E+01 -0.37404733745E+03 -0.12001994808E+04  0.12571823223E+04  0.47000000000E+01 0.  1.
         11    1    6    6    0    0  0.53348472934E+02 -0.40058333747E+03 -0.15674688114E+04  0.16187252838E+04  0.00000000000E+00 0. -1.
        -12    1    6    6    0    0  0.72599535929E+02 -0.18390799278E+03 -0.88381720615E+03  0.90566312518E+03  0.00000000000E+00 0.  1.
</event>
<event>
12    1  0.9656379E-001  0.5870234E+03  0.7818608E-02  0.9932700E-01
          1   -1    0    0  502    0  0.00000000000E+00  0.00000000000E+00  0.15855532537E+04  0.15855532537E+04  0.00000000000E+00 0. -1.
         -1   -1    0    0    0  501 -0.00000000000E+00 -0.00000000000E+00 -0.27309572772E+03  0.27309572772E+03  0.00000000000E+00 0.  1.
          6    2    1    2  502    0 -0.17175719394E+03  0.53439100416E+03  0.23643229375E+03  0.63298378186E+03  0.17231935343E+03 0.  0.
         24    2    3    3    0    0 -0.80821905304E+02  0.19610467228E+03  0.36598175600E+02  0.22966922244E+03  0.80120549256E+02 0.  0.
         -6    2    1    2    0  501  0.17175719394E+03 -0.53439100416E+03  0.10760252322E+04  0.12256651995E+04  0.17132017407E+03 0.  0.
        -24    2    5    5    0    0  0.14200669881E+03 -0.50337018238E+03  0.89332602774E+03  0.10379194335E+04  0.75484539162E+02 0.  0.
          5    1    3    3  502    0 -0.90935288632E+02  0.33828633188E+03  0.19983411815E+03  0.40331455941E+03  0.47000000000E+01 0. -1.
        -11    1    4    4    0    0 -0.20083513203E+02  0.10725374360E+03  0.52123387597E+02  0.12092791469E+03  0.00000000000E+00 0.  1.
         12    1    4    4    0    0 -0.60738392101E+02  0.88850928684E+02 -0.15525211997E+02  0.10874130775E+03  0.00000000000E+00 0. -1.
         -5    1    5    5    0  501  0.29750495129E+02 -0.31020821780E+02  0.18269920446E+03  0.18774576601E+03  0.47000000000E+01 0.  1.
         11    1    6    6    0    0  0.82708816367E+02 -0.16861132841E+03  0.29333654172E+03  0.34830569200E+03  0.00000000000E+00 0. -1.
        -12    1    6    6    0    0  0.59297882440E+02 -0.33475885398E+03  0.59998948602E+03  0.68961374154E+03  0.00000000000E+00 0.  1.
</event>
<event>
12    1  0.9656379E-001  0.1822065E+04  0.7818608E-02  0.8694653E-01
          1   -1    0    0  502    0  0.00000000000E+00  0.00000000000E+00  0.21941368570E+04  0.21941368570E+04  0.00000000000E+00 0. -1.
         -1   -1    0    0    0  501 -0.00000000000E+00 -0.00000000000E+00 -0.15965106634E+04  0.15965106634E+04  0.00000000000E+00 0.  1.
          6    2    1    2  502    0 -0.17902625445E+04 -0.28955939926E+03  0.73211795730E+03  0.19639726320E+04  0.17974195897E+03 0.  0.
         24    2    3    3    0    0 -0.47251601164E+03 -0.57496787328E+02  0.22281996192E+03  0.53228987424E+03  0.84300136258E+02 0.  0.
         -6    2    1    2    0  501  0.17902625445E+04  0.28955939926E+03 -0.13449176376E+03  0.18266748884E+04  0.17253547322E+03 0.  0.
        -24    2    5    5    0    0  0.10735510349E+04  0.10658399669E+03 -0.66022390766E+02  0.10837983637E+04  0.79924740810E+02 0.  0.
          5    1    3    3  502    0 -0.13177465328E+04 -0.23206261193E+03  0.50929799538E+03  0.14316827577E+04  0.47000000000E+01 0. -1.
        -11    1    4    4    0    0 -0.47352873350E+03 -0.55167792466E+02  0.21300793380E+03  0.52215450456E+03  0.00000000000E+00 0.  1.
         12    1    4    4    0    0  0.10127218532E+01 -0.23289948618E+01  0.98120281211E+01  0.10135369676E+02  0.00000000000E+00 0. -1.
         -5    1    5    5    0  501  0.71671150962E+03  0.18297540257E+03 -0.68469372990E+02  0.74287652473E+03  0.47000000000E+01 0.  1.
         11    1    6    6    0    0  0.66749902623E+03  0.10513286370E+03 -0.42530974661E+02  0.67706480699E+03  0.00000000000E+00 0. -1.
        -12    1    6    6    0    0  0.40605200864E+03  0.14511329978E+01 -0.23491416105E+02  0.40673355669E+03  0.00000000000E+00 0.  1.
</event>
<event>
12    1  0.9656379E-001  0.8240909E+03  0.7818608E-02  0.9525787E-01
          2   -1    0    0  502    0  0.00000000000E+00  0.00000000000E+00  0.25154698242E+04  0.25154698242E+04  0.00000000000E+00 0. -1.
         -2   -1    0    0    0  501 -0.00000000000E+00 -0.00000000000E+00 -0.35479024445E+03  0.35479024445E+03  0.00000000000E+00 0.  1.
          6    2    1    2  502    0  0.80595802115E+03 -0.20638596884E+02  0.37862614994E+03  0.90686529855E+03  0.17044830520E+03 0.  0.
         24    2    3    3    0    0  0.49788098720E+03 -0.57808019449E+00  0.30364423610E+03  0.58912600198E+03  0.83569207857E+02 0.  0.
         -6    2    1    2    0  501 -0.80595802115E+03  0.20638596884E+02  0.17820534298E+04  0.19633947701E+04  0.17091024843E+03 0.  0.
        -24    2    5    5    0    0 -0.75513001567E+03 -0.19313163194E+02  0.16417518087E+04  0.18088429531E+04  0.77262465056E+02 0.  0.
          5    1    3    3  502    0  0.30807703395E+03 -0.20060516690E+02  0.74981913849E+02  0.31773929657E+03  0.47000000000E+01 0. -1.
        -11    1    4    4    0    0  0.41329092074E+03  0.31239859742E+02  0.24926427833E+03  0.48365069467E+03  0.00000000000E+00 0.  1.
         12    1    4    4    0    0  0.84590066464E+02 -0.31817939937E+02  0.54379957766E+02  0.10547530731E+03  0.00000000000E+00 0. -1.
         -5    1    5    5    0  501 -0.50828005483E+02  0.39951760079E+02  0.14030162107E+03  0.15455181703E+03  0.47000000000E+01 0.  1.
         11    1    6    6    0    0 -0.43840053394E+03 -0.49288699122E+02  0.95859563047E+03  0.10552393031E+04  0.00000000000E+00 0. -1.
        -12    1    6    6    0    0 -0.31672948173E+03  0.29975535928E+02  0.68315617827E+03  0.75360364998E+03  0.00000000000E+00 0.  1.
</event>
<event>
12    1  0.9656379E-001  0.3117796E+03  0.7818608E-02  0.1079496E+00
         -2   -1    0    0    0  501 -0.00000000000E+00  0.00000000000E+00  0.37022717687E+03  0.37022717687E+03  0.00000000000E+00 0.  1.
          2   -1    0    0  502    0  0.00000000000E+00 -0.00000000000E+00 -0.31070622462E+03  0.31070622462E+03  0.00000000000E+00 0. -1.
          6    2    1    2  502    0  0.12670717373E+03  0.22735846975E+03  0.16382995084E+03  0.35271060302E+03  0.17267870468E+03 0.  0.
         24    2    3    3    0    0  0.14305598994E+03  0.12310292989E+03  0.12375715950E+03  0.23973087037E+03  0.80843726267E+02 0.  0.
         -6    2    1    2    0  501 -0.12670717373E+03 -0.22735846975E+03 -0.10430899859E+03  0.32822279847E+03  0.17059676610E+03 0.  0.
        -24    2    5    5    0    0 -0.12430246630E+03 -0.13301155622E+03 -0.12073647318E+03  0.23231099193E+03  0.79043809379E+02 0.  0.
          5    1    3    3  502    0 -0.16348816211E+02  0.10425553987E+03  0.40072791333E+02  0.11297973265E+03  0.47000000000E+01 0. -1.
        -13    1    4    4    0    0  0.69857916755E+02  0.10878807345E+03  0.64561457443E+02  0.14451005240E+03  0.00000000000E+00 0.  1.
         14    1    4    4    0    0  0.73198073181E+02  0.14314856439E+02  0.59195702059E+02  0.95220817969E+02  0.00000000000E+00 0. -1.
         -5    1    5    5    0  501 -0.24047074257E+01 -0.94346913539E+02  0.16427474589E+02  0.95911806539E+02  0.47000000000E+01 0.  1.
         13    1    6    6    0    0 -0.30504156873E+02 -0.76906088994E+02 -0.23466698034E+02  0.85998465262E+02  0.00000000000E+00 0. -1.
        -14    1    6    6    0    0 -0.93798309427E+02 -0.56105467221E+02 -0.97269775142E+02  0.14631252667E+03  0.00000000000E+00 0.  1.
</event>
<event>
12    1  0.1366494E+000  0.7399996E+03  0.7818608E-02  0.9651171E-01
         -2   -1    0    0    0  501 -0.00000000000E+00  0.00000000000E+00  0.56364824054E+03  0.56364824054E+03  0.00000000000E+00 0.  1.
          2   -1    0    0  502    0  0.00000000000E+00 -0.00000000000E+00 -0.10525963155E+04  0.10525963155E+04  0.00000000000E+00 0. -1.
          6    2    1    2  502    0 -0.48373335704E+03  0.53278251249E+03 -0.20137689451E+02  0.74006208322E+03  0.17155522189E+03 0.  0.
         24    2    3    3    0    0 -0.28371715741E+03  0.40728985835E+03  0.42239823720E+01  0.50263742694E+03  0.79032188443E+02 0.  0.
         -6    2    1    2    0  501  0.48373335704E+03 -0.53278251249E+03 -0.46881038555E+03  0.87618247285E+03  0.17337064863E+03 0.  0.
        -24    2    5    5    0    0  0.26218969007E+03 -0.23869221830E+03 -0.30071014966E+03  0.47139799091E+03  0.77923443676E+02 0.  0.
          5    1    3    3  502    0 -0.20001619963E+03  0.12549265414E+03 -0.24361671823E+02  0.23742465628E+03  0.47000000000E+01 0. -1.
        -11    1    4    4    0    0 -0.23963597606E+03  0.28713635049E+03 -0.79088708303E+01  0.37407918284E+03  0.00000000000E+00 0.  1.
         12    1    4    4    0    0 -0.44081181354E+02  0.12015350785E+03  0.12132853202E+02  0.12855824410E+03  0.00000000000E+00 0. -1.
         -5    1    5    5    0  501  0.22154366697E+03 -0.29409029419E+03 -0.16810023589E+03  0.40478448194E+03  0.47000000000E+01 0.  1.
         11    1    6    6    0    0  0.15542291562E+03 -0.18436444295E+03 -0.17647222489E+03  0.29881261132E+03  0.00000000000E+00 0. -1.
        -12    1    6    6    0    0  0.10676677445E+03 -0.54327775354E+02 -0.12423792476E+03  0.17258537960E+03  0.00000000000E+00 0.  1.
</event>
<event>
12    1  0.9656379E-001  0.1819667E+03  0.7818608E-02  0.1165913E+00
         -1   -1    0    0    0  501 -0.00000000000E+00  0.00000000000E+00  0.58841158819E+02  0.58841158819E+02  0.00000000000E+00 0.  1.
          1   -1    0    0  502    0  0.00000000000E+00 -0.00000000000E+00 -0.80923830538E+03  0.80923830538E+03  0.00000000000E+00 0. -1.
          6    2    1    2  502    0 -0.16051488041E+02 -0.62872894504E+02 -0.13807345446E+03  0.22976223918E+03  0.17180150347E+03 0.  0.
         24    2    3    3    0    0 -0.16157016769E+02 -0.88727290255E+02 -0.42419106504E+02  0.13056392670E+03  0.84344395976E+02 0.  0.
         -6    2    1    2    0  501  0.16051488041E+02  0.62872894504E+02 -0.61232369210E+03  0.63831722502E+03  0.16821987015E+03 0.  0.
        -24    2    5    5    0    0  0.10084968673E+02  0.46458898960E+02 -0.61321771707E+03  0.62020899805E+03  0.79769021850E+02 0.  0.
          5    1    3    3  502    0  0.10552872799E+00  0.25854395751E+02 -0.95654347955E+02  0.99198312479E+02  0.47000000000E+01 0. -1.
        -13    1    4    4    0    0  0.29824468478E+02 -0.65076943035E+02 -0.21063539897E+02  0.74620239532E+02  0.00000000000E+00 0.  1.
         14    1    4    4    0    0 -0.45981485247E+02 -0.23650347220E+02 -0.21355566607E+02  0.55943687170E+02  0.00000000000E+00 0. -1.
         -5    1    5    5    0  501  0.59665193680E+01  0.16413995544E+02  0.89402497345E+00  0.18108226963E+02  0.47000000000E+01 0.  1.
         13    1    6    6    0    0 -0.26744364789E+02  0.19922180355E+01 -0.33451947939E+03  0.33559277715E+03  0.00000000000E+00 0. -1.
        -14    1    6    6    0    0  0.36829333462E+02  0.44466680924E+02 -0.27869823768E+03  0.28461622091E+03  0.00000000000E+00 0.  1.
</event>
<event>
12    1  0.9656379E-001  0.1132057E+04  0.7818608E-02  0.9174498E-01
          2   -1    0    0  502    0  0.00000000000E+00  0.00000000000E+00  0.32337683999E+04  0.32337683999E+04  0.00000000000E+00 0. -1.
         -2   -1    0    0    0  501 -0.00000000000E+00 -0.00000000000E+00 -0.12050851819E+04  0.12050851819E+04  0.00000000000E+00 0.  1.
          6    2    1    2  502    0 -0.81198601461E+02 -0.11158901359E+04 -0.80379261189E+03  0.13886440280E+04  0.17448686296E+03 0.  0.
         24    2    3    3    0    0 -0.66108165016E+01 -0.89446269848E+03 -0.65632008112E+03  0.11123042281E+04  0.79733462362E+02 0.  0.
         -6    2    1    2    0  501  0.81198601461E+02  0.11158901359E+04  0.28324758299E+04  0.30502095539E+04  0.17045523554E+03 0.  0.
        -24    2    5    5    0    0  0.10422420030E+03  0.86668074117E+03  0.20691510403E+04  0.22468899880E+04  0.71626805219E+02 0.  0.
          5    1    3    3  502    0 -0.74587784960E+02 -0.22142743741E+03 -0.14747253077E+03  0.27633979995E+03  0.47000000000E+01 0. -1.
        -13    1    4    4    0    0 -0.31510866828E+02 -0.57613270059E+03 -0.38901748445E+03  0.69588535451E+03  0.00000000000E+00 0.  1.
         14    1    4    4    0    0  0.24900050327E+02 -0.31832999789E+03 -0.26730259667E+03  0.41641887355E+03  0.00000000000E+00 0. -1.
         -5    1    5    5    0  501 -0.23025598844E+02  0.24920939472E+03  0.76332478954E+03  0.80331956590E+03  0.47000000000E+01 0.  1.
         11    1    6    6    0    0  0.56328697191E+02  0.59296202124E+03  0.14855382323E+04  0.16005001469E+04  0.00000000000E+00 0. -1.
        -12    1    6    6    0    0  0.47895503114E+02  0.27371871994E+03  0.58361280808E+03  0.64638984105E+03  0.00000000000E+00 0.  1.
</event>
<event>
12    1  0.9656379E-001  0.2091640E+03  0.7818608E-02  0.1142230E+00
          2   -1    0    0  502    0  0.00000000000E+00  0.00000000000E+00  0.11285985574E+04  0.11285985574E+04  0.00000000000E+00 0. -1.
         -2   -1    0    0    0  501 -0.00000000000E+00 -0.00000000000E+00 -0.48069336672E+02  0.48069336672E+02  0.00000000000E+00 0.  1.
          6    2    1    2  502    0  0.10838952991E+03  0.41651414876E+02  0.27927850203E+03  0.34830375054E+03  0.17273068746E+03 0.  0.
         24    2    3    3    0    0  0.87993828753E+02  0.86311790915E+02  0.14938871660E+03  0.20936498643E+03  0.79524019937E+02 0.  0.
         -6    2    1    2    0  501 -0.10838952991E+03 -0.41651414876E+02  0.80125071868E+03  0.82836414351E+03  0.17521789153E+03 0.  0.
        -24    2    5    5    0    0 -0.77456939719E+02  0.40741478827E+02  0.53554406938E+03  0.54842213604E+03  0.79372182998E+02 0.  0.
          5    1    3    3  502    0  0.20395701159E+02 -0.44660376040E+02  0.12988978542E+03  0.13893876411E+03  0.47000000000E+01 0. -1.
        -13    1    4    4    0    0  0.63455461838E+02  0.79182163292E+01  0.56128274962E+02  0.85086291711E+02  0.00000000000E+00 0.  1.
         14    1    4    4    0    0  0.24538366916E+02  0.78393574586E+02  0.93260441639E+02  0.12427869472E+03  0.00000000000E+00 0. -1.
         -5    1    5    5    0  501 -0.30932590193E+02 -0.82392893703E+02  0.26570664930E+03  0.27994200748E+03  0.47000000000E+01 0.  1.
         13    1    6    6    0    0 -0.12074757561E+01  0.91079059761E+01  0.27412133095E+03  0.27427525596E+03  0.00000000000E+00 0. -1.
        -14    1    6    6    0    0 -0.76249463963E+02  0.31633572851E+02  0.26142273843E+03  0.27414688007E+03  0.00000000000E+00 0.  1.
</event>
<event>
12    1  0.9656379E-001  0.3460015E+03  0.7818608E-02  0.1064268E+00
         -1   -1    0    0    0  501 -0.00000000000E+00  0.00000000000E+00  0.10568330486E+04  0.10568330486E+04  0.00000000000E+00 0.  1.
          1   -1    0    0  502    0  0.00000000000E+00 -0.00000000000E+00 -0.55064074855E+03  0.55064074855E+03  0.00000000000E+00 0. -1.
          6    2    1    2  502    0 -0.18050950136E+03 -0.23947439438E+03  0.96945540073E+03  0.10294635078E+04  0.17326186635E+03 0.  0.
         24    2    3    3    0    0 -0.19022704508E+03 -0.16629002630E+03  0.65431280261E+03  0.70575479691E+03  0.78268053310E+02 0.  0.
         -6    2    1    2    0  501  0.18050950136E+03  0.23947439438E+03 -0.46326310067E+03  0.57801028933E+03  0.17190558013E+03 0.  0.
        -24    2    5    5    0    0  0.88122181442E+02  0.99984158523E+02 -0.32913772546E+03  0.36352334553E+03  0.77815355868E+02 0.  0.
          5    1    3    3  502    0  0.97175437204E+01 -0.73184368083E+02  0.31514259812E+03  0.32370871094E+03  0.47000000000E+01 0. -1.
        -13    1    4    4    0    0 -0.50658327922E+02 -0.51161887833E+02  0.29245423619E+03  0.30118646254E+03  0.00000000000E+00 0.  1.
         14    1    4    4    0    0 -0.13956871716E+03 -0.11512813847E+03  0.36185856642E+03  0.40456833437E+03  0.00000000000E+00 0. -1.
         -5    1    5    5    0  501  0.92387319922E+02  0.13949023586E+03 -0.13412537520E+03  0.21448694379E+03  0.47000000000E+01 0.  1.
         13    1    6    6    0    0  0.54851632479E+02  0.15471044572E+02 -0.18098119785E+03  0.18974258557E+03  0.00000000000E+00 0. -1.
        -14    1    6    6    0    0  0.33270548964E+02  0.84513113952E+02 -0.14815652762E+03  0.17378075996E+03  0.00000000000E+00 0.  1.
</event>
<event>
12    1  0.9656379E-001  0.2276690E+04  0.7818608E-02  0.8487169E-01
         -1   -1    0    0    0  501 -0.00000000000E+00  0.00000000000E+00  0.25456037775E+04  0.25456037775E+04  0.00000000000E+00 0.  1.
          1   -1    0    0  502    0  0.00000000000E+00 -0.00000000000E+00 -0.20371134212E+04  0.20371134212E+04  0.00000000000E+00 0. -1.
          6    2    1    2  502    0  0.13565137681E+04  0.18203403742E+04  0.30316870683E+03  0.22966544744E+04  0.17012298232E+03 0.  0.
         24    2    3    3    0    0  0.10750899118E+04  0.15323894102E+04  0.26382854276E+03  0.18920745897E+04  0.79404850959E+02 0.  0.
         -6    2    1    2    0  501 -0.13565137681E+04 -0.18203403742E+04  0.20532164947E+03  0.22860627242E+04  0.17365804983E+03 0.  0.
        -24    2    5    5    0    0 -0.10647676548E+04 -0.13224783386E+04  0.15752951171E+03  0.17070216379E+04  0.80176122597E+02 0.  0.
          5    1    3    3  502    0  0.28142385626E+03  0.28795096407E+03  0.39340164073E+02  0.40457988468E+03  0.47000000000E+01 0. -1.
        -13    1    4    4    0    0  0.36413723762E+03  0.45577764375E+03  0.87866138072E+02  0.58995732607E+03  0.00000000000E+00 0.  1.
         14    1    4    4    0    0  0.71095267420E+03  0.10766117664E+04  0.17596240468E+03  0.13021172637E+04  0.00000000000E+00 0. -1.
         -5    1    5    5    0  501 -0.29174611327E+03 -0.49786203566E+03  0.47792137753E+02  0.57904108627E+03  0.47000000000E+01 0.  1.
         13    1    6    6    0    0 -0.27006518145E+03 -0.36471865774E+03  0.72643366391E+02  0.45959978265E+03  0.00000000000E+00 0. -1.
        -14    1    6    6    0    0 -0.79470247336E+03 -0.95775968082E+03  0.84886145322E+02  0.12474218553E+04  0.00000000000E+00 0.  1.
</event>
<event>
12    1  0.9656379E-001  0.1904998E+03  0.7818608E-02  0.1158011E+00
          1   -1    0    0  502    0  0.00000000000E+00  0.00000000000E+00  0.23523650336E+04  0.23523650336E+04  0.00000000000E+00 0. -1.
         -1   -1    0    0    0  501 -0.00000000000E+00 -0.00000000000E+00 -0.37060260590E+02  0.37060260590E+02  0.00000000000E+00 0.  1.
          6    2    1    2  502    0  0.35287456263E+02  0.70592458697E+02  0.23629039587E+03  0.30138026949E+03  0.16961254630E+03 0.  0.
         24    2    3    3    0    0 -0.46113822577E+02  0.46513910460E+02  0.11742376167E+03  0.15523886055E+03  0.77593398682E+02 0.  0.
         -6    2    1    2    0  501 -0.35287456263E+02 -0.70592458697E+02  0.20790143771E+04  0.20880450247E+04  0.17720819689E+03 0.  0.
        -24    2    5    5    0    0 -0.61970463080E+02  0.14474764701E+02  0.90189821773E+03  0.90754811319E+03  0.78570512941E+02 0.  0.
          5    1    3    3  502    0  0.81401278840E+02  0.24078548237E+02  0.11886663420E+03  0.14614140894E+03  0.47000000000E+01 0. -1.
        -11    1    4    4    0    0 -0.27390414335E+02  0.66244171057E+02  0.67898007778E+02  0.98735325272E+02  0.00000000000E+00 0.  1.
         12    1    4    4    0    0 -0.18723408242E+02 -0.19730260597E+02  0.49525753896E+02  0.56503535274E+02  0.00000000000E+00 0. -1.
         -5    1    5    5    0  501  0.26683006816E+02 -0.85067223398E+02  0.11771161594E+04  0.11804969115E+04  0.47000000000E+01 0.  1.
         11    1    6    6    0    0 -0.35664673771E+02 -0.29226145409E+02  0.30386599363E+03  0.30734456009E+03  0.00000000000E+00 0. -1.
        -12    1    6    6    0    0 -0.26305789309E+02  0.43700910110E+02  0.59803222410E+03  0.60020355310E+03  0.00000000000E+00 0.  1.
</event>
<event>
12    1  0.9656379E-001  0.3913751E+03  0.7818608E-02  0.1046808E+00
         -1   -1    0    0    0  501 -0.00000000000E+00  0.00000000000E+00  0.12484267764E+03  0.12484267764E+03  0.00000000000E+00 0.  1.
          1   -1    0    0  502    0  0.00000000000E+00 -0.00000000000E+00 -0.17017808879E+04  0.17017808879E+04  0.00000000000E+00 0. -1.
          6    2    1    2  502    0 -0.28292473029E+03 -0.20931883177E+03 -0.30639496470E+03  0.49724062610E+03  0.17178355423E+03 0.  0.
         24    2    3    3    0    0 -0.22462451727E+03 -0.21763591129E+03 -0.29399681237E+03  0.43687596068E+03  0.81270632431E+02 0.  0.
         -6    2    1    2    0  501  0.28292473029E+03  0.20931883177E+03 -0.12705432455E+04  0.13293829394E+04  0.17064021959E+03 0.  0.
        -24    2    5    5    0    0  0.23156745505E+03  0.23093745330E+03 -0.11197249706E+04  0.11685315280E+04  0.68748298100E+02 0.  0.
          5    1    3    3  502    0 -0.58300213013E+02  0.83170795180E+01 -0.12398152331E+02  0.60364665412E+02  0.47000000000E+01 0. -1.
        -13    1    4    4    0    0 -0.20247623478E+03 -0.20652703956E+03 -0.29354946466E+03  0.41209383874E+03  0.00000000000E+00 0.  1.
         14    1    4    4    0    0 -0.22148282487E+02 -0.11108871730E+02 -0.44734771200E+00  0.24782121948E+02  0.00000000000E+00 0. -1.
         -5    1    5    5    0  501  0.51357275238E+02 -0.21618621527E+02 -0.15081827491E+03  0.16085141144E+03  0.47000000000E+01 0.  1.
         13    1    6    6    0    0  0.12288859018E+03  0.15112766291E+03 -0.56421407331E+03  0.59689085821E+03  0.00000000000E+00 0. -1.
        -14    1    6    6    0    0  0.10867886487E+03  0.79809790384E+02 -0.55551089731E+03  0.57164066977E+03  0.00000000000E+00 0.  1.
</event>
<event>
12    1  0.9656379E-001  0.6432544E+03  0.7818608E-02  0.9819520E-01
          1   -1    0    0  502    0  0.00000000000E+00  0.00000000000E+00  0.15786707935E+04  0.15786707935E+04  0.00000000000E+00 0. -1.
         -1   -1    0    0    0  501 -0.00000000000E+00 -0.00000000000E+00 -0.30265635335E+03  0.30265635335E+03  0.00000000000E+00 0.  1.
          6    2    1    2  502    0 -0.45824660880E+03 -0.41335560982E+03  0.29622755688E+03  0.71085503767E+03  0.19160194278E+03 0.  0.
         24    2    3    3    0    0 -0.18435214779E+03 -0.26399378779E+03  0.18472338037E+03  0.37952076381E+03  0.78961057003E+02 0.  0.
         -6    2    1    2    0  501  0.45824660880E+03  0.41335560982E+03  0.97978688327E+03  0.11704721092E+04  0.17079170673E+03 0.  0.
        -24    2    5    5    0    0  0.12415617780E+03  0.86159166818E+02  0.23200098843E+03  0.28849718724E+03  0.81043259448E+02 0.  0.
          5    1    3    3  502    0 -0.27389446102E+03 -0.14936182204E+03  0.11150417651E+03  0.33133427386E+03  0.47000000000E+01 0. -1.
        -11    1    4    4    0    0 -0.12544717430E+03 -0.11321518087E+03  0.82245847196E+02  0.18793363217E+03  0.00000000000E+00 0.  1.
         12    1    4    4    0    0 -0.58904973490E+02 -0.15077860691E+03  0.10247753317E+03  0.19158713164E+03  0.00000000000E+00 0. -1.
         -5    1    5    5    0  501  0.33409043100E+03  0.32719644300E+03  0.74778589484E+03  0.88197492194E+03  0.47000000000E+01 0.  1.
         11    1    6    6    0    0  0.46205813665E+02  0.33631695459E+02  0.16057517515E+03  0.17044194035E+03  0.00000000000E+00 0. -1.
        -12    1    6    6    0    0  0.77950364137E+02  0.52527471359E+02  0.71425813280E+02  0.11805524689E+03  0.00000000000E+00 0.  1.
</event>
<event>
12    1  0.9656379E-001  0.2228474E+03  0.7818608E-02  0.1131778E+00
         -2   -1    0    0    0  501 -0.00000000000E+00  0.00000000000E+00  0.32912052866E+02  0.32912052866E+02  0.00000000000E+00 0.  1.
          2   -1    0    0  502    0  0.00000000000E+00 -0.00000000000E+00 -0.23317767892E+04  0.23317767892E+04  0.00000000000E+00 0. -1.
          6    2    1    2  502    0 -0.13326958505E+03  0.46235973362E+02 -0.44124538725E+03  0.49353939708E+03  0.17025010182E+03 0.  0.
         24    2    3    3    0    0 -0.27031695123E+02  0.44270692568E+02 -0.27868714420E+03  0.29927765621E+03  0.95968663633E+02 0.  0.
         -6    2    1    2    0  501  0.13326958505E+03 -0.46235973362E+02 -0.18576193491E+04  0.18711494450E+04  0.17479145247E+03 0.  0.
        -24    2    5    5    0    0  0.14783910329E+03  0.30801740189E+01 -0.15632588953E+04  0.15722940954E+04  0.80401869441E+02 0.  0.
          5    1    3    3  502    0 -0.10623788992E+03  0.19652807934E+01 -0.16255824305E+03  0.19426174087E+03  0.47000000000E+01 0. -1.
        -13    1    4    4    0    0 -0.73441805634E+01  0.17460331491E+02 -0.33482136628E+00  0.18944980055E+02  0.00000000000E+00 0.  1.
         14    1    4    4    0    0 -0.19687514560E+02  0.26810361077E+02 -0.27835232283E+03  0.28033267615E+03  0.00000000000E+00 0. -1.
         -5    1    5    5    0  501 -0.14569518245E+02 -0.49316147381E+02 -0.29436045379E+03  0.29885534964E+03  0.47000000000E+01 0.  1.
         11    1    6    6    0    0  0.15027038933E+03 -0.12867017573E+02 -0.14619397222E+04  0.14696987791E+04  0.00000000000E+00 0. -1.
        -12    1    6    6    0    0 -0.24312860437E+01  0.15947191592E+02 -0.10131917314E+03  0.10259531626E+03  0.00000000000E+00 0.  1.
</event>
<event>
12    1  0.9656379E-001  0.8033233E+03  0.7818608E-02  0.9555219E-01
          2   -1    0    0  502    0  0.00000000000E+00  0.00000000000E+00  0.25293475003E+04  0.25293475003E+04  0.00000000000E+00 0. -1.
         -2   -1    0    0    0  501 -0.00000000000E+00 -0.00000000000E+00 -0.27237466819E+03  0.27237466819E+03  0.00000000000E+00 0.  1.
          6    2    1    2  502    0  0.48442910348E+03 -0.61746004219E+03  0.14808876222E+04  0.16847354766E+04  0.17139724856E+03 0.  0.
         24    2    3    3    0    0  0.40495901079E+03 -0.45150635673E+03  0.12287801437E+04  0.13725874476E+04  0.79030811407E+02 0.  0.
         -6    2    1    2    0  501 -0.48442910348E+03  0.61746004219E+03  0.77608520999E+03  0.11169866919E+04  0.17153004592E+03 0.  0.
        -24    2    5    5    0    0 -0.36229183951E+03  0.52605815271E+03  0.68069901671E+03  0.93700771388E+03  0.81484645897E+02 0.  0.
          5    1    3    3  502    0  0.79470092692E+02 -0.16595368546E+03  0.25210747849E+03  0.31214802908E+03  0.47000000000E+01 0. -1.
        -11    1    4    4    0    0  0.15701376776E+03 -0.22629834102E+03  0.51119880147E+03  0.58067932376E+03  0.00000000000E+00 0.  1.
         12    1    4    4    0    0  0.24794524303E+03 -0.22520801571E+03  0.71758134220E+03  0.79190812381E+03  0.00000000000E+00 0. -1.
         -5    1    5    5    0  501 -0.12213726397E+03  0.91401889479E+02  0.95386193290E+02  0.17997897800E+03  0.47000000000E+01 0.  1.
         11    1    6    6    0    0 -0.14229903119E+03  0.14673735540E+03  0.19229062343E+03  0.28063597347E+03  0.00000000000E+00 0. -1.
        -12    1    6    6    0    0 -0.21999280832E+03  0.37932079731E+03  0.48840839327E+03  0.65637174041E+03  0.00000000000E+00 0.  1.
</event>
<event>
12    1  0.9656379E-001  0.3070049E+03  0.7818608E-02  0.1081790E+00
          2   -1    0    0  502    0  0.00000000000E+00  0.00000000000E+00  0.25662566737E+04  0.25662566737E+04  0.00000000000E+00 0. -1.
         -2   -1    0    0    0  501 -0.00000000000E+00 -0.00000000000E+00 -0.19065633971E+03  0.19065633971E+03  0.00000000000E+00 0.  1.
          6    2    1    2  502    0  0.23883596191E+02 -0.25345519028E+03 -0.50786782444E+02  0.31118120948E+03  0.17159396322E+03 0.  0.
         24    2    3    3    0    0  0.39549601639E+02 -0.25674830490E+03 -0.74529915531E+02  0.28216234149E+03  0.81098801379E+02 0.  0.
         -6    2    1    2    0  501 -0.23883596191E+02  0.25345519028E+03  0.24263871165E+04  0.24457318040E+04  0.17157988907E+03 0.  0.
        -24    2    5    5    0    0 -0.42324334969E+02  0.26775258355E+03  0.22808445142E+04  0.22982556521E+04  0.79022459014E+02 0.  0.
          5    1    3    3  502    0 -0.15666005449E+02  0.32931146223E+01  0.23743133087E+02  0.29018867990E+02  0.47000000000E+01 0. -1.
        -11    1    4    4    0    0 -0.82893099290E+01 -0.17064580249E+03 -0.27629468776E+02  0.17306672156E+03  0.00000000000E+00 0.  1.
         12    1    4    4    0    0  0.47838911568E+02 -0.86102502408E+02 -0.46900446755E+02  0.10909561993E+03  0.00000000000E+00 0. -1.
         -5    1    5    5    0  501  0.18440738778E+02 -0.14297393271E+02  0.14554260223E+03  0.14747615185E+03  0.47000000000E+01 0.  1.
         11    1    6    6    0    0  0.10195338681E+02  0.17508059212E+03  0.14819075171E+04  0.14922489900E+04  0.00000000000E+00 0. -1.
        -12    1    6    6    0    0 -0.52519673650E+02  0.92671991423E+02  0.79893699710E+03  0.80600666217E+03  0.00000000000E+00 0.  1.
</event>
<event>
12    1  0.1036170E+000  0.1083869E+04  0.7818608E-02  0.9221058E-01
         -2   -1    0    0    0  501 -0.00000000000E+00  0.00000000000E+00  0.75188527139E+03  0.75188527139E+03  0.00000000000E+00 0.  1.
          2   -1    0    0  502    0  0.00000000000E+00 -0.00000000000E+00 -0.28555684047E+04  0.28555684047E+04  0.00000000000E+00 0. -1.
          6    2    1    2  502    0  0.36363063030E+03 -0.10065171300E+04  0.16181636979E+03  0.10961401303E+04  0.17330516281E+03 0.  0.
         24    2    3    3    0    0  0.21979643193E+03 -0.42982212323E+03  0.89471576193E+02  0.49737367615E+03  0.79485103504E+02 0.  0.
         -6    2    1    2    0  501 -0.36363063030E+03  0.10065171300E+04 -0.22654995031E+04  0.25113135458E+04  0.17001105378E+03 0.  0.
        -24    2    5    5    0    0 -0.30067492197E+03  0.84718333107E+03 -0.20131778498E+04  0.22062906165E+04  0.81903749271E+02 0.  0.
          5    1    3    3  502    0  0.14383419837E+03 -0.57669500678E+03  0.72344793596E+02  0.59876645416E+03  0.47000000000E+01 0. -1.
        -13    1    4    4    0    0  0.12302215793E+03 -0.31047223857E+03  0.80127951436E+02  0.34343551195E+03  0.00000000000E+00 0.  1.
         14    1    4    4    0    0  0.96774273998E+02 -0.11934988466E+03  0.93436247568E+01  0.15393816420E+03  0.00000000000E+00 0. -1.
         -5    1    5    5    0  501 -0.62955708330E+02  0.15933379893E+03 -0.25232165322E+03  0.30502292926E+03  0.47000000000E+01 0.  1.
         13    1    6    6    0    0 -0.83265564405E+02  0.14189033280E+03 -0.38115210793E+03  0.41514208428E+03  0.00000000000E+00 0. -1.
        -14    1    6    6    0    0 -0.21740935757E+03  0.70529299827E+03 -0.16320257419E+04  0.17911485322E+04  0.00000000000E+00 0.  1.
</event>
<event>
12    1  0.9656379E-001  0.1857860E+03  0.7818608E-02  0.1162318E+00
         -2   -1    0    0    0  501 -0.00000000000E+00  0.00000000000E+00  0.17523185664E+03  0.17523185664E+03  0.00000000000E+00 0.  1.
          2   -1    0    0  502    0  0.00000000000E+00 -0.00000000000E+00 -0.30311543309E+03  0.30311543309E+03  0.00000000000E+00 0. -1.
          6    2    1    2  502    0 -0.65743820030E+02 -0.14355428856E+02  0.77219274802E+02  0.20267082505E+03  0.17488372913E+03 0.  0.
         24    2    3    3    0    0  0.32541395568E+02 -0.19625390673E+02  0.46974775361E+02  0.99595241863E+02  0.79173760154E+02 0.  0.
         -6    2    1    2    0  501  0.65743820030E+02  0.14355428856E+02 -0.20510285126E+03  0.27567646468E+03  0.17147012969E+03 0.  0.
        -24    2    5    5    0    0  0.10294059442E+03  0.38905187112E+02 -0.12105190851E+03  0.18042447451E+03  0.76085786343E+02 0.  0.
          5    1    3    3  502    0 -0.98285215598E+02  0.52699618177E+01  0.30244499441E+02  0.10307558319E+03  0.47000000000E+01 0. -1.
        -11    1    4    4    0    0  0.37813567210E+02 -0.15302586355E+02  0.66999972255E+02  0.78441260166E+02  0.00000000000E+00 0.  1.
         12    1    4    4    0    0 -0.52721716421E+01 -0.43228043185E+01 -0.20025196894E+02  0.21153981697E+02  0.00000000000E+00 0. -1.
         -5    1    5    5    0  501 -0.37196774389E+02 -0.24549758256E+02 -0.84050942742E+02  0.95251990169E+02  0.47000000000E+01 0.  1.
         13    1    6    6    0    0  0.28148389355E+02  0.50551623358E+02 -0.57769493575E+02  0.81762539316E+02  0.00000000000E+00 0. -1.
        -14    1    6    6    0    0  0.74792205064E+02 -0.11646436247E+02 -0.63282414939E+02  0.98661935194E+02  0.00000000000E+00 0.  1.
</event>
<event>
12    1  0.9656379E-001  0.1764512E+03  0.7818608E-02  0.1171282E+00
         -2   -1    0    0    0  501 -0.00000000000E+00  0.00000000000E+00  0.10337807134E+04  0.10337807134E+04  0.00000000000E+00 0.  1.
          2   -1    0    0  502    0  0.00000000000E+00 -0.00000000000E+00 -0.99351359079E+03  0.99351359079E+03  0.00000000000E+00 0. -1.
          6    2    1    2  502    0 -0.97958264210E+01 -0.21818459590E+02  0.10182926447E+04  0.10332557902E+04  0.17356731964E+03 0.  0.
         24    2    3    3    0    0 -0.24204157115E+02  0.53641542165E+02  0.50102887943E+03  0.51029718317E+03  0.76876660069E+02 0.  0.
         -6    2    1    2    0  501  0.97958264210E+01  0.21818459590E+02 -0.97802552201E+03  0.99403851401E+03  0.17608703025E+03 0.  0.
        -24    2    5    5    0    0 -0.30312233459E+02 -0.96576711535E+01 -0.87592764824E+03  0.87982175034E+03  0.76321460306E+02 0.  0.
          5    1    3    3  502    0  0.14408330694E+02 -0.75460001755E+02  0.51726376523E+03  0.52295860704E+03  0.47000000000E+01 0. -1.
        -11    1    4    4    0    0  0.25423996358E+02  0.14832751687E+02  0.96416286616E+02  0.10080917834E+03  0.00000000000E+00 0.  1.
         12    1    4    4    0    0 -0.49628153473E+02  0.38808790479E+02  0.40461259282E+03  0.40948800483E+03  0.00000000000E+00 0. -1.
         -5    1    5    5    0  501  0.40108059880E+02  0.31476130743E+02 -0.10209787377E+03  0.11421676367E+03  0.47000000000E+01 0.  1.
         13    1    6    6    0    0  0.13706715981E+02  0.15879489245E+02 -0.97434071821E+02  0.99666597179E+02  0.00000000000E+00 0. -1.
        -14    1    6    6    0    0 -0.44018949440E+02 -0.25537160398E+02 -0.77849357642E+03  0.78015515316E+03  0.00000000000E+00 0.  1.
</event>
<event>
12    1  0.9656379E-001  0.4320273E+03  0.7818608E-02  0.1033221E+00
          1   -1    0    0  502    0  0.00000000000E+00  0.00000000000E+00  0.22583340640E+03  0.22583340640E+03  0.00000000000E+00 0. -1.
         -1   -1    0    0    0  501 -0.00000000000E+00 -0.00000000000E+00 -0.83892153161E+03  0.83892153161E+03  0.00000000000E+00 0.  1.
          6    2    1    2  502    0 -0.37430640663E+03 -0.13240582590E+03 -0.37169838810E+03  0.57028009581E+03  0.17153165068E+03 0.  0.
         24    2    3    3    0    0 -0.32669859574E+03 -0.57148445048E+02 -0.31768491517E+03  0.46602213550E+03  0.79088609923E+02 0.  0.
         -6    2    1    2    0  501  0.37430640663E+03  0.13240582590E+03 -0.24138973711E+03  0.49447484220E+03  0.16911468183E+03 0.  0.
        -24    2    5    5    0    0  0.11053636276E+03  0.25850668142E+02 -0.48169482152E+02  0.15054927668E+03  0.86361109097E+02 0.  0.
          5    1    3    3  502    0 -0.47607810886E+02 -0.75257380848E+02 -0.54013472925E+02  0.10425796030E+03  0.47000000000E+01 0. -1.
        -11    1    4    4    0    0 -0.17439266507E+03 -0.17795665674E+02 -0.21820708150E+03  0.27989965660E+03  0.00000000000E+00 0.  1.
         12    1    4    4    0    0 -0.15230593067E+03 -0.39352779374E+02 -0.99477833679E+02  0.18612247891E+03  0.00000000000E+00 0. -1.
         -5    1    5    5    0  501  0.26377004387E+03  0.10655515775E+03 -0.19322025496E+03  0.34392556551E+03  0.47000000000E+01 0.  1.
         13    1    6    6    0    0  0.24018025117E+02  0.37616436717E+02 -0.44699419345E+02  0.63165654683E+02  0.00000000000E+00 0. -1.
        -14    1    6    6    0    0  0.86518337640E+02 -0.11765768574E+02 -0.34700628067E+01  0.87383622001E+02  0.00000000000E+00 0.  1.
</event>
<event>
12    1  0.9656379E-001  0.4449258E+03  0.7818608E-02  0.1029246E+00
          2   -1    0    0  502    0  0.00000000000E+00  0.00000000000E+00  0.12024655845E+04  0.12024655845E+04  0.00000000000E+00 0. -1.
         -2   -1    0    0    0  501 -0.00000000000E+00 -0.00000000000E+00 -0.37285651935E+03  0.37285651935E+03  0.00000000000E+00 0.  1.
          6    2    1    2  502    0  0.82616211409E+02 -0.40269812653E+03  0.10032572595E+04  0.10973201627E+04  0.16910112701E+03 0.  0.
         24    2    3    3    0    0 -0.18064671584E+02 -0.22944182844E+03  0.54206268403E+03  0.59445148053E+03  0.81060004266E+02 0.  0.
         -6    2    1    2    0  501 -0.82616211409E+02  0.40269812653E+03 -0.17364819435E+03  0.47800194118E+03  0.17129197551E+03 0.  0.
        -24    2    5    5    0    0 -0.95620893931E+02  0.39949105459E+03 -0.18729380213E+03  0.45831185002E+03  0.78957745053E+02 0.  0.
          5    1    3    3  502    0  0.10068088299E+03 -0.17325629808E+03  0.46119457551E+03  0.50286868217E+03  0.47000000000E+01 0. -1.
        -13    1    4    4    0    0  0.25101154857E+02 -0.13681230968E+03  0.26781683054E+03  0.30178391404E+03  0.00000000000E+00 0.  1.
         14    1    4    4    0    0 -0.43165826441E+02 -0.92629518767E+02  0.27424585349E+03  0.29266756649E+03  0.00000000000E+00 0. -1.
         -5    1    5    5    0  501  0.13004682521E+02  0.32070719410E+01  0.13645607785E+02  0.19690091156E+02  0.47000000000E+01 0.  1.
         13    1    6    6    0    0 -0.31555692900E+02  0.96001403551E+02 -0.83935027639E+02  0.13136635834E+03  0.00000000000E+00 0. -1.
        -14    1    6    6    0    0 -0.64065201031E+02  0.30348965104E+03 -0.10335877449E+03  0.32694549169E+03  0.00000000000E+00 0.  1.
</event>
<event>
12    1  0.9656379E-001  0.2253499E+04  0.7818608E-02  0.8496485E-01
         -1   -1    0    0    0  501 -0.00000000000E+00  0.00000000000E+00  0.18242507606E+04  0.18242507606E+04  0.00000000000E+00 0.  1.
          1   -1    0    0  502    0  0.00000000000E+00 -0.00000000000E+00 -0.32951045935E+04  0.32951045935E+04  0.00000000000E+00 0. -1.
          6    2    1    2  502    0 -0.50824793160E+03 -0.21886922465E+04 -0.17437772071E+04  0.28493864177E+04  0.17191364037E+03 0.  0.
         24    2    3    3    0    0 -0.47006235148E+03 -0.20495829883E+04 -0.15822425870E+04  0.26327645173E+04  0.78793143360E+02 0.  0.
         -6    2    1    2    0  501  0.50824793160E+03  0.21886922465E+04  0.27292337411E+03  0.22699689364E+04  0.17199445901E+03 0.  0.
        -24    2    5    5    0    0  0.33247271825E+03  0.14655499696E+04  0.11585952244E+03  0.15093620591E+04  0.79847195273E+02 0.  0.
          5    1    3    3  502    0 -0.38185580118E+02 -0.13910925822E+03 -0.16153462007E+03  0.21662190040E+03  0.47000000000E+01 0. -1.
        -11    1    4    4    0    0 -0.44577669273E+03 -0.18709019293E+04 -0.14648200836E+04  0.24175791127E+04  0.00000000000E+00 0.  1.
         12    1    4    4    0    0 -0.24285658758E+02 -0.17868105898E+03 -0.11742250339E+03  0.21518540462E+03  0.00000000000E+00 0. -1.
         -5    1    5    5    0  501  0.17577521335E+03  0.72314227688E+03  0.15706385167E+03  0.76060687726E+03  0.47000000000E+01 0.  1.
         11    1    6    6    0    0  0.27766598390E+03  0.12769012095E+04  0.12495450442E+03  0.13127028322E+04  0.00000000000E+00 0. -1.
        -12    1    6    6    0    0  0.54806734354E+02  0.18864876011E+03 -0.90949819736E+01  0.19665922689E+03  0.00000000000E+00 0.  1.
</event>
<event>
12    1  0.9656379E-001  0.4710209E+03  0.7818608E-02  0.1021632E+00
         -1   -1    0    0    0  501 -0.00000000000E+00  0.00000000000E+00  0.38802717596E+03  0.38802717596E+03  0.00000000000E+00 0.  1.
          1   -1    0    0  502    0  0.00000000000E+00 -0.00000000000E+00 -0.14604870011E+04  0.14604870011E+04  0.00000000000E+00 0. -1.
          6    2    1    2  502    0  0.40436112769E+03 -0.17035492945E+03  0.18480194197E+03  0.50588048257E+03  0.17098123088E+03 0.  0.
         24    2    3    3    0    0  0.37270362233E+03 -0.13890298086E+03  0.11245132799E+03  0.42074456736E+03  0.78604462999E+02 0.  0.
         -6    2    1    2    0  501 -0.40436112769E+03  0.17035492945E+03 -0.12572617671E+04  0.13426336944E+04  0.17154988475E+03 0.  0.
        -24    2    5    5    0    0 -0.36424376633E+03  0.12654842508E+03 -0.11870179988E+04  0.12505213202E+04  0.78126932636E+02 0.  0.
          5    1    3    3  502    0  0.31657505356E+02 -0.31451948593E+02  0.72350613978E+02  0.85135915210E+02  0.47000000000E+01 0. -1.
        -11    1    4    4    0    0  0.13547139292E+03 -0.71328970721E+02  0.77538833251E+02  0.17161757202E+03  0.00000000000E+00 0.  1.
         12    1    4    4    0    0  0.23723222941E+03 -0.67574010135E+02  0.34912494741E+02  0.24912699534E+03  0.00000000000E+00 0. -1.
         -5    1    5    5    0  501 -0.40117361362E+02  0.43806504368E+02 -0.70243768242E+02  0.92112374220E+02  0.47000000000E+01 0.  1.
         11    1    6    6    0    0 -0.19326703379E+03  0.26152221945E+02 -0.57230591130E+03  0.60462396675E+03  0.00000000000E+00 0. -1.
        -12    1    6    6    0    0 -0.17097673254E+03  0.10039620314E+03 -0.61471208752E+03  0.64589735347E+03  0.00000000000E+00 0.  1.
</event>
<event>
12    1  0.9656379E-001  0.4111579E+03  0.7818608E-02  0.1039983E+00
          3   -1    0    0  502    0  0.00000000000E+00  0.00000000000E+00  0.35628960758E+03  0.35628960758E+03  0.00000000000E+00 0. -1.
         -3   -1    0    0    0  501 -0.00000000000E+00 -0.00000000000E+00 -0.49265028212E+03  0.49265028212E+03  0.00000000000E+00 0.  1.
          6    2    1    2  502    0  0.35568418012E+03  0.11299751553E+03 -0.14959655183E+03  0.43688538542E+03  0.17090944142E+03 0.  0.
         24    2    3    3    0    0  0.29835667606E+03  0.40151448804E+02 -0.84584764156E+02  0.32356453695E+03  0.83129911931E+02 0.  0.
         -6    2    1    2    0  501 -0.35568418012E+03 -0.11299751553E+03  0.13235877285E+02  0.41205450429E+03  0.17416673492E+03 0.  0.
        -24    2    5    5    0    0 -0.36098666690E+03 -0.12701831958E+03  0.26055921139E+02  0.39177784686E+03  0.79786860263E+02 0.  0.
          5    1    3    3  502    0  0.57327504065E+02  0.72846066727E+02 -0.65011787672E+02  0.11332084846E+03  0.47000000000E+01 0. -1.
        -11    1    4    4    0    0  0.12810412283E+03 -0.20506534688E+02 -0.52738536015E+02  0.14004476938E+03  0.00000000000E+00 0.  1.
         12    1    4    4    0    0  0.17025255323E+03  0.60657983493E+02 -0.31846228141E+02  0.18351976757E+03  0.00000000000E+00 0. -1.
         -5    1    5    5    0  501  0.53024867841E+01  0.14020804047E+02 -0.12820043854E+02  0.20276657433E+02  0.47000000000E+01 0.  1.
         13    1    6    6    0    0 -0.10741238426E+03 -0.34326529177E+02 -0.28559699944E+02  0.11632449165E+03  0.00000000000E+00 0. -1.
        -14    1    6    6    0    0 -0.25357428265E+03 -0.92691790402E+02  0.54615621083E+02  0.27545335521E+03  0.00000000000E+00 0.  1.
</event>
<event>
12    1  0.9656379E-001  0.1643192E+04  0.7818608E-02  0.8794444E-01
          2   -1    0    0  502    0  0.00000000000E+00  0.00000000000E+00  0.28423608097E+04  0.28423608097E+04  0.00000000000E+00 0. -1.
         -2   -1    0    0    0  501 -0.00000000000E+00 -0.00000000000E+00 -0.10319567742E+04  0.10319567742E+04  0.00000000000E+00 0.  1.
          6    2    1    2  502    0  0.41902164535E+03 -0.15804007774E+04  0.35885881155E+03  0.16814661697E+04  0.15906940873E+03 0.  0.
         24    2    3    3    0    0  0.22566458712E+03 -0.91561102259E+03  0.14808426260E+03  0.95773944604E+03  0.77896387044E+02 0.  0.
         -6    2    1    2    0  501 -0.41902164535E+03  0.15804007774E+04  0.14515452239E+04  0.21928514143E+04  0.16842811930E+03 0.  0.
        -24    2    5    5    0    0 -0.16804266134E+03  0.64557212648E+03  0.52064138236E+03  0.84990721986E+03  0.79203073306E+02 0.  0.
          5    1    3    3  502    0  0.19335705823E+03 -0.66478975482E+03  0.21077454896E+03  0.72372672368E+03  0.47000000000E+01 0. -1.
        -13    1    4    4    0    0  0.11775443378E+03 -0.48727540760E+03  0.11796540842E+03  0.51499443406E+03  0.00000000000E+00 0.  1.
         14    1    4    4    0    0  0.10791015334E+03 -0.42833561499E+03  0.30118854172E+02  0.44274501198E+03  0.00000000000E+00 0. -1.
         -5    1    5    5    0  501 -0.25097898401E+03  0.93482865093E+03  0.93090384157E+03  0.13429441944E+04  0.47000000000E+01 0.  1.
         13    1    6    6    0    0 -0.11116063383E+03  0.30142040751E+03  0.27971886816E+03  0.42597370081E+03  0.00000000000E+00 0. -1.
        -14    1    6    6    0    0 -0.56882027514E+02  0.34415171897E+03  0.24092251420E+03  0.42393351905E+03  0.00000000000E+00 0.  1.
</event>
<event>
12    1  0.9656379E-001  0.8652192E+03  0.7818608E-02  0.9470135E-01
         -1   -1    0    0    0  501 -0.00000000000E+00  0.00000000000E+00  0.90598234317E+03  0.90598234317E+03  0.00000000000E+00 0.  1.
          1   -1    0    0  502    0  0.00000000000E+00 -0.00000000000E+00 -0.19379499904E+04  0.19379499904E+04  0.00000000000E+00 0. -1.
          6    2    1    2  502    0  0.80645979266E+03  0.26218047178E+03  0.56096635743E+03  0.10312265843E+04  0.17213081356E+03 0.  0.
         24    2    3    3    0    0  0.55608794918E+03  0.15396687617E+03  0.45282296075E+03  0.73777586178E+03  0.79529757121E+02 0.  0.
         -6    2    1    2    0  501 -0.80645979266E+03 -0.26218047178E+03 -0.15929340046E+04  0.18127057492E+04  0.17131080912E+03 0.  0.
        -24    2    5    5    0    0 -0.29033545429E+03 -0.77535272905E+02 -0.68372101678E+03  0.75102381505E+03  0.79094547452E+02 0.  0.
          5    1    3    3  502    0  0.25037184348E+03  0.10821359561E+03  0.10814339668E+03  0.29345072249E+03  0.47000000000E+01 0. -1.
        -11    1    4    4    0    0  0.22649745401E+03  0.64172548290E+02  0.13602815558E+03  0.27188760865E+03  0.00000000000E+00 0.  1.
         12    1    4    4    0    0  0.32959049517E+03  0.89794327882E+02  0.31679480517E+03  0.46588825313E+03  0.00000000000E+00 0. -1.
         -5    1    5    5    0  501 -0.51612433838E+03 -0.18464519888E+03 -0.90921298784E+03  0.10616819342E+04  0.47000000000E+01 0.  1.
         11    1    6    6    0    0 -0.16768029802E+03 -0.77084129667E+02 -0.46455559032E+03  0.49987052512E+03  0.00000000000E+00 0. -1.
        -12    1    6    6    0    0 -0.12265515626E+03 -0.45114323746E+00 -0.21916542646E+03  0.25115328993E+03  0.00000000000E+00 0.  1.
</event>
<event>
12    1  0.9656379E-001  0.2970423E+03  0.7818608E-02  0.1086729E+00
          2   -1    0    0  502    0  0.00000000000E+00  0.00000000000E+00  0.11663721250E+04  0.11663721250E+04  0.00000000000E+00 0. -1.
         -2   -1    0    0    0  501 -0.00000000000E+00 -0.00000000000E+00 -0.22946571204E+03  0.22946571204E+03  0.00000000000E+00 0.  1.
          6    2    1    2  502    0  0.99379553204E+01 -0.24155501318E+03 -0.10304375477E+03  0.31425169097E+03  0.17230357667E+03 0.  0.
         24    2    3    3    0    0  0.52328527354E+02 -0.81219108494E+02 -0.75532764450E+02  0.14607467852E+03  0.79358646911E+02 0.  0.
         -6    2    1    2    0  501 -0.99379553204E+01  0.24155501318E+03  0.10399501677E+04  0.10815861460E+04  0.17287178102E+03 0.  0.
        -24    2    5    5    0    0 -0.72912869912E+02  0.15666250873E+03  0.62558932703E+03  0.65393024060E+03  0.80020780056E+02 0.  0.
          5    1    3    3  502    0 -0.42390572033E+02 -0.16033590468E+03 -0.27510990323E+02  0.16817701245E+03  0.47000000000E+01 0. -1.
        -11    1    4    4    0    0 -0.36085941064E+01 -0.63816636149E+02 -0.24739929427E+02  0.68539398224E+02  0.00000000000E+00 0.  1.
         12    1    4    4    0    0  0.55937121460E+02 -0.17402472345E+02 -0.50792835023E+02  0.77535280296E+02  0.00000000000E+00 0. -1.
         -5    1    5    5    0  501  0.62974914592E+02  0.84892504445E+02  0.41436084066E+03  0.42765590543E+03  0.47000000000E+01 0.  1.
         11    1    6    6    0    0 -0.69304916996E+02  0.14812334009E+03  0.62327982997E+03  0.64437678562E+03  0.00000000000E+00 0. -1.
        -12    1    6    6    0    0 -0.36079529166E+01  0.85391686433E+01  0.23094970542E+01  0.95534549777E+01  0.00000000000E+00 0.  1.
</event>
<event>
12    1  0.9656379E-001  0.8487562E+03  0.7818608E-02  0.9492008E-01
         -1   -1    0    0    0  501 -0.00000000000E+00  0.00000000000E+00  0.50557979209E+03  0.50557979209E+03  0.00000000000E+00 0.  1.
          1   -1    0    0  502    0  0.00000000000E+00 -0.00000000000E+00 -0.24722443364E+04  0.24722443364E+04  0.00000000000E+00 0. -1.
          6    2    1    2  502    0 -0.52839454989E+02 -0.82905997741E+03 -0.13918867014E+02  0.84841769567E+03  0.17171603688E+03 0.  0.
         24    2    3    3    0    0 -0.96599389290E+02 -0.62677903393E+03 -0.37409408027E+02  0.64007565128E+03  0.78191918790E+02 0.  0.
         -6    2    1    2    0  501  0.52839454989E+02  0.82905997741E+03 -0.19527456773E+04  0.21294064328E+04  0.17613523727E+03 0.  0.
        -24    2    5    5    0    0  0.50186378255E+02  0.83548100033E+03 -0.19331438980E+04  0.21080853610E+04  0.80195913066E+02 0.  0.
          5    1    3    3  502    0  0.43759934300E+02 -0.20228094348E+03  0.23490541013E+02  0.20834204439E+03  0.47000000000E+01 0. -1.
        -13    1    4    4    0    0 -0.44077520952E+02 -0.28787320353E+03  0.21831334907E+02  0.29204522997E+03  0.00000000000E+00 0.  1.
         14    1    4    4    0    0 -0.52521868337E+02 -0.33890583041E+03 -0.59240742934E+02  0.34803042131E+03  0.00000000000E+00 0. -1.
         -5    1    5    5    0  501  0.26530767341E+01 -0.64210229228E+01 -0.19601779279E+02  0.21321071793E+02  0.47000000000E+01 0.  1.
         13    1    6    6    0    0  0.18754235687E+02  0.24625634784E+03 -0.66518783311E+03  0.70955532803E+03  0.00000000000E+00 0. -1.
        -14    1    6    6    0    0  0.31432142569E+02  0.58922465249E+03 -0.12679560649E+04  0.13985300330E+04  0.00000000000E+00 0.  1.
</event>
<event>
12    1  0.9656379E-001  0.3781262E+03  0.7818608E-02  0.1051628E+00
         -3   -1    0    0    0  501 -0.00000000000E+00  0.00000000000E+00  0.23378828898E+03  0.23378828898E+03  0.00000000000E+00 0.  1.
          3   -1    0    0  502    0  0.00000000000E+00 -0.00000000000E+00 -0.64208197277E+03  0.64208197277E+03  0.00000000000E+00 0. -1.
          6    2    1    2  502    0 -0.80298845058E+02 -0.32592039365E+03 -0.30029326651E+03  0.48393598021E+03  0.17704795824E+03 0.  0.
         24    2    3    3    0    0 -0.42992631786E+02 -0.56512996499E+02 -0.66668542411E+02  0.12536283440E+03  0.78924397623E+02 0.  0.
         -6    2    1    2    0  501  0.80298845058E+02  0.32592039365E+03 -0.10800041727E+03  0.39193428154E+03  0.17110342894E+03 0.  0.
        -24    2    5    5    0    0  0.48405059281E+02  0.28376571378E+03 -0.14097923229E+03  0.32945290154E+03  0.76144863995E+02 0.  0.
          5    1    3    3  502    0 -0.37306213271E+02 -0.26940739715E+03 -0.23362472410E+03  0.35857314581E+03  0.47000000000E+01 0. -1.
        -13    1    4    4    0    0 -0.31243263351E+02 -0.75636743637E+02 -0.41902774945E+02  0.91939659783E+02  0.00000000000E+00 0.  1.
         14    1    4    4    0    0 -0.11749368435E+02  0.19123747138E+02 -0.24765767466E+02  0.33423174616E+02  0.00000000000E+00 0. -1.
         -5    1    5    5    0  501  0.31893785776E+02  0.42154679871E+02  0.32978815021E+02  0.62481379997E+02  0.47000000000E+01 0.  1.
         11    1    6    6    0    0 -0.93974243983E+01  0.76191206677E+02 -0.10316229942E+02  0.77458609337E+02  0.00000000000E+00 0. -1.
        -12    1    6    6    0    0  0.57802483680E+02  0.20757450710E+03 -0.13066300235E+03  0.25199429220E+03  0.00000000000E+00 0.  1.
</event>
<event>
12    1  0.9656379E-001  0.2256499E+03  0.7818608E-02  0.1129740E+00
         -1   -1    0    0    0  501 -0.00000000000E+00  0.00000000000E+00  0.12702560964E+03  0.12702560964E+03  0.00000000000E+00 0.  1.
          1   -1    0    0  502    0  0.00000000000E+00 -0.00000000000E+00 -0.31381292518E+04  0.31381292518E+04  0.00000000000E+00 0. -1.
          6    2    1    2  502    0 -0.12923398763E+02  0.14454426583E+03  0.19085790919E+02  0.22658491390E+03  0.17296357065E+03 0.  0.
         24    2    3    3    0    0  0.93089065067E+00  0.11240281845E+03 -0.51951402157E+02  0.14725404491E+03  0.79684034808E+02 0.  0.
         -6    2    1    2    0  501  0.12923398763E+02 -0.14454426583E+03 -0.30301894331E+04  0.30385699476E+04  0.17262464108E+03 0.  0.
        -24    2    5    5    0    0 -0.83922584534E+01 -0.51329384097E+02 -0.23272805557E+04  0.23291713633E+04  0.78098136990E+02 0.  0.
          5    1    3    3  502    0 -0.13854289414E+02  0.32141447383E+02  0.71037193076E+02  0.79330868993E+02  0.47000000000E+01 0. -1.
        -11    1    4    4    0    0 -0.34983539585E+02  0.73397091974E+02 -0.15137169200E+02  0.82704988021E+02  0.00000000000E+00 0.  1.
         12    1    4    4    0    0  0.35914430235E+02  0.39005726478E+02 -0.36814232957E+02  0.64549056890E+02  0.00000000000E+00 0. -1.
         -5    1    5    5    0  501  0.21315657217E+02 -0.93214881738E+02 -0.70290887743E+03  0.70939858429E+03  0.47000000000E+01 0.  1.
         13    1    6    6    0    0 -0.20433666972E+01 -0.27018798657E+02 -0.20989340597E+03  0.21163514051E+03  0.00000000000E+00 0. -1.
        -14    1    6    6    0    0 -0.63488917562E+01 -0.24310585440E+02 -0.21173871497E+04  0.21175362228E+04  0.00000000000E+00 0.  1.
</event>
<event>
12    1  0.9656379E-001  0.3462681E+03  0.7818608E-02  0.1064157E+00
          1   -1    0    0  502    0  0.00000000000E+00  0.00000000000E+00  0.25852741577E+03  0.25852741577E+03  0.00000000000E+00 0. -1.
         -1   -1    0    0    0  501 -0.00000000000E+00 -0.00000000000E+00 -0.54939325300E+03  0.54939325300E+03  0.00000000000E+00 0.  1.
          6    2    1    2  502    0 -0.23032445986E+03  0.19277561383E+03 -0.30487852974E+03  0.46133016669E+03  0.17222894852E+03 0.  0.
         24    2    3    3    0    0 -0.16699956904E+03  0.77722779069E+02 -0.11993792528E+03  0.23445506061E+03  0.81574402108E+02 0.  0.
         -6    2    1    2    0  501  0.23032445986E+03 -0.19277561383E+03  0.14012692509E+02  0.34659050208E+03  0.17238569107E+03 0.  0.
        -24    2    5    5    0    0  0.16095581529E+03 -0.20594962766E+03 -0.87476307818E+01  0.27225554526E+03  0.75660671888E+02 0.  0.
          5    1    3    3  502    0 -0.63324890822E+02  0.11505283476E+03 -0.18494060446E+03  0.22687510608E+03  0.47000000000E+01 0. -1.
        -11    1    4    4    0    0 -0.76112746928E+02  0.55174935676E+02 -0.10271921600E+03  0.13924317257E+03  0.00000000000E+00 0.  1.
         12    1    4    4    0    0 -0.90886822110E+02  0.22547843393E+02 -0.17218709286E+02  0.95211888041E+02  0.00000000000E+00 0. -1.
         -5    1    5    5    0  501  0.69368644567E+02  0.13174013831E+02  0.22760323291E+02  0.74334956822E+02  0.47000000000E+01 0.  1.
         13    1    6    6    0    0  0.99203768900E+02 -0.69395979822E+02  0.86836347498E+01  0.12137790282E+03  0.00000000000E+00 0. -1.
        -14    1    6    6    0    0  0.61752046393E+02 -0.13655364784E+03 -0.17431265532E+02  0.15087764244E+03  0.00000000000E+00 0.  1.
</event>
<event>
12    1  0.9656379E-001  0.1014672E+04  0.7818608E-02  0.9292597E-01
         -4   -1    0    0    0  501 -0.00000000000E+00  0.00000000000E+00  0.33675198348E+03  0.33675198348E+03  0.00000000000E+00 0.  1.
          4   -1    0    0  502    0  0.00000000000E+00 -0.00000000000E+00 -0.30627591158E+04  0.30627591158E+04  0.00000000000E+00 0. -1.
          6    2    1    2  502    0  0.99624293380E+03 -0.85996928852E+02 -0.12913976090E+04  0.16423371301E+04  0.17224404070E+03 0.  0.
         24    2    3    3    0    0  0.99994676944E+03 -0.88354472135E+02 -0.12872429061E+04  0.16346802401E+04  0.86516666513E+02 0.  0.
         -6    2    1    2    0  501 -0.99624293380E+03  0.85996928852E+02 -0.14346095233E+04  0.17571739691E+04  0.17222200372E+03 0.  0.
        -24    2    5    5    0    0 -0.39078395812E+03 -0.23169182966E+02 -0.56449313324E+03  0.69151809905E+03  0.79346524056E+02 0.  0.
          5    1    3    3  502    0 -0.37038356386E+01  0.23575432837E+01 -0.41547028700E+01  0.76568900156E+01  0.47000000000E+01 0. -1.
        -13    1    4    4    0    0  0.61994156624E+03 -0.39075367355E+02 -0.85845745799E+03  0.10596242905E+04  0.00000000000E+00 0.  1.
         14    1    4    4    0    0  0.38000520320E+03 -0.49279104780E+02 -0.42878544815E+03  0.57505594961E+03  0.00000000000E+00 0. -1.
         -5    1    5    5    0  501 -0.60545897569E+03  0.10916611182E+03 -0.87011639007E+03  0.10656558701E+04  0.47000000000E+01 0.  1.
         13    1    6    6    0    0 -0.10626822783E+03  0.13475454668E+02 -0.10615330997E+03  0.15080798832E+03  0.00000000000E+00 0. -1.
        -14    1    6    6    0    0 -0.28451573029E+03 -0.36644637634E+02 -0.45833982327E+03  0.54071011073E+03  0.00000000000E+00 0.  1.
</event>
<event>
12    1  0.9656379E-001  0.6341319E+03  0.7818608E-02  0.9837019E-01
          1   -1    0    0  502    0  0.00000000000E+00  0.00000000000E+00  0.17634804860E+04  0.17634804860E+04  0.00000000000E+00 0. -1.
         -1   -1    0    0    0  501 -0.00000000000E+00 -0.00000000000E+00 -0.14224852862E+04  0.14224852862E+04  0.00000000000E+00 0.  1.
          6    2    1    2  502    0  0.45032022294E+03  0.41231961045E+03 -0.12892239847E+04  0.14368244493E+04  0.17196002750E+03 0.  0.
         24    2    3    3    0    0  0.43717263903E+03  0.37564958889E+03 -0.11089604270E+04  0.12523397895E+04  0.79556206091E+02 0.  0.
         -6    2    1    2    0  501 -0.45032022294E+03 -0.41231961045E+03  0.16302191845E+04  0.17491413230E+04  0.17054329004E+03 0.  0.
        -24    2    5    5    0    0 -0.17158912394E+03 -0.22422126436E+03  0.86334817887E+03  0.91177327804E+03  0.79009048527E+02 0.  0.
          5    1    3    3  502    0  0.13147583901E+02  0.36670021554E+02 -0.18026355774E+03  0.18448465977E+03  0.47000000000E+01 0. -1.
        -13    1    4    4    0    0  0.31102894091E+03  0.28448183931E+03 -0.73503960519E+03  0.84732056518E+03  0.00000000000E+00 0.  1.
         14    1    4    4    0    0  0.12614369812E+03  0.91167749580E+02 -0.37392082179E+03  0.40501922436E+03  0.00000000000E+00 0. -1.
         -5    1    5    5    0  501 -0.27873109899E+03 -0.18809834609E+03  0.76687100564E+03  0.83736804491E+03  0.47000000000E+01 0.  1.
         13    1    6    6    0    0 -0.14673396231E+03 -0.22239356714E+03  0.81387297116E+03  0.85637548282E+03  0.00000000000E+00 0. -1.
        -14    1    6    6    0    0 -0.24855161636E+02 -0.18276972194E+01  0.49475207713E+02  0.55397795221E+02  0.00000000000E+00 0.  1.
</event>
<event>
12    1  0.9656379E-001  0.8671120E+03  0.7818608E-02  0.9467653E-01
          2   -1    0    0  502    0  0.00000000000E+00  0.00000000000E+00  0.24508439946E+04  0.24508439946E+04  0.00000000000E+00 0. -1.
         -2   -1    0    0    0  501 -0.00000000000E+00 -0.00000000000E+00 -0.15855078449E+04  0.15855078449E+04  0.00000000000E+00 0.  1.
          6    2    1    2  502    0 -0.30685290320E+03 -0.79248136317E+03 -0.13797731257E+04  0.16295964197E+04  0.17211971864E+03 0.  0.
         24    2    3    3    0    0 -0.25972982423E+03 -0.76437721661E+03 -0.12735232843E+04  0.15099237560E+04  0.79221730599E+02 0.  0.
         -6    2    1    2    0  501  0.30685290320E+03  0.79248136317E+03  0.22451092755E+04  0.24067554197E+04  0.17254152095E+03 0.  0.
        -24    2    5    5    0    0  0.94873239278E+02  0.28720641395E+03  0.66001261407E+03  0.72961748021E+03  0.72364086033E+02 0.  0.
          5    1    3    3  502    0 -0.47123078975E+02 -0.28104146558E+02 -0.10624984146E+03  0.11967266370E+03  0.47000000000E+01 0. -1.
        -11    1    4    4    0    0 -0.17555808648E+03 -0.53960483103E+03 -0.95865276884E+03  0.11140059006E+04  0.00000000000E+00 0.  1.
         12    1    4    4    0    0 -0.84171737744E+02 -0.22477238559E+03 -0.31487051544E+03  0.39591785544E+03  0.00000000000E+00 0. -1.
         -5    1    5    5    0  501  0.21197966392E+03  0.50527494922E+03  0.15850966614E+04  0.16771379395E+04  0.47000000000E+01 0.  1.
         11    1    6    6    0    0  0.38478853298E+02  0.20174986704E+03  0.48766340800E+03  0.52914953511E+03  0.00000000000E+00 0. -1.
        -12    1    6    6    0    0  0.56394385979E+02  0.85456546912E+02  0.17234920607E+03  0.20046794511E+03  0.00000000000E+00 0.  1.
</event>
<event>
12    1  0.9656379E-001  0.2956130E+03  0.7818608E-02  0.1087454E+00
          2   -1    0    0  502    0  0.00000000000E+00  0.00000000000E+00  0.13840354599E+04  0.13840354599E+04  0.00000000000E+00 0. -1.
         -2   -1    0    0    0  501 -0.00000000000E+00 -0.00000000000E+00 -0.79100143548E+02  0.79100143548E+02  0.00000000000E+00 0.  1.
          6    2    1    2  502    0  0.19908936094E+03 -0.13409816444E+03  0.32326913147E+03  0.43783063650E+03  0.17197047291E+03 0.  0.
         24    2    3    3    0    0  0.86474945895E+02 -0.90749618370E+02  0.77564743922E+02  0.16405364882E+03  0.71999310349E+02 0.  0.
         -6    2    1    2    0  501 -0.19908936094E+03  0.13409816444E+03  0.98166618491E+03  0.10253049670E+04  0.17309790687E+03 0.  0.
        -24    2    5    5    0    0 -0.18636647659E+03  0.10175240128E+03  0.95419107791E+03  0.98075059923E+03  0.79404722576E+02 0.  0.
          5    1    3    3  502    0  0.11261441504E+03 -0.43348546068E+02  0.24570438754E+03  0.27377698767E+03  0.47000000000E+01 0. -1.
        -11    1    4    4    0    0  0.94254937313E+02 -0.87017720069E+02  0.83958904743E+02  0.15331397359E+03  0.00000000000E+00 0.  1.
         12    1    4    4    0    0 -0.77799914182E+01 -0.37318983014E+01 -0.63941608214E+01  0.10739675228E+02  0.00000000000E+00 0. -1.
         -5    1    5    5    0  501 -0.12722884351E+02  0.32345763158E+02  0.27475107004E+02  0.44554367748E+02  0.47000000000E+01 0.  1.
         13    1    6    6    0    0 -0.17837796333E+02  0.91794253794E+01  0.24927090191E+03  0.25007685092E+03  0.00000000000E+00 0. -1.
        -14    1    6    6    0    0 -0.16852868025E+03  0.92572975900E+02  0.70492017600E+03  0.73067374831E+03  0.00000000000E+00 0.  1.
</event>
<event>
12    1  0.9656379E-001  0.2587923E+03  0.7818608E-02  0.1107871E+00
          2   -1    0    0  502    0  0.00000000000E+00  0.00000000000E+00  0.13801360268E+04  0.13801360268E+04  0.00000000000E+00 0. -1.
         -2   -1    0    0    0  501 -0.00000000000E+00 -0.00000000000E+00 -0.22310628049E+03  0.22310628049E+03  0.00000000000E+00 0.  1.
          6    2    1    2  502    0 -0.15901343652E+03  0.10991324833E+03 -0.13062588433E+03  0.28982328013E+03  0.17195411276E+03 0.  0.
         24    2    3    3    0    0 -0.12954219081E+03  0.12030602503E+03 -0.45777939117E+02  0.19928142275E+03  0.79766828227E+02 0.  0.
         -6    2    1    2    0  501  0.15901343652E+03 -0.10991324833E+03  0.12876556306E+04  0.13134190271E+04  0.17218107524E+03 0.  0.
        -24    2    5    5    0    0  0.58726693156E+02 -0.65791200930E+02  0.35472278401E+03  0.37406287944E+03  0.79482562060E+02 0.  0.
          5    1    3    3  502    0 -0.29471245707E+02 -0.10392776697E+02 -0.84847945209E+02  0.90541857376E+02  0.47000000000E+01 0. -1.
        -11    1    4    4    0    0  0.42384541916E+00  0.39922410365E+02 -0.18692005187E+02  0.44083665367E+02  0.00000000000E+00 0.  1.
         12    1    4    4    0    0 -0.12996603623E+03  0.80383614662E+02 -0.27085933930E+02  0.15519775738E+03  0.00000000000E+00 0. -1.
         -5    1    5    5    0  501  0.10028674336E+03 -0.44122047400E+02  0.93293284658E+03  0.93935614768E+03  0.47000000000E+01 0.  1.
         13    1    6    6    0    0  0.62612804489E+02 -0.78899523306E+02  0.33668560277E+03  0.35142949958E+03  0.00000000000E+00 0. -1.
        -14    1    6    6    0    0 -0.38861113322E+01  0.13108322376E+02  0.18037181240E+02  0.22633379860E+02  0.00000000000E+00 0.  1.
</event>
<event>
12    1  0.9656379E-001  0.3366693E+03  0.7818608E-02  0.1068223E+00
         -2   -1    0    0    0  501 -0.00000000000E+00  0.00000000000E+00  0.13154165690E+03  0.13154165690E+03  0.00000000000E+00 0.  1.
          2   -1    0    0  502    0  0.00000000000E+00 -0.00000000000E+00 -0.12978670382E+04  0.12978670382E+04  0.00000000000E+00 0. -1.
          6    2    1    2  502    0 -0.76315605468E+02 -0.27922420558E+03 -0.16896546650E+03  0.37679602780E+03  0.17215019337E+03 0.  0.
         24    2    3    3    0    0 -0.56054243644E+02 -0.15001988495E+03 -0.22630546759E+02  0.18047924811E+03  0.80078544202E+02 0.  0.
         -6    2    1    2    0  501  0.76315605468E+02  0.27922420558E+03 -0.99735991483E+03  0.10526126673E+04  0.17168692169E+03 0.  0.
        -24    2    5    5    0    0  0.10841819673E+02  0.12994836192E+03 -0.30710991983E+03  0.34336148493E+03  0.81095527968E+02 0.  0.
          5    1    3    3  502    0 -0.20261361824E+02 -0.12920432064E+03 -0.14633491974E+03  0.19631677969E+03  0.47000000000E+01 0. -1.
        -13    1    4    4    0    0 -0.61848076439E+02 -0.10635209305E+03 -0.45093562513E+02  0.13103198707E+03  0.00000000000E+00 0.  1.
         14    1    4    4    0    0  0.57938327947E+01 -0.43667791893E+02  0.22463015754E+02  0.49447261037E+02  0.00000000000E+00 0. -1.
         -5    1    5    5    0  501  0.65473785795E+02  0.14927584366E+03 -0.69024999500E+03  0.70925118239E+03  0.47000000000E+01 0.  1.
         13    1    6    6    0    0  0.42372761049E+02  0.85062566964E+02 -0.22879983898E+03  0.24775079716E+03  0.00000000000E+00 0. -1.
        -14    1    6    6    0    0 -0.31530941376E+02  0.44885794955E+02 -0.78310080854E+02  0.95610687772E+02  0.00000000000E+00 0.  1.
</event>
<event>
12    1  0.9656379E-001  0.2981692E+03  0.7818608E-02  0.1086159E+00
          1   -1    0    0  502    0  0.00000000000E+00  0.00000000000E+00  0.34074362863E+03  0.34074362863E+03  0.00000000000E+00 0. -1.
         -1   -1    0    0    0  501 -0.00000000000E+00 -0.00000000000E+00 -0.36971561309E+03  0.36971561309E+03  0.00000000000E+00 0.  1.
          6    2    1    2  502    0 -0.67529203442E+02  0.23304091875E+03 -0.20720737347E+03  0.36351612547E+03  0.17418614963E+03 0.  0.
         24    2    3    3    0    0 -0.21583824807E+01  0.28810739771E+02 -0.65067278029E+02  0.10620462753E+03  0.78809611706E+02 0.  0.
         -6    2    1    2    0  501  0.67529203442E+02 -0.23304091875E+03  0.17823538901E+03  0.34694311625E+03  0.17243378116E+03 0.  0.
        -24    2    5    5    0    0 -0.11437458458E+02 -0.11383283902E+03  0.14300699660E+03  0.19960191496E+03  0.79380052178E+02 0.  0.
          5    1    3    3  502    0 -0.65370820961E+02  0.20423017898E+03 -0.14214009544E+03  0.25731149794E+03  0.47000000000E+01 0. -1.
        -13    1    4    4    0    0 -0.14288285896E+02  0.49350712597E+01 -0.75845160186E+02  0.77336914638E+02  0.00000000000E+00 0.  1.
         14    1    4    4    0    0  0.12129903416E+02  0.23875668511E+02  0.10777882157E+02  0.28867712890E+02  0.00000000000E+00 0. -1.
         -5    1    5    5    0  501  0.78966661900E+02 -0.11920807973E+03  0.35228392410E+02  0.14734120128E+03  0.47000000000E+01 0.  1.
         11    1    6    6    0    0 -0.10030570801E+02 -0.12596875056E+03  0.13541145119E+03  0.18521608889E+03  0.00000000000E+00 0. -1.
        -12    1    6    6    0    0 -0.14068876571E+01  0.12135911540E+02  0.75955454103E+01  0.14385826075E+02  0.00000000000E+00 0.  1.
</event>
<event>
12    1  0.9656379E-001  0.1735474E+03  0.7818608E-02  0.1174198E+00
         -2   -1    0    0    0  501 -0.00000000000E+00  0.00000000000E+00  0.36525024253E+02  0.36525024253E+02  0.00000000000E+00 0.  1.
          2   -1    0    0  502    0  0.00000000000E+00 -0.00000000000E+00 -0.20102372221E+04  0.20102372221E+04  0.00000000000E+00 0. -1.
          6    2    1    2  502    0 -0.29695956281E+02  0.43904108282E+02 -0.21122582852E+03  0.27616355578E+03  0.16982502279E+03 0.  0.
         24    2    3    3    0    0 -0.25639002288E+02  0.61982867652E+02 -0.22788615025E+03  0.25080696421E+03  0.80453722725E+02 0.  0.
         -6    2    1    2    0  501  0.29695956281E+02 -0.43904108282E+02 -0.17624863694E+04  0.17705986906E+04  0.16078588386E+03 0.  0.
        -24    2    5    5    0    0  0.62910845931E+02  0.91974961263E+00 -0.14461429675E+04  0.14493392238E+04  0.72774189325E+02 0.  0.
          5    1    3    3  502    0 -0.40569539931E+01 -0.18078759370E+02  0.16660321728E+02  0.25356591572E+02  0.47000000000E+01 0. -1.
        -11    1    4    4    0    0 -0.43900647078E+02  0.13906164643E+02 -0.62659368223E+02  0.77761459959E+02  0.00000000000E+00 0.  1.
         12    1    4    4    0    0  0.18261644790E+02  0.48076703010E+02 -0.16522678203E+03  0.17304550425E+03  0.00000000000E+00 0. -1.
         -5    1    5    5    0  501 -0.33214889651E+02 -0.44823857895E+02 -0.31634340187E+03  0.32125946684E+03  0.47000000000E+01 0.  1.
         11    1    6    6    0    0  0.45631892976E+02  0.23216434791E+01 -0.33953750532E+03  0.34259798190E+03  0.00000000000E+00 0. -1.
        -12    1    6    6    0    0  0.17278952955E+02 -0.14018938665E+01 -0.11066054622E+04  0.11067412419E+04  0.00000000000E+00 0.  1.
</event>
<event>
12    1  0.9656379E-001  0.2245402E+03  0.7818608E-02  0.1130543E+00
         -1   -1    0    0    0  501 -0.00000000000E+00  0.00000000000E+00  0.32027222087E+03  0.32027222087E+03  0.00000000000E+00 0.  1.
          1   -1    0    0  502    0  0.00000000000E+00 -0.00000000000E+00 -0.47621519885E+03  0.47621519885E+03  0.00000000000E+00 0. -1.
          6    2    1    2  502    0 -0.14726649959E+03 -0.19991558923E+02  0.24757702074E+03  0.33584963128E+03  0.17150367140E+03 0.  0.
         24    2    3    3    0    0 -0.71069950786E+02 -0.69149838488E+02  0.19299146586E+03  0.22990566826E+03  0.76014948090E+02 0.  0.
         -6    2    1    2    0  501  0.14726649959E+03  0.19991558923E+02 -0.40351999873E+03  0.46063778844E+03  0.16514144979E+03 0.  0.
        -24    2    5    5    0    0  0.22690165759E+02 -0.23028244854E+02 -0.20864267657E+03  0.22533112224E+03  0.78722325172E+02 0.  0.
          5    1    3    3  502    0 -0.76196548805E+02  0.49158279565E+02  0.54585554875E+02  0.10594396302E+03  0.47000000000E+01 0. -1.
        -13    1    4    4    0    0 -0.85000714750E+02 -0.58473491544E+02  0.13880952487E+03  0.17295188613E+03  0.00000000000E+00 0.  1.
         14    1    4    4    0    0  0.13930763965E+02 -0.10676346944E+02  0.54181940996E+02  0.56953782129E+02  0.00000000000E+00 0. -1.
         -5    1    5    5    0  501  0.12457633383E+03  0.43019803777E+02 -0.19487732216E+03  0.23530666620E+03  0.47000000000E+01 0.  1.
         13    1    6    6    0    0 -0.82812380812E+01 -0.35441854253E+02 -0.42882280328E+02  0.56245834541E+02  0.00000000000E+00 0. -1.
        -14    1    6    6    0    0  0.30971403841E+02  0.12413609399E+02 -0.16576039624E+03  0.16908528770E+03  0.00000000000E+00 0.  1.
</event>
<event>
12    1  0.9656379E-001  0.5216336E+03  0.7818608E-02  0.1008282E+00
          1   -1    0    0  502    0  0.00000000000E+00  0.00000000000E+00  0.40426471157E+03  0.40426471157E+03  0.00000000000E+00 0. -1.
         -1   -1    0    0    0  501 -0.00000000000E+00 -0.00000000000E+00 -0.22041858720E+04  0.22041858720E+04  0.00000000000E+00 0.  1.
          6    2    1    2  502    0  0.47703625679E+03  0.12011142560E+03 -0.19869066658E+04  0.20542112079E+04  0.17319134841E+03 0.  0.
         24    2    3    3    0    0  0.24929307736E+03  0.86919602620E+02 -0.82751611319E+03  0.87218870540E+03  0.78918720922E+02 0.  0.
         -6    2    1    2    0  501 -0.47703625679E+03 -0.12011142560E+03  0.18698550535E+03  0.55423937569E+03  0.17386017803E+03 0.  0.
        -24    2    5    5    0    0 -0.17405181561E+03 -0.10248215851E+03  0.98231720304E+02  0.23799629353E+03  0.78715548216E+02 0.  0.
          5    1    3    3  502    0  0.22774317943E+03  0.33191822983E+02 -0.11593905526E+04  0.11820225025E+04  0.47000000000E+01 0. -1.
        -13    1    4    4    0    0  0.13902381470E+03  0.31692571048E+02 -0.55572007826E+03  0.57372192349E+03  0.00000000000E+00 0.  1.
         14    1    4    4    0    0  0.11026926266E+03  0.55227031572E+02 -0.27179603493E+03  0.29846678191E+03  0.00000000000E+00 0. -1.
         -5    1    5    5    0  501 -0.30298444118E+03 -0.17629267094E+02  0.88753785048E+02  0.31624308216E+03  0.47000000000E+01 0.  1.
         11    1    6    6    0    0 -0.17475688100E+03 -0.96933849599E+02  0.73958143141E+02  0.21308670909E+03  0.00000000000E+00 0. -1.
        -12    1    6    6    0    0  0.70506538210E+00 -0.55483089101E+01  0.24273577163E+02  0.24909584445E+02  0.00000000000E+00 0.  1.
</event>
<event>
12    1  0.9656379E-001  0.4498496E+03  0.7818608E-02  0.1027767E+00
         -2   -1    0    0    0  501 -0.00000000000E+00  0.00000000000E+00  0.20121416985E+03  0.20121416985E+03  0.00000000000E+00 0.  1.
          2   -1    0    0  502    0  0.00000000000E+00 -0.00000000000E+00 -0.19957331111E+04  0.19957331111E+04  0.00000000000E+00 0. -1.
          6    2    1    2  502    0  0.40297467691E+03  0.10194853719E+03 -0.12369613923E+03  0.46665473756E+03  0.17228991485E+03 0.  0.
         24    2    3    3    0    0  0.18951955699E+03  0.25809812245E+01 -0.11030772679E+02  0.20559425756E+03  0.78885973707E+02 0.  0.
         -6    2    1    2    0  501 -0.40297467691E+03 -0.10194853719E+03 -0.16708228021E+04  0.17302925434E+04  0.17170135548E+03 0.  0.
        -24    2    5    5    0    0 -0.35339065515E+03 -0.49949980607E+02 -0.12177578862E+04  0.12715417036E+04  0.80647868884E+02 0.  0.
          5    1    3    3  502    0  0.21345511992E+03  0.99367555969E+02 -0.11266536655E+03  0.26106048000E+03  0.47000000000E+01 0. -1.
        -11    1    4    4    0    0  0.12194088079E+03 -0.30445719082E+01 -0.44664594107E+02  0.12989909081E+03  0.00000000000E+00 0.  1.
         12    1    4    4    0    0  0.67578676205E+02  0.56255531326E+01  0.33633821428E+02  0.75695166751E+02  0.00000000000E+00 0. -1.
         -5    1    5    5    0  501 -0.49584021763E+02 -0.51998556587E+02 -0.45306491585E+03  0.45875083987E+03  0.47000000000E+01 0.  1.
         13    1    6    6    0    0 -0.69894511802E+02 -0.27360965168E+01 -0.36539192238E+03  0.37202686186E+03  0.00000000000E+00 0. -1.
        -14    1    6    6    0    0 -0.28349614335E+03 -0.47213884090E+02 -0.85236596383E+03  0.89951484170E+03  0.00000000000E+00 0.  1.
</event>
<event>
12    1  0.9656379E-001  0.5693454E+03  0.7818608E-02  0.9971128E-01
          1   -1    0    0  502    0  0.00000000000E+00  0.00000000000E+00  0.81262785926E+03  0.81262785926E+03  0.00000000000E+00 0. -1.
         -1   -1    0    0    0  501 -0.00000000000E+00 -0.00000000000E+00 -0.39994643489E+03  0.39994643489E+03  0.00000000000E+00 0.  1.
          6    2    1    2  502    0 -0.43913147351E+03  0.31760332713E+03  0.17514663769E+03  0.59533810130E+03  0.17332854855E+03 0.  0.
         24    2    3    3    0    0 -0.35455401958E+03  0.21923709136E+03  0.74195758891E+02  0.43089226833E+03  0.79935481752E+02 0.  0.
         -6    2    1    2    0  501  0.43913147351E+03 -0.31760332713E+03  0.23753478669E+03  0.61723619284E+03  0.17564002516E+03 0.  0.
        -24    2    5    5    0    0  0.20242014929E+03 -0.12666952876E+03  0.17523336353E+03  0.30676634938E+03  0.79873494106E+02 0.  0.
          5    1    3    3  502    0 -0.84577453931E+02  0.98366235769E+02  0.10095087879E+03  0.16444583297E+03  0.47000000000E+01 0. -1.
        -13    1    4    4    0    0 -0.10496595334E+03  0.10952011437E+03  0.31411286886E+02  0.15491667359E+03  0.00000000000E+00 0.  1.
         14    1    4    4    0    0 -0.24958806624E+03  0.10971697699E+03  0.42784472005E+02  0.27597559474E+03  0.00000000000E+00 0. -1.
         -5    1    5    5    0  501  0.23671132422E+03 -0.19093379836E+03  0.62301423152E+02  0.31046984346E+03  0.47000000000E+01 0.  1.
         13    1    6    6    0    0  0.17176236252E+03 -0.13535670951E+03  0.14211215886E+03  0.26080570101E+03  0.00000000000E+00 0. -1.
        -14    1    6    6    0    0  0.30657786772E+02  0.86871807427E+01  0.33121204678E+02  0.45960648367E+02  0.00000000000E+00 0.  1.
</event>
<event>
12    1  0.9656379E-001  0.2422606E+03  0.7818608E-02  0.1118296E+00
          2   -1    0    0  502    0  0.00000000000E+00  0.00000000000E+00  0.95838244045E+03  0.95838244045E+03  0.00000000000E+00 0. -1.
         -2   -1    0    0    0  501 -0.00000000000E+00 -0.00000000000E+00 -0.64263333012E+02  0.64263333012E+02  0.00000000000E+00 0.  1.
          6    2    1    2  502    0 -0.16934984733E+03 -0.46503899392E+01  0.34125846210E+03  0.42015721603E+03  0.17712637102E+03 0.  0.
         24    2    3    3    0    0 -0.19079943146E+03  0.17939759165E+02  0.25250672598E+03  0.32597993554E+03  0.76006668826E+02 0.  0.
         -6    2    1    2    0  501  0.16934984733E+03  0.46503899392E+01  0.55286064533E+03  0.60248855742E+03  0.16922343736E+03 0.  0.
        -24    2    5    5    0    0  0.84310931570E+02  0.36728529785E+02  0.44534593170E+03  0.46162646921E+03  0.79427200034E+02 0.  0.
          5    1    3    3  502    0  0.21449584131E+02 -0.22590149104E+02  0.88751736124E+02  0.94177280493E+02  0.47000000000E+01 0. -1.
        -11    1    4    4    0    0 -0.10480486947E+03 -0.13578323607E+02  0.18175706200E+03  0.21024761859E+03  0.00000000000E+00 0.  1.
         12    1    4    4    0    0 -0.85994561991E+02  0.31518082771E+02  0.70749663982E+02  0.11573231695E+03  0.00000000000E+00 0. -1.
         -5    1    5    5    0  501  0.85038915763E+02 -0.32078139846E+02  0.10751471363E+03  0.14086208822E+03  0.47000000000E+01 0.  1.
         13    1    6    6    0    0  0.56735213609E+02 -0.13442795177E+02  0.29590456827E+03  0.30159427502E+03  0.00000000000E+00 0. -1.
        -14    1    6    6    0    0  0.27575717961E+02  0.50171324963E+02  0.14944136344E+03  0.16003219419E+03  0.00000000000E+00 0.  1.
</event>
<event>
12    1  0.9656379E-001  0.2022891E+04  0.7818608E-02  0.8595992E-01
          2   -1    0    0  502    0  0.00000000000E+00  0.00000000000E+00  0.38556916777E+04  0.38556916777E+04  0.00000000000E+00 0. -1.
         -2   -1    0    0    0  501 -0.00000000000E+00 -0.00000000000E+00 -0.12341287419E+04  0.12341287419E+04  0.00000000000E+00 0.  1.
          6    2    1    2  502    0  0.20040805095E+04 -0.21405343287E+03  0.35852287184E+03  0.20545373560E+04  0.17443490704E+03 0.  0.
         24    2    3    3    0    0  0.18248656553E+04 -0.14981151625E+03  0.32632520991E+03  0.18613955240E+04  0.75676970994E+02 0.  0.
         -6    2    1    2    0  501 -0.20040805095E+04  0.21405343287E+03  0.22630400640E+04  0.30352830636E+04  0.17156743337E+03 0.  0.
        -24    2    5    5    0    0 -0.13558575584E+04  0.18532030876E+03  0.16048759414E+04  0.21110424623E+04  0.90444209081E+02 0.  0.
          5    1    3    3  502    0  0.17921485424E+03 -0.64241916624E+02  0.32197661933E+02  0.19314183199E+03  0.47000000000E+01 0. -1.
        -13    1    4    4    0    0  0.10491010285E+04 -0.88477350466E+02  0.22551936751E+03  0.10767080359E+04  0.00000000000E+00 0.  1.
         14    1    4    4    0    0  0.77576462680E+03 -0.61334165782E+02  0.10080584240E+03  0.78468748808E+03  0.00000000000E+00 0. -1.
         -5    1    5    5    0  501 -0.64822295108E+03  0.28733124115E+02  0.65816412260E+03  0.92424060126E+03  0.47000000000E+01 0.  1.
         11    1    6    6    0    0 -0.62646585924E+03  0.83785155124E+02  0.81084781649E+03  0.10280824901E+04  0.00000000000E+00 0. -1.
        -12    1    6    6    0    0 -0.72939169916E+03  0.10153515363E+03  0.79402812493E+03  0.10829599722E+04  0.00000000000E+00 0.  1.
</event>
<event>
12    1  0.9656379E-001  0.7591282E+03  0.7818608E-02  0.9621138E-01
          2   -1    0    0  502    0  0.00000000000E+00  0.00000000000E+00  0.18692301051E+04  0.18692301051E+04  0.00000000000E+00 0. -1.
         -2   -1    0    0    0  501 -0.00000000000E+00 -0.00000000000E+00 -0.44830243491E+03  0.44830243491E+03  0.00000000000E+00 0.  1.
          6    2    1    2  502    0  0.68682643645E+03 -0.27352995177E+03  0.63131552650E+02  0.76211212500E+03  0.17401180941E+03 0.  0.
         24    2    3    3    0    0  0.35171333726E+03 -0.12592850091E+03 -0.33835611849E+02  0.38328274582E+03  0.78743607124E+02 0.  0.
         -6    2    1    2    0  501 -0.68682643645E+03  0.27352995177E+03  0.13577961176E+04  0.15554204151E+04  0.17080158762E+03 0.  0.
        -24    2    5    5    0    0 -0.44449753963E+03  0.10357363361E+03  0.81006094149E+03  0.93280949526E+03  0.75028429349E+02 0.  0.
          5    1    3    3  502    0  0.33511309919E+03 -0.14760145086E+03  0.96967164499E+02  0.37882937918E+03  0.47000000000E+01 0. -1.
        -11    1    4    4    0    0  0.25380840840E+03 -0.10794409930E+03 -0.55674723107E+02  0.28137219397E+03  0.00000000000E+00 0.  1.
         12    1    4    4    0    0  0.97904928859E+02 -0.17984401612E+02  0.21839111258E+02  0.10191055184E+03  0.00000000000E+00 0. -1.
         -5    1    5    5    0  501 -0.24232889682E+03  0.16995631816E+03  0.54773517609E+03  0.62261091979E+03  0.47000000000E+01 0.  1.
         11    1    6    6    0    0 -0.34963684692E+03  0.10705824972E+03  0.60645931446E+03  0.70816685438E+03  0.00000000000E+00 0. -1.
        -12    1    6    6    0    0 -0.94860692711E+02 -0.34846161101E+01  0.20360162703E+03  0.22464264088E+03  0.00000000000E+00 0.  1.
</event>
<event>
12    1  0.9656379E-001  0.6067852E+03  0.7818608E-02  0.9891428E-01
          2   -1    0    0  502    0  0.00000000000E+00  0.00000000000E+00  0.37950752078E+04  0.37950752078E+04  0.00000000000E+00 0. -1.
         -2   -1    0    0    0  501 -0.00000000000E+00 -0.00000000000E+00 -0.97168808798E+02  0.97168808798E+02  0.00000000000E+00 0.  1.
          6    2    1    2  502    0 -0.38801931818E+03 -0.43304883221E+03  0.17736151218E+04  0.18746961127E+04  0.17517029569E+03 0.  0.
         24    2    3    3    0    0 -0.18483078689E+03 -0.26766244957E+03  0.11620021011E+04  0.12093159117E+04  0.79940507278E+02 0.  0.
         -6    2    1    2    0  501  0.38801931818E+03  0.43304883221E+03  0.19242912772E+04  0.20175479039E+04  0.17179156694E+03 0.  0.
        -24    2    5    5    0    0  0.16321750555E+03  0.28133467653E+03  0.10867827493E+04  0.11372095233E+04  0.79747108639E+02 0.  0.
          5    1    3    3  502    0 -0.20318853129E+03 -0.16538638264E+03  0.61161302068E+03  0.66538020099E+03  0.47000000000E+01 0. -1.
        -13    1    4    4    0    0 -0.17838437124E+03 -0.20489992074E+03  0.95865915483E+03  0.99640972323E+03  0.00000000000E+00 0.  1.
         14    1    4    4    0    0 -0.64464156524E+01 -0.62762528829E+02  0.20334294626E+03  0.21290618848E+03  0.00000000000E+00 0. -1.
         -5    1    5    5    0  501  0.22480181263E+03  0.15171415568E+03  0.83750852789E+03  0.88033838056E+03  0.47000000000E+01 0.  1.
         11    1    6    6    0    0  0.94298018142E+02  0.99601616066E+02  0.53072198973E+03  0.54815912702E+03  0.00000000000E+00 0. -1.
        -12    1    6    6    0    0  0.68919487409E+02  0.18173306046E+03  0.55606075960E+03  0.58905039630E+03  0.00000000000E+00 0.  1.
</event>
<event>
12    1  0.9656379E-001  0.5891051E+03  0.7818608E-02  0.9928271E-01
         -1   -1    0    0    0  501 -0.00000000000E+00  0.00000000000E+00  0.75042207905E+03  0.75042207905E+03  0.00000000000E+00 0.  1.
          1   -1    0    0  502    0  0.00000000000E+00 -0.00000000000E+00 -0.78656010542E+03  0.78656010542E+03  0.00000000000E+00 0. -1.
          6    2    1    2  502    0 -0.43546200653E+03  0.35734265702E+03  0.47522026289E+03  0.75720552297E+03  0.17379577700E+03 0.  0.
         24    2    3    3    0    0 -0.42739397545E+03  0.29385903185E+03  0.43170508141E+03  0.67967536878E+03  0.81059168266E+02 0.  0.
         -6    2    1    2    0  501  0.43546200653E+03 -0.35734265702E+03 -0.51135828927E+03  0.77977666150E+03  0.17100704123E+03 0.  0.
        -24    2    5    5    0    0  0.17594818437E+03 -0.20545948353E+03 -0.30350262025E+03  0.41420588665E+03  0.79254735363E+02 0.  0.
          5    1    3    3  502    0 -0.80680310839E+01  0.63483625170E+02  0.43515181480E+02  0.77530154196E+02  0.47000000000E+01 0. -1.
        -13    1    4    4    0    0 -0.78215739956E+02  0.86260469216E+02  0.70752056642E+02  0.13625132677E+03  0.00000000000E+00 0.  1.
         14    1    4    4    0    0 -0.34917823549E+03  0.20759856264E+03  0.36095302477E+03  0.54342404201E+03  0.00000000000E+00 0. -1.
         -5    1    5    5    0  501  0.25951382216E+03 -0.15188317349E+03 -0.20785566902E+03  0.36557077485E+03  0.47000000000E+01 0.  1.
         11    1    6    6    0    0  0.14499581991E+03 -0.17495881575E+03 -0.29056391839E+03  0.36886551163E+03  0.00000000000E+00 0. -1.
        -12    1    6    6    0    0  0.30952364456E+02 -0.30500667786E+02 -0.12938701860E+02  0.45340375017E+02  0.00000000000E+00 0.  1.
</event>
<event>
12    1  0.9656379E-001  0.4051795E+03  0.7818608E-02  0.1042001E+00
         -1   -1    0    0    0  501 -0.00000000000E+00  0.00000000000E+00  0.41200744922E+03  0.41200744922E+03  0.00000000000E+00 0.  1.
          1   -1    0    0  502    0  0.00000000000E+00 -0.00000000000E+00 -0.66724255394E+03  0.66724255394E+03  0.00000000000E+00 0. -1.
          6    2    1    2  502    0  0.31325176783E+03  0.19020715491E+03  0.21491882012E+03  0.45842866774E+03  0.17222459855E+03 0.  0.
         24    2    3    3    0    0  0.20631673472E+03  0.14933182584E+03  0.73925680322E+02  0.27675024497E+03  0.79114490749E+02 0.  0.
         -6    2    1    2    0  501 -0.31325176783E+03 -0.19020715491E+03 -0.47015392484E+03  0.62082133542E+03  0.17340411080E+03 0.  0.
        -24    2    5    5    0    0 -0.60469339150E+02 -0.78168474782E+02 -0.12760168028E+03  0.18057623057E+03  0.80986016130E+02 0.  0.
          5    1    3    3  502    0  0.10693503311E+03  0.40875329065E+02  0.14099313979E+03  0.18167842277E+03  0.47000000000E+01 0. -1.
        -11    1    4    4    0    0  0.99290451753E+02  0.11980879585E+03  0.46174795627E+02  0.16231097659E+03  0.00000000000E+00 0.  1.
         12    1    4    4    0    0  0.10702628297E+03  0.29523029996E+02  0.27750884695E+02  0.11443926838E+03  0.00000000000E+00 0. -1.
         -5    1    5    5    0  501 -0.25278242868E+03 -0.11203868013E+03 -0.34255224456E+03  0.44024510485E+03  0.47000000000E+01 0.  1.
         11    1    6    6    0    0 -0.62069270721E+02 -0.34160535147E+02 -0.37204445985E+02  0.80023167460E+02  0.00000000000E+00 0. -1.
        -12    1    6    6    0    0  0.15999315708E+01 -0.44007939635E+02 -0.90397234296E+02  0.10055306311E+03  0.00000000000E+00 0.  1.
</event>
<event>
12    1  0.9656379E-001  0.1766929E+03  0.7818608E-02  0.1171043E+00
          1   -1    0    0  502    0  0.00000000000E+00  0.00000000000E+00  0.78587874944E+03  0.78587874944E+03  0.00000000000E+00 0. -1.
         -1   -1    0    0    0  501 -0.00000000000E+00 -0.00000000000E+00 -0.51743925642E+02  0.51743925642E+02  0.00000000000E+00 0.  1.
          6    2    1    2  502    0  0.41965382808E+02  0.19678833597E+01  0.16504262426E+03  0.24169567071E+03  0.17150149708E+03 0.  0.
         24    2    3    3    0    0  0.47398668096E+01 -0.45815643486E+02  0.34068453561E+02  0.97316559104E+02  0.78665835165E+02 0.  0.
         -6    2    1    2    0  501 -0.41965382808E+02 -0.19678833597E+01  0.56909219953E+03  0.59592700436E+03  0.17175010055E+03 0.  0.
        -24    2    5    5    0    0  0.51868201607E+01  0.53764607660E+02  0.40039077497E+03  0.41204742026E+03  0.80949167518E+02 0.  0.
          5    1    3    3  502    0  0.37225515998E+02  0.47783526846E+02  0.13097417070E+03  0.14437911161E+03  0.47000000000E+01 0. -1.
        -13    1    4    4    0    0  0.31217791195E+02 -0.10790740514E+02 -0.10592735104E+02  0.34687124483E+02  0.00000000000E+00 0.  1.
         14    1    4    4    0    0 -0.26477924385E+02 -0.35024902973E+02  0.44661188665E+02  0.62629434621E+02  0.00000000000E+00 0. -1.
         -5    1    5    5    0  501 -0.47152202968E+02 -0.55732491020E+02  0.16870142457E+03  0.18387958411E+03  0.47000000000E+01 0.  1.
         11    1    6    6    0    0 -0.23545979044E+02  0.25752542997E+02  0.60861199854E+02  0.70154773520E+02  0.00000000000E+00 0. -1.
        -12    1    6    6    0    0  0.28732799205E+02  0.28012064663E+02  0.33952957511E+03  0.34189264674E+03  0.00000000000E+00 0.  1.
</event>
<event>
12    1  0.9656379E-001  0.4461316E+03  0.7818608E-02  0.1028882E+00
          2   -1    0    0  502    0  0.00000000000E+00  0.00000000000E+00  0.16902582004E+04  0.16902582004E+04  0.00000000000E+00 0. -1.
         -2   -1    0    0    0  501 -0.00000000000E+00 -0.00000000000E+00 -0.11965030134E+03  0.11965030134E+03  0.00000000000E+00 0.  1.
          6    2    1    2  502    0 -0.32971039352E+03 -0.24530854874E+03  0.89962020806E+03  0.10042607509E+04  0.17417780961E+03 0.  0.
         24    2    3    3    0    0 -0.10149524834E+03 -0.39946313985E+02  0.23851752078E+03  0.27533369482E+03  0.83791660362E+02 0.  0.
         -6    2    1    2    0  501  0.32971039352E+03  0.24530854874E+03  0.67098769095E+03  0.80564775080E+03  0.17308549703E+03 0.  0.
        -24    2    5    5    0    0  0.30153263805E+03  0.26052388356E+03  0.65153196106E+03  0.76788390906E+03  0.79731899509E+02 0.  0.
          5    1    3    3  502    0 -0.22821514518E+03 -0.20536223475E+03  0.66110268728E+03  0.72892705608E+03  0.47000000000E+01 0. -1.
        -13    1    4    4    0    0 -0.90105403818E+02 -0.49117521461E+02  0.23961814160E+03  0.26066907852E+03  0.00000000000E+00 0.  1.
         14    1    4    4    0    0 -0.11389844524E+02  0.91712074760E+01 -0.11006208268E+01  0.14664616294E+02  0.00000000000E+00 0. -1.
         -5    1    5    5    0  501  0.28177755470E+02 -0.15215334824E+02  0.19455729889E+02  0.37763841736E+02  0.47000000000E+01 0.  1.
         11    1    6    6    0    0  0.19887581717E+03  0.15613545706E+03  0.47872595453E+03  0.54139487543E+03  0.00000000000E+00 0. -1.
        -12    1    6    6    0    0  0.10265682088E+03  0.10438842651E+03  0.17280600653E+03  0.22648903363E+03  0.00000000000E+00 0.  1.
</event>
<event>
12    1  0.9656379E-001  0.2184870E+03  0.7818608E-02  0.1135016E+00
          2   -1    0    0  502    0  0.00000000000E+00  0.00000000000E+00  0.72183971118E+03  0.72183971118E+03  0.00000000000E+00 0.  1.
         -2   -1    0    0    0  501 -0.00000000000E+00 -0.00000000000E+00 -0.67239043739E+02  0.67239043739E+02  0.00000000000E+00 0. -1.
          6    2    1    2  502    0  0.96098513389E+02  0.95960224252E+02  0.37840522331E+03  0.43711502079E+03  0.17156846872E+03 0.  0.
         24    2    3    3    0    0  0.28776454596E+02 -0.15652846419E+02  0.11880757820E+03  0.14659348202E+03  0.79380806195E+02 0.  0.
         -6    2    1    2    0  501 -0.96098513389E+02 -0.95960224252E+02  0.27619544413E+03  0.35196373413E+03  0.17073739446E+03 0.  0.
        -24    2    5    5    0    0  0.11177155564E+02 -0.52989879869E+02  0.16659201197E+03  0.19262283546E+03  0.80111185950E+02 0.  0.
          5    1    3    3  502    0  0.67322058793E+02  0.11161307067E+03  0.25959764511E+03  0.29052153877E+03  0.47000000000E+01 0. -1.
        -11    1    4    4    0    0 -0.19125564038E+01  0.15794259356E+02  0.95573735066E+02  0.96888881380E+02  0.00000000000E+00 0.  1.
         12    1    4    4    0    0  0.30689011000E+02 -0.31447105774E+02  0.23233843133E+02  0.49704600637E+02  0.00000000000E+00 0. -1.
         -5    1    5    5    0  501 -0.10727566895E+03 -0.42970344383E+02  0.10960343216E+03  0.15934089866E+03  0.47000000000E+01 0.  1.
         13    1    6    6    0    0  0.14810010858E+02 -0.29463823737E+02  0.10328033038E+02  0.34556064551E+02  0.00000000000E+00 0. -1.
        -14    1    6    6    0    0 -0.36328552938E+01 -0.23526056132E+02  0.15626397893E+03  0.15806677091E+03  0.00000000000E+00 0.  1.
</event>
<event>
12    1  0.9656379E-001  0.2724064E+03  0.7818608E-02  0.1099910E+00
          2   -1    0    0  502    0  0.00000000000E+00  0.00000000000E+00  0.72665449491E+03  0.72665449491E+03  0.00000000000E+00 0. -1.
         -2   -1    0    0    0  501 -0.00000000000E+00 -0.00000000000E+00 -0.24221030783E+03  0.24221030783E+03  0.00000000000E+00 0.  1.
          6    2    1    2  502    0 -0.12211899549E+03 -0.16771318847E+03 -0.12506582852E+03  0.30244376424E+03  0.18108011049E+03 0.  0.
         24    2    3    3    0    0  0.22769129382E+01 -0.12153916812E+03 -0.98699267464E+02  0.16707882147E+03  0.58282359810E+02 0.  0.
         -6    2    1    2    0  501  0.12211899549E+03  0.16771318847E+03  0.60951001560E+03  0.66642103850E+03  0.17197028463E+03 0.  0.
        -24    2    5    5    0    0  0.14101373162E+03  0.18099796104E+03  0.57738900138E+03  0.62657953012E+03  0.81109273466E+02 0.  0.
          5    1    3    3  502    0 -0.12439590843E+03 -0.46174020351E+02 -0.26366561055E+02  0.13536494277E+03  0.47000000000E+01 0. -1.
        -13    1    4    4    0    0 -0.12956165491E+02 -0.45074228616E+02 -0.81745806747E+01  0.47606428965E+02  0.00000000000E+00 0.  1.
         14    1    4    4    0    0  0.15233078429E+02 -0.76464939502E+02 -0.90524686790E+02  0.11947239250E+03  0.00000000000E+00 0. -1.
         -5    1    5    5    0  501 -0.18894736131E+02 -0.13284772574E+02  0.32121014220E+02  0.39841508384E+02  0.47000000000E+01 0.  1.
         13    1    6    6    0    0  0.79180781947E+02  0.78284332159E+02  0.37665709781E+03  0.39277041923E+03  0.00000000000E+00 0. -1.
        -14    1    6    6    0    0  0.61832949677E+02  0.10271362888E+03  0.20073190357E+03  0.23380911089E+03  0.00000000000E+00 0.  1.
</event>
<event>
12    1  0.9656379E-001  0.2847364E+03  0.7818608E-02  0.1093130E+00
         -2   -1    0    0    0  501 -0.00000000000E+00  0.00000000000E+00  0.13039126855E+03  0.13039126855E+03  0.00000000000E+00 0.  1.
          2   -1    0    0  502    0  0.00000000000E+00 -0.00000000000E+00 -0.18826631709E+04  0.18826631709E+04  0.00000000000E+00 0. -1.
          6    2    1    2  502    0 -0.17080382816E+03  0.14916247109E+03 -0.51674117260E+02  0.28866204393E+03  0.17097418142E+03 0.  0.
         24    2    3    3    0    0 -0.13929333647E+03  0.12940505781E+03  0.22744097892E+02  0.20533481421E+03  0.74140335618E+02 0.  0.
         -6    2    1    2    0  501  0.17080382816E+03 -0.14916247109E+03 -0.17005977851E+04  0.17243923956E+04  0.17341544502E+03 0.  0.
        -24    2    5    5    0    0  0.16282720693E+03 -0.81039642228E+02 -0.94698835478E+03  0.96765359662E+03  0.80538289283E+02 0.  0.
          5    1    3    3  502    0 -0.31510491693E+02  0.19757413288E+02 -0.74418215153E+02  0.83327229722E+02  0.47000000000E+01 0. -1.
        -13    1    4    4    0    0 -0.12019725400E+03  0.68373623971E+02  0.26712122689E+01  0.13830931892E+03  0.00000000000E+00 0.  1.
         14    1    4    4    0    0 -0.19096082470E+02  0.61031433834E+02  0.20072885624E+02  0.67025495290E+02  0.00000000000E+00 0. -1.
         -5    1    5    5    0  501  0.79766212318E+01 -0.68122828865E+02 -0.75360943036E+03  0.75673879894E+03  0.47000000000E+01 0.  1.
         11    1    6    6    0    0  0.64427012791E+02  0.39365727192E+01 -0.22601555924E+03  0.23505184450E+03  0.00000000000E+00 0. -1.
        -12    1    6    6    0    0  0.98400194141E+02 -0.84976214947E+02 -0.72097279553E+03  0.73260175212E+03  0.00000000000E+00 0.  1.
</event>
<event>
12    1  0.9656379E-001  0.3170829E+03  0.7818608E-02  0.1077000E+00
         -1   -1    0    0    0  501 -0.00000000000E+00  0.00000000000E+00  0.13621037598E+03  0.13621037598E+03  0.00000000000E+00 0.  1.
          1   -1    0    0  502    0  0.00000000000E+00 -0.00000000000E+00 -0.96296032595E+03  0.96296032595E+03  0.00000000000E+00 0. -1.
          6    2    1    2  502    0 -0.48433259206E+02 -0.26515245295E+03 -0.14485307191E+03  0.34587331093E+03  0.16122757478E+03 0.  0.
         24    2    3    3    0    0 -0.55475580085E+02 -0.26569299426E+03 -0.10460087242E+03  0.30473675745E+03  0.90845152027E+02 0.  0.
         -6    2    1    2    0  501  0.48433259206E+02  0.26515245295E+03 -0.68189687806E+03  0.75329739101E+03  0.17269048349E+03 0.  0.
        -24    2    5    5    0    0  0.55381633743E+02  0.21768914190E+03 -0.65727283960E+03  0.69917272866E+03  0.79870088067E+02 0.  0.
          5    1    3    3  502    0  0.70423208793E+01  0.54054131101E+00 -0.40252199488E+02  0.41136553476E+02  0.47000000000E+01 0. -1.
        -13    1    4    4    0    0 -0.23849277954E+02 -0.63756603382E+02  0.12443542281E+02  0.69199236110E+02  0.00000000000E+00 0.  1.
         14    1    4    4    0    0 -0.31626302131E+02 -0.20193639088E+03 -0.11704441470E+03  0.23553752134E+03  0.00000000000E+00 0. -1.
         -5    1    5    5    0  501 -0.69483745369E+01  0.47463311044E+02 -0.24624038461E+02  0.54124662346E+02  0.47000000000E+01 0.  1.
         11    1    6    6    0    0  0.60876303862E+02  0.19994631665E+03 -0.51660273265E+03  0.55728164988E+03  0.00000000000E+00 0. -1.
        -12    1    6    6    0    0 -0.54946701192E+01  0.17742825257E+02 -0.14067010696E+03  0.14189107879E+03  0.00000000000E+00 0.  1.
</event>
<event>
12    1  0.9656379E-001  0.3881651E+03  0.7818608E-02  0.1047956E+00
          2   -1    0    0  502    0  0.00000000000E+00  0.00000000000E+00  0.11119729946E+04  0.11119729946E+04  0.00000000000E+00 0. -1.
         -2   -1    0    0    0  501 -0.00000000000E+00 -0.00000000000E+00 -0.62283033853E+03  0.62283033853E+03  0.00000000000E+00 0.  1.
          6    2    1    2  502    0  0.33566131563E+03  0.91887484762E+02 -0.52272386636E+03  0.65096771809E+03  0.17148440413E+03 0.  0.
         24    2    3    3    0    0  0.18181279719E+03  0.94721624224E+02 -0.38361517337E+03  0.44348104999E+03  0.86526072024E+02 0.  0.
         -6    2    1    2    0  501 -0.33566131563E+03 -0.91887484762E+02  0.10118665225E+04  0.10838356151E+04  0.17237735516E+03 0.  0.
        -24    2    5    5    0    0 -0.20837753192E+03 -0.12901793174E+03  0.65707574831E+03  0.70505016775E+03  0.72666206054E+02 0.  0.
          5    1    3    3  502    0  0.15384851844E+03 -0.28341394620E+01 -0.13910869299E+03  0.20748666810E+03  0.47000000000E+01 0. -1.
        -11    1    4    4    0    0  0.49284686834E+02  0.43144476827E+01 -0.37785060224E+02  0.62251952509E+02  0.00000000000E+00 0.  1.
         12    1    4    4    0    0  0.13252811036E+03  0.90407176542E+02 -0.34583011315E+03  0.38122909748E+03  0.00000000000E+00 0. -1.
         -5    1    5    5    0  501 -0.12728378371E+03  0.37130446982E+02  0.35479077416E+03  0.37878544734E+03  0.47000000000E+01 0.  1.
         13    1    6    6    0    0 -0.19372660024E+03 -0.89781569392E+02  0.55997678298E+03  0.59930353188E+03  0.00000000000E+00 0. -1.
        -14    1    6    6    0    0 -0.14650931679E+02 -0.39236362352E+02  0.97098965326E+02  0.10574663587E+03  0.00000000000E+00 0.  1.
</event>
<event>
12    1  0.9656379E-001  0.4137568E+03  0.7818608E-02  0.1039118E+00
         -2   -1    0    0    0  501 -0.00000000000E+00  0.00000000000E+00  0.61351396145E+02  0.61351396145E+02  0.00000000000E+00 0.  1.
          2   -1    0    0  502    0  0.00000000000E+00 -0.00000000000E+00 -0.39836277361E+04  0.39836277361E+04  0.00000000000E+00 0. -1.
          6    2    1    2  502    0  0.16728837234E+03 -0.33656145309E+03 -0.85364571257E+03  0.94855604281E+03  0.17259360513E+03 0.  0.
         24    2    3    3    0    0  0.76416581228E+02 -0.17108518790E+03 -0.27463528036E+03  0.33952792574E+03  0.68884248847E+02 0.  0.
         -6    2    1    2    0  501 -0.16728837234E+03  0.33656145309E+03 -0.30686306273E+04  0.30964230894E+04  0.17344454513E+03 0.  0.
        -24    2    5    5    0    0 -0.68954772009E+02  0.25708763217E+03 -0.17706843127E+04  0.17923248144E+04  0.79098001540E+02 0.  0.
          5    1    3    3  502    0  0.90871791115E+02 -0.16547626520E+03 -0.57901043222E+03  0.60902811707E+03  0.47000000000E+01 0. -1.
        -11    1    4    4    0    0  0.74346595808E+02 -0.85761483117E+02 -0.17151096749E+03  0.20566589475E+03  0.00000000000E+00 0.  1.
         12    1    4    4    0    0  0.20699854198E+01 -0.85323704782E+02 -0.10312431286E+03  0.13386203099E+03  0.00000000000E+00 0. -1.
         -5    1    5    5    0  501 -0.98333600334E+02  0.79473820922E+02 -0.12979463146E+04  0.13040982750E+04  0.47000000000E+01 0.  1.
         11    1    6    6    0    0 -0.23526723610E+02  0.89465469369E+02 -0.88139816183E+03  0.88623941270E+03  0.00000000000E+00 0. -1.
        -12    1    6    6    0    0 -0.45428048400E+02  0.16762216280E+03 -0.88928615087E+03  0.90608540170E+03  0.00000000000E+00 0.  1.
</event>
<event>
12    1  0.9656379E-001  0.8150574E+03  0.7818608E-02  0.9538474E-01
          2   -1    0    0  502    0  0.00000000000E+00  0.00000000000E+00  0.12362803956E+04  0.12362803956E+04  0.00000000000E+00 0. -1.
         -2   -1    0    0    0  501 -0.00000000000E+00 -0.00000000000E+00 -0.12974771020E+04  0.12974771020E+04  0.00000000000E+00 0.  1.
          6    2    1    2  502    0  0.54770491341E+03 -0.57852570021E+03 -0.10002772276E+04  0.12903344651E+04  0.17244083550E+03 0.  0.
         24    2    3    3    0    0  0.36177990561E+03 -0.37959516560E+03 -0.76328636585E+03  0.92932445874E+03  0.77850391561E+02 0.  0.
         -6    2    1    2    0  501 -0.54770491341E+03  0.57852570021E+03  0.93908052112E+03  0.12434230325E+04  0.17191845377E+03 0.  0.
        -24    2    5    5    0    0 -0.55485550639E+03  0.55030325665E+03  0.90345458663E+03  0.11971744163E+04  0.79360478708E+02 0.  0.
          5    1    3    3  502    0  0.18592500780E+03 -0.19893053461E+03 -0.23699086173E+03  0.36101000633E+03  0.47000000000E+01 0. -1.
        -11    1    4    4    0    0  0.29139989607E+03 -0.27142915709E+03 -0.53292027015E+03  0.66527565796E+03  0.00000000000E+00 0.  1.
         12    1    4    4    0    0  0.70380009541E+02 -0.10816600851E+03 -0.23036609571E+03  0.26404880078E+03  0.00000000000E+00 0. -1.
         -5    1    5    5    0  501  0.71505929858E+01  0.28222443562E+02  0.35625934489E+02  0.46248616291E+02  0.47000000000E+01 0.  1.
         13    1    6    6    0    0 -0.31149143176E+03  0.25379095387E+03  0.45247150305E+03  0.60511752693E+03  0.00000000000E+00 0. -1.
        -14    1    6    6    0    0 -0.24336407463E+03  0.29651230278E+03  0.45098308358E+03  0.59205688933E+03  0.00000000000E+00 0.  1.
</event>
<event>
12    1  0.9656379E-001  0.7290712E+03  0.7818608E-02  0.9668769E-01
         -2   -1    0    0    0  501 -0.00000000000E+00  0.00000000000E+00  0.56723462267E+03  0.56723462267E+03  0.00000000000E+00 0.  1.
          2   -1    0    0  502    0  0.00000000000E+00 -0.00000000000E+00 -0.10385592515E+04  0.10385592515E+04  0.00000000000E+00 0. -1.
          6    2    1    2  502    0 -0.32550987978E+03 -0.62939486348E+03 -0.48665875950E+03  0.87663526751E+03  0.17192459985E+03 0.  0.
         24    2    3    3    0    0 -0.99594800937E+02 -0.16119303268E+03 -0.16616384514E+03  0.26590647554E+03  0.84814575056E+02 0.  0.
         -6    2    1    2    0  501  0.32550987978E+03  0.62939486348E+03  0.15334130698E+02  0.72915860663E+03  0.17129670765E+03 0.  0.
        -24    2    5    5    0    0  0.25180580835E+03  0.34351711515E+03  0.18227304193E+02  0.43388104638E+03  0.80686766381E+02 0.  0.
          5    1    3    3  502    0 -0.22591507884E+03 -0.46820183080E+03 -0.32049491435E+03  0.61072879197E+03  0.47000000000E+01 0. -1.
        -13    1    4    4    0    0 -0.89472249830E+02 -0.16722949734E+03 -0.16872158609E+03  0.25384633518E+03  0.00000000000E+00 0.  1.
         14    1    4    4    0    0 -0.10122551107E+02  0.60364646662E+01  0.25577409508E+01  0.12060140354E+02  0.00000000000E+00 0. -1.
         -5    1    5    5    0  501  0.73704071424E+02  0.28587774832E+03 -0.28931734943E+01  0.29527756025E+03  0.47000000000E+01 0.  1.
         11    1    6    6    0    0  0.22027145231E+03  0.31244006807E+03 -0.81082578811E+01  0.38236638540E+03  0.00000000000E+00 0. -1.
        -12    1    6    6    0    0  0.31534356044E+02  0.31077047084E+02  0.26335562074E+02  0.51514660984E+02  0.00000000000E+00 0.  1.
</event>
<event>
12    1  0.9656379E-001  0.3772617E+03  0.7818608E-02  0.1051951E+00
         -2   -1    0    0    0  501 -0.00000000000E+00  0.00000000000E+00  0.16402987890E+03  0.16402987890E+03  0.00000000000E+00 0.  1.
          2   -1    0    0  502    0  0.00000000000E+00 -0.00000000000E+00 -0.96495676749E+03  0.96495676749E+03  0.00000000000E+00 0. -1.
          6    2    1    2  502    0 -0.31771185861E+03 -0.10539747290E+03 -0.22026180388E+03  0.43596547800E+03  0.17175908524E+03 0.  0.
         24    2    3    3    0    0 -0.10351277907E+03 -0.43718360393E+02 -0.27732012827E+02  0.14138888518E+03  0.81213064525E+02 0.  0.
         -6    2    1    2    0  501  0.31771185861E+03  0.10539747290E+03 -0.58066508471E+03  0.69302116838E+03  0.17622981255E+03 0.  0.
        -24    2    5    5    0    0  0.55357081600E+02  0.51587784714E+01 -0.15567851131E+03  0.18359649049E+03  0.79880241342E+02 0.  0.
          5    1    3    3  502    0 -0.21419907954E+03 -0.61679112505E+02 -0.19252979106E+03  0.29457659283E+03  0.47000000000E+01 0. -1.
        -11    1    4    4    0    0 -0.10921160569E+03 -0.51766830016E+02 -0.38446199663E+02  0.12682700728E+03  0.00000000000E+00 0.  1.
         12    1    4    4    0    0  0.56988266245E+01  0.80484696223E+01  0.10714186836E+02  0.14561877891E+02  0.00000000000E+00 0. -1.
         -5    1    5    5    0  501  0.26235477701E+03  0.10023869443E+03 -0.42498657339E+03  0.50942467789E+03  0.47000000000E+01 0.  1.
         13    1    6    6    0    0  0.15699340854E+01  0.35108416149E+02 -0.66773518844E+02  0.75457063263E+02  0.00000000000E+00 0. -1.
        -14    1    6    6    0    0  0.53787147515E+02 -0.29949637678E+02 -0.88904992469E+02  0.10813942723E+03  0.00000000000E+00 0.  1.
</event>
<event>
12    1  0.9656379E-001  0.4039269E+03  0.7818608E-02  0.1042428E+00
         -2   -1    0    0    0  501 -0.00000000000E+00  0.00000000000E+00  0.21365259315E+03  0.21365259315E+03  0.00000000000E+00 0.  1.
          2   -1    0    0  502    0  0.00000000000E+00 -0.00000000000E+00 -0.77656482473E+03  0.77656482473E+03  0.00000000000E+00 0. -1.
          6    2    1    2  502    0  0.12700875610E+02  0.36262143268E+03 -0.21862254477E+03  0.46055463911E+03  0.18071840760E+03 0.  0.
         24    2    3    3    0    0  0.31777076194E+02  0.19511904215E+03 -0.50510814118E+02  0.22242737011E+03  0.88551507313E+02 0.  0.
         -6    2    1    2    0  501 -0.12700875610E+02 -0.36262143268E+03 -0.34428968681E+03  0.52966277878E+03  0.17421726407E+03 0.  0.
        -24    2    5    5    0    0 -0.64728796300E+02 -0.29384715360E+03 -0.30159340983E+03  0.43332032676E+03  0.79195668929E+02 0.  0.
          5    1    3    3  502    0 -0.19076200585E+02  0.16750239052E+03 -0.16811173065E+03  0.23812726900E+03  0.47000000000E+01 0. -1.
        -11    1    4    4    0    0  0.19779213237E+02  0.14804849481E+03  0.39949927793E+01  0.14941731513E+03  0.00000000000E+00 0.  1.
         12    1    4    4    0    0  0.11997862958E+02  0.47070547339E+02 -0.54505806897E+02  0.73010054978E+02  0.00000000000E+00 0. -1.
         -5    1    5    5    0  501  0.52027920690E+02 -0.68774279076E+02 -0.42696276979E+02  0.96342452022E+02  0.47000000000E+01 0.  1.
         11    1    6    6    0    0 -0.19926279109E+02 -0.10447369384E+02 -0.11357156138E+02  0.25202958590E+02  0.00000000000E+00 0. -1.
        -12    1    6    6    0    0 -0.44802517190E+02 -0.28339978422E+03 -0.29023625369E+03  0.40811736817E+03  0.00000000000E+00 0.  1.
</event>
<event>
12    1  0.9656379E-001  0.1986441E+03  0.7818608E-02  0.1150888E+00
         -2   -1    0    0    0  501 -0.00000000000E+00  0.00000000000E+00  0.26422400616E+02  0.26422400616E+02  0.00000000000E+00 0.  1.
          2   -1    0    0  502    0  0.00000000000E+00 -0.00000000000E+00 -0.16562784590E+04  0.16562784590E+04  0.00000000000E+00 0. -1.
          6    2    1    2  502    0 -0.18342049306E+02  0.95533955605E+02 -0.55385486700E+03  0.58865114148E+03  0.17404535390E+03 0.  0.
         24    2    3    3    0    0 -0.38425475087E+02  0.12886953175E+03 -0.39099650583E+03  0.42114131958E+03  0.79986687274E+02 0.  0.
         -6    2    1    2    0  501  0.18342049306E+02 -0.95533955605E+02 -0.10760011913E+04  0.10940497181E+04  0.17234574104E+03 0.  0.
        -24    2    5    5    0    0 -0.18526312777E+02 -0.10508883187E+03 -0.10000618361E+04  0.10089647755E+04  0.80618579213E+02 0.  0.
          5    1    3    3  502    0  0.20083425781E+02 -0.33335576141E+02 -0.16285836117E+03  0.16750982190E+03  0.47000000000E+01 0. -1.
        -11    1    4    4    0    0 -0.52585238552E+01  0.86046169960E+02 -0.32246271841E+03  0.33378705817E+03  0.00000000000E+00 0.  1.
         12    1    4    4    0    0 -0.33166951231E+02  0.42823361786E+02 -0.68533787414E+02  0.87354261407E+02  0.00000000000E+00 0. -1.
         -5    1    5    5    0  501  0.36868362083E+02  0.95548762686E+01 -0.75939355234E+02  0.85084942596E+02  0.47000000000E+01 0.  1.
         11    1    6    6    0    0  0.20902140458E+02 -0.82837578674E+02 -0.74865620611E+03  0.75351514840E+03  0.00000000000E+00 0. -1.
        -12    1    6    6    0    0 -0.39428453235E+02 -0.22251253200E+02 -0.25140562999E+03  0.25544962710E+03  0.00000000000E+00 0.  1.
</event>
<event>
12    1  0.9656379E-001  0.7099314E+03  0.7818608E-02  0.9700397E-01
          1   -1    0    0  502    0  0.00000000000E+00  0.00000000000E+00  0.84811041874E+03  0.84811041874E+03  0.00000000000E+00 0. -1.
         -1   -1    0    0    0  501 -0.00000000000E+00 -0.00000000000E+00 -0.25461881323E+04  0.25461881323E+04  0.00000000000E+00 0.  1.
          6    2    1    2  502    0  0.66402871518E+03  0.18346996554E+03 -0.23349786298E+04  0.24405004311E+04  0.17123606492E+03 0.  0.
         24    2    3    3    0    0  0.44120399438E+03  0.10134461431E+03 -0.17470308028E+04  0.18063867451E+04  0.77361175852E+02 0.  0.
         -6    2    1    2    0  501 -0.66402871518E+03 -0.18346996554E+03  0.63690091619E+03  0.95379811994E+03  0.17173442787E+03 0.  0.
        -24    2    5    5    0    0 -0.34977309898E+03 -0.13220740016E+03  0.42266510114E+03  0.56999671638E+03  0.80190096261E+02 0.  0.
          5    1    3    3  502    0  0.22282472079E+03  0.82125351224E+02 -0.58794782694E+03  0.63411368596E+03  0.47000000000E+01 0. -1.
        -11    1    4    4    0    0  0.43474232499E+03  0.93874212668E+02 -0.17334225421E+04  0.17895717271E+04  0.00000000000E+00 0.  1.
         12    1    4    4    0    0  0.64616693959E+01  0.74704016448E+01 -0.13608260664E+02  0.16815018002E+02  0.00000000000E+00 0. -1.
         -5    1    5    5    0  501 -0.31425561620E+03 -0.51262565379E+02  0.21423581506E+03  0.38380140356E+03  0.47000000000E+01 0.  1.
         11    1    6    6    0    0 -0.22400097446E+03 -0.66898609205E+02  0.20885377344E+03  0.31348326773E+03  0.00000000000E+00 0. -1.
        -12    1    6    6    0    0 -0.12577212452E+03 -0.65308790954E+02  0.21381132770E+03  0.25651344865E+03  0.00000000000E+00 0.  1.
</event>
<event>
12    1  0.9656379E-001  0.1194514E+04  0.7818608E-02  0.9117672E-01
          2   -1    0    0  502    0  0.00000000000E+00  0.00000000000E+00  0.26287557172E+04  0.26287557172E+04  0.00000000000E+00 0. -1.
         -2   -1    0    0    0  501 -0.00000000000E+00 -0.00000000000E+00 -0.66664721930E+03  0.66664721930E+03  0.00000000000E+00 0.  1.
          6    2    1    2  502    0  0.78241242820E+03 -0.88604579106E+03  0.27085033697E+03  0.12248538753E+04  0.17222299264E+03 0.  0.
         24    2    3    3    0    0  0.72530178053E+03 -0.86007229305E+03  0.23287307043E+03  0.11513650228E+04  0.74996843971E+02 0.  0.
         -6    2    1    2    0  501 -0.78241242820E+03  0.88604579106E+03  0.16912581609E+04  0.20705490611E+04  0.17196771830E+03 0.  0.
        -24    2    5    5    0    0 -0.69309908554E+03  0.83460547395E+03  0.15794105219E+04  0.19183815096E+04  0.93259745080E+02 0.  0.
          5    1    3    3  502    0  0.57110647669E+02 -0.25973498013E+02  0.37977266537E+02  0.73488852555E+02  0.47000000000E+01 0. -1.
        -13    1    4    4    0    0  0.31188770052E+03 -0.37131837225E+03  0.13835563097E+03  0.50427527396E+03  0.00000000000E+00 0.  1.
         14    1    4    4    0    0  0.41341408001E+03 -0.48875392080E+03  0.94517439456E+02  0.64708974881E+03  0.00000000000E+00 0. -1.
         -5    1    5    5    0  501 -0.89313342658E+02  0.51440317115E+02  0.11184763897E+03  0.15216755155E+03  0.47000000000E+01 0.  1.
         11    1    6    6    0    0 -0.20466535341E+03  0.24471036799E+03  0.54171184674E+03  0.62866747648E+03  0.00000000000E+00 0. -1.
        -12    1    6    6    0    0 -0.48843373213E+03  0.58989510596E+03  0.10376986752E+04  0.12897140331E+04  0.00000000000E+00 0.  1.
</event>
<event>
12    1  0.9656379E-001  0.4366193E+03  0.7818608E-02  0.1031789E+00
          2   -1    0    0  502    0  0.00000000000E+00  0.00000000000E+00  0.23021773586E+04  0.23021773586E+04  0.00000000000E+00 0. -1.
         -2   -1    0    0    0  501 -0.00000000000E+00 -0.00000000000E+00 -0.10387367936E+03  0.10387367936E+03  0.00000000000E+00 0.  1.
          6    2    1    2  502    0  0.29819102086E+03 -0.27076467947E+03  0.55912607773E+03  0.70994323278E+03  0.17078063826E+03 0.  0.
         24    2    3    3    0    0  0.26308903719E+03 -0.28727306931E+03  0.52452213714E+03  0.65774937398E+03  0.75954649460E+02 0.  0.
         -6    2    1    2    0  501 -0.29819102086E+03  0.27076467947E+03  0.16391776015E+04  0.16961078052E+04  0.16627411386E+03 0.  0.
        -24    2    5    5    0    0 -0.27633894583E+03  0.20507653025E+03  0.14933364981E+04  0.15346018809E+04  0.80804950968E+02 0.  0.
          5    1    3    3  502    0  0.35101983675E+02  0.16508389838E+02  0.34603940588E+02  0.52193858807E+02  0.47000000000E+01 0. -1.
        -13    1    4    4    0    0  0.11632916576E+03 -0.74015629211E+02  0.19002566035E+03  0.23477763898E+03  0.00000000000E+00 0.  1.
         14    1    4    4    0    0  0.14675987143E+03 -0.21325744010E+03  0.33449647680E+03  0.42297173500E+03  0.00000000000E+00 0. -1.
         -5    1    5    5    0  501 -0.21852075034E+02  0.65688149225E+02  0.14584110345E+03  0.16150592431E+03  0.47000000000E+01 0.  1.
         11    1    6    6    0    0 -0.12048385587E+03  0.47553429832E+02  0.63891016771E+03  0.65190788507E+03  0.00000000000E+00 0. -1.
        -12    1    6    6    0    0 -0.15585508996E+03  0.15752310041E+03  0.85442633036E+03  0.88269399581E+03  0.00000000000E+00 0.  1.
</event>
<event>
12    1  0.9656379E-001  0.3369581E+03  0.7818608E-02  0.1068099E+00
         -2   -1    0    0    0  501 -0.00000000000E+00  0.00000000000E+00  0.12109378644E+03  0.12109378644E+03  0.00000000000E+00 0. -1.
          2   -1    0    0  502    0  0.00000000000E+00 -0.00000000000E+00 -0.11611825547E+04  0.11611825547E+04  0.00000000000E+00 0.  1.
          6    2    1    2  502    0 -0.24469281463E+03 -0.14855152725E+03 -0.80470632067E+03  0.87346553026E+03  0.18288696033E+03 0.  0.
         24    2    3    3    0    0 -0.11342075370E+03 -0.12683735783E+02 -0.45514271489E+03  0.47608760533E+03  0.80494549568E+02 0.  0.
         -6    2    1    2    0  501  0.24469281463E+03  0.14855152725E+03 -0.23538244759E+03  0.40881081086E+03  0.17256666151E+03 0.  0.
        -24    2    5    5    0    0  0.81881063561E+02  0.12670777690E+03 -0.10204531161E+03  0.19718449504E+03  0.75558653810E+02 0.  0.
          5    1    3    3  502    0 -0.13127206094E+03 -0.13586779147E+03 -0.34956360578E+03  0.39737792494E+03  0.47000000000E+01 0. -1.
        -13    1    4    4    0    0 -0.12545739732E+03 -0.12575669086E+02 -0.39105299162E+03  0.41087729099E+03  0.00000000000E+00 0.  1.
         14    1    4    4    0    0  0.12036643618E+02 -0.10806669648E+00 -0.64089723269E+02  0.65210314343E+02  0.00000000000E+00 0. -1.
         -5    1    5    5    0  501  0.16281175107E+03  0.21843750347E+02 -0.13333713598E+03  0.21162631582E+03  0.47000000000E+01 0.  1.
         11    1    6    6    0    0  0.40699719349E+02  0.10439704618E+02 -0.97582537708E+01  0.43135578172E+02  0.00000000000E+00 0. -1.
        -12    1    6    6    0    0  0.41181344212E+02  0.11626807228E+03 -0.92287057836E+02  0.15404891687E+03  0.00000000000E+00 0.  1.
</event>
<event>
12    1  0.9656379E-001  0.3573918E+03  0.7818608E-02  0.1059621E+00
          2   -1    0    0  502    0  0.00000000000E+00  0.00000000000E+00  0.17748696706E+03  0.17748696706E+03  0.00000000000E+00 0. -1.
         -2   -1    0    0    0  501 -0.00000000000E+00 -0.00000000000E+00 -0.76840502465E+03  0.76840502465E+03  0.00000000000E+00 0.  1.
          6    2    1    2  502    0 -0.11100157494E+03 -0.29306251095E+03 -0.41471122062E+03  0.54756629490E+03  0.17215244940E+03 0.  0.
         24    2    3    3    0    0 -0.52802803014E+02 -0.16179053606E+03 -0.33283854296E+03  0.38220410517E+03  0.79587491230E+02 0.  0.
         -6    2    1    2    0  501  0.11100157494E+03  0.29306251095E+03 -0.17620683697E+03  0.39832569682E+03  0.17148622799E+03 0.  0.
        -24    2    5    5    0    0  0.73797067304E+02  0.66240677955E+02 -0.65031575125E+02  0.14295469581E+03  0.79831727600E+02 0.  0.
          5    1    3    3  502    0 -0.58198771923E+02 -0.13127197489E+03 -0.81872677657E+02  0.16536218973E+03  0.47000000000E+01 0. -1.
        -13    1    4    4    0    0 -0.52858310267E+02 -0.16170710808E+03 -0.26846934819E+03  0.31783483240E+03  0.00000000000E+00 0.  1.
         14    1    4    4    0    0  0.55507253209E-01 -0.83427982463E-01 -0.64369194771E+02  0.64369272768E+02  0.00000000000E+00 0. -1.
         -5    1    5    5    0  501  0.37204507633E+02  0.22682183300E+03 -0.11117526185E+03  0.25537100102E+03  0.47000000000E+01 0.  1.
         11    1    6    6    0    0  0.70008701599E+02  0.66073021405E+02 -0.20704769663E+02  0.98465983690E+02  0.00000000000E+00 0. -1.
        -12    1    6    6    0    0  0.37883657049E+01  0.16765654947E+00 -0.44326805462E+02  0.44488712118E+02  0.00000000000E+00 0.  1.
</event>
<event>
12    1  0.9656379E-001  0.2066182E+03  0.7818608E-02  0.1144272E+00
          2   -1    0    0  502    0  0.00000000000E+00  0.00000000000E+00  0.15401549767E+04  0.15401549767E+04  0.00000000000E+00 0. -1.
         -2   -1    0    0    0  501 -0.00000000000E+00 -0.00000000000E+00 -0.33617361269E+02  0.33617361269E+02  0.00000000000E+00 0.  1.
          6    2    1    2  502    0  0.74575089286E+02 -0.87029174522E+02  0.42454507039E+03  0.47228387900E+03  0.17227310997E+03 0.  0.
         24    2    3    3    0    0  0.28397035627E+02 -0.36375582312E+02  0.81738981317E+02  0.12266079089E+03  0.78960964614E+02 0.  0.
         -6    2    1    2    0  501 -0.74575089286E+02  0.87029174522E+02  0.10819925451E+04  0.11014884590E+04  0.17156175722E+03 0.  0.
        -24    2    5    5    0    0 -0.87387675043E+02 -0.80542676445E+00  0.62754029866E+03  0.63842473357E+03  0.78371292726E+02 0.  0.
          5    1    3    3  502    0  0.46178053659E+02 -0.50653592211E+02  0.34280608907E+03  0.34962308812E+03  0.47000000000E+01 0. -1.
        -11    1    4    4    0    0  0.79312344969E+01  0.22866009463E+02  0.71546893774E+01  0.25237837655E+02  0.00000000000E+00 0.  1.
         12    1    4    4    0    0  0.20465801130E+02 -0.59241591775E+02  0.74584291940E+02  0.97422953230E+02  0.00000000000E+00 0. -1.
         -5    1    5    5    0  501  0.12812585757E+02  0.87834601287E+02  0.45445224639E+03  0.46306372541E+03  0.47000000000E+01 0.  1.
         11    1    6    6    0    0 -0.48055659714E+02 -0.86224686550E+01  0.53923228389E+03  0.54143803836E+03  0.00000000000E+00 0. -1.
        -12    1    6    6    0    0 -0.39332015329E+02  0.78170418906E+01  0.88308014773E+02  0.96986695205E+02  0.00000000000E+00 0.  1.
</event>
<event>
12    1  0.9656379E-001  0.1019450E+04  0.7818608E-02  0.9287466E-01
          2   -1    0    0  502    0  0.00000000000E+00  0.00000000000E+00  0.26109648612E+04  0.26109648612E+04  0.00000000000E+00 0. -1.
         -2   -1    0    0    0  501 -0.00000000000E+00 -0.00000000000E+00 -0.46527015348E+03  0.46527015348E+03  0.00000000000E+00 0.  1.
          6    2    1    2  502    0  0.10035867836E+04 -0.53074298369E+02  0.48846615496E+03  0.11307155773E+04  0.17296016506E+03 0.  0.
         24    2    3    3    0    0  0.42245175163E+03  0.50278755724E+01  0.26667361752E+03  0.50596938264E+03  0.79996474273E+02 0.  0.
         -6    2    1    2    0  501 -0.10035867836E+04  0.53074298369E+02  0.16572285528E+04  0.19455194374E+04  0.16922201973E+03 0.  0.
        -24    2    5    5    0    0 -0.89497680945E+03  0.71372465979E+02  0.15414233344E+04  0.17856323272E+04  0.80121118771E+02 0.  0.
          5    1    3    3  502    0  0.58113503199E+03 -0.58102173942E+02  0.22179253744E+03  0.62474619462E+03  0.47000000000E+01 0. -1.
        -13    1    4    4    0    0  0.34488689669E+03  0.11122205059E-01  0.17820478811E+03  0.38820602538E+03  0.00000000000E+00 0.  1.
         14    1    4    4    0    0  0.77564854938E+02  0.50167533674E+01  0.88468829410E+02  0.11776335726E+03  0.00000000000E+00 0. -1.
         -5    1    5    5    0  501 -0.10860997417E+03 -0.18298167610E+02  0.11580521833E+03  0.15988711024E+03  0.47000000000E+01 0.  1.
         11    1    6    6    0    0 -0.49114165791E+02  0.17156044064E+02  0.11804384100E+03  0.12899953305E+03  0.00000000000E+00 0. -1.
        -12    1    6    6    0    0 -0.84586264366E+03  0.54216421915E+02  0.14233794934E+04  0.16566327942E+04  0.00000000000E+00 0.  1.
</event>
<event>
12    1  0.9656379E-001  0.9424988E+03  0.7818608E-02  0.9373962E-01
         -2   -1    0    0    0  501 -0.00000000000E+00  0.00000000000E+00  0.67871274323E+03  0.67871274323E+03  0.00000000000E+00 0.  1.
          2   -1    0    0  502    0  0.00000000000E+00 -0.00000000000E+00 -0.13143107812E+04  0.13143107812E+04  0.00000000000E+00 0. -1.
          6    2    1    2  502    0  0.91101170467E+03  0.16979460952E+03 -0.25332343666E+03  0.97597821576E+03  0.17201214669E+03 0.  0.
         24    2    3    3    0    0  0.29141182910E+03  0.87345609602E+01 -0.77734875190E+02  0.31212749612E+03  0.79898162167E+02 0.  0.
         -6    2    1    2    0  501 -0.91101170467E+03 -0.16979460952E+03 -0.38227460135E+03  0.10170453087E+04  0.17168212976E+03 0.  0.
        -24    2    5    5    0    0 -0.25207302762E+03 -0.63929818162E+02 -0.14357858857E+03  0.30823968608E+03  0.82274297787E+02 0.  0.
          5    1    3    3  502    0  0.61959987557E+03  0.16106004856E+03 -0.17558856147E+03  0.66385071964E+03  0.47000000000E+01 0. -1.
        -11    1    4    4    0    0  0.11487407151E+03  0.14240605687E+02  0.75338955711E+01  0.11599830489E+03  0.00000000000E+00 0.  1.
         12    1    4    4    0    0  0.17653775759E+03 -0.55060447263E+01 -0.85268770761E+02  0.19612919122E+03  0.00000000000E+00 0. -1.
         -5    1    5    5    0  501 -0.65893867705E+03 -0.10586479136E+03 -0.23869601278E+03  0.70880562264E+03  0.47000000000E+01 0.  1.
         13    1    6    6    0    0 -0.25044301850E+03 -0.47925554445E+02 -0.14252938354E+03  0.29211845108E+03  0.00000000000E+00 0. -1.
        -14    1    6    6    0    0 -0.16300091147E+01 -0.16004263718E+02 -0.10492050255E+01  0.16121235004E+02  0.00000000000E+00 0.  1.
</event>
<event>
12    1  0.9656379E-001  0.8493954E+03  0.7818608E-02  0.9491149E-01
          2   -1    0    0  502    0  0.00000000000E+00  0.00000000000E+00  0.13302630624E+04  0.13302630624E+04  0.00000000000E+00 0. -1.
         -2   -1    0    0    0  501 -0.00000000000E+00 -0.00000000000E+00 -0.57825607301E+03  0.57825607301E+03  0.00000000000E+00 0.  1.
          6    2    1    2  502    0  0.18658647571E+03  0.81074798778E+03  0.13821961608E+03  0.86055220843E+03  0.17122683364E+03 0.  0.
         24    2    3    3    0    0  0.70666441291E+02  0.21474060784E+03  0.69767152430E+02  0.24951204518E+03  0.79256107349E+02 0.  0.
         -6    2    1    2    0  501 -0.18658647571E+03 -0.81074798778E+03  0.61378737331E+03  0.10479669270E+04  0.17138531975E+03 0.  0.
        -24    2    5    5    0    0 -0.17862603717E+03 -0.80890252852E+03  0.61900535987E+03  0.10371923418E+04  0.79810755031E+02 0.  0.
          5    1    3    3  502    0  0.11592003442E+03  0.59600737994E+03  0.68452463649E+02  0.61104016325E+03  0.47000000000E+01 0. -1.
        -11    1    4    4    0    0  0.30712043153E+02  0.19021028954E+03  0.56520567232E+02  0.20079282448E+03  0.00000000000E+00 0.  1.
         12    1    4    4    0    0  0.39954398138E+02  0.24530318297E+02  0.13246585199E+02  0.48719220702E+02  0.00000000000E+00 0. -1.
         -5    1    5    5    0  501 -0.79604385354E+01 -0.18454592610E+01 -0.52179865563E+01  0.10774585155E+02  0.47000000000E+01 0.  1.
         11    1    6    6    0    0 -0.10353890945E+03 -0.33593554427E+03  0.22849241130E+03  0.41926337509E+03  0.00000000000E+00 0. -1.
        -12    1    6    6    0    0 -0.75087127724E+02 -0.47296698425E+03  0.39051294857E+03  0.61792896675E+03  0.00000000000E+00 0.  1.
</event>
<event>
12    1  0.9656379E-001  0.4722957E+03  0.7818608E-02  0.1021274E+00
          2   -1    0    0  502    0  0.00000000000E+00  0.00000000000E+00  0.17861990582E+04  0.17861990582E+04  0.00000000000E+00 0. -1.
         -2   -1    0    0    0  501 -0.00000000000E+00 -0.00000000000E+00 -0.48215358297E+03  0.48215358297E+03  0.00000000000E+00 0.  1.
          6    2    1    2  502    0  0.38621455513E+03 -0.20997955825E+03 -0.32421285184E+03  0.57303731353E+03  0.17321862466E+03 0.  0.
         24    2    3    3    0    0  0.37568160747E+03 -0.22870183557E+03 -0.32170561778E+03  0.55090491924E+03  0.80997072441E+02 0.  0.
         -6    2    1    2    0  501 -0.38621455513E+03  0.20997955825E+03  0.16282583271E+04  0.16953153276E+04  0.17209236748E+03 0.  0.
        -24    2    5    5    0    0 -0.27094020489E+03  0.85269276890E+02  0.11566895855E+04  0.11940768633E+04  0.84907679572E+02 0.  0.
          5    1    3    3  502    0  0.10532947660E+02  0.18722277323E+02 -0.25072340523E+01  0.22132394293E+02  0.47000000000E+01 0. -1.
        -11    1    4    4    0    0  0.26053506130E+03 -0.15677235457E+03 -0.26656718916E+03  0.40436883616E+03  0.00000000000E+00 0.  1.
         12    1    4    4    0    0  0.11514654617E+03 -0.71929481000E+02 -0.55138428624E+02  0.14653608308E+03  0.00000000000E+00 0. -1.
         -5    1    5    5    0  501 -0.11527435024E+03  0.12471028135E+03  0.47156874154E+03  0.50123846430E+03  0.47000000000E+01 0.  1.
         11    1    6    6    0    0 -0.26845236458E+03  0.95574093524E+02  0.10943148902E+04  0.11308077459E+04  0.00000000000E+00 0. -1.
        -12    1    6    6    0    0 -0.24878403117E+01 -0.10304816633E+02  0.62374695351E+02  0.63269117390E+02  0.00000000000E+00 0.  1.
</event>
<event>
12    1  0.9656379E-001  0.2638184E+03  0.7818608E-02  0.1104871E+00
          2   -1    0    0  502    0  0.00000000000E+00  0.00000000000E+00  0.82088997933E+03  0.82088997933E+03  0.00000000000E+00 0. -1.
         -2   -1    0    0    0  501 -0.00000000000E+00 -0.00000000000E+00 -0.48730264895E+03  0.48730264895E+03  0.00000000000E+00 0.  1.
          6    2    1    2  502    0  0.19411092440E+03  0.37829024261E+02 -0.42751518408E+03  0.50314704087E+03  0.17685481636E+03 0.  0.
         24    2    3    3    0    0  0.19976670632E+03  0.20792695339E+02 -0.30770084558E+03  0.38190435003E+03  0.10407713038E+03 0.  0.
         -6    2    1    2    0  501 -0.19411092440E+03 -0.37829024261E+02  0.76110251446E+03  0.80504558742E+03  0.17236958625E+03 0.  0.
        -24    2    5    5    0    0 -0.90317072770E+02 -0.15126010658E+02  0.59838382110E+03  0.61065409164E+03  0.80307237856E+02 0.  0.
          5    1    3    3  502    0 -0.56557819168E+01  0.17036328922E+02 -0.11981433850E+03  0.12124269084E+03  0.47000000000E+01 0. -1.
        -11    1    4    4    0    0  0.16830697286E+03  0.51254638608E+02 -0.27798411757E+03  0.32898243830E+03  0.00000000000E+00 0.  1.
         12    1    4    4    0    0  0.31459733459E+02 -0.30461943269E+02 -0.29716728016E+02  0.52921911728E+02  0.00000000000E+00 0. -1.
         -5    1    5    5    0  501 -0.10379385163E+03 -0.22703013603E+02  0.16271869335E+03  0.19439149577E+03  0.47000000000E+01 0.  1.
         13    1    6    6    0    0 -0.62934976487E+02 -0.47818880648E+02  0.40111482396E+03  0.40882827521E+03  0.00000000000E+00 0. -1.
        -14    1    6    6    0    0 -0.27382096283E+02  0.32692869990E+02  0.19726899715E+03  0.20182581644E+03  0.00000000000E+00 0.  1.
</event>
<event>
12    1  0.9656379E-001  0.2902215E+03  0.7818608E-02  0.1090234E+00
         -2   -1    0    0    0  501 -0.00000000000E+00  0.00000000000E+00  0.14701105892E+03  0.14701105892E+03  0.00000000000E+00 0.  1.
          2   -1    0    0  502    0  0.00000000000E+00 -0.00000000000E+00 -0.88871503798E+03  0.88871503798E+03  0.00000000000E+00 0. -1.
          6    2    1    2  502    0  0.23079230313E+03  0.34241650824E+02 -0.62119422044E+02  0.29674458762E+03  0.17251362222E+03 0.  0.
         24    2    3    3    0    0  0.24182612496E+03  0.23936021501E+01 -0.45269275431E+02  0.25877011107E+03  0.80168940607E+02 0.  0.
         -6    2    1    2    0  501 -0.23079230313E+03 -0.34241650824E+02 -0.67958455702E+03  0.73898150929E+03  0.17268735651E+03 0.  0.
        -24    2    5    5    0    0 -0.27929094856E+02 -0.70499394975E+01 -0.20699498122E+03  0.22395154163E+03  0.80483754639E+02 0.  0.
          5    1    3    3  502    0 -0.11033821833E+02  0.31848048674E+02 -0.16850146613E+02  0.37974476553E+02  0.47000000000E+01 0. -1.
        -11    1    4    4    0    0  0.95593783501E+02  0.34140869799E+02  0.29610705438E+01  0.10155066900E+03  0.00000000000E+00 0.  1.
         12    1    4    4    0    0  0.14623234146E+03 -0.31747267649E+02 -0.48230345975E+02  0.15721944207E+03  0.00000000000E+00 0. -1.
         -5    1    5    5    0  501 -0.20286320827E+03 -0.27191711326E+02 -0.47258957580E+03  0.51502996766E+03  0.47000000000E+01 0.  1.
         11    1    6    6    0    0 -0.23260599199E+02  0.35510145354E+02 -0.11103957819E+03  0.11887730575E+03  0.00000000000E+00 0. -1.
        -12    1    6    6    0    0 -0.46684956563E+01 -0.42560084852E+02 -0.95955403031E+02  0.10507423588E+03  0.00000000000E+00 0.  1.
</event>
<event>
12    1  0.9656379E-001  0.3977120E+03  0.7818608E-02  0.1044575E+00
          2   -1    0    0  502    0  0.00000000000E+00  0.00000000000E+00  0.42048416680E+03  0.42048416680E+03  0.00000000000E+00 0. -1.
         -2   -1    0    0    0  501 -0.00000000000E+00 -0.00000000000E+00 -0.13629558231E+04  0.13629558231E+04  0.00000000000E+00 0.  1.
          6    2    1    2  502    0 -0.33818156790E+03 -0.11728304248E+03 -0.12302619801E+04  0.12932117161E+04  0.17529950929E+03 0.  0.
         24    2    3    3    0    0 -0.24300678969E+03 -0.76027740231E+02 -0.10655140499E+04  0.10984703264E+04  0.80525462776E+02 0.  0.
         -6    2    1    2    0  501  0.33818156790E+03  0.11728304248E+03  0.28779032377E+03  0.49022827387E+03  0.17140129850E+03 0.  0.
        -24    2    5    5    0    0  0.34111428667E+03  0.10527527371E+03  0.29953516903E+03  0.47254159130E+03  0.78309630364E+02 0.  0.
          5    1    3    3  502    0 -0.95174778203E+02 -0.41255302246E+02 -0.16474793015E+03  0.19474138969E+03  0.47000000000E+01 0. -1.
        -13    1    4    4    0    0 -0.22536403751E+03 -0.59482762303E+02 -0.84245764010E+03  0.87410641445E+03  0.00000000000E+00 0.  1.
         14    1    4    4    0    0 -0.17642752187E+02 -0.16544977928E+02 -0.22305640984E+03  0.22436391192E+03  0.00000000000E+00 0. -1.
         -5    1    5    5    0  501 -0.29327187684E+01  0.12007768770E+02 -0.11744845253E+02  0.17686682568E+02  0.47000000000E+01 0.  1.
         13    1    6    6    0    0  0.27569007243E+03  0.73520194466E+02  0.27367116303E+03  0.39535571389E+03  0.00000000000E+00 0. -1.
        -14    1    6    6    0    0  0.65424214234E+02  0.31755079241E+02  0.25864005991E+02  0.77185877411E+02  0.00000000000E+00 0.  1.
</event>
<event>
12    1  0.1316132E+000  0.2237254E+03  0.7818608E-02  0.1131136E+00
         -1   -1    0    0    0  501 -0.00000000000E+00  0.00000000000E+00  0.26095056748E+03  0.26095056748E+03  0.00000000000E+00 0.  1.
          1   -1    0    0  502    0  0.00000000000E+00 -0.00000000000E+00 -0.13065134079E+04  0.13065134079E+04  0.00000000000E+00 0. -1.
          6    2    1    2  502    0  0.72670056293E+01  0.14239091983E+03  0.20136764988E+03  0.30050282015E+03  0.17153725858E+03 0.  0.
         24    2    3    3    0    0  0.42052622486E+02  0.15683208063E+03  0.18600329416E+03  0.25955480808E+03  0.80042166306E+02 0.  0.
         -6    2    1    2    0  501 -0.72670056293E+01 -0.14239091983E+03 -0.12469304903E+04  0.12669611553E+04  0.17328282599E+03 0.  0.
        -24    2    5    5    0    0  0.57162936183E+02 -0.76713837402E+02 -0.86757053063E+03  0.87657574879E+03  0.80955565725E+02 0.  0.
          5    1    3    3  502    0 -0.34785616856E+02 -0.14441160808E+02  0.15364355721E+02  0.40948012067E+02  0.47000000000E+01 0. -1.
        -11    1    4    4    0    0  0.65225369106E+01  0.10323982860E+03  0.15927682906E+03  0.18992133628E+03  0.00000000000E+00 0.  1.
         12    1    4    4    0    0  0.35530085575E+02  0.53592252037E+02  0.26726465096E+02  0.69633471807E+02  0.00000000000E+00 0. -1.
         -5    1    5    5    0  501 -0.64429941812E+02 -0.65677082424E+02 -0.37935995971E+03  0.39038540648E+03  0.47000000000E+01 0.  1.
         11    1    6    6    0    0  0.27176582285E+02 -0.64940233114E+02 -0.30232523061E+03  0.31041318523E+03  0.00000000000E+00 0. -1.
        -12    1    6    6    0    0  0.29986353898E+02 -0.11773604288E+02 -0.56524530002E+03  0.56616256356E+03  0.00000000000E+00 0.  1.
</event>
<event>
12    1  0.9656379E-001  0.1079835E+04  0.7818608E-02  0.9225072E-01
         -1   -1    0    0    0  501 -0.00000000000E+00  0.00000000000E+00  0.12209585828E+04  0.12209585828E+04  0.00000000000E+00 0.  1.
          1   -1    0    0  502    0  0.00000000000E+00 -0.00000000000E+00 -0.25073781501E+04  0.25073781501E+04  0.00000000000E+00 0. -1.
          6    2    1    2  502    0  0.68748132800E+03  0.81517270336E+03  0.82343273392E+03  0.13585196451E+04  0.17434748709E+03 0.  0.
         24    2    3    3    0    0  0.49410145075E+03  0.64466458225E+03  0.68659578329E+03  0.10666031548E+04  0.80621665043E+02 0.  0.
         -6    2    1    2    0  501 -0.68748132800E+03 -0.81517270336E+03 -0.21098523012E+04  0.23698170877E+04  0.16558739048E+03 0.  0.
        -24    2    5    5    0    0 -0.41633298772E+03 -0.52980466998E+03 -0.11968802514E+04  0.13755855299E+04  0.75412657356E+02 0.  0.
          5    1    3    3  502    0  0.19337987725E+03  0.17050812111E+03  0.13683695063E+03  0.29191649036E+03  0.47000000000E+01 0. -1.
        -13    1    4    4    0    0  0.14549370455E+03  0.17954196276E+03  0.14984565507E+03  0.27542232080E+03  0.00000000000E+00 0.  1.
         14    1    4    4    0    0  0.34860774620E+03  0.46512261949E+03  0.53675012822E+03  0.79118083396E+03  0.00000000000E+00 0. -1.
         -5    1    5    5    0  501 -0.27114834028E+03 -0.28536803338E+03 -0.91297204981E+03  0.99423155785E+03  0.47000000000E+01 0.  1.
         11    1    6    6    0    0 -0.26838559763E+03 -0.39485211240E+03 -0.86285410875E+03  0.98613195500E+03  0.00000000000E+00 0. -1.
        -12    1    6    6    0    0 -0.14794739009E+03 -0.13495255758E+03 -0.33402614262E+03  0.38945357488E+03  0.00000000000E+00 0.  1.
</event>
<event>
12    1  0.9656379E-001  0.5562060E+03  0.7818608E-02  0.1000068E+00
          2   -1    0    0  502    0  0.00000000000E+00  0.00000000000E+00  0.20570207262E+04  0.20570207262E+04  0.00000000000E+00 0. -1.
         -2   -1    0    0    0  501 -0.00000000000E+00 -0.00000000000E+00 -0.19682309271E+03  0.19682309271E+03  0.00000000000E+00 0.  1.
          6    2    1    2  502    0 -0.52900217614E+03 -0.19099319190E+02  0.38244807606E+03  0.67479651091E+03  0.16992855529E+03 0.  0.
         24    2    3    3    0    0 -0.22583853410E+03 -0.36404821763E+01  0.24176313634E+03  0.34019000805E+03  0.79142472074E+02 0.  0.
         -6    2    1    2    0  501  0.52900217614E+03  0.19099319190E+02  0.14777495574E+04  0.15790473080E+04  0.17157668863E+03 0.  0.
        -24    2    5    5    0    0  0.46103670308E+03  0.50648903251E+02  0.11449161567E+04  0.12378511116E+04  0.79512361886E+02 0.  0.
          5    1    3    3  502    0 -0.30316364204E+03 -0.15458837013E+02  0.14068493972E+03  0.33460650286E+03  0.47000000000E+01 0. -1.
        -11    1    4    4    0    0 -0.69347716373E+02 -0.20488276617E+02  0.35000645954E+02  0.80336296044E+02  0.00000000000E+00 0.  1.
         12    1    4    4    0    0 -0.15649081773E+03  0.16847794440E+02  0.20676249039E+03  0.25985371200E+03  0.00000000000E+00 0. -1.
         -5    1    5    5    0  501  0.67965473061E+02 -0.31549584062E+02  0.33283340073E+03  0.34119619638E+03  0.47000000000E+01 0.  1.
         11    1    6    6    0    0  0.18852162744E+03 -0.13160271840E+00  0.55271958539E+03  0.58398575445E+03  0.00000000000E+00 0. -1.
        -12    1    6    6    0    0  0.27251507564E+03  0.50780505970E+02  0.59219657131E+03  0.65386535717E+03  0.00000000000E+00 0.  1.
</event>
<event>
12    1  0.9656379E-001  0.1919272E+03  0.7818608E-02  0.1156735E+00
         -2   -1    0    0    0  501 -0.00000000000E+00  0.00000000000E+00  0.69505706739E+02  0.69505706739E+02  0.00000000000E+00 0.  1.
          2   -1    0    0  502    0  0.00000000000E+00 -0.00000000000E+00 -0.21767334380E+04  0.21767334380E+04  0.00000000000E+00 0. -1.
          6    2    1    2  502    0 -0.79413389633E+02  0.30202706424E+02 -0.76958544619E+02  0.20693382908E+03  0.17227972051E+03 0.  0.
         24    2    3    3    0    0 -0.94723151146E+02  0.73263691733E+02 -0.68764207450E+02  0.16026612702E+03  0.81342924429E+02 0.  0.
         -6    2    1    2    0  501  0.79413389633E+02 -0.30202706424E+02 -0.20302691866E+04  0.20393053156E+04  0.17191425286E+03 0.  0.
        -24    2    5    5    0    0  0.49945066259E+02  0.29738079463E+02 -0.65205229870E+03  0.65946287535E+03  0.79625502855E+02 0.  0.
          5    1    3    3  502    0  0.15309761513E+02 -0.43060985310E+02 -0.81943371690E+01  0.46667702055E+02  0.47000000000E+01 0. -1.
        -13    1    4    4    0    0 -0.18602663295E+02  0.65579385996E+02 -0.29579414223E+02  0.74307850831E+02  0.00000000000E+00 0.  1.
         14    1    4    4    0    0 -0.76120487851E+02  0.76843057370E+01 -0.39184793226E+02  0.85958276190E+02  0.00000000000E+00 0. -1.
         -5    1    5    5    0  501  0.29468323374E+02 -0.59940785886E+02 -0.13782168879E+04  0.13798424403E+04  0.47000000000E+01 0.  1.
         11    1    6    6    0    0  0.26783697099E+02 -0.19742334705E+02 -0.11732687227E+03  0.12195376652E+03  0.00000000000E+00 0. -1.
        -12    1    6    6    0    0  0.23161369160E+02  0.49480414168E+02 -0.53472542643E+03  0.53750910883E+03  0.00000000000E+00 0.  1.
</event>
<event>
12    1  0.9656379E-001  0.1935572E+03  0.7818608E-02  0.1155292E+00
          2   -1    0    0  502    0  0.00000000000E+00  0.00000000000E+00  0.21292948566E+04  0.21292948566E+04  0.00000000000E+00 0. -1.
         -2   -1    0    0    0  501 -0.00000000000E+00 -0.00000000000E+00 -0.38229517927E+02  0.38229517927E+02  0.00000000000E+00 0.  1.
          6    2    1    2  502    0 -0.22077752435E+02 -0.83337478556E+02  0.24878956095E+03  0.31508661058E+03  0.17306289042E+03 0.  0.
         24    2    3    3    0    0 -0.33864215712E+02  0.13319091081E+02  0.70816061847E+02  0.11216280824E+03  0.79002516692E+02 0.  0.
         -6    2    1    2    0  501  0.22077752435E+02  0.83337478556E+02  0.18422757777E+04  0.18524377640E+04  0.17353116623E+03 0.  0.
        -24    2    5    5    0    0  0.69632642499E+02  0.91336059482E+02  0.15356523872E+04  0.15420099326E+04  0.79846084732E+02 0.  0.
          5    1    3    3  502    0  0.11786463277E+02 -0.96656569638E+02  0.17797349911E+03  0.20292380234E+03  0.47000000000E+01 0. -1.
        -11    1    4    4    0    0 -0.39020013458E+02  0.19164532303E+02  0.85286432152E+02  0.95726779210E+02  0.00000000000E+00 0.  1.
         12    1    4    4    0    0  0.51557977459E+01 -0.58454412214E+01 -0.14470370306E+02  0.16436029029E+02  0.00000000000E+00 0. -1.
         -5    1    5    5    0  501 -0.47554890064E+02 -0.79985809251E+01  0.30662339050E+03  0.31042783133E+03  0.47000000000E+01 0.  1.
         13    1    6    6    0    0  0.56991223704E+02  0.18379353920E+02  0.91481181006E+03  0.91676957195E+03  0.00000000000E+00 0. -1.
        -14    1    6    6    0    0  0.12641418795E+02  0.72956705561E+02  0.62084057716E+03  0.62524036067E+03  0.00000000000E+00 0.  1.
</event>
<event>
12    1  0.9656379E-001  0.1816470E+03  0.7818608E-02  0.1166219E+00
          1   -1    0    0  502    0  0.00000000000E+00  0.00000000000E+00  0.33238783810E+03  0.33238783810E+03  0.00000000000E+00 0. -1.
         -1   -1    0    0    0  501 -0.00000000000E+00 -0.00000000000E+00 -0.66361931450E+03  0.66361931450E+03  0.00000000000E+00 0.  1.
          6    2    1    2  502    0 -0.17731040799E+02  0.54681683977E+02 -0.62481850387E+03  0.65059470108E+03  0.17196169898E+03 0.  0.
         24    2    3    3    0    0  0.54914392648E+02  0.30834796576E+02 -0.40924607863E+03  0.42181621965E+03  0.80499658903E+02 0.  0.
         -6    2    1    2    0  501  0.17731040799E+02 -0.54681683977E+02  0.29358702748E+03  0.34541245152E+03  0.17266135233E+03 0.  0.
        -24    2    5    5    0    0  0.30620794499E+02 -0.10099784968E+03  0.23374805886E+03  0.26850910230E+03  0.79503360299E+02 0.  0.
          5    1    3    3  502    0 -0.72645433447E+02  0.23846887401E+02 -0.21557242524E+03  0.22877848143E+03  0.47000000000E+01 0. -1.
        -11    1    4    4    0    0 -0.13195284732E+02  0.28176664003E+02 -0.85824664682E+02  0.91290267834E+02  0.00000000000E+00 0.  1.
         12    1    4    4    0    0  0.68109677380E+02  0.26581325738E+01 -0.32342141395E+03  0.33052595181E+03  0.00000000000E+00 0. -1.
         -5    1    5    5    0  501 -0.12889753700E+02  0.46316165706E+02  0.59838968622E+02  0.76903349225E+02  0.47000000000E+01 0.  1.
         13    1    6    6    0    0  0.16917902467E+02 -0.36463894057E+02  0.20170185563E+02  0.44974074525E+02  0.00000000000E+00 0. -1.
        -14    1    6    6    0    0  0.13702892031E+02 -0.64533955626E+02  0.21357787330E+03  0.22353502777E+03  0.00000000000E+00 0.  1.
</event>
<event>
12    1  0.9656379E-001  0.4085802E+03  0.7818608E-02  0.1040849E+00
          2   -1    0    0  502    0  0.00000000000E+00  0.00000000000E+00  0.16956395765E+04  0.16956395765E+04  0.00000000000E+00 0. -1.
         -2   -1    0    0    0  501 -0.00000000000E+00 -0.00000000000E+00 -0.10200109096E+03  0.10200109096E+03  0.00000000000E+00 0.  1.
          6    2    1    2  502    0 -0.33173455071E+03 -0.16504138521E+03  0.62962356914E+03  0.75071491717E+03  0.17280213271E+03 0.  0.
         24    2    3    3    0    0 -0.29042599441E+03 -0.18347423140E+03  0.48944784936E+03  0.60334636876E+03  0.80359141606E+02 0.  0.
         -6    2    1    2    0  501  0.33173455071E+03  0.16504138521E+03  0.96401491645E+03  0.10469257503E+04  0.17158757709E+03 0.  0.
        -24    2    5    5    0    0  0.22805102310E+03  0.51436207380E+02  0.70501009091E+03  0.74565842722E+03  0.65683401440E+02 0.  0.
          5    1    3    3  502    0 -0.41308556297E+02  0.18432846184E+02  0.14017571978E+03  0.14736854840E+03  0.47000000000E+01 0. -1.
        -13    1    4    4    0    0 -0.23628334976E+03 -0.12565771901E+03  0.41993188449E+03  0.49795830281E+03  0.00000000000E+00 0.  1.
         14    1    4    4    0    0 -0.54142644653E+02 -0.57816512386E+02  0.69515964864E+02  0.10538806595E+03  0.00000000000E+00 0. -1.
         -5    1    5    5    0  501  0.10368352761E+03  0.11360517783E+03  0.25900482553E+03  0.30126732312E+03  0.47000000000E+01 0.  1.
         11    1    6    6    0    0  0.19779573570E+03  0.52190673712E+02  0.53110115008E+03  0.56913570534E+03  0.00000000000E+00 0. -1.
        -12    1    6    6    0    0  0.30255287398E+02 -0.75446633177E+00  0.17390894084E+03  0.17652272187E+03  0.00000000000E+00 0.  1.
</event>
<event>
12    1  0.9656379E-001  0.1166062E+04  0.7818608E-02  0.9143092E-01
         -1   -1    0    0    0  501 -0.00000000000E+00  0.00000000000E+00  0.67001302262E+03  0.67001302262E+03  0.00000000000E+00 0.  1.
          1   -1    0    0  502    0  0.00000000000E+00 -0.00000000000E+00 -0.20895711051E+04  0.20895711051E+04  0.00000000000E+00 0. -1.
          6    2    1    2  502    0  0.70226907025E+03 -0.91482026885E+03 -0.94379106604E+03  0.14998870598E+04  0.16982827926E+03 0.  0.
         24    2    3    3    0    0  0.65375670595E+03 -0.82675919202E+03 -0.90619665557E+03  0.13924457621E+04  0.82366435765E+02 0.  0.
         -6    2    1    2    0  501 -0.70226907025E+03  0.91482026885E+03 -0.47576701647E+03  0.12596970680E+04  0.17436879814E+03 0.  0.
        -24    2    5    5    0    0 -0.35871452854E+03  0.46475026885E+03 -0.17100272212E+03  0.61666044915E+03  0.79744925824E+02 0.  0.
          5    1    3    3  502    0  0.48512364301E+02 -0.88061076829E+02 -0.37594410463E+02  0.10744129765E+03  0.47000000000E+01 0. -1.
        -11    1    4    4    0    0  0.14083699528E+03 -0.15575342686E+03 -0.14246365442E+03  0.25375200895E+03  0.00000000000E+00 0.  1.
         12    1    4    4    0    0  0.51291971068E+03 -0.67100576517E+03 -0.76373300116E+03  0.11386937532E+04  0.00000000000E+00 0. -1.
         -5    1    5    5    0  501 -0.34355454171E+03  0.45007000000E+03 -0.30476429436E+03  0.64303661882E+03  0.47000000000E+01 0.  1.
         11    1    6    6    0    0 -0.30268586967E+03  0.33745568489E+03 -0.13516827766E+03  0.47303862237E+03  0.00000000000E+00 0. -1.
        -12    1    6    6    0    0 -0.56028658871E+02  0.12729458396E+03 -0.35834444452E+02  0.14362182679E+03  0.00000000000E+00 0.  1.
</event>
<event>
12    1  0.9656379E-001  0.8399116E+03  0.7818608E-02  0.9503978E-01
         -1   -1    0    0    0  501 -0.00000000000E+00  0.00000000000E+00  0.89222188692E+03  0.89222188692E+03  0.00000000000E+00 0.  1.
          1   -1    0    0  502    0  0.00000000000E+00 -0.00000000000E+00 -0.80462543149E+03  0.80462543149E+03  0.00000000000E+00 0. -1.
          6    2    1    2  502    0  0.61849522021E+03  0.54151066901E+03  0.15553990494E+03  0.85418661621E+03  0.17225554046E+03 0.  0.
         24    2    3    3    0    0  0.47519448921E+03  0.39277508426E+03  0.53961368062E+02  0.62397440361E+03  0.79687876962E+02 0.  0.
         -6    2    1    2    0  501 -0.61849522021E+03 -0.54151066901E+03 -0.67943449502E+02  0.84266070220E+03  0.17230961849E+03 0.  0.
        -24    2    5    5    0    0 -0.27767046459E+03 -0.32574939068E+03 -0.36456641319E+02  0.43802759386E+03  0.85589332607E+02 0.  0.
          5    1    3    3  502    0  0.14330073100E+03  0.14873558475E+03  0.10157853687E+03  0.23021221260E+03  0.47000000000E+01 0. -1.
        -13    1    4    4    0    0  0.20859833125E+03  0.14317497418E+03  0.54312650382E+02  0.25877055672E+03  0.00000000000E+00 0.  1.
         14    1    4    4    0    0  0.26659615795E+03  0.24960011008E+03 -0.35128232052E+00  0.36520384690E+03  0.00000000000E+00 0. -1.
         -5    1    5    5    0  501 -0.34082475562E+03 -0.21576127833E+03 -0.31486808183E+02  0.40463310833E+03  0.47000000000E+01 0.  1.
         13    1    6    6    0    0 -0.23875573041E+03 -0.22408472960E+03 -0.33201482112E+02  0.32912095537E+03  0.00000000000E+00 0. -1.
        -14    1    6    6    0    0 -0.38914734179E+02 -0.10166466107E+03 -0.32551592062E+01  0.10890663850E+03  0.00000000000E+00 0.  1.
</event>
<event>
12    1  0.9656379E-001  0.1974738E+03  0.7818608E-02  0.1151888E+00
         -2   -1    0    0    0  501 -0.00000000000E+00  0.00000000000E+00  0.98608243039E+02  0.98608243039E+02  0.00000000000E+00 0.  1.
          2   -1    0    0  502    0  0.00000000000E+00 -0.00000000000E+00 -0.96826507160E+03  0.96826507160E+03  0.00000000000E+00 0. -1.
          6    2    1    2  502    0 -0.93192236800E+02  0.25842181614E+02 -0.24282484585E+02  0.19867539670E+03  0.17184197055E+03 0.  0.
         24    2    3    3    0    0 -0.70238544908E+02  0.55824009862E+01  0.49796369347E+02  0.11838157824E+03  0.81054939852E+02 0.  0.
         -6    2    1    2    0  501  0.93192236800E+02 -0.25842181614E+02 -0.84537434397E+03  0.86819791794E+03  0.17250284612E+03 0.  0.
        -24    2    5    5    0    0  0.19298185327E+02 -0.70473974194E+02 -0.55964550673E+03  0.56967591510E+03  0.77385748296E+02 0.  0.
          5    1    3    3  502    0 -0.22953691892E+02  0.20259780628E+02 -0.74078853932E+02  0.80293818457E+02  0.47000000000E+01 0. -1.
        -13    1    4    4    0    0 -0.66747036052E+02  0.21919073993E+02  0.48385812359E+01  0.70420341485E+02  0.00000000000E+00 0.  1.
         14    1    4    4    0    0 -0.34915088555E+01 -0.16336673007E+02  0.44957788111E+02  0.47961236753E+02  0.00000000000E+00 0. -1.
         -5    1    5    5    0  501  0.73894051473E+02  0.44631792580E+02 -0.28572883724E+03  0.29852200284E+03  0.47000000000E+01 0.  1.
         13    1    6    6    0    0  0.27804073948E+02 -0.34927001438E+02 -0.11242390625E+03  0.12096320372E+03  0.00000000000E+00 0. -1.
        -14    1    6    6    0    0 -0.85058886207E+01 -0.35546972756E+02 -0.44722160048E+03  0.44871271138E+03  0.00000000000E+00 0.  1.
</event>
<event>
12    1  0.9656379E-001  0.2060639E+03  0.7818608E-02  0.1144721E+00
          1   -1    0    0  502    0  0.00000000000E+00  0.00000000000E+00  0.23323616608E+03  0.23323616608E+03  0.00000000000E+00 0. -1.
         -1   -1    0    0    0  501 -0.00000000000E+00 -0.00000000000E+00 -0.10644355160E+04  0.10644355160E+04  0.00000000000E+00 0.  1.
          6    2    1    2  502    0  0.51197800779E+02 -0.10227117109E+03 -0.10059628482E+04  0.10266302324E+04  0.17008167141E+03 0.  0.
         24    2    3    3    0    0  0.56630472619E+02 -0.13640859680E+03 -0.87801119874E+03  0.89400824197E+03  0.80825465492E+02 0.  0.
         -6    2    1    2    0  501 -0.51197800779E+02  0.10227117109E+03  0.17476349830E+03  0.27104144963E+03  0.17274426138E+03 0.  0.
        -24    2    5    5    0    0 -0.23455966874E+02  0.13766310841E+03  0.12961270350E+03  0.20714400956E+03  0.81288830650E+02 0.  0.
          5    1    3    3  502    0 -0.54326718405E+01  0.34137425713E+02 -0.12795164947E+03  0.13262199048E+03  0.47000000000E+01 0. -1.
        -11    1    4    4    0    0  0.23860515042E+02 -0.20422237909E+02 -0.65893257665E+02  0.72995297006E+02  0.00000000000E+00 0.  1.
         12    1    4    4    0    0  0.32769957577E+02 -0.11598635889E+03 -0.81211794108E+03  0.82101294496E+03  0.00000000000E+00 0. -1.
         -5    1    5    5    0  501 -0.27741833904E+02 -0.35391937325E+02  0.45150794805E+02  0.63897440070E+02  0.47000000000E+01 0.  1.
         13    1    6    6    0    0  0.96679479804E+01  0.11379443113E+03  0.11905139754E+03  0.16497235232E+03  0.00000000000E+00 0. -1.
        -14    1    6    6    0    0 -0.33123914855E+02  0.23868677286E+02  0.10561305954E+02  0.42171657237E+02  0.00000000000E+00 0.  1.
</event>
<event>
12    1  0.9656379E-001  0.3942238E+03  0.7818608E-02  0.1045798E+00
         -2   -1    0    0    0  501 -0.00000000000E+00  0.00000000000E+00  0.17173903506E+03  0.17173903506E+03  0.00000000000E+00 0.  1.
          2   -1    0    0  502    0  0.00000000000E+00 -0.00000000000E+00 -0.13114190550E+04  0.13114190550E+04  0.00000000000E+00 0. -1.
          6    2    1    2  502    0  0.35611775697E+03 -0.21545134498E+01 -0.15953420189E+03  0.42764536341E+03  0.17494255205E+03 0.  0.
         24    2    3    3    0    0  0.35266478739E+03 -0.33452727088E+02 -0.15657932688E+03  0.39567158568E+03  0.80915887771E+02 0.  0.
         -6    2    1    2    0  501 -0.35611775697E+03  0.21545134498E+01 -0.98014581802E+03  0.10555127266E+04  0.16308523148E+03 0.  0.
        -24    2    5    5    0    0 -0.19926938245E+03 -0.30050342859E+02 -0.69947656502E+03  0.73234731241E+03  0.80335615431E+02 0.  0.
          5    1    3    3  502    0  0.34529695761E+01  0.31298213638E+02 -0.29548750074E+01  0.31973777727E+02  0.47000000000E+01 0. -1.
        -11    1    4    4    0    0  0.14224690987E+03 -0.13202466909E+02 -0.10715746788E+03  0.17858110601E+03  0.00000000000E+00 0.  1.
         12    1    4    4    0    0  0.21041787752E+03 -0.20250260179E+02 -0.49421858997E+02  0.21709047967E+03  0.00000000000E+00 0. -1.
         -5    1    5    5    0  501 -0.15684837452E+03  0.32204856309E+02 -0.28066925301E+03  0.32316541421E+03  0.47000000000E+01 0.  1.
         13    1    6    6    0    0 -0.11025755586E+03  0.20200494941E+01 -0.49363887059E+03  0.50580642916E+03  0.00000000000E+00 0. -1.
        -14    1    6    6    0    0 -0.89011826588E+02 -0.32070392353E+02 -0.20583769443E+03  0.22654088326E+03  0.00000000000E+00 0.  1.
</event>
<event>
12    1  0.9656379E-001  0.2279985E+03  0.7818608E-02  0.1128057E+00
          2   -1    0    0  502    0  0.00000000000E+00  0.00000000000E+00  0.12614108213E+04  0.12614108213E+04  0.00000000000E+00 0. -1.
         -2   -1    0    0    0  501 -0.00000000000E+00 -0.00000000000E+00 -0.10814033369E+03  0.10814033369E+03  0.00000000000E+00 0.  1.
          6    2    1    2  502    0 -0.26380795939E+02  0.14694204159E+03  0.37620826107E+02  0.23078148168E+03  0.17192107418E+03 0.  0.
         24    2    3    3    0    0 -0.63611175904E+02  0.12366667509E+03 -0.15929713120E+02  0.16137259083E+03  0.80296507283E+02 0.  0.
         -6    2    1    2    0  501  0.26380795939E+02 -0.14694204159E+03  0.11156496615E+04  0.11387696733E+04  0.17272605957E+03 0.  0.
        -24    2    5    5    0    0  0.47557373359E+02 -0.51298791326E+02  0.82133486766E+03  0.82854496986E+03  0.83681135874E+02 0.  0.
          5    1    3    3  502    0  0.37230379966E+02  0.23275366499E+02  0.53550539227E+02  0.69408890854E+02  0.47000000000E+01 0. -1.
        -13    1    4    4    0    0  0.98735579716E+01  0.57669504305E+02 -0.21774844321E+02  0.62429181630E+02  0.00000000000E+00 0.  1.
         14    1    4    4    0    0 -0.73484733876E+02  0.65997170786E+02  0.58451312011E+01  0.98943409196E+02  0.00000000000E+00 0. -1.
         -5    1    5    5    0  501 -0.21176577420E+02 -0.95643250264E+02  0.29431479385E+03  0.31022470345E+03  0.47000000000E+01 0.  1.
         11    1    6    6    0    0  0.58972855523E+02 -0.64681724046E+02  0.57972867036E+03  0.58629928735E+03  0.00000000000E+00 0. -1.
        -12    1    6    6    0    0 -0.11415482164E+02  0.13382932720E+02  0.24160619730E+03  0.24224568251E+03  0.00000000000E+00 0.  1.
</event>
<event>
12    1  0.9656379E-001  0.6501697E+03  0.7818608E-02  0.9806461E-01
         -1   -1    0    0    0  501 -0.00000000000E+00  0.00000000000E+00  0.38435385782E+03  0.38435385782E+03  0.00000000000E+00 0.  1.
          1   -1    0    0  502    0  0.00000000000E+00 -0.00000000000E+00 -0.12291720781E+04  0.12291720781E+04  0.00000000000E+00 0. -1.
          6    2    1    2  502    0  0.59050336207E+03  0.21073728568E+03 -0.16047923826E+03  0.66931795931E+03  0.17067079584E+03 0.  0.
         24    2    3    3    0    0  0.54241761413E+03  0.18774506001E+03 -0.98767555221E+02  0.58763991195E+03  0.78106084800E+02 0.  0.
         -6    2    1    2    0  501 -0.59050336207E+03 -0.21073728568E+03 -0.68433898204E+03  0.94420797664E+03  0.17350630138E+03 0.  0.
        -24    2    5    5    0    0 -0.58206868753E+03 -0.22214648367E+03 -0.68445985299E+03  0.92926079821E+03  0.82989900109E+02 0.  0.
          5    1    3    3  502    0  0.48085747942E+02  0.22992225676E+02 -0.61711683043E+02  0.81678047361E+02  0.47000000000E+01 0. -1.
        -11    1    4    4    0    0  0.25486083412E+03  0.83686045417E+02 -0.85505141721E+02  0.28154667149E+03  0.00000000000E+00 0.  1.
         12    1    4    4    0    0  0.28755678001E+03  0.10405901459E+03 -0.13262413500E+02  0.30609324046E+03  0.00000000000E+00 0. -1.
         -5    1    5    5    0  501 -0.84346745370E+01  0.11409197990E+02  0.12087094624E+00  0.14947178433E+02  0.47000000000E+01 0.  1.
         11    1    6    6    0    0 -0.22205434716E+03 -0.11181132534E+03 -0.22594456682E+03  0.33594769361E+03  0.00000000000E+00 0. -1.
        -12    1    6    6    0    0 -0.36001434037E+03 -0.11033515834E+03 -0.45851528617E+03  0.59331310460E+03  0.00000000000E+00 0.  1.
</event>
<event>
12    1  0.9656379E-001  0.3804101E+03  0.7818608E-02  0.1050782E+00
         -2   -1    0    0    0  501 -0.00000000000E+00  0.00000000000E+00  0.66511320184E+03  0.66511320184E+03  0.00000000000E+00 0.  1.
          2   -1    0    0  502    0  0.00000000000E+00 -0.00000000000E+00 -0.28555683828E+03  0.28555683828E+03  0.00000000000E+00 0. -1.
          6    2    1    2  502    0 -0.23639301922E+03 -0.24508904739E+03  0.42187358716E+03  0.56835591489E+03  0.17058962971E+03 0.  0.
         24    2    3    3    0    0 -0.12003661019E+03 -0.75276152863E+02  0.11804539648E+03  0.20132881436E+03  0.80766879891E+02 0.  0.
         -6    2    1    2    0  501  0.23639301922E+03  0.24508904739E+03 -0.42317223603E+02  0.38231412522E+03  0.16859134689E+03 0.  0.
        -24    2    5    5    0    0  0.77874678988E+02  0.39714283419E+02  0.37889826049E+01  0.11877147191E+03  0.80315728320E+02 0.  0.
          5    1    3    3  502    0 -0.11635640903E+03 -0.16981289452E+03  0.30382819069E+03  0.36702710053E+03  0.47000000000E+01 0. -1.
        -11    1    4    4    0    0 -0.48924217737E+02 -0.58248452818E+02  0.10065605100E+03  0.12616696057E+03  0.00000000000E+00 0.  1.
         12    1    4    4    0    0 -0.71112392450E+02 -0.17027700044E+02  0.17389345475E+02  0.75161853788E+02  0.00000000000E+00 0. -1.
         -5    1    5    5    0  501  0.15851834023E+03  0.20537476397E+03 -0.46106206208E+02  0.26354265331E+03  0.47000000000E+01 0.  1.
         13    1    6    6    0    0  0.38240611888E+02  0.62265490796E+02  0.38257244437E+01  0.73170840566E+02  0.00000000000E+00 0. -1.
        -14    1    6    6    0    0  0.39634067100E+02 -0.22551207377E+02 -0.36741838760E-01  0.45600631344E+02  0.00000000000E+00 0.  1.
</event>
<event>
12    1  0.9656379E-001  0.4586238E+03  0.7818608E-02  0.1025181E+00
          2   -1    0    0  502    0  0.00000000000E+00  0.00000000000E+00  0.15136407702E+04  0.15136407702E+04  0.00000000000E+00 0. -1.
         -2   -1    0    0    0  501 -0.00000000000E+00 -0.00000000000E+00 -0.22955465860E+03  0.22955465860E+03  0.00000000000E+00 0.  1.
          6    2    1    2  502    0 -0.36003643838E+03  0.22548773023E+03  0.94277000437E+02  0.46796391399E+03  0.17213691802E+03 0.  0.
         24    2    3    3    0    0 -0.24848415804E+03  0.22670193264E+03  0.52712807804E+02  0.34882090058E+03  0.75889640360E+02 0.  0.
         -6    2    1    2    0  501  0.36003643838E+03 -0.22548773023E+03  0.11898091111E+04  0.12752315148E+04  0.17348988993E+03 0.  0.
        -24    2    5    5    0    0  0.33257143764E+03 -0.19308801648E+03  0.11516468813E+04  0.12179382909E+04  0.95897852060E+02 0.  0.
          5    1    3    3  502    0 -0.11155228034E+03 -0.12142024124E+01  0.41564192633E+02  0.11914301341E+03  0.47000000000E+01 0. -1.
        -13    1    4    4    0    0 -0.16680056926E+03  0.11500678452E+03  0.57316373209E+01  0.20268656111E+03  0.00000000000E+00 0.  1.
         14    1    4    4    0    0 -0.81683588778E+02  0.11169514812E+03  0.46981170483E+02  0.14613433946E+03  0.00000000000E+00 0. -1.
         -5    1    5    5    0  501  0.27465000734E+02 -0.32399713747E+02  0.38162229884E+02  0.57293223909E+02  0.47000000000E+01 0.  1.
         13    1    6    6    0    0  0.15926353771E+03 -0.84002385805E+02  0.68627596600E+03  0.70950403577E+03  0.00000000000E+00 0. -1.
        -14    1    6    6    0    0  0.17330789993E+03 -0.10908563067E+03  0.46537091527E+03  0.50843425511E+03  0.00000000000E+00 0.  1.
</event>
<event>
12    1  0.9656379E-001  0.2317622E+03  0.7818608E-02  0.1125406E+00
         -1   -1    0    0    0  501 -0.00000000000E+00  0.00000000000E+00  0.13487533623E+03  0.13487533623E+03  0.00000000000E+00 0.  1.
          1   -1    0    0  502    0  0.00000000000E+00 -0.00000000000E+00 -0.85062534464E+03  0.85062534464E+03  0.00000000000E+00 0. -1.
          6    2    1    2  502    0  0.89040088596E+02 -0.12658548249E+03  0.16612257269E+01  0.23149991547E+03  0.17215524807E+03 0.  0.
         24    2    3    3    0    0  0.82492539277E+02 -0.15664828243E+03  0.18529905474E+02  0.19609815423E+03  0.82264362091E+02 0.  0.
         -6    2    1    2    0  501 -0.89040088596E+02  0.12658548249E+03 -0.71741123415E+03  0.75400076540E+03  0.17287641132E+03 0.  0.
        -24    2    5    5    0    0 -0.96228300210E+02  0.14077257957E+03 -0.50017421348E+03  0.53613163666E+03  0.90476975402E+02 0.  0.
          5    1    3    3  502    0  0.65475493186E+01  0.30062799945E+02 -0.16868679747E+02  0.35401761242E+02  0.47000000000E+01 0. -1.
        -11    1    4    4    0    0  0.57401032677E+02 -0.14877788017E+03 -0.67648526271E+01  0.15961046147E+03  0.00000000000E+00 0.  1.
         12    1    4    4    0    0  0.25091506600E+02 -0.78704022584E+01  0.25294758101E+02  0.36487692755E+02  0.00000000000E+00 0. -1.
         -5    1    5    5    0  501  0.71882116144E+01 -0.14187097082E+02 -0.21723702066E+03  0.21786912874E+03  0.47000000000E+01 0.  1.
         13    1    6    6    0    0 -0.76669188084E+02  0.10319706677E+03 -0.46044217425E+03  0.47805312970E+03  0.00000000000E+00 0. -1.
        -14    1    6    6    0    0 -0.19559112126E+02  0.37575512795E+02 -0.39732039236E+02  0.58078506961E+02  0.00000000000E+00 0.  1.
</event>
<event>
12    1  0.9656379E-001  0.2586416E+03  0.7818608E-02  0.1107962E+00
         -2   -1    0    0    0  501 -0.00000000000E+00  0.00000000000E+00  0.21024645510E+04  0.21024645510E+04  0.00000000000E+00 0.  1.
          2   -1    0    0  502    0  0.00000000000E+00 -0.00000000000E+00 -0.37482673269E+02  0.37482673269E+02  0.00000000000E+00 0. -1.
          6    2    1    2  502    0  0.36469390810E+02  0.19024109389E+03  0.14472033713E+04  0.14700687900E+04  0.17083020621E+03 0.  0.
         24    2    3    3    0    0  0.81001343683E+02  0.17338539748E+03  0.12454122643E+04  0.12626827968E+04  0.81807234349E+02 0.  0.
         -6    2    1    2    0  501 -0.36469390810E+02 -0.19024109389E+03  0.61777850649E+03  0.66987843426E+03  0.17194517538E+03 0.  0.
        -24    2    5    5    0    0 -0.61015285172E+02 -0.17690688603E+03  0.39120156182E+03  0.44153767162E+03  0.83053850815E+02 0.  0.
          5    1    3    3  502    0 -0.44531952873E+02  0.16855696410E+02  0.20179110697E+03  0.20738599321E+03  0.47000000000E+01 0. -1.
        -11    1    4    4    0    0  0.43986400928E+02  0.65555174873E+02  0.29218461441E+03  0.30266174736E+03  0.00000000000E+00 0.  1.
         12    1    4    4    0    0  0.37014942754E+02  0.10783022261E+03  0.95322764990E+03  0.96002104947E+03  0.00000000000E+00 0. -1.
         -5    1    5    5    0  501  0.24545894362E+02 -0.13334207859E+02  0.22657694467E+03  0.22834076264E+03  0.47000000000E+01 0.  1.
         11    1    6    6    0    0 -0.30939522908E+02 -0.35394244974E+02  0.40073588388E+02  0.61772964485E+02  0.00000000000E+00 0. -1.
        -12    1    6    6    0    0 -0.30075762263E+02 -0.14151264106E+03  0.35112797343E+03  0.37976470713E+03  0.00000000000E+00 0.  1.
</event>
<event>
12    1  0.9656379E-001  0.2360140E+03  0.7818608E-02  0.1122477E+00
         -1   -1    0    0    0  501 -0.00000000000E+00  0.00000000000E+00  0.24618021853E+03  0.24618021853E+03  0.00000000000E+00 0.  1.
          1   -1    0    0  502    0  0.00000000000E+00 -0.00000000000E+00 -0.22276084818E+04  0.22276084818E+04  0.00000000000E+00 0. -1.
          6    2    1    2  502    0  0.38939674469E+02 -0.15588766280E+03  0.18157489227E+03  0.29797414301E+03  0.17321052723E+03 0.  0.
         24    2    3    3    0    0  0.30249377725E+02 -0.19340560006E+02  0.28992137599E+02  0.92976046536E+02  0.80715048614E+02 0.  0.
         -6    2    1    2    0  501 -0.38939674469E+02  0.15588766280E+03 -0.21630031555E+04  0.21758145573E+04  0.17253717076E+03 0.  0.
        -24    2    5    5    0    0 -0.53081004934E+02  0.11174482215E+03 -0.90883105235E+03  0.92077737777E+03  0.80948127506E+02 0.  0.
          5    1    3    3  502    0  0.86902967436E+01 -0.13654710279E+03  0.15258275467E+03  0.20499809648E+03  0.47000000000E+01 0. -1.
        -13    1    4    4    0    0  0.29906069331E+02 -0.48315123575E+02  0.84268556446E+01  0.57443328986E+02  0.00000000000E+00 0.  1.
         14    1    4    4    0    0  0.34330839468E+00  0.28974563569E+02  0.20565281954E+02  0.35532717550E+02  0.00000000000E+00 0. -1.
         -5    1    5    5    0  501  0.14141330465E+02  0.44142840645E+02 -0.12541721032E+04  0.12550371795E+04  0.47000000000E+01 0.  1.
         13    1    6    6    0    0  0.13221362018E+02  0.14635801097E+02 -0.30297828015E+03  0.30361957995E+03  0.00000000000E+00 0. -1.
        -14    1    6    6    0    0 -0.66302366952E+02  0.97109021055E+02 -0.60585277220E+03  0.61715779782E+03  0.00000000000E+00 0.  1.
</event>
<event>
12    1  0.9656379E-001  0.3707922E+03  0.7818608E-02  0.1054390E+00
          2   -1    0    0  502    0  0.00000000000E+00  0.00000000000E+00  0.10006158540E+04  0.10006158540E+04  0.00000000000E+00 0. -1.
         -2   -1    0    0    0  501 -0.00000000000E+00 -0.00000000000E+00 -0.19896797843E+03  0.19896797843E+03  0.00000000000E+00 0.  1.
          6    2    1    2  502    0  0.32325433810E+03 -0.55619197113E+02  0.66590047490E+02  0.37593949882E+03  0.17119991286E+03 0.  0.
         24    2    3    3    0    0  0.15984883856E+03  0.30564414217E+02  0.61068158043E+02  0.19105695934E+03  0.79294433481E+02 0.  0.
         -6    2    1    2    0  501 -0.32325433810E+03  0.55619197113E+02  0.73505782808E+03  0.82364433360E+03  0.17462278047E+03 0.  0.
        -24    2    5    5    0    0 -0.81947303065E+02  0.64693516952E+02  0.24189093969E+03  0.27451129122E+03  0.77101301434E+02 0.  0.
          5    1    3    3  502    0  0.16340549954E+03 -0.86183611330E+02  0.55218894468E+01  0.18488253948E+03  0.47000000000E+01 0. -1.
        -11    1    4    4    0    0  0.76145426762E+02 -0.11177814327E+02 -0.40812052665E+01  0.77069616492E+02  0.00000000000E+00 0.  1.
         12    1    4    4    0    0  0.83703411800E+02  0.41742228544E+02  0.65149363310E+02  0.11398734285E+03  0.00000000000E+00 0. -1.
         -5    1    5    5    0  501 -0.24130703504E+03 -0.90743198395E+01  0.49316688838E+03  0.54913304238E+03  0.47000000000E+01 0.  1.
         13    1    6    6    0    0 -0.70358492939E+02  0.35404098111E+02  0.22579486206E+03  0.23913821824E+03  0.00000000000E+00 0. -1.
        -14    1    6    6    0    0 -0.11588810125E+02  0.29289418842E+02  0.16096077633E+02  0.35373072970E+02  0.00000000000E+00 0.  1.
</event>
<event>
12    1  0.9656379E-001  0.3683376E+03  0.7818608E-02  0.1055330E+00
          2   -1    0    0  502    0  0.00000000000E+00  0.00000000000E+00  0.19441519183E+04  0.19441519183E+04  0.00000000000E+00 0. -1.
         -2   -1    0    0    0  501 -0.00000000000E+00 -0.00000000000E+00 -0.91902871526E+02  0.91902871526E+02  0.00000000000E+00 0.  1.
          6    2    1    2  502    0  0.32528483874E+03  0.16656305805E+02  0.42621859676E+03  0.56315870212E+03  0.17145778695E+03 0.  0.
         24    2    3    3    0    0  0.30992378622E+03  0.49926535911E+02  0.34249905184E+03  0.47164956406E+03  0.81254529174E+02 0.  0.
         -6    2    1    2    0  501 -0.32528483874E+03 -0.16656305805E+02  0.14260304500E+04  0.14728960877E+04  0.17254675308E+03 0.  0.
        -24    2    5    5    0    0 -0.14639315390E+03  0.41646720246E+02  0.84042773897E+03  0.85779113493E+03  0.79507496022E+02 0.  0.
          5    1    3    3  502    0  0.15361052517E+02 -0.33270230106E+02  0.83719544921E+02  0.91509138055E+02  0.47000000000E+01 0. -1.
        -11    1    4    4    0    0  0.16639818920E+03  0.90536142963E+01  0.12699112564E+03  0.20951627930E+03  0.00000000000E+00 0.  1.
         12    1    4    4    0    0  0.14352559702E+03  0.40872921615E+02  0.21550792621E+03  0.26213328476E+03  0.00000000000E+00 0. -1.
         -5    1    5    5    0  501 -0.17889168484E+03 -0.58303026051E+02  0.58560271102E+03  0.61510495276E+03  0.47000000000E+01 0.  1.
         11    1    6    6    0    0 -0.14005178863E+03  0.11070940725E+02  0.68590824953E+03  0.70014798150E+03  0.00000000000E+00 0. -1.
        -12    1    6    6    0    0 -0.63413652615E+01  0.30575779520E+02  0.15451948944E+03  0.15764315343E+03  0.00000000000E+00 0.  1.
</event>
<event>
12    1  0.9656379E-001  0.3780525E+03  0.7818608E-02  0.1051656E+00
         -2   -1    0    0    0  501 -0.00000000000E+00  0.00000000000E+00  0.37760611033E+02  0.37760611033E+02  0.00000000000E+00 0.  1.
          2   -1    0    0  502    0  0.00000000000E+00 -0.00000000000E+00 -0.42303439504E+04  0.42303439504E+04  0.00000000000E+00 0. -1.
          6    2    1    2  502    0 -0.16992893721E+03  0.28894858960E+03 -0.13954401801E+04  0.14452983058E+04  0.17107532039E+03 0.  0.
         24    2    3    3    0    0 -0.11100460300E+03  0.28568104255E+03 -0.11658710813E+04  0.12082185403E+04  0.81246434691E+02 0.  0.
         -6    2    1    2    0  501  0.16992893721E+03 -0.28894858960E+03 -0.27971431592E+04  0.28228062556E+04  0.17848857816E+03 0.  0.
        -24    2    5    5    0    0  0.13573151842E+03 -0.27372025971E+03 -0.19964889299E+04  0.20212635865E+04  0.78693159176E+02 0.  0.
          5    1    3    3  502    0 -0.58924334209E+02  0.32675470505E+01 -0.22956909888E+03  0.23707976545E+03  0.47000000000E+01 0. -1.
        -13    1    4    4    0    0 -0.10749476143E+03  0.24590074902E+03 -0.89343329696E+03  0.93286942185E+03  0.00000000000E+00 0.  1.
         14    1    4    4    0    0 -0.35098415709E+01  0.39780293531E+02 -0.27243778430E+03  0.27534911850E+03  0.00000000000E+00 0. -1.
         -5    1    5    5    0  501  0.34197418783E+02 -0.15228329892E+02 -0.80065422934E+03  0.80154266913E+03  0.47000000000E+01 0.  1.
         13    1    6    6    0    0  0.14172817388E+03 -0.24172683229E+03 -0.18573175123E+04  0.18783362527E+04  0.00000000000E+00 0. -1.
        -14    1    6    6    0    0 -0.59966554511E+01 -0.31993427418E+02 -0.13917141753E+03  0.14292733375E+03  0.00000000000E+00 0.  1.
</event>
<event>
12    1  0.9656379E-001  0.6504568E+03  0.7818608E-02  0.9805922E-01
         -2   -1    0    0    0  501 -0.00000000000E+00  0.00000000000E+00  0.24750073055E+03  0.24750073055E+03  0.00000000000E+00 0.  1.
          2   -1    0    0  502    0  0.00000000000E+00 -0.00000000000E+00 -0.19348758492E+04  0.19348758492E+04  0.00000000000E+00 0. -1.
          6    2    1    2  502    0 -0.26895662939E+03  0.56678230286E+03 -0.47078093278E+03  0.80262195541E+03  0.17025706829E+03 0.  0.
         24    2    3    3    0    0 -0.12928894458E+03  0.19217936966E+03 -0.22931495925E+03  0.33554345438E+03  0.79721502312E+02 0.  0.
         -6    2    1    2    0  501  0.26895662939E+03 -0.56678230286E+03 -0.12165941859E+04  0.13797546243E+04  0.17332502113E+03 0.  0.
        -24    2    5    5    0    0  0.21070055433E+03 -0.47642405646E+03 -0.11076472206E+04  0.12266209762E+04  0.79636979885E+02 0.  0.
          5    1    3    3  502    0 -0.13966768481E+03  0.37460293320E+03 -0.24146597353E+03  0.46707850102E+03  0.47000000000E+01 0. -1.
        -13    1    4    4    0    0 -0.99423079952E+02  0.17771385515E+03 -0.16099003134E+03  0.25958611930E+03  0.00000000000E+00 0.  1.
         14    1    4    4    0    0 -0.29865864629E+02  0.14465514507E+02 -0.68324927908E+02  0.75957335088E+02  0.00000000000E+00 0. -1.
         -5    1    5    5    0  501  0.58256075055E+02 -0.90358246399E+02 -0.10894696522E+03  0.15313364818E+03  0.47000000000E+01 0.  1.
         11    1    6    6    0    0  0.60433146134E+02 -0.65593170665E+02 -0.17130339815E+03  0.19313074174E+03  0.00000000000E+00 0. -1.
        -12    1    6    6    0    0  0.15026740820E+03 -0.41083088580E+03 -0.93634382250E+03  0.10334902344E+04  0.00000000000E+00 0.  1.
</event>
<event>
12    1  0.9656379E-001  0.6548807E+03  0.7818608E-02  0.9797664E-01
         -1   -1    0    0    0  501 -0.00000000000E+00  0.00000000000E+00  0.24195077888E+03  0.24195077888E+03  0.00000000000E+00 0.  1.
          1   -1    0    0  502    0  0.00000000000E+00 -0.00000000000E+00 -0.26724473632E+04  0.26724473632E+04  0.00000000000E+00 0. -1.
          6    2    1    2  502    0 -0.62314031344E+03  0.10848972666E+03 -0.36934300216E+03  0.75163274510E+03  0.16871176378E+03 0.  0.
         24    2    3    3    0    0 -0.29453338975E+03  0.66999476506E+02 -0.11095553549E+03  0.33152546822E+03  0.79744327029E+02 0.  0.
         -6    2    1    2    0  501  0.62314031344E+03 -0.10848972666E+03 -0.20611535821E+04  0.21627653969E+04  0.17066400353E+03 0.  0.
        -24    2    5    5    0    0  0.34309151281E+03 -0.25779008600E+01 -0.10091685069E+04  0.10689924159E+04  0.81272862575E+02 0.  0.
          5    1    3    3  502    0 -0.32860692369E+03  0.41490250157E+02 -0.25838746667E+03  0.42010727688E+03  0.47000000000E+01 0. -1.
        -11    1    4    4    0    0 -0.27532954613E+03  0.56841815773E+02 -0.12279589034E+03  0.30678360725E+03  0.00000000000E+00 0.  1.
         12    1    4    4    0    0 -0.19203843621E+02  0.10157660733E+02  0.11840354850E+02  0.24741860973E+02  0.00000000000E+00 0. -1.
         -5    1    5    5    0  501  0.28004880063E+03 -0.10591182580E+03 -0.10519850752E+04  0.10937729811E+04  0.47000000000E+01 0.  1.
         13    1    6    6    0    0  0.16884671033E+03 -0.18581030833E+02 -0.60887635225E+03  0.63212726458E+03  0.00000000000E+00 0. -1.
        -14    1    6    6    0    0  0.17424480248E+03  0.16003129973E+02 -0.40029215463E+03  0.43686515130E+03  0.00000000000E+00 0.  1.
</event>
<event>
12    1  0.9656379E-001  0.4241270E+03  0.7818608E-02  0.1035731E+00
          1   -1    0    0  502    0  0.00000000000E+00  0.00000000000E+00  0.28253759517E+03  0.28253759517E+03  0.00000000000E+00 0. -1.
         -1   -1    0    0    0  501 -0.00000000000E+00 -0.00000000000E+00 -0.64790657365E+03  0.64790657365E+03  0.00000000000E+00 0.  1.
          6    2    1    2  502    0 -0.25850780373E+03  0.28913696219E+03 -0.12138804868E+03  0.44107557346E+03  0.17142384795E+03 0.  0.
         24    2    3    3    0    0 -0.26315678697E+03  0.27792752450E+03 -0.81551136436E+02  0.39916693335E+03  0.78666698341E+02 0.  0.
         -6    2    1    2    0  501  0.25850780373E+03 -0.28913696219E+03 -0.24398092980E+03  0.48936859536E+03  0.17183847219E+03 0.  0.
        -24    2    5    5    0    0  0.75735433293E+02 -0.13795702422E+03 -0.50838093831E+02  0.18344808587E+03  0.79376898635E+02 0.  0.
          5    1    3    3  502    0  0.46489832328E+01  0.11209437688E+02 -0.39836912247E+02  0.41908640109E+02  0.47000000000E+01 0. -1.
        -13    1    4    4    0    0 -0.18031796018E+03  0.21908424724E+03 -0.30294344686E+02  0.28535981054E+03  0.00000000000E+00 0.  1.
         14    1    4    4    0    0 -0.82838826787E+02  0.58843277254E+02 -0.51256791750E+02  0.11380712281E+03  0.00000000000E+00 0. -1.
         -5    1    5    5    0  501  0.18277237044E+03 -0.15117993796E+03 -0.19314283597E+03  0.30592050949E+03  0.47000000000E+01 0.  1.
         11    1    6    6    0    0  0.77668704355E+01 -0.26785110664E+02  0.20762679413E+02  0.34768596262E+02  0.00000000000E+00 0. -1.
        -12    1    6    6    0    0  0.67968562857E+02 -0.11117191356E+03 -0.71600773244E+02  0.14867948961E+03  0.00000000000E+00 0.  1.
</event>
<event>
12    1  0.9656379E-001  0.4157556E+03  0.7818608E-02  0.1038457E+00
         -2   -1    0    0    0  501 -0.00000000000E+00  0.00000000000E+00  0.84395742651E+03  0.84395742651E+03  0.00000000000E+00 0.  1.
          2   -1    0    0  502    0  0.00000000000E+00 -0.00000000000E+00 -0.22413692678E+03  0.22413692678E+03  0.00000000000E+00 0. -1.
          6    2    1    2  502    0  0.32557767945E+03 -0.19179456155E+03  0.46662989458E+03  0.62488666594E+03  0.17307197221E+03 0.  0.
         24    2    3    3    0    0  0.12510863121E+03 -0.10311980865E+03  0.30002060069E+03  0.34951092643E+03  0.76548431178E+02 0.  0.
         -6    2    1    2    0  501 -0.32557767945E+03  0.19179456155E+03  0.15319060515E+03  0.44320768735E+03  0.17372309409E+03 0.  0.
        -24    2    5    5    0    0 -0.80489979447E+02  0.10970314763E+03  0.58475767895E+02  0.16788974146E+03  0.79083073185E+02 0.  0.
          5    1    3    3  502    0  0.20046904824E+03 -0.88674752902E+02  0.16660929388E+03  0.27537573951E+03  0.47000000000E+01 0. -1.
        -11    1    4    4    0    0  0.96649958646E+02 -0.86300299107E+02  0.16125746685E+03  0.20686451302E+03  0.00000000000E+00 0.  1.
         12    1    4    4    0    0  0.28458672569E+02 -0.16819509539E+02  0.13876313384E+03  0.14264641341E+03  0.00000000000E+00 0. -1.
         -5    1    5    5    0  501 -0.24508770000E+03  0.82091413921E+02  0.94714837259E+02  0.27531794589E+03  0.47000000000E+01 0.  1.
         11    1    6    6    0    0 -0.53360247336E+02  0.20127158692E+02 -0.92412136427E+00  0.57037465872E+02  0.00000000000E+00 0. -1.
        -12    1    6    6    0    0 -0.27129732111E+02  0.89575988935E+02  0.59399889259E+02  0.11085227558E+03  0.00000000000E+00 0.  1.
</event>
<event>
12    1  0.9656379E-001  0.3604284E+03  0.7818608E-02  0.1058414E+00
         -1   -1    0    0    0  501 -0.00000000000E+00  0.00000000000E+00  0.60805236252E+03  0.60805236252E+03  0.00000000000E+00 0.  1.
          1   -1    0    0  502    0  0.00000000000E+00 -0.00000000000E+00 -0.77112849022E+03  0.77112849022E+03  0.00000000000E+00 0. -1.
          6    2    1    2  502    0  0.26570485906E+03  0.17266624064E+03  0.50479938909E+03  0.62020922634E+03  0.17153529789E+03 0.  0.
         24    2    3    3    0    0  0.28198727680E+03  0.17204337815E+03  0.45605176891E+03  0.56859599587E+03  0.78755586203E+02 0.  0.
         -6    2    1    2    0  501 -0.26570485906E+03 -0.17266624064E+03 -0.66787551680E+03  0.75897162640E+03  0.17195208914E+03 0.  0.
        -24    2    5    5    0    0 -0.21871072501E+03 -0.84122162753E+02 -0.37383131239E+03  0.44827468964E+03  0.79305912472E+02 0.  0.
          5    1    3    3  502    0 -0.16282417737E+02  0.62286248203E+00  0.48747620187E+02  0.51613230464E+02  0.47000000000E+01 0. -1.
        -11    1    4    4    0    0  0.24533359733E+03  0.11925684361E+03  0.39437696070E+03  0.47952471871E+03  0.00000000000E+00 0.  1.
         12    1    4    4    0    0  0.36653679466E+02  0.52786534543E+02  0.61674808211E+02  0.89071277162E+02  0.00000000000E+00 0. -1.
         -5    1    5    5    0  501 -0.46994134052E+02 -0.88544077883E+02 -0.29404420441E+03  0.31069693675E+03  0.47000000000E+01 0.  1.
         13    1    6    6    0    0 -0.19634484468E+03 -0.80520719287E+02 -0.27765857362E+03  0.34946983815E+03  0.00000000000E+00 0. -1.
        -14    1    6    6    0    0 -0.22365880327E+02 -0.36014434657E+01 -0.96172738766E+02  0.98804851498E+02  0.00000000000E+00 0.  1.
</event>
<event>
12    1  0.9656379E-001  0.6038576E+03  0.7818608E-02  0.9897435E-01
         -2   -1    0    0    0  501 -0.00000000000E+00  0.00000000000E+00  0.28727612508E+03  0.28727612508E+03  0.00000000000E+00 0.  1.
          2   -1    0    0  502    0  0.00000000000E+00 -0.00000000000E+00 -0.19481037743E+04  0.19481037743E+04  0.00000000000E+00 0. -1.
          6    2    1    2  502    0  0.28751236958E+03 -0.50253810206E+03 -0.17067788387E+03  0.62753504029E+03  0.17164317659E+03 0.  0.
         24    2    3    3    0    0  0.12430457248E+03 -0.12531472941E+03 -0.49284291736E+02  0.19894111579E+03  0.77415876881E+02 0.  0.
         -6    2    1    2    0  501 -0.28751236958E+03  0.50253810206E+03 -0.14901497653E+04  0.16078448590E+04  0.17149595054E+03 0.  0.
        -24    2    5    5    0    0 -0.21411540016E+03  0.35869257418E+03 -0.12320449088E+04  0.13033471448E+04  0.79204515572E+02 0.  0.
          5    1    3    3  502    0  0.16320779709E+03 -0.37722337266E+03 -0.12139359214E+03  0.42859392450E+03  0.47000000000E+01 0. -1.
        -13    1    4    4    0    0  0.94972912838E+02 -0.82086961129E+02  0.22619407582E+01  0.12555174127E+03  0.00000000000E+00 0.  1.
         14    1    4    4    0    0  0.29331659645E+02 -0.43227768277E+02 -0.51546232494E+02  0.73389374518E+02  0.00000000000E+00 0. -1.
         -5    1    5    5    0  501 -0.73396969413E+02  0.14384552789E+03 -0.25810485650E+03  0.30449771421E+03  0.47000000000E+01 0.  1.
         11    1    6    6    0    0 -0.44702922439E+02  0.88578267732E+02 -0.40481073641E+03  0.41679274598E+03  0.00000000000E+00 0. -1.
        -12    1    6    6    0    0 -0.16941247772E+03  0.27011430644E+03 -0.82723417239E+03  0.88655439885E+03  0.00000000000E+00 0.  1.
</event>
<event>
12    1  0.9656379E-001  0.4232387E+03  0.7818608E-02  0.1036017E+00
          1   -1    0    0  502    0  0.00000000000E+00  0.00000000000E+00  0.40927355764E+03  0.40927355764E+03  0.00000000000E+00 0. -1.
         -1   -1    0    0    0  501 -0.00000000000E+00 -0.00000000000E+00 -0.46314846797E+03  0.46314846797E+03  0.00000000000E+00 0.  1.
          6    2    1    2  502    0 -0.31842604387E+03  0.21832958284E+03 -0.12925224757E+03  0.44293477617E+03  0.17441938046E+03 0.  0.
         24    2    3    3    0    0 -0.28239976658E+03  0.13503784138E+03 -0.12474795391E+03  0.35195243991E+03  0.10160522223E+03 0.  0.
         -6    2    1    2    0  501  0.31842604387E+03 -0.21832958284E+03  0.75377337244E+02  0.42948724944E+03  0.17237923978E+03 0.  0.
        -24    2    5    5    0    0  0.32509156232E+03 -0.22881254829E+03  0.61392701064E+02  0.41020042104E+03  0.80346845180E+02 0.  0.
          5    1    3    3  502    0 -0.36026277294E+02  0.83291741453E+02 -0.45042936610E+01  0.90982336260E+02  0.47000000000E+01 0. -1.
        -11    1    4    4    0    0 -0.15328800350E+03  0.12814903773E+03 -0.76988670732E+02  0.21411829280E+03  0.00000000000E+00 0.  1.
         12    1    4    4    0    0 -0.12911176308E+03  0.68888036516E+01 -0.47759283175E+02  0.13783414711E+03  0.00000000000E+00 0. -1.
         -5    1    5    5    0  501 -0.66655184507E+01  0.10482965450E+02  0.13984636180E+02  0.19286828405E+02  0.47000000000E+01 0.  1.
         11    1    6    6    0    0  0.14899598613E+03 -0.13426625665E+03  0.63302043330E+02  0.21031970960E+03  0.00000000000E+00 0. -1.
        -12    1    6    6    0    0  0.17609557619E+03 -0.94546291636E+02 -0.19093422660E+01  0.19988071143E+03  0.00000000000E+00 0.  1.
</event>
<event>
12    1  0.9656379E-001  0.1053331E+04  0.7818608E-02  0.9251912E-01
         -2   -1    0    0    0  501 -0.00000000000E+00  0.00000000000E+00  0.13894380148E+04  0.13894380148E+04  0.00000000000E+00 0.  1.
          2   -1    0    0  502    0  0.00000000000E+00 -0.00000000000E+00 -0.17931755572E+04  0.17931755572E+04  0.00000000000E+00 0. -1.
          6    2    1    2  502    0  0.85540294512E+03 -0.59110520418E+03  0.98321370761E+03  0.14415691529E+04  0.17404846158E+03 0.  0.
         24    2    3    3    0    0  0.59171278991E+03 -0.46142772655E+03  0.63647191371E+03  0.98703564726E+03  0.78123616442E+02 0.  0.
         -6    2    1    2    0  501 -0.85540294512E+03  0.59110520418E+03 -0.13869512501E+04  0.17410444191E+04  0.16273394893E+03 0.  0.
        -24    2    5    5    0    0 -0.34506973325E+03  0.26306408592E+03 -0.48983964166E+03  0.65804751678E+03  0.69338486348E+02 0.  0.
          5    1    3    3  502    0  0.26369015521E+03 -0.12967747763E+03  0.34674179390E+03  0.45453350569E+03  0.47000000000E+01 0. -1.
        -11    1    4    4    0    0  0.12948187230E+03 -0.63621840988E+02  0.11086799998E+03  0.18194781484E+03  0.00000000000E+00 0.  1.
         12    1    4    4    0    0  0.46223091761E+03 -0.39780588556E+03  0.52560391373E+03  0.80508783242E+03  0.00000000000E+00 0. -1.
         -5    1    5    5    0  501 -0.51033321187E+03  0.32804111825E+03 -0.89711160840E+03  0.10829969023E+04  0.47000000000E+01 0.  1.
         13    1    6    6    0    0 -0.24647002547E+03  0.21783369145E+03 -0.39434853054E+03  0.51352678034E+03  0.00000000000E+00 0. -1.
        -14    1    6    6    0    0 -0.98599707777E+02  0.45230394474E+02 -0.95491111123E+02  0.14452073644E+03  0.00000000000E+00 0.  1.
</event>
<event>
12    1  0.9656379E-001  0.1935226E+04  0.7818608E-02  0.8637518E-01
          2   -1    0    0  502    0  0.00000000000E+00  0.00000000000E+00  0.37980280918E+04  0.37980280918E+04  0.00000000000E+00 0. -1.
         -2   -1    0    0    0  501 -0.00000000000E+00 -0.00000000000E+00 -0.19775470644E+04  0.19775470644E+04  0.00000000000E+00 0.  1.
          6    2    1    2  502    0 -0.66610465690E+03 -0.18087104603E+04 -0.11345233504E+04  0.22432868993E+04  0.17338955211E+03 0.  0.
         24    2    3    3    0    0 -0.18332214781E+03 -0.52716405613E+03 -0.27344048149E+03  0.62559535445E+03  0.71350533529E+02 0.  0.
         -6    2    1    2    0  501  0.66610465690E+03  0.18087104603E+04  0.29550043778E+04  0.35322882569E+04  0.17285980840E+03 0.  0.
        -24    2    5    5    0    0  0.55921911018E+03  0.13820857126E+04  0.23525585082E+04  0.27863684815E+04  0.80192580256E+02 0.  0.
          5    1    3    3  502    0 -0.48278250909E+03 -0.12815464042E+04 -0.86108286893E+03  0.16176915449E+04  0.47000000000E+01 0. -1.
        -13    1    4    4    0    0 -0.14801807159E+03 -0.45506841063E+03 -0.25866706567E+03  0.54397174442E+03  0.00000000000E+00 0.  1.
         14    1    4    4    0    0 -0.35304076225E+02 -0.72095645502E+02 -0.14773415818E+02  0.81623610024E+02  0.00000000000E+00 0. -1.
         -5    1    5    5    0  501  0.10688554673E+03  0.42662474775E+03  0.60244586959E+03  0.74591977536E+03  0.47000000000E+01 0.  1.
         11    1    6    6    0    0  0.17276471469E+03  0.41595016604E+03  0.78030489999E+03  0.90096499611E+03  0.00000000000E+00 0. -1.
        -12    1    6    6    0    0  0.38645439549E+03  0.96613554652E+03  0.15722536083E+04  0.18854034854E+04  0.00000000000E+00 0.  1.
</event>
<event>
12    1  0.9656379E-001  0.2979879E+03  0.7818608E-02  0.1086251E+00
          1   -1    0    0  502    0  0.00000000000E+00  0.00000000000E+00  0.60713295495E+03  0.60713295495E+03  0.00000000000E+00 0. -1.
         -1   -1    0    0    0  501 -0.00000000000E+00 -0.00000000000E+00 -0.17550255828E+03  0.17550255828E+03  0.00000000000E+00 0.  1.
          6    2    1    2  502    0  0.23328099737E+03  0.71302825522E+02  0.56266294287E+02  0.30357105748E+03  0.17171305834E+03 0.  0.
         24    2    3    3    0    0  0.24970054142E+03  0.83116582474E+02  0.60300035168E+02  0.28241621534E+03  0.82849850801E+02 0.  0.
         -6    2    1    2    0  501 -0.23328099737E+03 -0.71302825522E+02  0.37536410238E+03  0.47906445575E+03  0.17058847192E+03 0.  0.
        -24    2    5    5    0    0 -0.20966701116E+03 -0.36353555070E+01  0.30051461256E+03  0.37532900873E+03  0.81174879468E+02 0.  0.
          5    1    3    3  502    0 -0.16419544054E+02 -0.11813756953E+02 -0.40337408808E+01  0.21154842135E+02  0.47000000000E+01 0. -1.
        -13    1    4    4    0    0  0.10534951691E+03  0.78584668388E+02  0.26028165548E+02  0.13398334307E+03  0.00000000000E+00 0.  1.
         14    1    4    4    0    0  0.14435102451E+03  0.45319140862E+01  0.34271869620E+02  0.14843287227E+03  0.00000000000E+00 0. -1.
         -5    1    5    5    0  501 -0.23613986214E+02 -0.67667470015E+02  0.74849489813E+02  0.10373544702E+03  0.47000000000E+01 0.  1.
         13    1    6    6    0    0 -0.59721925894E+02  0.35989086027E+02  0.89869695707E+02  0.11374746130E+03  0.00000000000E+00 0. -1.
        -14    1    6    6    0    0 -0.14994508526E+03 -0.39624441534E+02  0.21064491686E+03  0.26158154743E+03  0.00000000000E+00 0.  1.
</event>
<event>
12    1  0.9656379E-001  0.9136525E+03  0.7818608E-02  0.9408674E-01
         -2   -1    0    0    0  501 -0.00000000000E+00  0.00000000000E+00  0.11136436269E+04  0.11136436269E+04  0.00000000000E+00 0.  1.
          2   -1    0    0  502    0  0.00000000000E+00 -0.00000000000E+00 -0.75205510717E+03  0.75205510717E+03  0.00000000000E+00 0. -1.
          6    2    1    2  502    0 -0.29288028614E+03 -0.84806352651E+03  0.23435447752E+03  0.94324868458E+03  0.17264255797E+03 0.  0.
         24    2    3    3    0    0 -0.29118051633E+03 -0.81369002650E+03  0.19269953870E+03  0.88901169860E+03  0.79568434100E+02 0.  0.
         -6    2    1    2    0  501  0.29288028614E+03  0.84806352651E+03  0.12723404217E+03  0.92245004945E+03  0.17243835201E+03 0.  0.
        -24    2    5    5    0    0  0.14607997838E+03  0.35898192292E+03  0.73242313372E+02  0.40894411754E+03  0.10799756358E+03 0.  0.
          5    1    3    3  502    0 -0.16997698064E+01 -0.34373500003E+02  0.41654938824E+02  0.54236985981E+02  0.47000000000E+01 0. -1.
        -11    1    4    4    0    0 -0.16421590034E+03 -0.56510560796E+03  0.12046630823E+03  0.60068572606E+03  0.00000000000E+00 0.  1.
         12    1    4    4    0    0 -0.12696461599E+03 -0.24858441855E+03  0.72233230467E+02  0.28832597254E+03  0.00000000000E+00 0. -1.
         -5    1    5    5    0  501  0.14680030776E+03  0.48908160359E+03  0.53991728797E+02  0.51350593191E+03  0.47000000000E+01 0.  1.
         13    1    6    6    0    0  0.14805829988E+03  0.35931427640E+03  0.84337333719E+02  0.39766920330E+03  0.00000000000E+00 0. -1.
        -14    1    6    6    0    0 -0.19783214963E+01 -0.33235348571E+00 -0.11095020347E+02  0.11274914248E+02  0.00000000000E+00 0.  1.
</event>
<event>
12    1  0.9656379E-001  0.8093698E+03  0.7818608E-02  0.9546553E-01
         -1   -1    0    0    0  501 -0.00000000000E+00  0.00000000000E+00  0.15101100939E+04  0.15101100939E+04  0.00000000000E+00 0.  1.
          1   -1    0    0  502    0  0.00000000000E+00 -0.00000000000E+00 -0.95611831935E+03  0.95611831935E+03  0.00000000000E+00 0. -1.
          6    2    1    2  502    0 -0.68947218892E+03 -0.38352029432E+03  0.11886953194E+04  0.14391196364E+04  0.18870360388E+03 0.  0.
         24    2    3    3    0    0 -0.68406690514E+03 -0.35185142324E+03  0.10999945050E+04  0.13446629852E+04  0.79897921993E+02 0.  0.
         -6    2    1    2    0  501  0.68947218892E+03  0.38352029432E+03 -0.63470354484E+03  0.10271087768E+04  0.17217471988E+03 0.  0.
        -24    2    5    5    0    0  0.60370785395E+03  0.31728207124E+03 -0.47824630212E+03  0.83673025350E+03  0.79163792038E+02 0.  0.
          5    1    3    3  502    0 -0.54052837827E+01 -0.31668871079E+02  0.88700814415E+02  0.94456651254E+02  0.47000000000E+01 0. -1.
        -13    1    4    4    0    0 -0.35150597732E+03 -0.14289356584E+03  0.50327871933E+03  0.63028921344E+03  0.00000000000E+00 0.  1.
         14    1    4    4    0    0 -0.33256092783E+03 -0.20895785739E+03  0.59671578565E+03  0.71437377172E+03  0.00000000000E+00 0. -1.
         -5    1    5    5    0  501  0.85764334976E+02  0.66238223072E+02 -0.15645724272E+03  0.19037852334E+03  0.47000000000E+01 0.  1.
         11    1    6    6    0    0  0.20620945004E+03  0.13407782133E+03 -0.20972720272E+03  0.32324093030E+03  0.00000000000E+00 0. -1.
        -12    1    6    6    0    0  0.39749840390E+03  0.18320424991E+03 -0.26851909940E+03  0.51348932320E+03  0.00000000000E+00 0.  1.
</event>
<event>
12    1  0.9656379E-001  0.3605535E+03  0.7818608E-02  0.1058365E+00
          2   -1    0    0  502    0  0.00000000000E+00  0.00000000000E+00  0.15843927761E+04  0.15843927761E+04  0.00000000000E+00 0. -1.
         -2   -1    0    0    0  501 -0.00000000000E+00 -0.00000000000E+00 -0.16692669492E+03  0.16692669492E+03  0.00000000000E+00 0.  1.
          6    2    1    2  502    0 -0.29429562344E+03  0.11878001554E+03  0.13338050787E+04  0.13818586733E+04  0.17256534634E+03 0.  0.
         24    2    3    3    0    0 -0.20434103952E+03  0.81909799630E+02  0.11531444927E+04  0.11766476177E+04  0.79327923358E+02 0.  0.
         -6    2    1    2    0  501  0.29429562344E+03 -0.11878001554E+03  0.83661002499E+02  0.36946079781E+03  0.16965704144E+03 0.  0.
        -24    2    5    5    0    0  0.21606701629E+03 -0.15110837050E+03  0.56869338933E+02  0.28055230132E+03  0.77180158733E+02 0.  0.
          5    1    3    3  502    0 -0.89954583927E+02  0.36870215914E+02  0.18066058600E+03  0.20521105556E+03  0.47000000000E+01 0. -1.
        -11    1    4    4    0    0 -0.72905394989E+02 -0.50103598187E+01  0.27886472767E+03  0.28828082951E+03  0.00000000000E+00 0.  1.
         12    1    4    4    0    0 -0.13143564453E+03  0.86920159449E+02  0.87427976506E+03  0.88836678819E+03  0.00000000000E+00 0. -1.
         -5    1    5    5    0  501  0.78228607150E+02  0.32328354957E+02  0.26791663565E+02  0.88908496486E+02  0.47000000000E+01 0.  1.
         13    1    6    6    0    0  0.21809608990E+03 -0.13318370647E+03  0.59338571100E+02  0.26234494491E+03  0.00000000000E+00 0. -1.
        -14    1    6    6    0    0 -0.20290736039E+01 -0.17924664027E+02 -0.24692321665E+01  0.18207356416E+02  0.00000000000E+00 0.  1.
</event>
<event>
12    1  0.9656379E-001  0.1027832E+04  0.7818608E-02  0.9278535E-01
          2   -1    0    0  502    0  0.00000000000E+00  0.00000000000E+00  0.96805285931E+03  0.96805285931E+03  0.00000000000E+00 0. -1.
         -2   -1    0    0    0  501 -0.00000000000E+00 -0.00000000000E+00 -0.10939967844E+04  0.10939967844E+04  0.00000000000E+00 0.  1.
          6    2    1    2  502    0 -0.12281372329E+03 -0.10058100114E+04 -0.11413235307E+03  0.10341668871E+04  0.17244699702E+03 0.  0.
         24    2    3    3    0    0 -0.97336187316E+02 -0.77603458627E+03 -0.14925358227E+03  0.80028349403E+03  0.80455121338E+02 0.  0.
         -6    2    1    2    0  501  0.12281372329E+03  0.10058100114E+04 -0.11811572008E+02  0.10278827566E+04  0.17223953797E+03 0.  0.
        -24    2    5    5    0    0  0.95280224031E+02  0.34463189792E+03  0.53058172301E+01  0.36589356762E+03  0.77462797347E+02 0.  0.
          5    1    3    3  502    0 -0.25477535978E+02 -0.22977542510E+03  0.35121229198E+02  0.23388339309E+03  0.47000000000E+01 0. -1.
        -13    1    4    4    0    0 -0.44675298010E+02 -0.57916023794E+03 -0.88197654025E+02  0.58753833036E+03  0.00000000000E+00 0.  1.
         14    1    4    4    0    0 -0.52660889306E+02 -0.19687434833E+03 -0.61055928244E+02  0.21274516367E+03  0.00000000000E+00 0. -1.
         -5    1    5    5    0  501  0.27533499263E+02  0.66117811345E+03 -0.17117389238E+02  0.66198918896E+03  0.47000000000E+01 0.  1.
         13    1    6    6    0    0  0.65686483631E+02  0.20624846317E+03 -0.33795991814E+02  0.21907832333E+03  0.00000000000E+00 0. -1.
        -14    1    6    6    0    0  0.29593740400E+02  0.13838343475E+03  0.39101809044E+02  0.14681524429E+03  0.00000000000E+00 0.  1.
</event>
<event>
12    1  0.9656379E-001  0.1894195E+03  0.7818608E-02  0.1158986E+00
          2   -1    0    0  502    0  0.00000000000E+00  0.00000000000E+00  0.16420469398E+04  0.16420469398E+04  0.00000000000E+00 0. -1.
         -2   -1    0    0    0  501 -0.00000000000E+00 -0.00000000000E+00 -0.11667675678E+03  0.11667675678E+03  0.00000000000E+00 0.  1.
          6    2    1    2  502    0  0.70819475599E+02  0.23101859661E+02 -0.27926168469E+02  0.19425395486E+03  0.17721634814E+03 0.  0.
         24    2    3    3    0    0  0.24020692749E+01 -0.48036885046E+02 -0.88914204885E+01  0.93625558680E+02  0.79833424191E+02 0.  0.
         -6    2    1    2    0  501 -0.70819475599E+02 -0.23101859661E+02  0.15532963515E+04  0.15644697418E+04  0.17113422559E+03 0.  0.
        -24    2    5    5    0    0 -0.90722812414E+02  0.33006094544E+02  0.10417975131E+04  0.10494965414E+04  0.82346227654E+02 0.  0.
          5    1    3    3  502    0  0.68417406324E+02  0.71138744707E+02 -0.19034747981E+02  0.10062839618E+03  0.47000000000E+01 0. -1.
        -11    1    4    4    0    0 -0.21213979601E+02 -0.35198986396E+01 -0.31704343820E+02  0.38309111631E+02  0.00000000000E+00 0.  1.
         12    1    4    4    0    0  0.23616048876E+02 -0.44516986406E+02  0.22812923331E+02  0.55316447049E+02  0.00000000000E+00 0. -1.
         -5    1    5    5    0  501  0.19903336816E+02 -0.56107954205E+02  0.51149883842E+03  0.51497320032E+03  0.47000000000E+01 0.  1.
         13    1    6    6    0    0 -0.66531277579E+02  0.60660766065E+02  0.75955370680E+03  0.76487121331E+03  0.00000000000E+00 0. -1.
        -14    1    6    6    0    0 -0.24191534835E+02 -0.27654671521E+02  0.28224380629E+03  0.28462532812E+03  0.00000000000E+00 0.  1.
</event>
<event>
12    1  0.9656379E-001  0.2160265E+03  0.7818608E-02  0.1136881E+00
         -2   -1    0    0    0  501 -0.00000000000E+00  0.00000000000E+00  0.22676051094E+03  0.22676051094E+03  0.00000000000E+00 0.  1.
          2   -1    0    0  502    0  0.00000000000E+00 -0.00000000000E+00 -0.24461529813E+03  0.24461529813E+03  0.00000000000E+00 0. -1.
          6    2    1    2  502    0 -0.95134164214E+02 -0.90801177365E+02  0.84981662465E+02  0.23136777318E+03  0.17033437851E+03 0.  0.
         24    2    3    3    0    0 -0.81678717193E+02 -0.11632746552E+03  0.90529186952E+02  0.20161032925E+03  0.11066932318E+03 0.  0.
         -6    2    1    2    0  501  0.95134164214E+02  0.90801177365E+02 -0.10283644966E+03  0.24000803589E+03  0.17243305629E+03 0.  0.
        -24    2    5    5    0    0  0.12159017545E+03  0.58772032093E+02 -0.11746962297E+03  0.19571349404E+03  0.79160197741E+02 0.  0.
          5    1    3    3  502    0 -0.13455447021E+02  0.25526288156E+02 -0.55475244876E+01  0.29757443934E+02  0.47000000000E+01 0. -1.
        -11    1    4    4    0    0 -0.88287342265E+02 -0.34157557290E+02  0.29880227833E+02  0.99268431737E+02  0.00000000000E+00 0.  1.
         12    1    4    4    0    0  0.66086250715E+01 -0.82169908231E+02  0.60648959119E+02  0.10234189751E+03  0.00000000000E+00 0. -1.
         -5    1    5    5    0  501 -0.26456011232E+02  0.32029145272E+02  0.14633173305E+02  0.44294541854E+02  0.47000000000E+01 0.  1.
         13    1    6    6    0    0  0.11598757754E+03  0.33594157349E+02 -0.64742943367E+02  0.13701581758E+03  0.00000000000E+00 0. -1.
        -14    1    6    6    0    0  0.56025979099E+01  0.25177874744E+02 -0.52726679599E+02  0.58697676457E+02  0.00000000000E+00 0.  1.
</event>
<event>
12    1  0.9656379E-001  0.1510116E+04  0.7818608E-02  0.8877754E-01
          2   -1    0    0  502    0  0.00000000000E+00  0.00000000000E+00  0.26692600555E+04  0.26692600555E+04  0.00000000000E+00 0. -1.
         -2   -1    0    0    0  501 -0.00000000000E+00 -0.00000000000E+00 -0.10694629292E+04  0.10694629292E+04  0.00000000000E+00 0.  1.
          6    2    1    2  502    0  0.15047374720E+03 -0.14927695132E+04 -0.38509920245E+02  0.15106069629E+04  0.17160190669E+03 0.  0.
         24    2    3    3    0    0  0.24259307568E+02 -0.89964203737E+03 -0.27127090679E+02  0.90407423821E+03  0.81670311240E+02 0.  0.
         -6    2    1    2    0  501 -0.15047374720E+03  0.14927695132E+04  0.16383070465E+04  0.22281160218E+04  0.17160378729E+03 0.  0.
        -24    2    5    5    0    0 -0.20959723617E+02  0.84917517226E+03  0.95546046036E+03  0.12808625667E+04  0.78526684901E+02 0.  0.
          5    1    3    3  502    0  0.12621443963E+03 -0.59312747582E+03 -0.11382829566E+02  0.60653272472E+03  0.47000000000E+01 0. -1.
        -13    1    4    4    0    0 -0.28405052835E+02 -0.19630253770E+03 -0.78611523580E+01  0.19850272303E+03  0.00000000000E+00 0.  1.
         14    1    4    4    0    0  0.52664360403E+02 -0.70333949966E+03 -0.19265938321E+02  0.70557151517E+03  0.00000000000E+00 0. -1.
         -5    1    5    5    0  501 -0.12951402359E+03  0.64359434092E+03  0.68284658612E+03  0.94725345507E+03  0.47000000000E+01 0.  1.
         11    1    6    6    0    0 -0.28511255464E+02  0.65016443424E+03  0.68336302868E+03  0.94366928116E+03  0.00000000000E+00 0. -1.
        -12    1    6    6    0    0  0.75515318475E+01  0.19901073803E+03  0.27209743168E+03  0.33719328553E+03  0.00000000000E+00 0.  1.
</event>
<event>
12    1  0.9656379E-001  0.2759432E+03  0.7818608E-02  0.1097926E+00
          2   -1    0    0  502    0  0.00000000000E+00  0.00000000000E+00  0.19517245966E+04  0.19517245966E+04  0.00000000000E+00 0. -1.
         -2   -1    0    0    0  501 -0.00000000000E+00 -0.00000000000E+00 -0.92272354416E+02  0.92272354416E+02  0.00000000000E+00 0.  1.
          6    2    1    2  502    0  0.15653871898E+03 -0.15004758306E+03  0.15239088556E+03  0.31467585105E+03  0.16964451512E+03 0.  0.
         24    2    3    3    0    0  0.13203951473E+03 -0.59560541953E+02  0.46272929172E+02  0.17300289567E+03  0.82504098855E+02 0.  0.
         -6    2    1    2    0  501 -0.15653871898E+03  0.15004758306E+03  0.17070613566E+04  0.17293211000E+04  0.17168093602E+03 0.  0.
        -24    2    5    5    0    0 -0.75575909622E+02  0.15897166016E+03  0.12838689512E+04  0.12983355809E+04  0.79825371207E+02 0.  0.
          5    1    3    3  502    0  0.24499204247E+02 -0.90487041110E+02  0.10611795639E+03  0.14167295538E+03  0.47000000000E+01 0. -1.
        -11    1    4    4    0    0  0.12942808178E+03 -0.52790610816E+02  0.64084301877E+02  0.15377020092E+03  0.00000000000E+00 0.  1.
         12    1    4    4    0    0  0.26114329472E+01 -0.67699311371E+01 -0.17811372705E+02  0.19232694748E+02  0.00000000000E+00 0. -1.
         -5    1    5    5    0  501 -0.80962809356E+02 -0.89240770937E+01  0.42319240544E+03  0.43098551910E+03  0.47000000000E+01 0.  1.
         11    1    6    6    0    0 -0.41513741932E+02  0.11346882927E+03  0.59609381938E+03  0.60821575735E+03  0.00000000000E+00 0. -1.
        -12    1    6    6    0    0 -0.34062167690E+02  0.45502830884E+02  0.68777513179E+03  0.69011982351E+03  0.00000000000E+00 0.  1.
</event>
<event>
12    1  0.9656379E-001  0.2389609E+03  0.7818608E-02  0.1120487E+00
         -1   -1    0    0    0  501 -0.00000000000E+00  0.00000000000E+00  0.13662762407E+04  0.13662762407E+04  0.00000000000E+00 0.  1.
          1   -1    0    0  502    0  0.00000000000E+00 -0.00000000000E+00 -0.71212481636E+03  0.71212481636E+03  0.00000000000E+00 0. -1.
          6    2    1    2  502    0  0.10110976765E+03  0.13078414055E+03  0.13353056369E+04  0.13564870603E+04  0.17230300127E+03 0.  0.
         24    2    3    3    0    0  0.33574221288E+02  0.69931496678E+02  0.10712071292E+04  0.10771410274E+04  0.82039239467E+02 0.  0.
         -6    2    1    2    0  501 -0.10110976765E+03 -0.13078414055E+03 -0.68115421259E+03  0.72191399675E+03  0.17280359036E+03 0.  0.
        -24    2    5    5    0    0  0.26185608952E+01 -0.70471457321E+02 -0.43390854820E+03  0.44705095002E+03  0.81270170104E+02 0.  0.
          5    1    3    3  502    0  0.67535546367E+02  0.60852643877E+02  0.26409850774E+03  0.27934603287E+03  0.47000000000E+01 0. -1.
        -11    1    4    4    0    0  0.60530867951E+02  0.39906194777E+02  0.67192842568E+03  0.67582860223E+03  0.00000000000E+00 0.  1.
         12    1    4    4    0    0 -0.26956646664E+02  0.30025301901E+02  0.39927870348E+03  0.40131242518E+03  0.00000000000E+00 0. -1.
         -5    1    5    5    0  501 -0.10372832855E+03 -0.60312683234E+02 -0.24724566439E+03  0.27486304674E+03  0.47000000000E+01 0.  1.
         13    1    6    6    0    0  0.31160987224E+02 -0.40774510097E+02 -0.12085456815E+03  0.13129887449E+03  0.00000000000E+00 0. -1.
        -14    1    6    6    0    0 -0.28542426329E+02 -0.29696947224E+02 -0.31305398005E+03  0.31575207553E+03  0.00000000000E+00 0.  1.
</event>
<event>
12    1  0.9656379E-001  0.5690106E+03  0.7818608E-02  0.9971870E-01
         -2   -1    0    0    0  501 -0.00000000000E+00  0.00000000000E+00  0.18459242846E+03  0.18459242846E+03  0.00000000000E+00 0.  1.
          2   -1    0    0  502    0  0.00000000000E+00 -0.00000000000E+00 -0.18732657199E+04  0.18732657199E+04  0.00000000000E+00 0. -1.
          6    2    1    2  502    0  0.54203974396E+03  0.25216439660E+02 -0.58454262634E+03  0.81567966636E+03  0.17088090368E+03 0.  0.
         24    2    3    3    0    0  0.47554622395E+03 -0.64372859425E+01 -0.44043910262E+03  0.65378074080E+03  0.85188051760E+02 0.  0.
         -6    2    1    2    0  501 -0.54203974396E+03 -0.25216439660E+02 -0.11041306651E+04  0.12421784820E+04  0.17163887287E+03 0.  0.
        -24    2    5    5    0    0 -0.22612441786E+03  0.14168737436E+02 -0.59514163570E+03  0.64180725727E+03  0.79937372163E+02 0.  0.
          5    1    3    3  502    0  0.66493520008E+02  0.31653725603E+02 -0.14410352372E+03  0.16189892556E+03  0.47000000000E+01 0. -1.
        -11    1    4    4    0    0  0.12911515932E+03 -0.55589472038E+01 -0.71535336824E+02  0.14771232405E+03  0.00000000000E+00 0.  1.
         12    1    4    4    0    0  0.34643106463E+03 -0.87833873869E+00 -0.36890376579E+03  0.50606841675E+03  0.00000000000E+00 0. -1.
         -5    1    5    5    0  501 -0.31591532610E+03 -0.39385177097E+02 -0.50898902942E+03  0.60037122475E+03  0.47000000000E+01 0.  1.
         13    1    6    6    0    0 -0.19346532540E+03  0.41176394631E+02 -0.49623083560E+03  0.53419974711E+03  0.00000000000E+00 0. -1.
        -14    1    6    6    0    0 -0.32659092452E+02 -0.27007657194E+02 -0.98910800092E+02  0.10760751016E+03  0.00000000000E+00 0.  1.
</event>
<event>
12    1  0.9656379E-001  0.2223157E+03  0.7818608E-02  0.1132168E+00
          2   -1    0    0  502    0  0.00000000000E+00  0.00000000000E+00  0.49469953916E+03  0.49469953916E+03  0.00000000000E+00 0. -1.
         -2   -1    0    0    0  501 -0.00000000000E+00 -0.00000000000E+00 -0.21116547968E+03  0.21116547968E+03  0.00000000000E+00 0.  1.
          6    2    1    2  502    0 -0.13058024273E+03 -0.46507074262E+02 -0.11427478348E+03  0.25037207467E+03  0.17439421403E+03 0.  0.
         24    2    3    3    0    0 -0.49344705797E+01  0.83712853476E+01 -0.67374616702E+02  0.10538859266E+03  0.80454888403E+02 0.  0.
         -6    2    1    2    0  501  0.13058024273E+03  0.46507074262E+02  0.39780884297E+03  0.45549294417E+03  0.17322770822E+03 0.  0.
        -24    2    5    5    0    0  0.93172178319E+02  0.22840761167E+01  0.37490802037E+03  0.39303035918E+03  0.72322663667E+02 0.  0.
          5    1    3    3  502    0 -0.12564577215E+03 -0.54878359609E+02 -0.46900166781E+02  0.14498348201E+03  0.47000000000E+01 0. -1.
        -13    1    4    4    0    0  0.47235013127E+01  0.43790940883E+02 -0.41097669947E+02  0.60240986406E+02  0.00000000000E+00 0.  1.
         14    1    4    4    0    0 -0.96579718924E+01 -0.35419655536E+02 -0.26276946755E+02  0.45147606250E+02  0.00000000000E+00 0. -1.
         -5    1    5    5    0  501  0.37408064410E+02  0.44222998145E+02  0.22900822593E+02  0.62462584987E+02  0.47000000000E+01 0.  1.
         13    1    6    6    0    0  0.67464346510E+02  0.24618170315E+02  0.32343330792E+03  0.33131042397E+03  0.00000000000E+00 0. -1.
        -14    1    6    6    0    0  0.25707831808E+02 -0.22334094199E+02  0.51474712453E+02  0.61719935208E+02  0.00000000000E+00 0.  1.
</event>
<event>
12    1  0.9656379E-001  0.3073393E+03  0.7818608E-02  0.1081628E+00
          4   -1    0    0  502    0  0.00000000000E+00  0.00000000000E+00  0.86247925500E+02  0.86247925500E+02  0.00000000000E+00 0. -1.
         -4   -1    0    0    0  501 -0.00000000000E+00 -0.00000000000E+00 -0.11698611326E+04  0.11698611326E+04  0.00000000000E+00 0.  1.
          6    2    1    2  502    0  0.25478985170E+03 -0.12297441088E+02 -0.70038746259E+03  0.76482892575E+03  0.17132306417E+03 0.  0.
         24    2    3    3    0    0  0.20308173574E+03  0.15457314362E+01 -0.66767889757E+03  0.70192182831E+03  0.75196822563E+02 0.  0.
         -6    2    1    2    0  501 -0.25478985170E+03  0.12297441088E+02 -0.38322574456E+03  0.49128013240E+03  0.17153746416E+03 0.  0.
        -24    2    5    5    0    0 -0.22940747679E+03 -0.38713419650E+02 -0.27565486729E+03  0.36946077226E+03  0.79932078101E+02 0.  0.
          5    1    3    3  502    0  0.51708115963E+02 -0.13843172524E+02 -0.32708565018E+02  0.62907097433E+02  0.47000000000E+01 0. -1.
        -11    1    4    4    0    0  0.36951778692E+02  0.28117276639E+02 -0.18593350352E+03  0.19164363524E+03  0.00000000000E+00 0.  1.
         12    1    4    4    0    0  0.16612995705E+03 -0.26571545203E+02 -0.48174539405E+03  0.51027819308E+03  0.00000000000E+00 0. -1.
         -5    1    5    5    0  501 -0.25382374913E+02  0.51010860738E+02 -0.10757087726E+03  0.12181936014E+03  0.47000000000E+01 0.  1.
         11    1    6    6    0    0 -0.44065270550E+02 -0.42607543045E+01 -0.12970857975E+02  0.46131824725E+02  0.00000000000E+00 0. -1.
        -12    1    6    6    0    0 -0.18534220624E+03 -0.34452665345E+02 -0.26268400932E+03  0.32332894753E+03  0.00000000000E+00 0.  1.
</event>
<event>
12    1  0.9656379E-001  0.3648369E+03  0.7818608E-02  0.1056685E+00
          2   -1    0    0  502    0  0.00000000000E+00  0.00000000000E+00  0.94299899918E+03  0.94299899918E+03  0.00000000000E+00 0. -1.
         -2   -1    0    0    0  501 -0.00000000000E+00 -0.00000000000E+00 -0.19866920078E+03  0.19866920078E+03  0.00000000000E+00 0.  1.
          6    2    1    2  502    0  0.27101684784E+00  0.32071958716E+03  0.64397622611E+02  0.36962958977E+03  0.17209838115E+03 0.  0.
         24    2    3    3    0    0 -0.41245704460E+02  0.30605402699E+03  0.48704456565E+02  0.32264999565E+03  0.79753495412E+02 0.  0.
         -6    2    1    2    0  501 -0.27101684784E+00 -0.32071958716E+03  0.67993217579E+03  0.77203861018E+03  0.17571205110E+03 0.  0.
        -24    2    5    5    0    0  0.69394519135E+02 -0.23630858567E+03  0.47400970974E+03  0.53879055318E+03  0.70375480901E+02 0.  0.
          5    1    3    3  502    0  0.41516721308E+02  0.14665560177E+02  0.15693166046E+02  0.46979594124E+02  0.47000000000E+01 0. -1.
        -13    1    4    4    0    0 -0.24661613030E+02  0.83938231098E+02 -0.19645286680E+02  0.89664703679E+02  0.00000000000E+00 0.  1.
         14    1    4    4    0    0 -0.16584091431E+02  0.22211579589E+03  0.68349743244E+02  0.23298529197E+03  0.00000000000E+00 0. -1.
         -5    1    5    5    0  501 -0.69665535983E+02 -0.84411001493E+02  0.20592246604E+03  0.23324805701E+03  0.47000000000E+01 0.  1.
         13    1    6    6    0    0  0.72343845302E+01 -0.14779086927E+03  0.27108930377E+03  0.30884282083E+03  0.00000000000E+00 0. -1.
        -14    1    6    6    0    0  0.62160134605E+02 -0.88517716405E+02  0.20292040597E+03  0.22994773235E+03  0.00000000000E+00 0.  1.
</event>
<event>
12    1  0.9656379E-001  0.3732076E+03  0.7818608E-02  0.1053473E+00
          2   -1    0    0  502    0  0.00000000000E+00  0.00000000000E+00  0.21652205779E+03  0.21652205779E+03  0.00000000000E+00 0. -1.
         -2   -1    0    0    0  501 -0.00000000000E+00 -0.00000000000E+00 -0.11997660900E+04  0.11997660900E+04  0.00000000000E+00 0.  1.
          6    2    1    2  502    0  0.32744727356E+03 -0.53209050301E+02 -0.97348628792E+03  0.10423625047E+04  0.16967945771E+03 0.  0.
         24    2    3    3    0    0  0.16998682216E+03 -0.82554039259E+02 -0.64359490392E+03  0.67561281159E+03  0.80793451041E+02 0.  0.
         -6    2    1    2    0  501 -0.32744727356E+03  0.53209050301E+02 -0.97577442722E+01  0.37392564311E+03  0.17225635840E+03 0.  0.
        -24    2    5    5    0    0 -0.18754791520E+03  0.33937283282E+01 -0.67287844524E+02  0.21459830959E+03  0.79618104542E+02 0.  0.
          5    1    3    3  502    0  0.15746045140E+03  0.29344988958E+02 -0.32989138400E+03  0.36674969307E+03  0.47000000000E+01 0. -1.
        -11    1    4    4    0    0  0.14855394083E+03 -0.34236107781E+02 -0.46411066637E+03  0.48850700614E+03  0.00000000000E+00 0.  1.
         12    1    4    4    0    0  0.21432881332E+02 -0.48317931478E+02 -0.17948423755E+03  0.18710580545E+03  0.00000000000E+00 0. -1.
         -5    1    5    5    0  501 -0.13989935836E+03  0.49815321973E+02  0.57530100251E+02  0.15932733352E+03  0.47000000000E+01 0.  1.
         11    1    6    6    0    0 -0.61687591662E+02  0.38872385547E+02 -0.20919123052E+02  0.75855329624E+02  0.00000000000E+00 0. -1.
        -12    1    6    6    0    0 -0.12586032354E+03 -0.35478657219E+02 -0.46368721472E+02  0.13874297997E+03  0.00000000000E+00 0.  1.
</event>
<event>
12    1  0.9656379E-001  0.4531364E+03  0.7818608E-02  0.1026791E+00
          1   -1    0    0  502    0  0.00000000000E+00  0.00000000000E+00  0.16828023989E+04  0.16828023989E+04  0.00000000000E+00 0. -1.
         -1   -1    0    0    0  501 -0.00000000000E+00 -0.00000000000E+00 -0.12267366526E+03  0.12267366526E+03  0.00000000000E+00 0.  1.
          6    2    1    2  502    0 -0.38668257520E+03  0.17059807780E+03  0.70836106212E+03  0.83899042909E+03  0.15330501511E+03 0.  0.
         24    2    3    3    0    0 -0.38123445160E+03  0.18124060473E+03  0.70527287323E+03  0.82577784642E+03  0.79444081180E+02 0.  0.
         -6    2    1    2    0  501  0.38668257520E+03 -0.17059807780E+03  0.85176767156E+03  0.96648563512E+03  0.17308725677E+03 0.  0.
        -24    2    5    5    0    0  0.32643279804E+03 -0.81521811427E+02  0.57861974697E+03  0.67289323809E+03  0.69139864888E+02 0.  0.
          5    1    3    3  502    0 -0.54481235963E+01 -0.10642526929E+02  0.30881888975E+01  0.13212582671E+02  0.47000000000E+01 0. -1.
        -11    1    4    4    0    0 -0.11083919620E+03  0.14421017931E+02  0.17827712052E+03  0.21041868946E+03  0.00000000000E+00 0.  1.
         12    1    4    4    0    0 -0.27039525540E+03  0.16681958680E+03  0.52699575271E+03  0.61535915696E+03  0.00000000000E+00 0. -1.
         -5    1    5    5    0  501  0.60249777156E+02 -0.89076266374E+02  0.27314792459E+03  0.29359239702E+03  0.47000000000E+01 0.  1.
         13    1    6    6    0    0  0.28680924333E+03 -0.68912985228E+02  0.54383805555E+03  0.61868277191E+03  0.00000000000E+00 0. -1.
        -14    1    6    6    0    0  0.39623554716E+02 -0.12608826199E+02  0.34781691419E+02  0.54210466189E+02  0.00000000000E+00 0.  1.
</event>
<event>
12    1  0.9656379E-001  0.7678045E+03  0.7818608E-02  0.9607825E-01
         -1   -1    0    0    0  501 -0.00000000000E+00  0.00000000000E+00  0.19559820752E+03  0.19559820752E+03  0.00000000000E+00 0.  1.
          1   -1    0    0  502    0  0.00000000000E+00 -0.00000000000E+00 -0.36162894270E+04  0.36162894270E+04  0.00000000000E+00 0. -1.
          6    2    1    2  502    0 -0.11010233096E+03 -0.73962714134E+03 -0.24870893970E+04  0.26027333319E+04  0.17157009307E+03 0.  0.
         24    2    3    3    0    0 -0.50902754949E+02 -0.43537991630E+03 -0.16791170691E+04  0.17373361189E+04  0.82194258073E+02 0.  0.
         -6    2    1    2    0  501  0.11010233096E+03  0.73962714134E+03 -0.93360182246E+03  0.12091543026E+04  0.17683589317E+03 0.  0.
        -24    2    5    5    0    0  0.14303175856E+03  0.68598520064E+03 -0.86167449963E+03  0.11134598160E+04  0.79221455421E+02 0.  0.
          5    1    3    3  502    0 -0.59199576012E+02 -0.30424722504E+03 -0.80797232789E+03  0.86539721306E+03  0.47000000000E+01 0. -1.
        -13    1    4    4    0    0 -0.35668739599E+02 -0.35448277421E+03 -0.12224283996E+04  0.12732876692E+04  0.00000000000E+00 0.  1.
         14    1    4    4    0    0 -0.15234015350E+02 -0.80897142089E+02 -0.45668866950E+03  0.46404844970E+03  0.00000000000E+00 0. -1.
         -5    1    5    5    0  501 -0.32929427596E+02  0.53641940699E+02 -0.71927322829E+02  0.95694486639E+02  0.47000000000E+01 0.  1.
         13    1    6    6    0    0  0.94353246122E+02  0.58594240261E+03 -0.73984168389E+03  0.94847074359E+03  0.00000000000E+00 0. -1.
        -14    1    6    6    0    0  0.48678512435E+02  0.10004279803E+03 -0.12183281575E+03  0.16498907238E+03  0.00000000000E+00 0.  1.
</event>
<event>
12    1  0.9656379E-001  0.1941635E+03  0.7818608E-02  0.1154759E+00
          2   -1    0    0  502    0  0.00000000000E+00  0.00000000000E+00  0.19180056222E+03  0.19180056222E+03  0.00000000000E+00 0. -1.
         -2   -1    0    0    0  501 -0.00000000000E+00 -0.00000000000E+00 -0.22525656986E+03  0.22525656986E+03  0.00000000000E+00 0.  1.
          6    2    1    2  502    0 -0.49680646658E+02  0.81009799731E+02 -0.91277939360E+02  0.21627859352E+03  0.17150514131E+03 0.  0.
         24    2    3    3    0    0 -0.35825929009E+02  0.88301488968E+02 -0.12689024657E+03  0.17709379598E+03  0.78615696647E+02 0.  0.
         -6    2    1    2    0  501  0.49680646658E+02 -0.81009799731E+02  0.57821931725E+02  0.20077853856E+03  0.16714631750E+03 0.  0.
        -24    2    5    5    0    0  0.10508650730E+02 -0.16660299383E+02 -0.25593569567E+02  0.88281697200E+02  0.82162217238E+02 0.  0.
          5    1    3    3  502    0 -0.13854717648E+02 -0.72916892365E+01  0.35612307207E+02  0.39184797533E+02  0.47000000000E+01 0. -1.
        -11    1    4    4    0    0 -0.42458898141E+02  0.95502271533E+02 -0.86901093417E+02  0.13592366217E+03  0.00000000000E+00 0.  1.
         12    1    4    4    0    0  0.66329691322E+01 -0.72007825656E+01 -0.39989153150E+02  0.41170133819E+02  0.00000000000E+00 0. -1.
         -5    1    5    5    0  501  0.39171995927E+02 -0.64349500348E+02  0.83415501292E+02  0.11249684136E+03  0.47000000000E+01 0.  1.
         13    1    6    6    0    0 -0.22499116757E+02 -0.38670043057E+02 -0.15461278871E+02  0.47335331722E+02  0.00000000000E+00 0. -1.
        -14    1    6    6    0    0  0.33007767488E+02  0.22009743674E+02 -0.10132290696E+02  0.40946365478E+02  0.00000000000E+00 0.  1.
</event>
<event>
12    1  0.9656379E-001  0.4370480E+03  0.7818608E-02  0.1031656E+00
         -2   -1    0    0    0  501 -0.00000000000E+00  0.00000000000E+00  0.37981957334E+03  0.37981957334E+03  0.00000000000E+00 0.  1.
          2   -1    0    0  502    0  0.00000000000E+00 -0.00000000000E+00 -0.68469723899E+03  0.68469723899E+03  0.00000000000E+00 0. -1.
          6    2    1    2  502    0 -0.28706610086E+03  0.28297499997E+03  0.12149047199E+03  0.45486270143E+03  0.17221598503E+03 0.  0.
         24    2    3    3    0    0 -0.20359291132E+03  0.27856310828E+03  0.89199393088E+02  0.36512953066E+03  0.79470520316E+02 0.  0.
         -6    2    1    2    0  501  0.28706610086E+03 -0.28297499997E+03 -0.42636813765E+03  0.60965411089E+03  0.16554923514E+03 0.  0.
        -24    2    5    5    0    0  0.19039760883E+03 -0.26388135396E+03 -0.35426207998E+03  0.48746271094E+03  0.78953497928E+02 0.  0.
          5    1    3    3  502    0 -0.83473189542E+02  0.44118916955E+01  0.32291078904E+02  0.89733170775E+02  0.47000000000E+01 0. -1.
        -11    1    4    4    0    0 -0.71883307714E+02  0.58460708937E+02  0.51110265467E+02  0.10581646211E+03  0.00000000000E+00 0.  1.
         12    1    4    4    0    0 -0.13170960360E+03  0.22010239934E+03  0.38089127621E+02  0.25931306855E+03  0.00000000000E+00 0. -1.
         -5    1    5    5    0  501  0.96668492028E+02 -0.19093646017E+02 -0.72106057668E+02  0.12219139995E+03  0.47000000000E+01 0.  1.
         13    1    6    6    0    0  0.11121812578E+03 -0.13001382468E+03 -0.23876414435E+03  0.29373692778E+03  0.00000000000E+00 0. -1.
        -14    1    6    6    0    0  0.79179483052E+02 -0.13386752927E+03 -0.11549793563E+03  0.19372578317E+03  0.00000000000E+00 0.  1.
</event>
<event>
12    1  0.9656379E-001  0.1967833E+03  0.7818608E-02  0.1152482E+00
         -2   -1    0    0    0  501 -0.00000000000E+00  0.00000000000E+00  0.12969258408E+02  0.12969258408E+02  0.00000000000E+00 0.  1.
          2   -1    0    0  502    0  0.00000000000E+00 -0.00000000000E+00 -0.30172247070E+04  0.30172247070E+04  0.00000000000E+00 0. -1.
          6    2    1    2  502    0 -0.80451083475E+02 -0.51020373725E+02 -0.16583902840E+04  0.16700504568E+04  0.17243763790E+03 0.  0.
         24    2    3    3    0    0 -0.75960846566E+02  0.41964759855E+02 -0.85854624510E+03  0.86479337128E+03  0.56875554876E+02 0.  0.
         -6    2    1    2    0  501  0.80451083475E+02  0.51020373725E+02 -0.13458651647E+04  0.13601435087E+04  0.17193564863E+03 0.  0.
        -24    2    5    5    0    0  0.62550597392E+02 -0.30730547104E+02 -0.91413268738E+03  0.92034962237E+03  0.80919178812E+02 0.  0.
          5    1    3    3  502    0 -0.44902369093E+01 -0.92985133580E+02 -0.79984403885E+03  0.80525708552E+03  0.47000000000E+01 0. -1.
        -13    1    4    4    0    0 -0.83967639723E+02  0.34142863725E+02 -0.69861079999E+03  0.70446671286E+03  0.00000000000E+00 0.  1.
         14    1    4    4    0    0  0.80067931573E+01  0.78218961296E+01 -0.15993544511E+03  0.16032665841E+03  0.00000000000E+00 0. -1.
         -5    1    5    5    0  501  0.17900486083E+02  0.81750920829E+02 -0.43173247730E+03  0.43979388628E+03  0.47000000000E+01 0.  1.
         11    1    6    6    0    0  0.60693046578E+02 -0.79455313777E+01 -0.32143947511E+03  0.32721569878E+03  0.00000000000E+00 0. -1.
        -12    1    6    6    0    0  0.18575508135E+01 -0.22785015726E+02 -0.59269321228E+03  0.59313392359E+03  0.00000000000E+00 0.  1.
</event>
<event>
12    1  0.9656379E-001  0.2102376E+03  0.7818608E-02  0.1141378E+00
          2   -1    0    0  502    0  0.00000000000E+00  0.00000000000E+00  0.20411545174E+04  0.20411545174E+04  0.00000000000E+00 0. -1.
         -2   -1    0    0    0  501 -0.00000000000E+00 -0.00000000000E+00 -0.98031014208E+02  0.98031014208E+02  0.00000000000E+00 0.  1.
          6    2    1    2  502    0  0.62937545498E+02 -0.10251897142E+03  0.26539483262E+02  0.21100546035E+03  0.17131166333E+03 0.  0.
         24    2    3    3    0    0  0.52601854804E+02 -0.13878356913E+03  0.70456052256E+01  0.16829657568E+03  0.79033300857E+02 0.  0.
         -6    2    1    2    0  501 -0.62937545498E+02  0.10251897142E+03  0.19165840199E+04  0.19281800713E+04  0.17353042267E+03 0.  0.
        -24    2    5    5    0    0 -0.48954342576E+02  0.56476127410E+02  0.17765771457E+04  0.17800602270E+04  0.82474094529E+02 0.  0.
          5    1    3    3  502    0  0.10335690694E+02  0.36264597707E+02  0.19493878037E+02  0.42708884671E+02  0.47000000000E+01 0. -1.
        -13    1    4    4    0    0  0.43023201450E+02 -0.43633282427E+02  0.32463530980E+02  0.69345079436E+02  0.00000000000E+00 0.  1.
         14    1    4    4    0    0  0.95786533539E+01 -0.95150286704E+02 -0.25417925755E+02  0.98951496247E+02  0.00000000000E+00 0. -1.
         -5    1    5    5    0  501 -0.13983202922E+02  0.46042844014E+02  0.14000687421E+03  0.14811984430E+03  0.47000000000E+01 0.  1.
         11    1    6    6    0    0 -0.14504607107E+02  0.27149273741E+02  0.14540110384E+04  0.14543368133E+04  0.00000000000E+00 0. -1.
        -12    1    6    6    0    0 -0.34449735469E+02  0.29326853668E+02  0.32256610729E+03  0.32572341364E+03  0.00000000000E+00 0.  1.
</event>
<event>
12    1  0.9656379E-001  0.3879465E+03  0.7818608E-02  0.1048035E+00
         -2   -1    0    0    0  501 -0.00000000000E+00  0.00000000000E+00  0.13661815179E+04  0.13661815179E+04  0.00000000000E+00 0.  1.
          2   -1    0    0  502    0  0.00000000000E+00 -0.00000000000E+00 -0.36838303923E+03  0.36838303923E+03  0.00000000000E+00 0. -1.
          6    2    1    2  502    0 -0.29660283164E+02  0.34266608191E+03  0.12260920222E+04  0.12868652294E+04  0.18552815284E+03 0.  0.
         24    2    3    3    0    0  0.59777472990E+02  0.16802424031E+03  0.67556015729E+03  0.70239426399E+03  0.71907470770E+02 0.  0.
         -6    2    1    2    0  501  0.29660283164E+02 -0.34266608191E+03 -0.22829354357E+03  0.44769932775E+03  0.17325406183E+03 0.  0.
        -24    2    5    5    0    0  0.55428309956E+02 -0.30316467650E+03 -0.13780214743E+03  0.34554681917E+03  0.73702467910E+02 0.  0.
          5    1    3    3  502    0 -0.89437756153E+02  0.17464184160E+03  0.55053186494E+03  0.58447096538E+03  0.47000000000E+01 0. -1.
        -13    1    4    4    0    0  0.50733889443E+02  0.17411814364E+03  0.63992243545E+03  0.66512538583E+03  0.00000000000E+00 0.  1.
         14    1    4    4    0    0  0.90435835465E+01 -0.60939033256E+01  0.35637721846E+02  0.37268878163E+02  0.00000000000E+00 0. -1.
         -5    1    5    5    0  501 -0.25768026793E+02 -0.39501405403E+02 -0.90491396136E+02  0.10215250858E+03  0.47000000000E+01 0.  1.
         11    1    6    6    0    0  0.22402757588E+02 -0.37105902756E+02 -0.43330583932E+02  0.61288425259E+02  0.00000000000E+00 0. -1.
        -12    1    6    6    0    0  0.33025552369E+02 -0.26605877375E+03 -0.94471563502E+02  0.28425839391E+03  0.00000000000E+00 0.  1.
</event>
<event>
12    1  0.9656379E-001  0.8303909E+03  0.7818608E-02  0.9517040E-01
         -3   -1    0    0    0  501 -0.00000000000E+00  0.00000000000E+00  0.60945207375E+03  0.60945207375E+03  0.00000000000E+00 0.  1.
          3   -1    0    0  502    0  0.00000000000E+00 -0.00000000000E+00 -0.18829780146E+04  0.18829780146E+04  0.00000000000E+00 0. -1.
          6    2    1    2  502    0 -0.36539561885E+03  0.72577807604E+03  0.15059314769E+03  0.84385468041E+03  0.17071804702E+03 0.  0.
         24    2    3    3    0    0 -0.30620487153E+03  0.58555719204E+03  0.17823110512E+03  0.68909232204E+03  0.80269875760E+02 0.  0.
         -6    2    1    2    0  501  0.36539561885E+03 -0.72577807604E+03 -0.14241190886E+04  0.16485754080E+04  0.17151653966E+03 0.  0.
        -24    2    5    5    0    0  0.12994944934E+03 -0.40192348755E+03 -0.71134470500E+03  0.83102656838E+03  0.78514449622E+02 0.  0.
          5    1    3    3  502    0 -0.59190747317E+02  0.14022088400E+03 -0.27637957433E+02  0.15476235837E+03  0.47000000000E+01 0. -1.
        -11    1    4    4    0    0 -0.61696586488E+02  0.16079023143E+03  0.76918005583E+02  0.18861693161E+03  0.00000000000E+00 0.  1.
         12    1    4    4    0    0 -0.24450828505E+03  0.42476696061E+03  0.10131309954E+03  0.50047539043E+03  0.00000000000E+00 0. -1.
         -5    1    5    5    0  501  0.23544616952E+03 -0.32385458849E+03 -0.71277438356E+03  0.81754883957E+03  0.47000000000E+01 0.  1.
         13    1    6    6    0    0  0.10659942492E+03 -0.35337422804E+03 -0.66212915441E+03  0.75805791306E+03  0.00000000000E+00 0. -1.
        -14    1    6    6    0    0  0.23350024414E+02 -0.48549259514E+02 -0.49215550583E+02  0.72968655316E+02  0.00000000000E+00 0.  1.
</event>
<event>
12    1  0.9656379E-001  0.3475656E+03  0.7818608E-02  0.1063619E+00
         -1   -1    0    0    0  501 -0.00000000000E+00  0.00000000000E+00  0.59408346621E+03  0.59408346621E+03  0.00000000000E+00 0.  1.
          1   -1    0    0  502    0  0.00000000000E+00 -0.00000000000E+00 -0.19551353768E+04  0.19551353768E+04  0.00000000000E+00 0. -1.
          6    2    1    2  502    0 -0.25902247492E+03 -0.15419423007E+03  0.52610464835E+03  0.63021325339E+03  0.17179680041E+03 0.  0.
         24    2    3    3    0    0 -0.27344971540E+03 -0.12886964075E+03  0.50654450680E+03  0.59479900161E+03  0.76265219982E+02 0.  0.
         -6    2    1    2    0  501  0.25902247492E+03  0.15419423007E+03 -0.18871565590E+04  0.19190055896E+04  0.17422420013E+03 0.  0.
        -24    2    5    5    0    0  0.12451788751E+03  0.12184378403E+02 -0.97259447012E+03  0.98374937535E+03  0.78547226637E+02 0.  0.
          5    1    3    3  502    0  0.14427240485E+02 -0.25324589312E+02  0.19560141550E+02  0.35414251782E+02  0.47000000000E+01 0. -1.
        -11    1    4    4    0    0 -0.20018733398E+03 -0.54836906887E+02  0.34227880599E+03  0.40029593562E+03  0.00000000000E+00 0.  1.
         12    1    4    4    0    0 -0.73262381427E+02 -0.74032733868E+02  0.16426570081E+03  0.19450306599E+03  0.00000000000E+00 0. -1.
         -5    1    5    5    0  501  0.13450458740E+03  0.14200985166E+03 -0.91456208885E+03  0.93525621429E+03  0.47000000000E+01 0.  1.
         13    1    6    6    0    0  0.94662185141E+02  0.15828470209E+02 -0.44186257935E+03  0.45216590848E+03  0.00000000000E+00 0. -1.
        -14    1    6    6    0    0  0.29855702373E+02 -0.36440918058E+01 -0.53073189077E+03  0.53158346688E+03  0.00000000000E+00 0.  1.
</event>
<event>
12    1  0.9656379E-001  0.4489664E+03  0.7818608E-02  0.1028031E+00
         -2   -1    0    0    0  501 -0.00000000000E+00  0.00000000000E+00  0.13014046336E+03  0.13014046336E+03  0.00000000000E+00 0.  1.
          2   -1    0    0  502    0  0.00000000000E+00 -0.00000000000E+00 -0.19398447578E+04  0.19398447578E+04  0.00000000000E+00 0. -1.
          6    2    1    2  502    0 -0.31694652212E+03  0.26656976416E+03 -0.43949125367E+03  0.62795488790E+03  0.17222149150E+03 0.  0.
         24    2    3    3    0    0 -0.22559707453E+03  0.10030609471E+03 -0.24658817584E+03  0.35735921758E+03  0.77100773405E+02 0.  0.
         -6    2    1    2    0  501  0.31694652212E+03 -0.26656976416E+03 -0.13702130408E+04  0.14420303333E+04  0.17450836061E+03 0.  0.
        -24    2    5    5    0    0  0.21985759044E+03 -0.23321790967E+03 -0.11793731872E+04  0.12252803701E+04  0.87538088976E+02 0.  0.
          5    1    3    3  502    0 -0.91349447596E+02  0.16626366945E+03 -0.19290307784E+03  0.27059567032E+03  0.47000000000E+01 0. -1.
        -11    1    4    4    0    0 -0.42389065055E+02  0.98238809154E+01 -0.98121138249E+01  0.44605146006E+02  0.00000000000E+00 0.  1.
         12    1    4    4    0    0 -0.18320800947E+03  0.90482213791E+02 -0.23677606201E+03  0.31275407158E+03  0.00000000000E+00 0. -1.
         -5    1    5    5    0  501  0.97088931685E+02 -0.33351854485E+02 -0.19083985352E+03  0.21674996320E+03  0.47000000000E+01 0.  1.
         11    1    6    6    0    0  0.15272052206E+03 -0.13427508083E+03 -0.59474316168E+03  0.62854815532E+03  0.00000000000E+00 0. -1.
        -12    1    6    6    0    0  0.67137068378E+02 -0.98942828847E+02 -0.58463002555E+03  0.59673221474E+03  0.00000000000E+00 0.  1.
</event>
<event>
12    1  0.9656379E-001  0.2207392E+03  0.7818608E-02  0.1133333E+00
          2   -1    0    0  502    0  0.00000000000E+00  0.00000000000E+00  0.35009148820E+04  0.35009148820E+04  0.00000000000E+00 0. -1.
         -2   -1    0    0    0  501 -0.00000000000E+00 -0.00000000000E+00 -0.33267610438E+02  0.33267610438E+02  0.00000000000E+00 0.  1.
          6    2    1    2  502    0  0.42202221955E+02  0.13451315062E+03  0.39166538706E+03  0.45040867005E+03  0.17202145043E+03 0.  0.
         24    2    3    3    0    0 -0.24239473833E+02  0.94576989741E+02  0.14848316800E+03  0.19512632136E+03  0.80589521832E+02 0.  0.
         -6    2    1    2    0  501 -0.42202221955E+02 -0.13451315062E+03  0.30759818845E+04  0.30837738224E+04  0.16769501667E+03 0.  0.
        -24    2    5    5    0    0 -0.20547227453E+00 -0.59826331091E+02  0.24359672589E+04  0.24380318778E+04  0.80521541772E+02 0.  0.
          5    1    3    3  502    0  0.66441695788E+02  0.39936160880E+02  0.24318221906E+03  0.25528234869E+03  0.47000000000E+01 0. -1.
        -13    1    4    4    0    0 -0.44146980955E+02  0.75604648110E+02  0.14208339774E+03  0.16689131390E+03  0.00000000000E+00 0.  1.
         14    1    4    4    0    0  0.19907507122E+02  0.18972341631E+02  0.63997702573E+01  0.28235007457E+02  0.00000000000E+00 0. -1.
         -5    1    5    5    0  501 -0.41996749681E+02 -0.74686819530E+02  0.64001462562E+03  0.64574194459E+03  0.47000000000E+01 0.  1.
         11    1    6    6    0    0 -0.37069089654E+01 -0.79431177510E+02  0.20650042348E+04  0.20665346702E+04  0.00000000000E+00 0. -1.
        -12    1    6    6    0    0  0.35014366909E+01  0.19604846419E+02  0.37096302407E+03  0.37149720765E+03  0.00000000000E+00 0.  1.
</event>
<event>
12    1  0.9656379E-001  0.3178218E+03  0.7818608E-02  0.1076656E+00
          1   -1    0    0  502    0  0.00000000000E+00  0.00000000000E+00  0.60623059623E+03  0.60623059623E+03  0.00000000000E+00 0. -1.
         -1   -1    0    0    0  501 -0.00000000000E+00 -0.00000000000E+00 -0.22384270860E+03  0.22384270860E+03  0.00000000000E+00 0.  1.
          6    2    1    2  502    0  0.18773259115E+03  0.19169593039E+03 -0.19448072922E+02  0.31661392880E+03  0.16695896760E+03 0.  0.
         24    2    3    3    0    0  0.81472727805E+02  0.11806229565E+03 -0.69506952038E+02  0.17790180928E+03  0.79002065376E+02 0.  0.
         -6    2    1    2    0  501 -0.18773259115E+03 -0.19169593039E+03  0.40183596055E+03  0.51345937603E+03  0.17371682742E+03 0.  0.
        -24    2    5    5    0    0 -0.46127501158E+02 -0.13762352615E+03  0.23015296523E+03  0.28438958907E+03  0.82698667793E+02 0.  0.
          5    1    3    3  502    0  0.10625986335E+03  0.73633634739E+02  0.50058879116E+02  0.13871211952E+03  0.47000000000E+01 0. -1.
        -11    1    4    4    0    0  0.70388400395E+02  0.10763626628E+03 -0.25199244537E+02  0.13105378535E+03  0.00000000000E+00 0.  1.
         12    1    4    4    0    0  0.11084327410E+02  0.10426029374E+02 -0.44307707501E+02  0.46848023935E+02  0.00000000000E+00 0. -1.
         -5    1    5    5    0  501 -0.14160508999E+03 -0.54072404236E+02  0.17168299533E+03  0.22906978696E+03  0.47000000000E+01 0.  1.
         13    1    6    6    0    0 -0.59096579210E+02 -0.78285658137E+02  0.18249851340E+03  0.20718773453E+03  0.00000000000E+00 0. -1.
        -14    1    6    6    0    0  0.12969078051E+02 -0.59337868016E+02  0.47654451823E+02  0.77201854542E+02  0.00000000000E+00 0.  1.
</event>
<event>
12    1  0.9656379E-001  0.5751958E+03  0.7818608E-02  0.9958246E-01
         -1   -1    0    0    0  501 -0.00000000000E+00  0.00000000000E+00  0.36363481152E+03  0.36363481152E+03  0.00000000000E+00 0.  1.
          1   -1    0    0  502    0  0.00000000000E+00 -0.00000000000E+00 -0.11421596542E+04  0.11421596542E+04  0.00000000000E+00 0. -1.
          6    2    1    2  502    0  0.51793992851E+03 -0.18166479256E+03 -0.49724164296E+02  0.57737668573E+03  0.17212634401E+03 0.  0.
         24    2    3    3    0    0  0.47108392055E+03 -0.13773392486E+03 -0.83928897170E+02  0.50445576713E+03  0.80875626412E+02 0.  0.
         -6    2    1    2    0  501 -0.51793992851E+03  0.18166479256E+03 -0.72880067838E+03  0.92841777999E+03  0.17188740208E+03 0.  0.
        -24    2    5    5    0    0 -0.13359880768E+03  0.39554071555E+02 -0.18720632197E+03  0.24925646552E+03  0.87575182699E+02 0.  0.
          5    1    3    3  502    0  0.46856007965E+02 -0.43930867696E+02  0.34204732875E+02  0.72920918604E+02  0.47000000000E+01 0. -1.
        -13    1    4    4    0    0  0.86933938706E+02 -0.58167755678E+02 -0.82918949547E+01  0.10492737022E+03  0.00000000000E+00 0.  1.
         14    1    4    4    0    0  0.38414998184E+03 -0.79566169187E+02 -0.75637002216E+02  0.39952839690E+03  0.00000000000E+00 0. -1.
         -5    1    5    5    0  501 -0.38434112083E+03  0.14211072101E+03 -0.54159435641E+03  0.67916131448E+03  0.47000000000E+01 0.  1.
         11    1    6    6    0    0 -0.29514258801E+02  0.50997521413E+02 -0.80441074137E+02  0.99712612398E+02  0.00000000000E+00 0. -1.
        -12    1    6    6    0    0 -0.10408454888E+03 -0.11443449858E+02 -0.10676524783E+03  0.14954385312E+03  0.00000000000E+00 0.  1.
</event>
<event>
12    1  0.9656379E-001  0.4028700E+03  0.7818608E-02  0.1042790E+00
          2   -1    0    0  502    0  0.00000000000E+00  0.00000000000E+00  0.21528347025E+04  0.21528347025E+04  0.00000000000E+00 0. -1.
         -2   -1    0    0    0  501 -0.00000000000E+00 -0.00000000000E+00 -0.12763974502E+03  0.12763974502E+03  0.00000000000E+00 0.  1.
          6    2    1    2  502    0  0.22087071451E+03 -0.28991027398E+03  0.28314295047E+03  0.49245569352E+03  0.17178719450E+03 0.  0.
         24    2    3    3    0    0  0.21340864216E+03 -0.24791193723E+03  0.18229062528E+03  0.38285266296E+03  0.79641147035E+02 0.  0.
         -6    2    1    2    0  501 -0.22087071451E+03  0.28991027398E+03  0.17420520070E+04  0.17880187540E+04  0.17156348677E+03 0.  0.
        -24    2    5    5    0    0 -0.92144625586E+02  0.20634566540E+03  0.12401205429E+04  0.12631275896E+04  0.80766212362E+02 0.  0.
          5    1    3    3  502    0  0.74620723551E+01 -0.41998336756E+02  0.10085232518E+03  0.10960303057E+03  0.47000000000E+01 0. -1.
        -13    1    4    4    0    0  0.21906604641E+03 -0.23887310354E+03  0.18292259381E+03  0.37217061627E+03  0.00000000000E+00 0.  1.
         14    1    4    4    0    0 -0.56574042558E+01 -0.90388336817E+01 -0.63196852654E+00  0.10682046689E+02  0.00000000000E+00 0. -1.
         -5    1    5    5    0  501 -0.12872608893E+03  0.83564608578E+02  0.50193146416E+03  0.52489116443E+03  0.47000000000E+01 0.  1.
         11    1    6    6    0    0 -0.93073973457E+02  0.11803613630E+03  0.71467824345E+03  0.73031519611E+03  0.00000000000E+00 0. -1.
        -12    1    6    6    0    0  0.92934787100E+00  0.88309529109E+02  0.52544229940E+03  0.53281239346E+03  0.00000000000E+00 0.  1.
</event>
<event>
12    1  0.9656379E-001  0.1270558E+04  0.7818608E-02  0.9053244E-01
          1   -1    0    0  502    0  0.00000000000E+00  0.00000000000E+00  0.23062899357E+04  0.23062899357E+04  0.00000000000E+00 0. -1.
         -1   -1    0    0    0  501 -0.00000000000E+00 -0.00000000000E+00 -0.89274446129E+03  0.89274446129E+03  0.00000000000E+00 0.  1.
          6    2    1    2  502    0  0.73114147710E+03 -0.10246313627E+04 -0.36536320357E+02  0.12710364655E+04  0.17251523100E+03 0.  0.
         24    2    3    3    0    0  0.33025435157E+03 -0.39985426801E+03 -0.61072739576E+02  0.52828413036E+03  0.80017938592E+02 0.  0.
         -6    2    1    2    0  501 -0.73114147710E+03  0.10246313627E+04  0.14500817947E+04  0.19279979315E+04  0.17320947808E+03 0.  0.
        -24    2    5    5    0    0 -0.68069795920E+03  0.88076174690E+03  0.12380663359E+04  0.16668166541E+04  0.79865761481E+02 0.  0.
          5    1    3    3  502    0  0.40088712553E+03 -0.62477709471E+03  0.24536419219E+02  0.74275233514E+03  0.47000000000E+01 0. -1.
        -13    1    4    4    0    0  0.25433834592E+03 -0.33705416125E+03 -0.74753783701E+02  0.42881421384E+03  0.00000000000E+00 0.  1.
         14    1    4    4    0    0  0.75916005651E+02 -0.62800106765E+02  0.13681044125E+02  0.99469916518E+02  0.00000000000E+00 0. -1.
         -5    1    5    5    0  501 -0.50443517896E+02  0.14386961582E+03  0.21201545887E+03  0.26118127738E+03  0.47000000000E+01 0.  1.
         13    1    6    6    0    0 -0.45827374403E+03  0.60422839220E+03  0.89692716371E+03  0.11745574109E+04  0.00000000000E+00 0. -1.
        -14    1    6    6    0    0 -0.22242421518E+03  0.27653335470E+03  0.34113917215E+03  0.49225924321E+03  0.00000000000E+00 0.  1.
</event>
<event>
12    1  0.9656379E-001  0.7445798E+03  0.7818608E-02  0.9643892E-01
          2   -1    0    0  502    0  0.00000000000E+00  0.00000000000E+00  0.15006229866E+04  0.15006229866E+04  0.00000000000E+00 0. -1.
         -2   -1    0    0    0  501 -0.00000000000E+00 -0.00000000000E+00 -0.11488917899E+04  0.11488917899E+04  0.00000000000E+00 0.  1.
          6    2    1    2  502    0  0.70209766746E+03 -0.17789951492E+03 -0.91527430522E+03  0.11800777519E+04  0.17397435083E+03 0.  0.
         24    2    3    3    0    0  0.18965036529E+03 -0.80367275003E+02 -0.22240933476E+03  0.31278383830E+03  0.77082146892E+02 0.  0.
         -6    2    1    2    0  501 -0.70209766746E+03  0.17789951492E+03  0.12670055019E+04  0.14694370245E+04  0.17132674986E+03 0.  0.
        -24    2    5    5    0    0 -0.63494671937E+03  0.15207243917E+03  0.10329552231E+04  0.12245331441E+04  0.78750014644E+02 0.  0.
          5    1    3    3  502    0  0.51244730218E+03 -0.97532239912E+02 -0.69286497046E+03  0.86729391363E+03  0.47000000000E+01 0. -1.
        -11    1    4    4    0    0  0.12727555791E+03 -0.69072526094E+02 -0.19698626519E+03  0.24448654396E+03  0.00000000000E+00 0.  1.
         12    1    4    4    0    0  0.62374807376E+02 -0.11294748909E+02 -0.25423069564E+02  0.68297294340E+02  0.00000000000E+00 0. -1.
         -5    1    5    5    0  501 -0.67150948089E+02  0.25827075746E+02  0.23405027874E+03  0.24490388043E+03  0.47000000000E+01 0.  1.
         11    1    6    6    0    0 -0.45975732647E+03  0.10762677874E+03  0.80929709680E+03  0.93697498026E+03  0.00000000000E+00 0. -1.
        -12    1    6    6    0    0 -0.17518939291E+03  0.44445660429E+02  0.22365812635E+03  0.28755816385E+03  0.00000000000E+00 0.  1.
</event>
<event>
12    1  0.9656379E-001  0.4793681E+03  0.7818608E-02  0.1019309E+00
          2   -1    0    0  502    0  0.00000000000E+00  0.00000000000E+00  0.22736763488E+04  0.22736763488E+04  0.00000000000E+00 0. -1.
         -2   -1    0    0    0  501 -0.00000000000E+00 -0.00000000000E+00 -0.11178540019E+03  0.11178540019E+03  0.00000000000E+00 0.  1.
          6    2    1    2  502    0  0.20906672212E+03 -0.39551535621E+03  0.71126066259E+03  0.85762364388E+03  0.17171282161E+03 0.  0.
         24    2    3    3    0    0  0.14160510183E+03 -0.36477950777E+03  0.54320042586E+03  0.67387899563E+03  0.77007168175E+02 0.  0.
         -6    2    1    2    0  501 -0.20906672212E+03  0.39551535621E+03  0.14506302860E+04  0.15278381051E+04  0.17268398129E+03 0.  0.
        -24    2    5    5    0    0 -0.16856074237E+03  0.20312162476E+03  0.70187495376E+03  0.75368520039E+03  0.75774746807E+02 0.  0.
          5    1    3    3  502    0  0.67461620295E+02 -0.30735848448E+02  0.16806023673E+03  0.18374464825E+03  0.47000000000E+01 0. -1.
        -11    1    4    4    0    0  0.10814722118E+03 -0.26837349671E+03  0.33968960912E+03  0.44621652337E+03  0.00000000000E+00 0.  1.
         12    1    4    4    0    0  0.33457880645E+02 -0.96406011051E+02  0.20351081674E+03  0.22766247226E+03  0.00000000000E+00 0. -1.
         -5    1    5    5    0  501 -0.40505979758E+02  0.19239373145E+03  0.74875533223E+03  0.77415290469E+03  0.47000000000E+01 0.  1.
         11    1    6    6    0    0 -0.12570076382E+03  0.92970837557E+02  0.40822788839E+03  0.43714330318E+03  0.00000000000E+00 0. -1.
        -12    1    6    6    0    0 -0.42859978543E+02  0.11015078720E+03  0.29364706537E+03  0.31654189720E+03  0.00000000000E+00 0.  1.
</event>
<event>
12    1  0.9656379E-001  0.6238295E+03  0.7818608E-02  0.9857165E-01
          2   -1    0    0  502    0  0.00000000000E+00  0.00000000000E+00  0.18022217928E+04  0.18022217928E+04  0.00000000000E+00 0. -1.
         -2   -1    0    0    0  501 -0.00000000000E+00 -0.00000000000E+00 -0.36758954828E+03  0.36758954828E+03  0.00000000000E+00 0.  1.
          6    2    1    2  502    0  0.57472941579E+03 -0.17171401363E+03  0.20292267743E+02  0.62389833197E+03  0.17040466149E+03 0.  0.
         24    2    3    3    0    0  0.50604689615E+03 -0.19846246357E+03  0.12234394807E+02  0.54960306029E+03  0.80268505107E+02 0.  0.
         -6    2    1    2    0  501 -0.57472941579E+03  0.17171401363E+03  0.14143399768E+04  0.15459130091E+04  0.17230745185E+03 0.  0.
        -24    2    5    5    0    0 -0.54783384012E+03  0.15894358413E+03  0.13974961616E+04  0.15113838914E+04  0.76816445137E+02 0.  0.
          5    1    3    3  502    0  0.68682519636E+02  0.26748449941E+02  0.80578729363E+01  0.74295271681E+02  0.47000000000E+01 0. -1.
        -11    1    4    4    0    0  0.20759129629E+03 -0.44292798131E+02  0.23010766096E+02  0.21350759616E+03  0.00000000000E+00 0.  1.
         12    1    4    4    0    0  0.29845559986E+03 -0.15416966544E+03 -0.10776371289E+02  0.33609546413E+03  0.00000000000E+00 0. -1.
         -5    1    5    5    0  501 -0.26895575673E+02  0.12770429499E+02  0.16843815241E+02  0.34529117745E+02  0.47000000000E+01 0.  1.
         13    1    6    6    0    0 -0.54622829829E+02  0.37055003487E+02  0.12837751003E+03  0.14435204157E+03  0.00000000000E+00 0. -1.
        -14    1    6    6    0    0 -0.49321101029E+03  0.12188858064E+03  0.12691186515E+04  0.13670318498E+04  0.00000000000E+00 0.  1.
</event>
<event>
12    1  0.9656379E-001  0.9387794E+03  0.7818608E-02  0.9378363E-01
         -1   -1    0    0    0  501 -0.00000000000E+00  0.00000000000E+00  0.17319315577E+04  0.17319315577E+04  0.00000000000E+00 0.  1.
          1   -1    0    0  502    0  0.00000000000E+00 -0.00000000000E+00 -0.16456397745E+04  0.16456397745E+04  0.00000000000E+00 0. -1.
          6    2    1    2  502    0  0.54468044139E+03 -0.74457380088E+03  0.14467509556E+04  0.17245428891E+04  0.17289569221E+03 0.  0.
         24    2    3    3    0    0  0.46805076919E+03 -0.65232090047E+03  0.13385937983E+04  0.15629793877E+04  0.80480617256E+02 0.  0.
         -6    2    1    2    0  501 -0.54468044139E+03  0.74457380088E+03 -0.13604591725E+04  0.16530284431E+04  0.17489123945E+03 0.  0.
        -24    2    5    5    0    0 -0.18281958960E+03  0.19128722393E+03 -0.35843058755E+03  0.45254825283E+03  0.79458358081E+02 0.  0.
          5    1    3    3  502    0  0.76629672195E+02 -0.92252900415E+02  0.10815715737E+03  0.16156350140E+03  0.47000000000E+01 0. -1.
        -13    1    4    4    0    0  0.16617682036E+03 -0.23962633606E+03  0.41349759712E+03  0.50598001876E+03  0.00000000000E+00 0.  1.
         14    1    4    4    0    0  0.30187394883E+03 -0.41269456441E+03  0.92509620116E+03  0.10569993689E+04  0.00000000000E+00 0. -1.
         -5    1    5    5    0  501 -0.36186085179E+03  0.55328657695E+03 -0.10020285849E+04  0.12004801903E+04  0.47000000000E+01 0.  1.
         13    1    6    6    0    0 -0.16160718311E+03  0.13747507429E+03 -0.31678810837E+03  0.38127546903E+03  0.00000000000E+00 0. -1.
        -14    1    6    6    0    0 -0.21212406492E+02  0.53812149636E+02 -0.41642479180E+02  0.71272783795E+02  0.00000000000E+00 0.  1.
</event>
<event>
12    1  0.9656379E-001  0.3248779E+03  0.7818608E-02  0.1073426E+00
          3   -1    0    0  502    0  0.00000000000E+00  0.00000000000E+00  0.27354773605E+03  0.27354773605E+03  0.00000000000E+00 0. -1.
         -3   -1    0    0    0  501 -0.00000000000E+00 -0.00000000000E+00 -0.39251679081E+03  0.39251679081E+03  0.00000000000E+00 0.  1.
          6    2    1    2  502    0  0.26954914007E+03  0.60829242682E+02 -0.10206011145E+03  0.33692623557E+03  0.16354230702E+03 0.  0.
         24    2    3    3    0    0  0.17350792693E+03 -0.17902873786E+02 -0.89365113300E+02  0.21200260385E+03  0.80829864311E+02 0.  0.
         -6    2    1    2    0  501 -0.26954914007E+03 -0.60829242682E+02 -0.16908943309E+02  0.32913829129E+03  0.17801451275E+03 0.  0.
        -24    2    5    5    0    0 -0.18691042340E+03 -0.67031628286E+02 -0.75605276829E+02  0.22747720410E+03  0.81246384115E+02 0.  0.
          5    1    3    3  502    0  0.96041213140E+02  0.78732116468E+02 -0.12694998155E+02  0.12492363172E+03  0.47000000000E+01 0. -1.
        -13    1    4    4    0    0  0.70377314762E+02  0.48370855725E+01  0.45315218027E+01  0.70688743940E+02  0.00000000000E+00 0.  1.
         14    1    4    4    0    0  0.10313061217E+03 -0.22739959359E+02 -0.93896635103E+02  0.14131385991E+03  0.00000000000E+00 0. -1.
         -5    1    5    5    0  501 -0.82638716671E+02  0.62023856041E+01  0.58696333520E+02  0.10166108719E+03  0.47000000000E+01 0.  1.
         13    1    6    6    0    0 -0.12128994149E+03 -0.73045998766E+02 -0.23618717194E+02  0.14354376213E+03  0.00000000000E+00 0. -1.
        -14    1    6    6    0    0 -0.65620481910E+02  0.60143704804E+01 -0.51986559636E+02  0.83933441971E+02  0.00000000000E+00 0.  1.
</event>
<event>
12    1  0.9656379E-001  0.2167235E+03  0.7818608E-02  0.1136350E+00
          1   -1    0    0  502    0  0.00000000000E+00  0.00000000000E+00  0.19230067687E+04  0.19230067687E+04  0.00000000000E+00 0. -1.
         -1   -1    0    0    0  501 -0.00000000000E+00 -0.00000000000E+00 -0.24433901694E+02  0.24433901694E+02  0.00000000000E+00 0.  1.
          6    2    1    2  502    0 -0.12990705455E+03 -0.26008249342E+02  0.96760191341E+03  0.99155247126E+03  0.17137843672E+03 0.  0.
         24    2    3    3    0    0 -0.14666299159E+03 -0.51258039264E+01  0.93196346316E+03  0.94673029942E+03  0.78778526256E+02 0.  0.
         -6    2    1    2    0  501  0.12990705455E+03  0.26008249342E+02  0.93097095354E+03  0.95588819908E+03  0.17164807294E+03 0.  0.
        -24    2    5    5    0    0  0.59495530006E+01 -0.13841275855E+00  0.51257596068E+03  0.51870909370E+03  0.79306948499E+02 0.  0.
          5    1    3    3  502    0  0.16755937042E+02 -0.20882445416E+02  0.35638450252E+02  0.44822171846E+02  0.47000000000E+01 0. -1.
        -11    1    4    4    0    0 -0.50879440192E+02  0.29756565504E+02  0.23137884441E+03  0.23876838204E+03  0.00000000000E+00 0.  1.
         12    1    4    4    0    0 -0.95783551398E+02 -0.34882369431E+02  0.70058461876E+03  0.70796191737E+03  0.00000000000E+00 0. -1.
         -5    1    5    5    0  501  0.12395750155E+03  0.26146662101E+02  0.41839499286E+03  0.43717910538E+03  0.47000000000E+01 0.  1.
         13    1    6    6    0    0  0.20455929275E+02  0.34157077121E+02  0.20012073534E+03  0.20404278883E+03  0.00000000000E+00 0. -1.
        -14    1    6    6    0    0 -0.14506376274E+02 -0.34295489879E+02  0.31245522534E+03  0.31466630487E+03  0.00000000000E+00 0.  1.
</event>
<event>
12    1  0.9656379E-001  0.4878063E+03  0.7818608E-02  0.1017012E+00
         -2   -1    0    0    0  501 -0.00000000000E+00  0.00000000000E+00  0.85496957377E+02  0.85496957377E+02  0.00000000000E+00 0.  1.
          2   -1    0    0  502    0  0.00000000000E+00 -0.00000000000E+00 -0.35726859667E+04  0.35726859667E+04  0.00000000000E+00 0. -1.
          6    2    1    2  502    0 -0.43950285127E+03  0.12336653628E+03 -0.88391252163E+03  0.10096072805E+04  0.17211466060E+03 0.  0.
         24    2    3    3    0    0 -0.39800845188E+03  0.14385177164E+03 -0.84956287183E+03  0.95178497952E+03  0.70947262693E+02 0.  0.
         -6    2    1    2    0  501  0.43950285127E+03 -0.12336653628E+03 -0.26032764877E+04  0.26485756436E+04  0.17182086553E+03 0.  0.
        -24    2    5    5    0    0  0.94526625985E+02 -0.50076405989E+02 -0.63512525689E+03  0.64907035563E+03  0.80407121356E+02 0.  0.
          5    1    3    3  502    0 -0.41494399388E+02 -0.20485235365E+02 -0.34349649801E+02  0.57822300975E+02  0.47000000000E+01 0. -1.
        -13    1    4    4    0    0 -0.12700138061E+03  0.56682098822E+02 -0.21194310801E+03  0.25349968843E+03  0.00000000000E+00 0.  1.
         14    1    4    4    0    0 -0.27100707127E+03  0.87169672822E+02 -0.63761976382E+03  0.69828529109E+03  0.00000000000E+00 0. -1.
         -5    1    5    5    0  501  0.34497622528E+03 -0.73290130290E+02 -0.19681512308E+04  0.19995052879E+04  0.47000000000E+01 0.  1.
         13    1    6    6    0    0  0.87281248232E+02 -0.33493363012E+02 -0.31871868272E+03  0.33214668503E+03  0.00000000000E+00 0. -1.
        -14    1    6    6    0    0  0.72453777529E+01 -0.16583042977E+02 -0.31640657416E+03  0.31692367060E+03  0.00000000000E+00 0.  1.
</event>
<event>
12    1  0.9656379E-001  0.4660260E+03  0.7818608E-02  0.1023048E+00
         -1   -1    0    0    0  501 -0.00000000000E+00  0.00000000000E+00  0.53010208114E+03  0.53010208114E+03  0.00000000000E+00 0.  1.
          1   -1    0    0  502    0  0.00000000000E+00 -0.00000000000E+00 -0.10021866925E+04  0.10021866925E+04  0.00000000000E+00 0. -1.
          6    2    1    2  502    0  0.35427044288E+03 -0.24895541640E+03  0.35302422567E+03  0.58471015996E+03  0.17255005420E+03 0.  0.
         24    2    3    3    0    0  0.33523924166E+03 -0.16955152449E+03  0.28473254954E+03  0.47815966631E+03  0.80193348278E+02 0.  0.
         -6    2    1    2    0  501 -0.35427044288E+03  0.24895541640E+03 -0.82510883706E+03  0.94757861372E+03  0.17208803016E+03 0.  0.
        -24    2    5    5    0    0 -0.62176105640E+02  0.49905932769E+02 -0.18701222509E+03  0.21810676711E+03  0.78996957466E+02 0.  0.
          5    1    3    3  502    0  0.19031201213E+02 -0.79403891905E+02  0.68291676127E+02  0.10655049365E+03  0.47000000000E+01 0. -1.
        -11    1    4    4    0    0  0.20134644611E+03 -0.65770010682E+02  0.18720743444E+03  0.28268836053E+03  0.00000000000E+00 0.  1.
         12    1    4    4    0    0  0.13389279555E+03 -0.10378151381E+03  0.97525115100E+02  0.19547130578E+03  0.00000000000E+00 0. -1.
         -5    1    5    5    0  501 -0.29209433724E+03  0.19904948363E+03 -0.63809661198E+03  0.72947184661E+03  0.47000000000E+01 0.  1.
         13    1    6    6    0    0 -0.52856339816E+02 -0.53744506008E+01 -0.65900818150E+02  0.84649838811E+02  0.00000000000E+00 0. -1.
        -14    1    6    6    0    0 -0.93197658248E+01  0.55280383370E+02 -0.12111140694E+03  0.13345692830E+03  0.00000000000E+00 0.  1.
</event>
<event>
12    1  0.9656379E-001  0.8205278E+03  0.7818608E-02  0.9530770E-01
         -2   -1    0    0    0  501 -0.00000000000E+00  0.00000000000E+00  0.47489526582E+03  0.47489526582E+03  0.00000000000E+00 0.  1.
          2   -1    0    0  502    0  0.00000000000E+00 -0.00000000000E+00 -0.22107908588E+04  0.22107908588E+04  0.00000000000E+00 0. -1.
          6    2    1    2  502    0 -0.21570090945E+03  0.77270593846E+03 -0.16723395962E+04  0.18628603040E+04  0.17299548433E+03 0.  0.
         24    2    3    3    0    0 -0.22824402686E+03  0.68530974528E+03 -0.14128607993E+04  0.15887312095E+04  0.78399204758E+02 0.  0.
         -6    2    1    2    0  501  0.21570090945E+03 -0.77270593846E+03 -0.63555996811E+02  0.82282582063E+03  0.17146899629E+03 0.  0.
        -24    2    5    5    0    0  0.10599769376E+03 -0.59598739334E+03 -0.69703983139E+02  0.61468133366E+03  0.80857977781E+02 0.  0.
          5    1    3    3  502    0  0.12543117413E+02  0.87396193175E+02 -0.25947879696E+03  0.27412909450E+03  0.47000000000E+01 0. -1.
        -11    1    4    4    0    0 -0.17872097014E+03  0.56393911527E+03 -0.12153008999E+04  0.13516378170E+04  0.00000000000E+00 0.  1.
         12    1    4    4    0    0 -0.49523056724E+02  0.12137063001E+03 -0.19755989934E+03  0.23709339258E+03  0.00000000000E+00 0. -1.
         -5    1    5    5    0  501  0.10970321569E+03 -0.17671854511E+03  0.61479863277E+01  0.20814448697E+03  0.47000000000E+01 0.  1.
         13    1    6    6    0    0  0.97036712137E+02 -0.32159300249E+03 -0.29401053557E+02  0.33719816829E+03  0.00000000000E+00 0. -1.
        -14    1    6    6    0    0  0.89609816233E+01 -0.27439439086E+03 -0.40302929582E+02  0.27748316536E+03  0.00000000000E+00 0.  1.
</event>
<event>
12    1  0.9656379E-001  0.4089461E+03  0.7818608E-02  0.1040725E+00
         -2   -1    0    0    0  501 -0.00000000000E+00  0.00000000000E+00  0.80527428177E+03  0.80527428177E+03  0.00000000000E+00 0.  1.
          2   -1    0    0  502    0  0.00000000000E+00 -0.00000000000E+00 -0.98442371003E+03  0.98442371003E+03  0.00000000000E+00 0. -1.
          6    2    1    2  502    0 -0.21900021361E+03  0.30097224605E+03  0.70533178474E+03  0.81495421777E+03  0.16766652630E+03 0.  0.
         24    2    3    3    0    0 -0.15489775189E+03  0.25164881497E+03  0.64497956545E+03  0.71392745485E+03  0.79833146776E+02 0.  0.
         -6    2    1    2    0  501  0.21900021361E+03 -0.30097224605E+03 -0.88448121300E+03  0.97474377403E+03  0.17109360716E+03 0.  0.
        -24    2    5    5    0    0  0.30296529790E+02 -0.60216709863E+02 -0.22553194264E+03  0.24823944548E+03  0.78830408341E+02 0.  0.
          5    1    3    3  502    0 -0.64102461730E+02  0.49323431077E+02  0.60352219289E+02  0.10102676292E+03  0.47000000000E+01 0. -1.
        -11    1    4    4    0    0 -0.11347141539E+03  0.23476587424E+03  0.56557483360E+03  0.62278862403E+03  0.00000000000E+00 0.  1.
         12    1    4    4    0    0 -0.41426336496E+02  0.16882940733E+02  0.79404731847E+02  0.91138830818E+02  0.00000000000E+00 0. -1.
         -5    1    5    5    0  501  0.18870368382E+03 -0.24075553618E+03 -0.65894927036E+03  0.72650432855E+03  0.47000000000E+01 0.  1.
         11    1    6    6    0    0  0.32631173775E+02 -0.77916986018E+02 -0.16867751681E+03  0.18864770046E+03  0.00000000000E+00 0. -1.
        -12    1    6    6    0    0 -0.23346439844E+01  0.17700276155E+02 -0.56854425826E+02  0.59591745019E+02  0.00000000000E+00 0.  1.
</event>
<event>
12    1  0.9656379E-001  0.4591347E+03  0.7818608E-02  0.1025032E+00
          1   -1    0    0  502    0  0.00000000000E+00  0.00000000000E+00  0.10954565359E+04  0.10954565359E+04  0.00000000000E+00 0. -1.
         -1   -1    0    0    0  501 -0.00000000000E+00 -0.00000000000E+00 -0.47048431608E+03  0.47048431608E+03  0.00000000000E+00 0.  1.
          6    2    1    2  502    0 -0.41855858401E+03  0.78592056553E+02 -0.28941385399E+03  0.54277658264E+03  0.17169170096E+03 0.  0.
         24    2    3    3    0    0 -0.34686012105E+03  0.47115244523E+02 -0.29515186653E+03  0.46412244051E+03  0.75915911574E+02 0.  0.
         -6    2    1    2    0  501  0.41855858401E+03 -0.78592056553E+02  0.91438607382E+03  0.10231642693E+04  0.17145037316E+03 0.  0.
        -24    2    5    5    0    0  0.39819981584E+03 -0.30702204657E+02  0.81446459243E+03  0.91040652105E+03  0.77341725779E+02 0.  0.
          5    1    3    3  502    0 -0.71698462962E+02  0.31476812030E+02  0.57380125349E+01  0.78654142132E+02  0.47000000000E+01 0. -1.
        -13    1    4    4    0    0 -0.27364046508E+03  0.39256053313E+02 -0.26969399577E+03  0.38620589483E+03  0.00000000000E+00 0.  1.
         14    1    4    4    0    0 -0.73219655970E+02  0.78591912097E+01 -0.25457870761E+02  0.77916545679E+02  0.00000000000E+00 0. -1.
         -5    1    5    5    0  501  0.20358768173E+02 -0.47889851896E+02  0.99921481393E+02  0.11275774829E+03  0.47000000000E+01 0.  1.
         11    1    6    6    0    0  0.12700100585E+03 -0.21157516180E+01  0.18497665185E+03  0.22438826534E+03  0.00000000000E+00 0. -1.
        -12    1    6    6    0    0  0.27119880999E+03 -0.28586453039E+02  0.62948794057E+03  0.68601825570E+03  0.00000000000E+00 0.  1.
</event>
<event>
12    1  0.9656379E-001  0.8392340E+03  0.7818608E-02  0.9504902E-01
          1   -1    0    0  502    0  0.00000000000E+00  0.00000000000E+00  0.34275935018E+04  0.34275935018E+04  0.00000000000E+00 0. -1.
         -1   -1    0    0    0  501 -0.00000000000E+00 -0.00000000000E+00 -0.12136958442E+04  0.12136958442E+04  0.00000000000E+00 0.  1.
          6    2    1    2  502    0 -0.30280998121E+03 -0.76336839844E+03 -0.10081018418E+04  0.13118349399E+04  0.17382862146E+03 0.  0.
         24    2    3    3    0    0 -0.17222977027E+03 -0.57957199389E+03 -0.79501124915E+03  0.10015737588E+04  0.74433313679E+02 0.  0.
         -6    2    1    2    0  501  0.30280998121E+03  0.76336839844E+03  0.32219994994E+04  0.33294544061E+04  0.17193217262E+03 0.  0.
        -24    2    5    5    0    0  0.17317798693E+03  0.48124995316E+03  0.17452317468E+04  0.18203949785E+04  0.80074309546E+02 0.  0.
          5    1    3    3  502    0 -0.13058021095E+03 -0.18379640455E+03 -0.21309059263E+03  0.31026118107E+03  0.47000000000E+01 0. -1.
        -13    1    4    4    0    0 -0.89134982172E+02 -0.18494843690E+03 -0.28949307369E+03  0.35490450698E+03  0.00000000000E+00 0.  1.
         14    1    4    4    0    0 -0.83094788097E+02 -0.39462355699E+03 -0.50551817546E+03  0.64666925183E+03  0.00000000000E+00 0. -1.
         -5    1    5    5    0  501  0.12963199428E+03  0.28211844528E+03  0.14767677526E+04  0.15090594276E+04  0.47000000000E+01 0.  1.
         13    1    6    6    0    0  0.11451635418E+03  0.39870951202E+03  0.14564116394E+04  0.15143375231E+04  0.00000000000E+00 0. -1.
        -14    1    6    6    0    0  0.58661632755E+02  0.82540441143E+02  0.28882010739E+03  0.30605745542E+03  0.00000000000E+00 0.  1.
</event>
<event>
12    1  0.9656379E-001  0.4989948E+03  0.7818608E-02  0.1014042E+00
          2   -1    0    0  502    0  0.00000000000E+00  0.00000000000E+00  0.88345999410E+03  0.88345999410E+03  0.00000000000E+00 0. -1.
         -2   -1    0    0    0  501 -0.00000000000E+00 -0.00000000000E+00 -0.79648147204E+03  0.79648147204E+03  0.00000000000E+00 0.  1.
          6    2    1    2  502    0  0.24265061771E+03  0.40017912266E+03 -0.63168262913E+03  0.80541310081E+03  0.17505618105E+03 0.  0.
         24    2    3    3    0    0  0.62618703150E+02  0.79847255227E+02 -0.19851927469E+03  0.23736681996E+03  0.81464216963E+02 0.  0.
         -6    2    1    2    0  501 -0.24265061771E+03 -0.40017912266E+03  0.71866115119E+03  0.87452836533E+03  0.17118223928E+03 0.  0.
        -24    2    5    5    0    0 -0.12570358899E+03 -0.24283293534E+03  0.30932237096E+03  0.42063987991E+03  0.80550311145E+02 0.  0.
          5    1    3    3  502    0  0.18003191456E+03  0.32033186743E+03 -0.43316335444E+03  0.56804628085E+03  0.47000000000E+01 0. -1.
        -13    1    4    4    0    0 -0.90955455211E+00  0.51261173676E+02 -0.42839837820E+02  0.66811577744E+02  0.00000000000E+00 0.  1.
         14    1    4    4    0    0  0.63528257703E+02  0.28586081551E+02 -0.15567943687E+03  0.17055524222E+03  0.00000000000E+00 0. -1.
         -5    1    5    5    0  501 -0.11694702871E+03 -0.15734618731E+03  0.40933878023E+03  0.45388848541E+03  0.47000000000E+01 0.  1.
         13    1    6    6    0    0 -0.85672715743E+02 -0.10822350661E+03  0.19835328260E+03  0.24165298741E+03  0.00000000000E+00 0. -1.
        -14    1    6    6    0    0 -0.40030873250E+02 -0.13460942874E+03  0.11096908836E+03  0.17898689251E+03  0.00000000000E+00 0.  1.
</event>
<event>
12    1  0.9656379E-001  0.5921347E+03  0.7818608E-02  0.9921860E-01
          1   -1    0    0  502    0  0.00000000000E+00  0.00000000000E+00  0.52053026059E+03  0.52053026059E+03  0.00000000000E+00 0. -1.
         -1   -1    0    0    0  501 -0.00000000000E+00 -0.00000000000E+00 -0.10797667473E+04  0.10797667473E+04  0.00000000000E+00 0.  1.
          6    2    1    2  502    0  0.55898815838E+03  0.85459420478E+02 -0.77000882601E+03  0.97061301546E+03  0.17147874468E+03 0.  0.
         24    2    3    3    0    0  0.37526887239E+03 -0.13167104795E+02 -0.52773011213E+03  0.65092405298E+03  0.64830180153E+02 0.  0.
         -6    2    1    2    0  501 -0.55898815838E+03 -0.85459420478E+02  0.21077233927E+03  0.62968399246E+03  0.17973835873E+03 0.  0.
        -24    2    5    5    0    0 -0.36408338578E+03 -0.54251603405E+02  0.21211090818E+03  0.43223607529E+03  0.79605522033E+02 0.  0.
          5    1    3    3  502    0  0.18371928599E+03  0.98626525272E+02 -0.24227871388E+03  0.31968896248E+03  0.47000000000E+01 0. -1.
        -11    1    4    4    0    0  0.22458235843E+03 -0.39601910558E+02 -0.31254654667E+03  0.38689907065E+03  0.00000000000E+00 0.  1.
         12    1    4    4    0    0  0.15068651397E+03  0.26434805764E+02 -0.21518356547E+03  0.26402498233E+03  0.00000000000E+00 0. -1.
         -5    1    5    5    0  501 -0.19490477260E+03 -0.31207817073E+02 -0.13385689033E+01  0.19744791717E+03  0.47000000000E+01 0.  1.
         11    1    6    6    0    0 -0.16151497684E+03 -0.56907700944E+02  0.71177691441E+02  0.18545036514E+03  0.00000000000E+00 0. -1.
        -12    1    6    6    0    0 -0.20256840894E+03  0.26560975387E+01  0.14093321674E+03  0.24678571015E+03  0.00000000000E+00 0.  1.
</event>
<event>
12    1  0.9656379E-001  0.2347413E+03  0.7818608E-02  0.1123346E+00
          1   -1    0    0  502    0  0.00000000000E+00  0.00000000000E+00  0.63297561860E+03  0.63297561860E+03  0.00000000000E+00 0. -1.
         -1   -1    0    0    0  501 -0.00000000000E+00 -0.00000000000E+00 -0.71270659019E+03  0.71270659019E+03  0.00000000000E+00 0.  1.
          6    2    1    2  502    0 -0.77503475945E+02  0.13538829861E+03 -0.67031350226E+03  0.71093769421E+03  0.17825665078E+03 0.  0.
         24    2    3    3    0    0 -0.82441478650E+02  0.14900882781E+03 -0.67002709644E+03  0.69570369557E+03  0.77891552127E+02 0.  0.
         -6    2    1    2    0  501  0.77503475945E+02 -0.13538829861E+03  0.59058253067E+03  0.63474451459E+03  0.17255750659E+03 0.  0.
        -24    2    5    5    0    0  0.32350447244E+02 -0.15472882743E+03  0.51395411421E+03  0.54360255792E+03  0.79795663988E+02 0.  0.
          5    1    3    3  502    0  0.49380027050E+01 -0.13620529196E+02 -0.28640582020E+00  0.15233998641E+02  0.47000000000E+01 0. -1.
        -11    1    4    4    0    0 -0.83894024434E+02  0.11852861942E+03 -0.43256689667E+03  0.45629087330E+03  0.00000000000E+00 0.  1.
         12    1    4    4    0    0  0.14525457843E+01  0.30480208387E+02 -0.23746019977E+03  0.23941282227E+03  0.00000000000E+00 0. -1.
         -5    1    5    5    0  501  0.45153028701E+02  0.19340528815E+02  0.76628416461E+02  0.91141956667E+02  0.47000000000E+01 0.  1.
         11    1    6    6    0    0 -0.26123182512E+02 -0.63348088232E+02  0.19197136962E+03  0.20383426528E+03  0.00000000000E+00 0. -1.
        -12    1    6    6    0    0  0.58473629756E+02 -0.91380739198E+02  0.32198274458E+03  0.33976829264E+03  0.00000000000E+00 0.  1.
</event>
<event>
12    1  0.9656379E-001  0.4707465E+03  0.7818608E-02  0.1021710E+00
          1   -1    0    0  502    0  0.00000000000E+00  0.00000000000E+00  0.14939473779E+04  0.14939473779E+04  0.00000000000E+00 0. -1.
         -1   -1    0    0    0  501 -0.00000000000E+00 -0.00000000000E+00 -0.58453642775E+03  0.58453642775E+03  0.00000000000E+00 0.  1.
          6    2    1    2  502    0  0.91320473169E+02  0.42844928897E+03 -0.44301188543E+03  0.64651790130E+03  0.17267786204E+03 0.  0.
         24    2    3    3    0    0  0.10335246313E+03  0.38472370179E+03 -0.32763099477E+03  0.52245527323E+03  0.83206883351E+02 0.  0.
         -6    2    1    2    0  501 -0.91320473169E+02 -0.42844928897E+03  0.13524228355E+04  0.14319659043E+04  0.17196105071E+03 0.  0.
        -24    2    5    5    0    0 -0.19416258269E+02 -0.35503356828E+03  0.11194414820E+04  0.11772847600E+04  0.80152035666E+02 0.  0.
          5    1    3    3  502    0 -0.12031989957E+02  0.43725587179E+02 -0.11538089066E+03  0.12406262808E+03  0.47000000000E+01 0. -1.
        -11    1    4    4    0    0  0.65708368011E+02  0.99449614341E+02 -0.98183049218E+02  0.15442709145E+03  0.00000000000E+00 0.  1.
         12    1    4    4    0    0  0.37644095115E+02  0.28527408745E+03 -0.22944794555E+03  0.36802818178E+03  0.00000000000E+00 0. -1.
         -5    1    5    5    0  501 -0.71904214901E+02 -0.73415720691E+02  0.23298135351E+03  0.25468114427E+03  0.47000000000E+01 0.  1.
         13    1    6    6    0    0 -0.45387632269E+02 -0.13843694715E+03  0.48309956021E+03  0.50458895209E+03  0.00000000000E+00 0. -1.
        -14    1    6    6    0    0  0.25971374000E+02 -0.21659662112E+03  0.63634192183E+03  0.67269580794E+03  0.00000000000E+00 0.  1.
</event>
<event>
12    1  0.9656379E-001  0.7996619E+03  0.7818608E-02  0.9560507E-01
          2   -1    0    0  502    0  0.00000000000E+00  0.00000000000E+00  0.12270204567E+04  0.12270204567E+04  0.00000000000E+00 0. -1.
         -2   -1    0    0    0  501 -0.00000000000E+00 -0.00000000000E+00 -0.18456370331E+04  0.18456370331E+04  0.00000000000E+00 0.  1.
          6    2    1    2  502    0  0.68731749071E+03 -0.37134489412E+03 -0.16108053242E+04  0.17984725461E+04  0.17177701619E+03 0.  0.
         24    2    3    3    0    0  0.16925030278E+03 -0.92867238488E+02 -0.35899172346E+03  0.41535910288E+03  0.79863244733E+02 0.  0.
         -6    2    1    2    0  501 -0.68731749071E+03  0.37134489412E+03  0.99218874776E+03  0.12741849437E+04  0.16972447112E+03 0.  0.
        -24    2    5    5    0    0 -0.57590356896E+03  0.24659184465E+03  0.76823760998E+03  0.99462710097E+03  0.81373128202E+02 0.  0.
          5    1    3    3  502    0  0.51806718793E+03 -0.27847765563E+03 -0.12518136007E+04  0.13831134433E+04  0.47000000000E+01 0. -1.
        -11    1    4    4    0    0  0.13760464083E+03 -0.61878642015E+02 -0.32877614493E+03  0.36174266681E+03  0.00000000000E+00 0.  1.
         12    1    4    4    0    0  0.31645661942E+02 -0.30988596473E+02 -0.30215578536E+02  0.53616436075E+02  0.00000000000E+00 0. -1.
         -5    1    5    5    0  501 -0.11141392174E+03  0.12475304947E+03  0.22395113778E+03  0.27955784271E+03  0.47000000000E+01 0.  1.
         13    1    6    6    0    0 -0.16742323285E+03  0.10662018842E+03  0.21126988473E+03  0.28988509391E+03  0.00000000000E+00 0. -1.
        -14    1    6    6    0    0 -0.40848033612E+03  0.13997165623E+03  0.55696772525E+03  0.70474200706E+03  0.00000000000E+00 0.  1.
</event>
<event>
12    1  0.9656379E-001  0.1006974E+04  0.7818608E-02  0.9300929E-01
          2   -1    0    0  502    0  0.00000000000E+00  0.00000000000E+00  0.18672943171E+04  0.18672943171E+04  0.00000000000E+00 0. -1.
         -2   -1    0    0    0  501 -0.00000000000E+00 -0.00000000000E+00 -0.56476797109E+03  0.56476797109E+03  0.00000000000E+00 0.  1.
          6    2    1    2  502    0  0.90948685784E+03 -0.39592847429E+03  0.88974145500E+03  0.13436241591E+04  0.17251180467E+03 0.  0.
         24    2    3    3    0    0  0.61585814677E+03 -0.29064862135E+03  0.69283955391E+03  0.97471479885E+03  0.79274293492E+02 0.  0.
         -6    2    1    2    0  501 -0.90948685784E+03  0.39592847429E+03  0.41278489102E+03  0.10884381291E+04  0.17430000963E+03 0.  0.
        -24    2    5    5    0    0 -0.68565187072E+03  0.29866729873E+03  0.24066647452E+03  0.78975991260E+03  0.80496735626E+02 0.  0.
          5    1    3    3  502    0  0.29362871108E+03 -0.10527985294E+03  0.19690190109E+03  0.36890936022E+03  0.47000000000E+01 0. -1.
        -11    1    4    4    0    0  0.60058159645E+03 -0.26786191594E+03  0.65685836190E+03  0.92946821763E+03  0.00000000000E+00 0.  1.
         12    1    4    4    0    0  0.15276550319E+02 -0.22786705409E+02  0.35981192012E+02  0.45246581215E+02  0.00000000000E+00 0. -1.
         -5    1    5    5    0  501 -0.22383498713E+03  0.97261175552E+02  0.17211841649E+03  0.29867821653E+03  0.47000000000E+01 0.  1.
         11    1    6    6    0    0 -0.67234780273E+02  0.27718291286E+02  0.49765533895E+02  0.88121664272E+02  0.00000000000E+00 0. -1.
        -12    1    6    6    0    0 -0.61841709044E+03  0.27094900745E+03  0.19090094063E+03  0.70163824833E+03  0.00000000000E+00 0.  1.
</event>
<event>
12    1  0.9656379E-001  0.5095798E+03  0.7818608E-02  0.1011308E+00
         -1   -1    0    0    0  501 -0.00000000000E+00  0.00000000000E+00  0.71572577715E+03  0.71572577715E+03  0.00000000000E+00 0.  1.
          1   -1    0    0  502    0  0.00000000000E+00 -0.00000000000E+00 -0.10585187678E+04  0.10585187678E+04  0.00000000000E+00 0. -1.
          6    2    1    2  502    0  0.26109702737E+03 -0.40136557974E+03  0.54789574726E+03  0.74767669842E+03  0.17194391292E+03 0.  0.
         24    2    3    3    0    0  0.53460370351E+02 -0.72689061498E+02  0.12906407275E+03  0.17620203008E+03  0.79043719987E+02 0.  0.
         -6    2    1    2    0  501 -0.26109702737E+03  0.40136557974E+03 -0.89068873791E+03  0.10265678465E+04  0.17677423283E+03 0.  0.
        -24    2    5    5    0    0 -0.11343832388E+03  0.28497069916E+03 -0.48583490709E+03  0.58016043702E+03  0.80461313850E+02 0.  0.
          5    1    3    3  502    0  0.20763665702E+03 -0.32867651824E+03  0.41883167451E+03  0.57147466834E+03  0.47000000000E+01 0. -1.
        -13    1    4    4    0    0  0.28199849173E+02 -0.42872151913E+02  0.12710677647E+03  0.13707437954E+03  0.00000000000E+00 0.  1.
         14    1    4    4    0    0  0.25260521178E+02 -0.29816909585E+02  0.19572962775E+01  0.39127650531E+02  0.00000000000E+00 0. -1.
         -5    1    5    5    0  501 -0.14765870349E+03  0.11639488058E+03 -0.40485383082E+03  0.44640740951E+03  0.47000000000E+01 0.  1.
         11    1    6    6    0    0 -0.90348412684E+02  0.20908992792E+03 -0.41694141886E+03  0.47510165269E+03  0.00000000000E+00 0. -1.
        -12    1    6    6    0    0 -0.23089911197E+02  0.75880771234E+02 -0.68893488235E+02  0.10505878432E+03  0.00000000000E+00 0.  1.
</event>
<event>
12    1  0.9656379E-001  0.4543244E+03  0.7818608E-02  0.1026440E+00
          2   -1    0    0  502    0  0.00000000000E+00  0.00000000000E+00  0.14262211737E+04  0.14262211737E+04  0.00000000000E+00 0. -1.
         -2   -1    0    0    0  501 -0.00000000000E+00 -0.00000000000E+00 -0.19345740879E+03  0.19345740879E+03  0.00000000000E+00 0.  1.
          6    2    1    2  502    0 -0.24799848567E+03  0.34028225300E+03  0.20997108351E+03  0.50053792671E+03  0.17074864441E+03 0.  0.
         24    2    3    3    0    0 -0.10361390938E+03  0.13640702200E+03  0.15441828534E+03  0.24456875070E+03  0.81401161563E+02 0.  0.
         -6    2    1    2    0  501  0.24799848567E+03 -0.34028225300E+03  0.10227926814E+04  0.11191406558E+04  0.17051591623E+03 0.  0.
        -24    2    5    5    0    0  0.22596116302E+03 -0.22771101828E+03  0.84679889224E+03  0.90901252749E+03  0.79527707095E+02 0.  0.
          5    1    3    3  502    0 -0.14438457629E+03  0.20387523100E+03  0.55552798173E+02  0.25596917602E+03  0.47000000000E+01 0. -1.
        -13    1    4    4    0    0 -0.20907819343E+02  0.90165290835E+02  0.57170608185E+02  0.10879060171E+03  0.00000000000E+00 0.  1.
         14    1    4    4    0    0 -0.82706090036E+02  0.46241731167E+02  0.97247677151E+02  0.13577814898E+03  0.00000000000E+00 0. -1.
         -5    1    5    5    0  501  0.22037322651E+02 -0.11257123472E+03  0.17599378920E+03  0.21012812833E+03  0.47000000000E+01 0.  1.
         13    1    6    6    0    0  0.17223507378E+03 -0.16133701888E+03  0.51663529525E+03  0.56798466758E+03  0.00000000000E+00 0. -1.
        -14    1    6    6    0    0  0.53726089239E+02 -0.66373999395E+02  0.33016359699E+03  0.34102785991E+03  0.00000000000E+00 0.  1.
</event>
<event>
12    1  0.9656379E-001  0.1110666E+04  0.7818608E-02  0.9194858E-01
          2   -1    0    0  502    0  0.00000000000E+00  0.00000000000E+00  0.92896461505E+03  0.92896461505E+03  0.00000000000E+00 0. -1.
         -2   -1    0    0    0  501 -0.00000000000E+00 -0.00000000000E+00 -0.21070159383E+04  0.21070159383E+04  0.00000000000E+00 0.  1.
          6    2    1    2  502    0  0.49295021011E+03 -0.97996197374E+03 -0.15122246685E+04  0.18765048859E+04  0.17641360272E+03 0.  0.
         24    2    3    3    0    0  0.25855674584E+03 -0.55373878330E+03 -0.73001217430E+03  0.95537244146E+03  0.79627233460E+02 0.  0.
         -6    2    1    2    0  501 -0.49295021011E+03  0.97996197374E+03  0.33417334522E+03  0.11594756675E+04  0.17142525826E+03 0.  0.
        -24    2    5    5    0    0 -0.23729991851E+03  0.59874381315E+03  0.15869593170E+03  0.66805042369E+03  0.79382395735E+02 0.  0.
          5    1    3    3  502    0  0.23439346427E+03 -0.42622319043E+03 -0.78221249422E+03  0.92113244448E+03  0.47000000000E+01 0. -1.
        -11    1    4    4    0    0  0.10193999342E+03 -0.19415172738E+03 -0.32046102867E+03  0.38830648513E+03  0.00000000000E+00 0.  1.
         12    1    4    4    0    0  0.15661675242E+03 -0.35958705593E+03 -0.40955114564E+03  0.56706595632E+03  0.00000000000E+00 0. -1.
         -5    1    5    5    0  501 -0.25565029160E+03  0.38121816059E+03  0.17547741352E+03  0.49142524377E+03  0.47000000000E+01 0.  1.
         11    1    6    6    0    0 -0.10756671832E+03  0.23808850677E+03  0.10261786649E+03  0.28069051012E+03  0.00000000000E+00 0. -1.
        -12    1    6    6    0    0 -0.12973320018E+03  0.36065530638E+03  0.56078065211E+02  0.38735991358E+03  0.00000000000E+00 0.  1.
</event>
<event>
12    1  0.9656379E-001  0.1833333E+03  0.7818608E-02  0.1164615E+00
          1   -1    0    0  502    0  0.00000000000E+00  0.00000000000E+00  0.12008831215E+04  0.12008831215E+04  0.00000000000E+00 0. -1.
         -1   -1    0    0    0  501 -0.00000000000E+00 -0.00000000000E+00 -0.29434732345E+02  0.29434732345E+02  0.00000000000E+00 0.  1.
          6    2    1    2  502    0  0.54022323903E+02  0.31314387134E+02  0.44568524651E+03  0.48145252295E+03  0.17106194954E+03 0.  0.
         24    2    3    3    0    0  0.91254055830E+02  0.84381198856E+01  0.21375120836E+03  0.24539106163E+03  0.78285946908E+02 0.  0.
         -6    2    1    2    0  501 -0.54022323903E+02 -0.31314387134E+02  0.72576314268E+03  0.74886533093E+03  0.17368978747E+03 0.  0.
        -24    2    5    5    0    0  0.91940317723E+01 -0.39017281345E+02  0.19513701196E+03  0.21441063424E+03  0.79288007771E+02 0.  0.
          5    1    3    3  502    0 -0.37231731927E+02  0.22876267249E+02  0.23193403815E+03  0.23606146131E+03  0.47000000000E+01 0. -1.
        -13    1    4    4    0    0 -0.65711462589E+01  0.10285389704E+02  0.72756811793E+02  0.73773456384E+02  0.00000000000E+00 0.  1.
         14    1    4    4    0    0  0.97825202089E+02 -0.18472698185E+01  0.14099439656E+03  0.17161760525E+03  0.00000000000E+00 0. -1.
         -5    1    5    5    0  501 -0.63216355675E+02  0.77028942105E+01  0.53062613072E+03  0.53445469668E+03  0.47000000000E+01 0.  1.
         13    1    6    6    0    0  0.23534287163E+02  0.17891206561E+02  0.54097058189E+02  0.61647787058E+02  0.00000000000E+00 0. -1.
        -14    1    6    6    0    0 -0.14340255391E+02 -0.56908487906E+02  0.14103995377E+03  0.15276284719E+03  0.00000000000E+00 0.  1.
</event>
<event>
12    1  0.9656379E-001  0.2024739E+03  0.7818608E-02  0.1147668E+00
          2   -1    0    0  502    0  0.00000000000E+00  0.00000000000E+00  0.24970355634E+03  0.24970355634E+03  0.00000000000E+00 0. -1.
         -2   -1    0    0    0  501 -0.00000000000E+00 -0.00000000000E+00 -0.19192884007E+04  0.19192884007E+04  0.00000000000E+00 0.  1.
          6    2    1    2  502    0  0.90863083389E+02 -0.55860814821E+02 -0.18717881850E+04  0.18826832053E+04  0.17183862041E+03 0.  0.
         24    2    3    3    0    0  0.10614639887E+03 -0.72166331569E+02 -0.18172908801E+04  0.18235943244E+04  0.80467879046E+02 0.  0.
         -6    2    1    2    0  501 -0.90863083389E+02  0.55860814821E+02  0.20220334060E+03  0.28630875177E+03  0.17236583140E+03 0.  0.
        -24    2    5    5    0    0 -0.11577395500E+03  0.80733730603E+02  0.18529514494E+03  0.24697440870E+03  0.82100693688E+02 0.  0.
          5    1    3    3  502    0 -0.15283315484E+02  0.16305516748E+02 -0.54497304859E+02  0.59088880896E+02  0.47000000000E+01 0. -1.
        -13    1    4    4    0    0  0.66186938903E+02 -0.67626078093E+01 -0.11486075792E+04  0.11505328395E+04  0.00000000000E+00 0.  1.
         14    1    4    4    0    0  0.39959459970E+02 -0.65403723760E+02 -0.66868330093E+03  0.67306148491E+03  0.00000000000E+00 0. -1.
         -5    1    5    5    0  501  0.24910871610E+02 -0.24872915782E+02  0.16908195664E+02  0.39334343067E+02  0.47000000000E+01 0.  1.
         11    1    6    6    0    0  0.38765160857E+01  0.40408604585E+01  0.51437728599E+02  0.51741625928E+02  0.00000000000E+00 0. -1.
        -12    1    6    6    0    0 -0.11965047108E+03  0.76692870144E+02  0.13385741634E+03  0.19523278278E+03  0.00000000000E+00 0.  1.
</event>
<event>
12    1  0.9656379E-001  0.8113733E+03  0.7818608E-02  0.9543699E-01
          1   -1    0    0  502    0  0.00000000000E+00  0.00000000000E+00  0.14355089497E+04  0.14355089497E+04  0.00000000000E+00 0. -1.
         -1   -1    0    0    0  501 -0.00000000000E+00 -0.00000000000E+00 -0.45880849729E+03  0.45880849729E+03  0.00000000000E+00 0.  1.
          6    2    1    2  502    0 -0.12102266305E+03  0.78384353270E+03  0.50845572297E+03  0.95750971777E+03  0.17099844646E+03 0.  0.
         24    2    3    3    0    0 -0.90250929439E+02  0.73945994654E+03  0.43527721210E+03  0.86643838989E+03  0.79391367934E+02 0.  0.
         -6    2    1    2    0  501  0.12102266305E+03 -0.78384353270E+03  0.46824472949E+03  0.93680772926E+03  0.17116783045E+03 0.  0.
        -24    2    5    5    0    0  0.32072470983E+02 -0.26639031488E+03  0.22072593702E+03  0.35632722836E+03  0.79099375099E+02 0.  0.
          5    1    3    3  502    0 -0.30771733607E+02  0.44383586158E+02  0.73178510874E+02  0.91071327887E+02  0.47000000000E+01 0. -1.
        -13    1    4    4    0    0 -0.91242533002E+00  0.24021502338E+03  0.11243228574E+03  0.26522652366E+03  0.00000000000E+00 0.  1.
         14    1    4    4    0    0 -0.89338504109E+02  0.49924492316E+03  0.32284492636E+03  0.60121186623E+03  0.00000000000E+00 0. -1.
         -5    1    5    5    0  501  0.88950192063E+02 -0.51745321781E+03  0.24751879247E+03  0.58048050090E+03  0.47000000000E+01 0.  1.
         13    1    6    6    0    0  0.27227054544E+02 -0.21358679299E+03  0.13079732674E+03  0.25192969520E+03  0.00000000000E+00 0. -1.
        -14    1    6    6    0    0  0.48454164387E+01 -0.52803521892E+02  0.89928610277E+02  0.10439753317E+03  0.00000000000E+00 0.  1.
</event>
<event>
12    1  0.9656379E-001  0.4451408E+03  0.7818608E-02  0.1029181E+00
          2   -1    0    0  502    0  0.00000000000E+00  0.00000000000E+00  0.18846044850E+04  0.18846044850E+04  0.00000000000E+00 0. -1.
         -2   -1    0    0    0  501 -0.00000000000E+00 -0.00000000000E+00 -0.26692827560E+03  0.26692827560E+03  0.00000000000E+00 0.  1.
          6    2    1    2  502    0 -0.33776558043E+03 -0.23396100082E+03 -0.28766587110E+02  0.44594276888E+03  0.17092132504E+03 0.  0.
         24    2    3    3    0    0 -0.95544305474E+02 -0.13388224337E+03 -0.12026388246E+02  0.18328476312E+03  0.79971876171E+02 0.  0.
         -6    2    1    2    0  501  0.33776558043E+03  0.23396100082E+03  0.16464427965E+04  0.17055899917E+04  0.17158088593E+03 0.  0.
        -24    2    5    5    0    0  0.29577137573E+03  0.13744637634E+03  0.11394995582E+04  0.11878138598E+04  0.77912188989E+02 0.  0.
          5    1    3    3  502    0 -0.24222127496E+03 -0.10007875746E+03 -0.16740198864E+02  0.26265800577E+03  0.47000000000E+01 0. -1.
        -13    1    4    4    0    0 -0.46912350994E+02 -0.69784618269E+02 -0.46115561677E+02  0.95902589389E+02  0.00000000000E+00 0.  1.
         14    1    4    4    0    0 -0.48631954480E+02 -0.64097625099E+02  0.34089173432E+02  0.87382173726E+02  0.00000000000E+00 0. -1.
         -5    1    5    5    0  501  0.41994204702E+02  0.96514624480E+02  0.50694323828E+03  0.51777613194E+03  0.47000000000E+01 0.  1.
         13    1    6    6    0    0  0.14388020185E+03  0.93172722609E+02  0.70074144350E+03  0.72140227291E+03  0.00000000000E+00 0. -1.
        -14    1    6    6    0    0  0.15189117388E+03  0.44273653735E+02  0.43875811471E+03  0.46641158684E+03  0.00000000000E+00 0.  1.
</event>
<event>
12    1  0.9656379E-001  0.1755510E+03  0.7818608E-02  0.1172180E+00
          2   -1    0    0  502    0  0.00000000000E+00  0.00000000000E+00  0.23587050594E+04  0.23587050594E+04  0.00000000000E+00 0. -1.
         -2   -1    0    0    0  501 -0.00000000000E+00 -0.00000000000E+00 -0.28014883178E+03  0.28014883178E+03  0.00000000000E+00 0.  1.
          6    2    1    2  502    0 -0.40635622642E+02 -0.76635459803E+01 -0.24937687995E+03  0.30421026014E+03  0.16924854609E+03 0.  0.
         24    2    3    3    0    0 -0.61830508597E+01 -0.12836308024E+01 -0.25566458158E+03  0.26830332192E+03  0.81132092639E+02 0.  0.
         -6    2    1    2    0  501  0.40635622642E+02  0.76635459803E+01  0.23279331076E+04  0.23346436310E+04  0.17198356559E+03 0.  0.
        -24    2    5    5    0    0 -0.24064166694E+02  0.41920999459E+02  0.82403976624E+03  0.82896208835E+03  0.76158737329E+02 0.  0.
          5    1    3    3  502    0 -0.34452571782E+02 -0.63799151780E+01  0.62877016252E+01  0.35906938213E+02  0.47000000000E+01 0. -1.
        -13    1    4    4    0    0 -0.38637204336E+02  0.67969703179E+01 -0.19615404634E+03  0.20003860192E+03  0.00000000000E+00 0.  1.
         14    1    4    4    0    0  0.32454153476E+02 -0.80806011203E+01 -0.59510535238E+02  0.68264719999E+02  0.00000000000E+00 0. -1.
         -5    1    5    5    0  501  0.64699789336E+02 -0.34257453479E+02  0.15038933413E+04  0.15056815427E+04  0.47000000000E+01 0.  1.
         11    1    6    6    0    0 -0.24648892240E+02 -0.17131503254E+02  0.21912250042E+03  0.22116899983E+03  0.00000000000E+00 0. -1.
        -12    1    6    6    0    0  0.58472554651E+00  0.59052502713E+02  0.60491726581E+03  0.60779308853E+03  0.00000000000E+00 0.  1.
</event>
<event>
12    1  0.9656379E-001  0.2087204E+04  0.7818608E-02  0.8566901E-01
          2   -1    0    0  502    0  0.00000000000E+00  0.00000000000E+00  0.16909218371E+04  0.16909218371E+04  0.00000000000E+00 0. -1.
         -2   -1    0    0    0  501 -0.00000000000E+00 -0.00000000000E+00 -0.27155746890E+04  0.27155746890E+04  0.00000000000E+00 0.  1.
          6    2    1    2  502    0  0.13999319041E+03 -0.20756017443E+04 -0.13502226012E+02  0.20874022691E+04  0.17130449143E+03 0.  0.
         24    2    3    3    0    0  0.83649627007E+02 -0.11133471779E+04  0.35200694239E+02  0.11222584911E+04  0.10810103378E+03 0.  0.
         -6    2    1    2    0  501 -0.13999319041E+03  0.20756017443E+04 -0.10111506259E+04  0.23190942569E+04  0.16748698428E+03 0.  0.
        -24    2    5    5    0    0 -0.37929552673E+02  0.53476008081E+03 -0.29320388884E+03  0.61613224168E+03  0.79015339074E+02 0.  0.
          5    1    3    3  502    0  0.56343563400E+02 -0.96225456645E+03 -0.48702920251E+02  0.96514377801E+03  0.47000000000E+01 0. -1.
        -11    1    4    4    0    0  0.85960657856E+02 -0.70760566810E+03 -0.18015563853E+02  0.71303546670E+03  0.00000000000E+00 0.  1.
         12    1    4    4    0    0 -0.23110308492E+01 -0.40574150976E+03  0.53216258092E+02  0.40922302444E+03  0.00000000000E+00 0. -1.
         -5    1    5    5    0  501 -0.10206363773E+03  0.15408416635E+04 -0.71794673711E+03  0.17029620153E+04  0.47000000000E+01 0.  1.
         11    1    6    6    0    0 -0.20062247915E+02  0.13902663555E+03 -0.40242164354E+02  0.14611752454E+03  0.00000000000E+00 0. -1.
        -12    1    6    6    0    0 -0.17867304758E+02  0.39573344526E+03 -0.25296172449E+03  0.47001471714E+03  0.00000000000E+00 0.  1.
</event>
<event>
12    1  0.9656379E-001  0.1407644E+04  0.7818608E-02  0.8948304E-01
         -3   -1    0    0    0  501 -0.00000000000E+00  0.00000000000E+00  0.15503728962E+04  0.15503728962E+04  0.00000000000E+00 0.  1.
          3   -1    0    0  502    0  0.00000000000E+00 -0.00000000000E+00 -0.19888354488E+04  0.19888354488E+04  0.00000000000E+00 0. -1.
          6    2    1    2  502    0  0.10884242353E+04  0.87599671900E+03  0.83868181553E+03  0.16384363448E+04  0.17043738074E+03 0.  0.
         24    2    3    3    0    0  0.90579042048E+03  0.66163409024E+03  0.69915153012E+03  0.13241160664E+04  0.79085649344E+02 0.  0.
         -6    2    1    2    0  501 -0.10884242353E+04 -0.87599671900E+03 -0.12771443682E+04  0.19007720002E+04  0.17262355543E+03 0.  0.
        -24    2    5    5    0    0 -0.61326773915E+03 -0.49626548798E+03 -0.81500451512E+03  0.11368578444E+04  0.76397933688E+02 0.  0.
          5    1    3    3  502    0  0.18263381481E+03  0.21436262875E+03  0.13953028541E+03  0.31432027848E+03  0.47000000000E+01 0. -1.
        -11    1    4    4    0    0  0.34522317247E+03  0.21003621649E+03  0.27125160807E+03  0.48669465369E+03  0.00000000000E+00 0.  1.
         12    1    4    4    0    0  0.56056724800E+03  0.45159787376E+03  0.42789992206E+03  0.83742141268E+03  0.00000000000E+00 0. -1.
         -5    1    5    5    0  501 -0.47515649613E+03 -0.37973123102E+03 -0.46213985307E+03  0.76391415579E+03  0.47000000000E+01 0.  1.
         11    1    6    6    0    0 -0.23828436113E+03 -0.21326643190E+03 -0.28194366787E+03  0.42632644720E+03  0.00000000000E+00 0. -1.
        -12    1    6    6    0    0 -0.37498337802E+03 -0.28299905608E+03 -0.53306084725E+03  0.71053139720E+03  0.00000000000E+00 0.  1.
</event>
<event>
12    1  0.9656379E-001  0.7780384E+03  0.7818608E-02  0.9592361E-01
         -1   -1    0    0    0  501 -0.00000000000E+00  0.00000000000E+00  0.12024192423E+04  0.12024192423E+04  0.00000000000E+00 0.  1.
          1   -1    0    0  502    0  0.00000000000E+00 -0.00000000000E+00 -0.59387840025E+03  0.59387840025E+03  0.00000000000E+00 0. -1.
          6    2    1    2  502    0  0.75124144279E+03  0.11119376048E+03  0.65460744815E+03  0.10164257701E+04  0.16698106827E+03 0.  0.
         24    2    3    3    0    0  0.29419904126E+03 -0.98213524517E+01  0.25142544688E+03  0.39504808259E+03  0.78731806639E+02 0.  0.
         -6    2    1    2    0  501 -0.75124144279E+03 -0.11119376048E+03 -0.46066606108E+02  0.77987187247E+03  0.17131913941E+03 0.  0.
        -24    2    5    5    0    0 -0.19464041782E+03 -0.60709547160E+02 -0.30629291119E+02  0.22075313956E+03  0.78887602224E+02 0.  0.
          5    1    3    3  502    0  0.45704240153E+03  0.12101511293E+03  0.40318200127E+03  0.62137768749E+03  0.47000000000E+01 0. -1.
        -13    1    4    4    0    0  0.99958110003E+02 -0.39545636118E+02  0.10198048571E+03  0.14817388622E+03  0.00000000000E+00 0.  1.
         14    1    4    4    0    0  0.19424093126E+03  0.29724283666E+02  0.14944496117E+03  0.24687419637E+03  0.00000000000E+00 0. -1.
         -5    1    5    5    0  501 -0.55660102497E+03 -0.50484213322E+02 -0.15437314989E+02  0.55911873291E+03  0.47000000000E+01 0.  1.
         13    1    6    6    0    0 -0.20148147699E+03 -0.53057541937E+02 -0.29449250204E+02  0.21042135506E+03  0.00000000000E+00 0. -1.
        -14    1    6    6    0    0  0.68410591673E+01 -0.76520052228E+01 -0.11800409155E+01  0.10331784503E+02  0.00000000000E+00 0.  1.
</event>
<event>
12    1  0.9656379E-001  0.1933272E+03  0.7818608E-02  0.1155494E+00
          2   -1    0    0  502    0  0.00000000000E+00  0.00000000000E+00  0.11884318142E+04  0.11884318142E+04  0.00000000000E+00 0. -1.
         -2   -1    0    0    0  501 -0.00000000000E+00 -0.00000000000E+00 -0.31941247152E+02  0.31941247152E+02  0.00000000000E+00 0.  1.
          6    2    1    2  502    0 -0.82688228861E+02 -0.27080705903E+02  0.50061428020E+03  0.53641079822E+03  0.17190456389E+03 0.  0.
         24    2    3    3    0    0 -0.12206545065E+03 -0.28672458369E+02  0.34534745334E+03  0.37615170551E+03  0.80642159722E+02 0.  0.
         -6    2    1    2    0  501  0.82688228861E+02  0.27080705903E+02  0.65587628687E+03  0.68396226315E+03  0.17337810102E+03 0.  0.
        -24    2    5    5    0    0  0.88352028598E+02  0.10195283982E+02  0.65497009433E+03  0.66552026527E+03  0.77597514433E+02 0.  0.
          5    1    3    3  502    0  0.39377221787E+02  0.15917524659E+01  0.15526682686E+03  0.16025909271E+03  0.47000000000E+01 0. -1.
        -13    1    4    4    0    0 -0.11963298011E+03 -0.15089976486E+02  0.34098900470E+03  0.36168115606E+03  0.00000000000E+00 0.  1.
         14    1    4    4    0    0 -0.24324705375E+01 -0.13582481883E+02  0.43584486329E+01  0.14470549454E+02  0.00000000000E+00 0. -1.
         -5    1    5    5    0  501 -0.56637997363E+01  0.16885421921E+02  0.90619254030E+00  0.18441997881E+02  0.47000000000E+01 0.  1.
         11    1    6    6    0    0  0.59880197243E+02  0.27116739588E+02  0.57801026294E+03  0.58173603950E+03  0.00000000000E+00 0. -1.
        -12    1    6    6    0    0  0.28471831355E+02 -0.16921455606E+02  0.76959831386E+02  0.83784225768E+02  0.00000000000E+00 0.  1.
</event>
<event>
12    1  0.9656379E-001  0.3757418E+03  0.7818608E-02  0.1052519E+00
          2   -1    0    0  502    0  0.00000000000E+00  0.00000000000E+00  0.92407312936E+03  0.92407312936E+03  0.00000000000E+00 0. -1.
         -2   -1    0    0    0  501 -0.00000000000E+00 -0.00000000000E+00 -0.36866941704E+03  0.36866941704E+03  0.00000000000E+00 0.  1.
          6    2    1    2  502    0 -0.30276027790E+03  0.14076552141E+03 -0.21692824648E+03  0.43385467593E+03  0.17231743329E+03 0.  0.
         24    2    3    3    0    0 -0.16820173727E+03  0.80656624922E+02 -0.20150988403E+03  0.28560186417E+03  0.78516723652E+02 0.  0.
         -6    2    1    2    0  501  0.30276027790E+03 -0.14076552141E+03  0.77233195880E+03  0.85888787048E+03  0.17237459668E+03 0.  0.
        -24    2    5    5    0    0  0.18712544657E+03 -0.24098782861E+02  0.50774447709E+03  0.54742171248E+03  0.79179499824E+02 0.  0.
          5    1    3    3  502    0 -0.13455854063E+03  0.60108896484E+02 -0.15418362447E+02  0.14825281175E+03  0.47000000000E+01 0. -1.
        -11    1    4    4    0    0 -0.89358325213E+02 -0.12821393349E+00 -0.83589515729E+02  0.12236067123E+03  0.00000000000E+00 0.  1.
         12    1    4    4    0    0 -0.78843412055E+02  0.80784838856E+02 -0.11792036830E+03  0.16324119294E+03  0.00000000000E+00 0. -1.
         -5    1    5    5    0  501  0.11563483133E+03 -0.11666673855E+03  0.26458748171E+03  0.31146615800E+03  0.47000000000E+01 0.  1.
         11    1    6    6    0    0  0.59181373967E+02 -0.45432953825E+02  0.19967778615E+03  0.21316145664E+03  0.00000000000E+00 0. -1.
        -12    1    6    6    0    0  0.12794407260E+03  0.21334170964E+02  0.30806669094E+03  0.33426025584E+03  0.00000000000E+00 0.  1.
</event>
<event>
12    1  0.9656379E-001  0.1959521E+03  0.7818608E-02  0.1153200E+00
          4   -1    0    0  502    0  0.00000000000E+00  0.00000000000E+00  0.45221935796E+03  0.45221935796E+03  0.00000000000E+00 0. -1.
         -4   -1    0    0    0  501 -0.00000000000E+00 -0.00000000000E+00 -0.12073980759E+04  0.12073980759E+04  0.00000000000E+00 0.  1.
          6    2    1    2  502    0 -0.71662689320E+01 -0.10994813296E+03 -0.11787057137E+04  0.11962953162E+04  0.17214928616E+03 0.  0.
         24    2    3    3    0    0 -0.90528963125E+01 -0.14304767907E+03 -0.97664039823E+03  0.99147436750E+03  0.93007314410E+02 0.  0.
         -6    2    1    2    0  501  0.71662689320E+01  0.10994813296E+03  0.42352699580E+03  0.46332211762E+03  0.15215886815E+03 0.  0.
        -24    2    5    5    0    0 -0.30384900314E+02  0.12189828873E+03  0.24580450635E+03  0.28122250260E+03  0.53701076959E+02 0.  0.
          5    1    3    3  502    0  0.18866273806E+01  0.33099546107E+02 -0.20206531545E+03  0.20482094869E+03  0.47000000000E+01 0. -1.
        -11    1    4    4    0    0 -0.23646951282E+02 -0.31777975432E+01 -0.26500261717E+03  0.26607454559E+03  0.00000000000E+00 0.  1.
         12    1    4    4    0    0  0.14594054969E+02 -0.13986988152E+03 -0.71163778106E+03  0.72539982191E+03  0.00000000000E+00 0. -1.
         -5    1    5    5    0  501  0.37551169246E+02 -0.11950155767E+02  0.17772248945E+03  0.18209961502E+03  0.47000000000E+01 0.  1.
         11    1    6    6    0    0 -0.40801097944E+01 -0.44653164171E-01  0.42506174917E+02  0.42701571352E+02  0.00000000000E+00 0. -1.
        -12    1    6    6    0    0 -0.26304790520E+02  0.12194294189E+03  0.20329833143E+03  0.23852093125E+03  0.00000000000E+00 0.  1.
</event>
<event>
12    1  0.9656379E-001  0.4578805E+03  0.7818608E-02  0.1025398E+00
         -2   -1    0    0    0  501 -0.00000000000E+00  0.00000000000E+00  0.65364735580E+03  0.65364735580E+03  0.00000000000E+00 0.  1.
          2   -1    0    0  502    0  0.00000000000E+00 -0.00000000000E+00 -0.53599187892E+03  0.53599187892E+03  0.00000000000E+00 0. -1.
          6    2    1    2  502    0  0.40451965380E+03  0.12722491535E+03  0.43579971126E+03  0.63240992172E+03  0.17377741904E+03 0.  0.
         24    2    3    3    0    0  0.27426013460E+03  0.17052593030E+02  0.29554134684E+03  0.41150274272E+03  0.80500976469E+02 0.  0.
         -6    2    1    2    0  501 -0.40451965380E+03 -0.12722491535E+03 -0.31814423438E+03  0.55722931300E+03  0.17165786904E+03 0.  0.
        -24    2    5    5    0    0 -0.18461486884E+03 -0.90028260023E+02 -0.22678705985E+03  0.31616930189E+03  0.79642448136E+02 0.  0.
          5    1    3    3  502    0  0.13025951920E+03  0.11017232232E+03  0.14025836442E+03  0.22090717901E+03  0.47000000000E+01 0. -1.
        -11    1    4    4    0    0  0.21767767380E+03  0.46444785012E+02  0.22992619037E+03  0.32001053224E+03  0.00000000000E+00 0.  1.
         12    1    4    4    0    0  0.56582460798E+02 -0.29392191982E+02  0.65615156469E+02  0.91492210477E+02  0.00000000000E+00 0. -1.
         -5    1    5    5    0  501 -0.21990478496E+03 -0.37196655327E+02 -0.91357174526E+02  0.24106001111E+03  0.47000000000E+01 0.  1.
         11    1    6    6    0    0 -0.76800431278E+02 -0.26757811459E+01 -0.51066638581E+02  0.92267370317E+02  0.00000000000E+00 0. -1.
        -12    1    6    6    0    0 -0.10781443756E+03 -0.87352478877E+02 -0.17572042127E+03  0.22390193158E+03  0.00000000000E+00 0.  1.
</event>
<event>
12    1  0.9656379E-001  0.4718560E+03  0.7818608E-02  0.1021398E+00
         -2   -1    0    0    0  501 -0.00000000000E+00  0.00000000000E+00  0.35880978922E+03  0.35880978922E+03  0.00000000000E+00 0.  1.
          2   -1    0    0  502    0  0.00000000000E+00 -0.00000000000E+00 -0.81379963942E+03  0.81379963942E+03  0.00000000000E+00 0. -1.
          6    2    1    2  502    0  0.15833048280E+03 -0.41040202475E+03  0.58050679208E+02  0.47591638524E+03  0.17212832621E+03 0.  0.
         24    2    3    3    0    0  0.16966873421E+03 -0.28643956514E+03  0.76110572516E+02  0.35004543115E+03  0.76836715028E+02 0.  0.
         -6    2    1    2    0  501 -0.15833048280E+03  0.41040202475E+03 -0.51304052941E+03  0.69669304340E+03  0.16932881682E+03 0.  0.
        -24    2    5    5    0    0 -0.12770199021E+03  0.16573253412E+03 -0.25146756875E+03  0.33718815059E+03  0.81760868381E+02 0.  0.
          5    1    3    3  502    0 -0.11338251411E+02 -0.12396245961E+03 -0.18059893308E+02  0.12587095409E+03  0.47000000000E+01 0. -1.
        -11    1    4    4    0    0  0.10274733874E+03 -0.16737868211E+03  0.83169999461E+02  0.21328358505E+03  0.00000000000E+00 0.  1.
         12    1    4    4    0    0  0.66921395468E+02 -0.11906088303E+03 -0.70594269455E+01  0.13676184610E+03  0.00000000000E+00 0. -1.
         -5    1    5    5    0  501 -0.30628492586E+02  0.24466949063E+03 -0.26157296066E+03  0.35950489281E+03  0.47000000000E+01 0.  1.
         13    1    6    6    0    0 -0.13424588852E+03  0.13510089727E+03 -0.23257699561E+03  0.30060983004E+03  0.00000000000E+00 0. -1.
        -14    1    6    6    0    0  0.65438983079E+01  0.30631636850E+02 -0.18890573134E+02  0.36578320554E+02  0.00000000000E+00 0.  1.
</event>
<event>
12    1  0.9656379E-001  0.1900706E+03  0.7818608E-02  0.1158398E+00
         -2   -1    0    0    0  501 -0.00000000000E+00  0.00000000000E+00  0.55743086114E+03  0.55743086114E+03  0.00000000000E+00 0.  1.
          2   -1    0    0  502    0  0.00000000000E+00 -0.00000000000E+00 -0.52420815303E+03  0.52420815303E+03  0.00000000000E+00 0. -1.
          6    2    1    2  502    0 -0.60966851425E+02  0.35546971995E+02  0.52282518651E+03  0.55498187388E+03  0.17227350491E+03 0.  0.
         24    2    3    3    0    0 -0.42977681632E+02  0.26078365574E+02  0.52535783325E+03  0.53396357145E+03  0.81173150806E+02 0.  0.
         -6    2    1    2    0  501  0.60966851425E+02 -0.35546971995E+02 -0.48960247840E+03  0.52665714028E+03  0.18076673466E+03 0.  0.
        -24    2    5    5    0    0  0.12974679044E+02 -0.44365054139E+02 -0.46208700007E+03  0.47044149539E+03  0.75194445457E+02 0.  0.
          5    1    3    3  502    0 -0.17989169793E+02  0.94686064214E+01 -0.25326467384E+01  0.21018302427E+02  0.47000000000E+01 0. -1.
        -11    1    4    4    0    0 -0.66970036691E+02  0.22457139307E+02  0.41516074833E+03  0.42112676936E+03  0.00000000000E+00 0.  1.
         12    1    4    4    0    0  0.23992355059E+02  0.36212262669E+01  0.11019708493E+03  0.11283680210E+03  0.00000000000E+00 0. -1.
         -5    1    5    5    0  501  0.47992172381E+02  0.88180821443E+01 -0.27515478335E+02  0.56215644891E+02  0.47000000000E+01 0.  1.
         13    1    6    6    0    0  0.16630489364E+02 -0.43763749910E+01 -0.36463906031E+03  0.36504433997E+03  0.00000000000E+00 0. -1.
        -14    1    6    6    0    0 -0.36558103194E+01 -0.39988679148E+02 -0.97447939756E+02  0.10539715543E+03  0.00000000000E+00 0.  1.
</event>
<event>
12    1  0.9656379E-001  0.5844280E+03  0.7818608E-02  0.9938250E-01
          2   -1    0    0  502    0  0.00000000000E+00  0.00000000000E+00  0.36262815049E+04  0.36262815049E+04  0.00000000000E+00 0. -1.
         -2   -1    0    0    0  501 -0.00000000000E+00 -0.00000000000E+00 -0.10752581844E+03  0.10752581844E+03  0.00000000000E+00 0.  1.
          6    2    1    2  502    0  0.11281397940E+03  0.54648081583E+03  0.11020096699E+04  0.12474118288E+04  0.17390423196E+03 0.  0.
         24    2    3    3    0    0  0.95425547860E+02  0.19242004650E+03  0.39944271948E+03  0.46046596291E+03  0.79642371668E+02 0.  0.
         -6    2    1    2    0  501 -0.11281397940E+03 -0.54648081583E+03  0.24167460165E+04  0.24863954946E+04  0.17358851071E+03 0.  0.
        -24    2    5    5    0    0 -0.23032171797E+02 -0.10843084662E+03  0.53220879903E+03  0.54952916914E+03  0.80301759208E+02 0.  0.
          5    1    3    3  502    0  0.17388431538E+02  0.35406076932E+03  0.70256695045E+03  0.78694586586E+03  0.47000000000E+01 0. -1.
        -13    1    4    4    0    0  0.83840851221E+02  0.12472742136E+03  0.20453255606E+03  0.25381052866E+03  0.00000000000E+00 0.  1.
         14    1    4    4    0    0  0.11584696639E+02  0.67692625143E+02  0.19491016343E+03  0.20665543424E+03  0.00000000000E+00 0. -1.
         -5    1    5    5    0  501 -0.89781807601E+02 -0.43804996921E+03  0.18845372175E+04  0.19368663254E+04  0.47000000000E+01 0.  1.
         11    1    6    6    0    0 -0.25978061439E+02 -0.10289212554E+03  0.31821902600E+03  0.33544745890E+03  0.00000000000E+00 0. -1.
        -12    1    6    6    0    0  0.29458896414E+01 -0.55387210817E+01  0.21398977303E+03  0.21408171024E+03  0.00000000000E+00 0.  1.
</event>
<event>
12    1  0.9656379E-001  0.1875803E+03  0.7818608E-02  0.1160662E+00
          2   -1    0    0  502    0  0.00000000000E+00  0.00000000000E+00  0.27742792128E+03  0.27742792128E+03  0.00000000000E+00 0. -1.
         -2   -1    0    0    0  501 -0.00000000000E+00 -0.00000000000E+00 -0.25844079592E+03  0.25844079592E+03  0.00000000000E+00 0.  1.
          6    2    1    2  502    0 -0.59032384905E+02  0.44653206588E+02 -0.18169961529E+03  0.26139760909E+03  0.17272877153E+03 0.  0.
         24    2    3    3    0    0  0.82560079031E+01 -0.27369654472E+02 -0.11446276339E+03  0.14199114119E+03  0.79009495130E+02 0.  0.
         -6    2    1    2    0  501  0.59032384905E+02 -0.44653206588E+02  0.20068674066E+03  0.27447110811E+03  0.17198979617E+03 0.  0.
        -24    2    5    5    0    0 -0.30674759680E+02  0.14009455031E+01  0.91602704629E+02  0.12584481962E+03  0.80640930055E+02 0.  0.
          5    1    3    3  502    0 -0.67288392808E+02  0.72022861060E+02 -0.67236851900E+02  0.11940646790E+03  0.47000000000E+01 0. -1.
        -13    1    4    4    0    0  0.32294076820E+02  0.37253624690E+01 -0.90014111164E+02  0.95704367361E+02  0.00000000000E+00 0.  1.
         14    1    4    4    0    0 -0.24038068917E+02 -0.31095016941E+02 -0.24448652228E+02  0.46286773830E+02  0.00000000000E+00 0. -1.
         -5    1    5    5    0  501  0.89707144585E+02 -0.46054152091E+02  0.10908403603E+03  0.14862628849E+03  0.47000000000E+01 0.  1.
         13    1    6    6    0    0 -0.23066172848E+01 -0.62973583495E+01  0.95903505493E+02  0.96137711494E+02  0.00000000000E+00 0. -1.
        -14    1    6    6    0    0 -0.28368142395E+02  0.76983038526E+01 -0.43008008636E+01  0.29707108126E+02  0.00000000000E+00 0.  1.
</event>
<event>
12    1  0.9656379E-001  0.2536447E+03  0.7818608E-02  0.1111023E+00
          2   -1    0    0  502    0  0.00000000000E+00  0.00000000000E+00  0.24627441042E+04  0.24627441042E+04  0.00000000000E+00 0. -1.
         -2   -1    0    0    0  501 -0.00000000000E+00 -0.00000000000E+00 -0.27815461239E+02  0.27815461239E+02  0.00000000000E+00 0.  1.
          6    2    1    2  502    0  0.16712800184E+03 -0.79594434766E+02  0.91189050773E+03  0.94660123749E+03  0.17390388635E+03 0.  0.
         24    2    3    3    0    0  0.11764372300E+03  0.32091998210E+01  0.68919677927E+03  0.70386738644E+03  0.81158811028E+02 0.  0.
         -6    2    1    2    0  501 -0.16712800184E+03  0.79594434766E+02  0.15230381352E+04  0.15439583279E+04  0.17290203590E+03 0.  0.
        -24    2    5    5    0    0 -0.25545123639E+02 -0.11014003182E+02  0.70586250546E+03  0.70965999982E+03  0.67834925487E+02 0.  0.
          5    1    3    3  502    0  0.49484278840E+02 -0.82803634587E+02  0.22269372846E+03  0.24273385106E+03  0.47000000000E+01 0. -1.
        -13    1    4    4    0    0  0.52693886344E+02 -0.38938507967E+02  0.31141239685E+03  0.31823031592E+03  0.00000000000E+00 0.  1.
         14    1    4    4    0    0  0.64949836660E+02  0.42147707788E+02  0.37778438242E+03  0.38563707051E+03  0.00000000000E+00 0. -1.
         -5    1    5    5    0  501 -0.14158287821E+03  0.90608437949E+02  0.81717562974E+03  0.83429832810E+03  0.47000000000E+01 0.  1.
         11    1    6    6    0    0 -0.39728635473E+02 -0.26495892054E+02  0.58848374155E+03  0.59041808140E+03  0.00000000000E+00 0. -1.
        -12    1    6    6    0    0  0.14183511834E+02  0.15481888872E+02  0.11737876392E+03  0.11924191842E+03  0.00000000000E+00 0.  1.
</event>
<event>
12    1  0.9656379E-001  0.4033275E+03  0.7818608E-02  0.1042634E+00
          2   -1    0    0  502    0  0.00000000000E+00  0.00000000000E+00  0.17753990209E+04  0.17753990209E+04  0.00000000000E+00 0. -1.
         -2   -1    0    0    0  501 -0.00000000000E+00 -0.00000000000E+00 -0.12755962345E+03  0.12755962345E+03  0.00000000000E+00 0.  1.
          6    2    1    2  502    0 -0.85822680965E+02 -0.35367919318E+03  0.31818479490E+03  0.51333308239E+03  0.17266958481E+03 0.  0.
         24    2    3    3    0    0 -0.20058979356E+02 -0.31503165655E+03  0.27014361256E+03  0.42306380890E+03  0.79737743316E+02 0.  0.
         -6    2    1    2    0  501  0.85822680965E+02  0.35367919318E+03  0.13296546026E+04  0.13896255620E+04  0.17499524600E+03 0.  0.
        -24    2    5    5    0    0  0.75663483701E+02  0.36394937206E+03  0.11953353513E+04  0.12544499831E+04  0.81449676836E+02 0.  0.
          5    1    3    3  502    0 -0.65763701609E+02 -0.38647536630E+02  0.48041182331E+02  0.90269273491E+02  0.47000000000E+01 0. -1.
        -11    1    4    4    0    0 -0.26978137914E+02 -0.37069473890E+02  0.24155843046E+02  0.51821526155E+02  0.00000000000E+00 0.  1.
         12    1    4    4    0    0  0.69191585575E+01 -0.27796218266E+03  0.24598776952E+03  0.37124228274E+03  0.00000000000E+00 0. -1.
         -5    1    5    5    0  501  0.10159197265E+02 -0.10270178874E+02  0.13431925130E+03  0.13517557891E+03  0.47000000000E+01 0.  1.
         11    1    6    6    0    0  0.21738645737E+02  0.42001508487E+02  0.24749698052E+03  0.25197509956E+03  0.00000000000E+00 0. -1.
        -12    1    6    6    0    0  0.53924837964E+02  0.32194786357E+03  0.94783837075E+03  0.10024748835E+04  0.00000000000E+00 0.  1.
</event>
<event>
12    1  0.9656379E-001  0.1282879E+04  0.7818608E-02  0.9043254E-01
         -2   -1    0    0    0  501 -0.00000000000E+00  0.00000000000E+00  0.10206711766E+04  0.10206711766E+04  0.00000000000E+00 0.  1.
          2   -1    0    0  502    0  0.00000000000E+00 -0.00000000000E+00 -0.17648889381E+04  0.17648889381E+04  0.00000000000E+00 0. -1.
          6    2    1    2  502    0  0.10941547035E+04  0.64736038838E+03  0.37254343879E+02  0.12833029397E+04  0.17096362518E+03 0.  0.
         24    2    3    3    0    0  0.61072737108E+03  0.32566216473E+03  0.80575514144E+02  0.70098812220E+03  0.76473306843E+02 0.  0.
         -6    2    1    2    0  501 -0.10941547035E+04 -0.64736038838E+03 -0.78147210536E+03  0.15022571750E+04  0.17270778996E+03 0.  0.
        -24    2    5    5    0    0 -0.95100623808E+03 -0.50126936354E+03 -0.67008192042E+03  0.12693109709E+04  0.80353725098E+02 0.  0.
          5    1    3    3  502    0  0.48342733246E+03  0.32169822365E+03 -0.43321170265E+02  0.58231481749E+03  0.47000000000E+01 0. -1.
        -13    1    4    4    0    0  0.21780032748E+03  0.13892895962E+03 -0.11341034779E+01  0.25833994012E+03  0.00000000000E+00 0.  1.
         14    1    4    4    0    0  0.39292704360E+03  0.18673320511E+03  0.81709617622E+02  0.44264818208E+03  0.00000000000E+00 0. -1.
         -5    1    5    5    0  501 -0.14314846547E+03 -0.14609102484E+03 -0.11139018494E+03  0.23294620410E+03  0.47000000000E+01 0.  1.
         13    1    6    6    0    0 -0.40058997848E+03 -0.25449225390E+03 -0.28213302397E+03  0.55212107492E+03  0.00000000000E+00 0. -1.
        -14    1    6    6    0    0 -0.55041625960E+03 -0.24677710965E+03 -0.38794889645E+03  0.71718989600E+03  0.00000000000E+00 0.  1.
</event>
<event>
12    1  0.9656379E-001  0.6691481E+03  0.7818608E-02  0.9771498E-01
          1   -1    0    0  502    0  0.00000000000E+00  0.00000000000E+00  0.73919303429E+03  0.73919303429E+03  0.00000000000E+00 0. -1.
         -1   -1    0    0    0  501 -0.00000000000E+00 -0.00000000000E+00 -0.72974453995E+03  0.72974453995E+03  0.00000000000E+00 0.  1.
          6    2    1    2  502    0  0.33441208135E+03  0.55284368641E+03 -0.29804060810E+03  0.73255124933E+03  0.17417102822E+03 0.  0.
         24    2    3    3    0    0  0.30675064046E+03  0.55113676758E+03 -0.30253800153E+03  0.70408397985E+03  0.79732780665E+02 0.  0.
         -6    2    1    2    0  501 -0.33441208135E+03 -0.55284368641E+03  0.30748910244E+03  0.73638632491E+03  0.17391862937E+03 0.  0.
        -24    2    5    5    0    0 -0.70281626424E+02 -0.13792837165E+03  0.11081776518E+03  0.20664929530E+03  0.80371708018E+02 0.  0.
          5    1    3    3  502    0  0.27661440891E+02  0.17069188302E+01  0.44973934373E+01  0.28467269482E+02  0.47000000000E+01 0. -1.
        -11    1    4    4    0    0  0.91443874568E+02  0.11021052858E+03 -0.46196703250E+02  0.15047417784E+03  0.00000000000E+00 0.  1.
         12    1    4    4    0    0  0.21530676589E+03  0.44092623900E+03 -0.25634129828E+03  0.55360980201E+03  0.00000000000E+00 0. -1.
         -5    1    5    5    0  501 -0.26413045492E+03 -0.41491531475E+03  0.19667133725E+03  0.52973702960E+03  0.47000000000E+01 0.  1.
         11    1    6    6    0    0 -0.83934727717E+02 -0.12202446992E+03  0.11195483759E+03  0.18565800666E+03  0.00000000000E+00 0. -1.
        -12    1    6    6    0    0  0.13653101293E+02 -0.15903901733E+02 -0.11370724112E+01  0.20991288644E+02  0.00000000000E+00 0.  1.
</event>
<event>
12    1  0.9656379E-001  0.5099680E+03  0.7818608E-02  0.1011209E+00
          2   -1    0    0  502    0  0.00000000000E+00  0.00000000000E+00  0.21752327290E+04  0.21752327290E+04  0.00000000000E+00 0. -1.
         -2   -1    0    0    0  501 -0.00000000000E+00 -0.00000000000E+00 -0.47442863463E+03  0.47442863463E+03  0.00000000000E+00 0.  1.
          6    2    1    2  502    0  0.88430647441E+02 -0.47161580940E+03 -0.29546979596E+03  0.58923768969E+03  0.17221266949E+03 0.  0.
         24    2    3    3    0    0  0.70669430908E+02 -0.37876024470E+03 -0.29913969068E+03  0.49451084641E+03  0.81258422638E+02 0.  0.
         -6    2    1    2    0  501 -0.88430647441E+02  0.47161580940E+03  0.19962738903E+04  0.20604236739E+04  0.17319012623E+03 0.  0.
        -24    2    5    5    0    0 -0.56043354542E+02  0.46783716746E+03  0.18955186497E+04  0.19544193184E+04  0.68930747662E+02 0.  0.
          5    1    3    3  502    0  0.17761216533E+02 -0.92855564703E+02  0.36698947193E+01  0.94726843272E+02  0.47000000000E+01 0. -1.
        -11    1    4    4    0    0  0.80964785483E+02 -0.34341659797E+03 -0.24704546814E+03  0.43072232305E+03  0.00000000000E+00 0.  1.
         12    1    4    4    0    0 -0.10295354575E+02 -0.35343646731E+02 -0.52094222542E+02  0.63788523359E+02  0.00000000000E+00 0. -1.
         -5    1    5    5    0  501 -0.32387292899E+02  0.37786419493E+01  0.10075524060E+03  0.10600435550E+03  0.47000000000E+01 0.  1.
         13    1    6    6    0    0 -0.19818456270E+02  0.38621141582E+03  0.15187985227E+04  0.15672590665E+04  0.00000000000E+00 0. -1.
        -14    1    6    6    0    0 -0.36224898273E+02  0.81625751631E+02  0.37672012703E+03  0.38716025196E+03  0.00000000000E+00 0.  1.
</event>
<event>
12    1  0.1000456E+000  0.6758975E+03  0.7818608E-02  0.9759362E-01
          2   -1    0    0  502    0  0.00000000000E+00  0.00000000000E+00  0.13161743024E+04  0.13161743024E+04  0.00000000000E+00 0. -1.
         -2   -1    0    0    0  501 -0.00000000000E+00 -0.00000000000E+00 -0.57555248712E+03  0.57555248712E+03  0.00000000000E+00 0.  1.
          6    2    1    2  502    0  0.55089046060E+03  0.35061453700E+03 -0.22535616938E+03  0.71320394070E+03  0.17737983205E+03 0.  0.
         24    2    3    3    0    0  0.32085775042E+03  0.25478582908E+03 -0.81005179394E+02  0.42518052616E+03  0.79693952295E+02 0.  0.
         -6    2    1    2    0  501 -0.55089046060E+03 -0.35061453700E+03  0.96597798469E+03  0.11785228488E+04  0.17144032551E+03 0.  0.
        -24    2    5    5    0    0 -0.33032612829E+03 -0.29618370551E+03  0.63806665579E+03  0.77957514585E+03  0.61385766733E+02 0.  0.
          5    1    3    3  502    0  0.23003271017E+03  0.95828707920E+02 -0.14435098999E+03  0.28802341454E+03  0.47000000000E+01 0. -1.
        -11    1    4    4    0    0  0.17346449124E+03  0.16012618344E+03 -0.82289705751E+02  0.25000384000E+03  0.00000000000E+00 0.  1.
         12    1    4    4    0    0  0.14739325918E+03  0.94659645642E+02  0.12845263575E+01  0.17517668616E+03  0.00000000000E+00 0. -1.
         -5    1    5    5    0  501 -0.22056433231E+03 -0.54430831488E+02  0.32791132891E+03  0.39894770300E+03  0.47000000000E+01 0.  1.
         11    1    6    6    0    0 -0.14844565275E+03 -0.97710477626E+02  0.27909815012E+03  0.33087645226E+03  0.00000000000E+00 0. -1.
        -12    1    6    6    0    0 -0.18188047554E+03 -0.19847322789E+03  0.35896850566E+03  0.44869869359E+03  0.00000000000E+00 0.  1.
</event>
<event>
12    1  0.9656379E-001  0.5509364E+03  0.7818608E-02  0.1001277E+00
         -2   -1    0    0    0  501 -0.00000000000E+00  0.00000000000E+00  0.75565252056E+03  0.75565252056E+03  0.00000000000E+00 0.  1.
          2   -1    0    0  502    0  0.00000000000E+00 -0.00000000000E+00 -0.15837993870E+04  0.15837993870E+04  0.00000000000E+00 0. -1.
          6    2    1    2  502    0  0.52135691172E+03  0.44937375461E+02  0.59636562010E+03  0.81235104689E+03  0.17444160465E+03 0.  0.
         24    2    3    3    0    0  0.28634236309E+03 -0.35735190015E+02  0.27990527111E+03  0.40997169432E+03  0.80379578535E+02 0.  0.
         -6    2    1    2    0  501 -0.52135691172E+03 -0.44937375461E+02 -0.14245124865E+04  0.15271008607E+04  0.17020228336E+03 0.  0.
        -24    2    5    5    0    0 -0.12488131418E+03 -0.18976989173E+01 -0.45162065892E+03  0.47563240588E+03  0.81645710602E+02 0.  0.
          5    1    3    3  502    0  0.23501454863E+03  0.80672565476E+02  0.31646034899E+03  0.40237935257E+03  0.47000000000E+01 0. -1.
        -11    1    4    4    0    0  0.74506232788E+02  0.21120426986E+02  0.49760998370E+02  0.92051116881E+02  0.00000000000E+00 0.  1.
         12    1    4    4    0    0  0.21183613030E+03 -0.56855617000E+02  0.23014427274E+03  0.31792057744E+03  0.00000000000E+00 0. -1.
         -5    1    5    5    0  501 -0.39647559754E+03 -0.43039676544E+02 -0.97289182762E+03  0.10514684548E+04  0.47000000000E+01 0.  1.
         11    1    6    6    0    0 -0.76549092517E+02 -0.34414560064E+02 -0.33390981011E+03  0.34429621955E+03  0.00000000000E+00 0. -1.
        -12    1    6    6    0    0 -0.48332221663E+02  0.32516861147E+02 -0.11771084881E+03  0.13133618632E+03  0.00000000000E+00 0.  1.
</event>
<event>
12    1  0.9656379E-001  0.2772665E+03  0.7818608E-02  0.1097191E+00
         -1   -1    0    0    0  501 -0.00000000000E+00  0.00000000000E+00  0.17809018624E+03  0.17809018624E+03  0.00000000000E+00 0.  1.
          1   -1    0    0  502    0  0.00000000000E+00 -0.00000000000E+00 -0.13032142649E+04  0.13032142649E+04  0.00000000000E+00 0. -1.
          6    2    1    2  502    0 -0.20233450627E+03 -0.81601721151E+02  0.43419113162E+02  0.28021701191E+03  0.17040616495E+03 0.  0.
         24    2    3    3    0    0 -0.21780072768E+03 -0.10009733930E+03  0.35444262569E+02  0.25439105331E+03  0.77471788034E+02 0.  0.
         -6    2    1    2    0  501  0.20233450627E+03  0.81601721151E+02 -0.11685431918E+04  0.12010874392E+04  0.17181313155E+03 0.  0.
        -24    2    5    5    0    0  0.10654273690E+03 -0.83567402580E+01 -0.40848713792E+03  0.42974064112E+03  0.79963034544E+02 0.  0.
          5    1    3    3  502    0  0.15466221414E+02  0.18495618150E+02  0.79748505927E+01  0.25825958599E+02  0.47000000000E+01 0. -1.
        -13    1    4    4    0    0 -0.80312084347E+02 -0.49185715032E+01 -0.10066244405E+02  0.81089780578E+02  0.00000000000E+00 0.  1.
         14    1    4    4    0    0 -0.13748864334E+03 -0.95178767798E+02  0.45510506974E+02  0.17330127273E+03  0.00000000000E+00 0. -1.
         -5    1    5    5    0  501  0.95791769368E+02  0.89958461409E+02 -0.76005605392E+03  0.77134679811E+03  0.47000000000E+01 0.  1.
         13    1    6    6    0    0  0.53337013424E+02  0.35565680487E+02 -0.21284222664E+03  0.22228712979E+03  0.00000000000E+00 0. -1.
        -14    1    6    6    0    0  0.53205723478E+02 -0.43922420745E+02 -0.19564491128E+03  0.20745351134E+03  0.00000000000E+00 0.  1.
</event>
<event>
12    1  0.9656379E-001  0.2158602E+03  0.7818608E-02  0.1137008E+00
          2   -1    0    0  502    0  0.00000000000E+00  0.00000000000E+00  0.10350598731E+04  0.10350598731E+04  0.00000000000E+00 0.  1.
         -2   -1    0    0    0  501 -0.00000000000E+00 -0.00000000000E+00 -0.10318221225E+03  0.10318221225E+03  0.00000000000E+00 0. -1.
          6    2    1    2  502    0 -0.22905471509E+02  0.12730245153E+03  0.38869803058E+02  0.21957282926E+03  0.17312074101E+03 0.  0.
         24    2    3    3    0    0  0.21783461596E+02  0.82810282914E+01 -0.67000435685E+01  0.84436228537E+02  0.80879487369E+02 0.  0.
         -6    2    1    2    0  501  0.22905471509E+02 -0.12730245153E+03  0.89300785777E+03  0.91866925607E+03  0.17250969021E+03 0.  0.
        -24    2    5    5    0    0  0.44894319921E+02 -0.31585355145E+02  0.38133739461E+03  0.39763756330E+03  0.98408783153E+02 0.  0.
          5    1    3    3  502    0 -0.44688933105E+02  0.11902142324E+03  0.45569846627E+02  0.13513660072E+03  0.47000000000E+01 0. -1.
        -13    1    4    4    0    0 -0.48646154459E+01 -0.31083261160E+02  0.11553759145E+02  0.33516010475E+02  0.00000000000E+00 0.  1.
         14    1    4    4    0    0  0.26648077042E+02  0.39364289451E+02 -0.18253802714E+02  0.50920218062E+02  0.00000000000E+00 0. -1.
         -5    1    5    5    0  501 -0.21988848412E+02 -0.95717096390E+02  0.51167046317E+03  0.52103169277E+03  0.47000000000E+01 0.  1.
         13    1    6    6    0    0 -0.40017971723E+01  0.20073126129E+02  0.22442010950E+03  0.22535157049E+03  0.00000000000E+00 0. -1.
        -14    1    6    6    0    0  0.48896117094E+02 -0.51658481274E+02  0.15691728510E+03  0.17228599281E+03  0.00000000000E+00 0.  1.
</event>
<event>
12    1  0.9656379E-001  0.4352272E+03  0.7818608E-02  0.1032221E+00
         -2   -1    0    0    0  501 -0.00000000000E+00  0.00000000000E+00  0.10645138498E+03  0.10645138498E+03  0.00000000000E+00 0.  1.
          2   -1    0    0  502    0  0.00000000000E+00 -0.00000000000E+00 -0.19283109525E+04  0.19283109525E+04  0.00000000000E+00 0. -1.
          6    2    1    2  502    0 -0.11223584242E+03  0.38389169823E+03 -0.62781743980E+03  0.76379872298E+03  0.17106732947E+03 0.  0.
         24    2    3    3    0    0 -0.85230453095E+02  0.15220014329E+03 -0.36650802062E+03  0.41349175725E+03  0.78855503203E+02 0.  0.
         -6    2    1    2    0  501  0.11223584242E+03 -0.38389169823E+03 -0.11940421277E+04  0.12709636145E+04  0.17216906313E+03 0.  0.
        -24    2    5    5    0    0  0.13893527170E+03 -0.33826913381E+03 -0.94833422304E+03  0.10195899040E+04  0.80602463511E+02 0.  0.
          5    1    3    3  502    0 -0.27005389326E+02  0.23169155494E+03 -0.26130941918E+03  0.35030696573E+03  0.47000000000E+01 0. -1.
        -11    1    4    4    0    0 -0.15766758025E+02  0.34225935226E+02 -0.24105174454E+02  0.44733262078E+02  0.00000000000E+00 0.  1.
         12    1    4    4    0    0 -0.69463695070E+02  0.11797420806E+03 -0.34240284616E+03  0.36875849517E+03  0.00000000000E+00 0. -1.
         -5    1    5    5    0  501 -0.26699429278E+02 -0.45622564419E+02 -0.24570790468E+03  0.25137371050E+03  0.47000000000E+01 0.  1.
         11    1    6    6    0    0  0.27887386412E+02 -0.16838844431E+03 -0.46717574990E+03  0.49737868450E+03  0.00000000000E+00 0. -1.
        -12    1    6    6    0    0  0.11104788529E+03 -0.16988068950E+03 -0.48115847313E+03  0.52221121949E+03  0.00000000000E+00 0.  1.
</event>
<event>
12    1  0.1720239E+000  0.8571577E+03  0.7818608E-02  0.9480780E-01
         -2   -1    0    0    0  501 -0.00000000000E+00  0.00000000000E+00  0.66940843094E+03  0.66940843094E+03  0.00000000000E+00 0.  1.
          2   -1    0    0  502    0  0.00000000000E+00 -0.00000000000E+00 -0.18664016469E+04  0.18664016469E+04  0.00000000000E+00 0. -1.
          6    2    1    2  502    0 -0.85813064971E+02  0.83489094704E+03  0.21547536398E+03  0.88334651666E+03  0.17165273210E+03 0.  0.
         24    2    3    3    0    0 -0.52844883710E+02  0.49257796951E+03  0.19891560149E+03  0.53901906888E+03  0.74488269658E+02 0.  0.
         -6    2    1    2    0  501  0.85813064971E+02 -0.83489094704E+03 -0.14124685800E+04  0.16524635612E+04  0.17652636109E+03 0.  0.
        -24    2    5    5    0    0 -0.12787525266E+02 -0.51748744850E+03 -0.82179914619E+03  0.97468813581E+03  0.81892278304E+02 0.  0.
          5    1    3    3  502    0 -0.32968181261E+02  0.34231297753E+03  0.16559762491E+02  0.34432744778E+03  0.47000000000E+01 0. -1.
        -13    1    4    4    0    0 -0.17057032189E+02  0.14270726239E+03  0.22218561255E+02  0.14543029103E+03  0.00000000000E+00 0.  1.
         14    1    4    4    0    0 -0.35787851521E+02  0.34987070712E+03  0.17669704023E+03  0.39358877784E+03  0.00000000000E+00 0. -1.
         -5    1    5    5    0  501  0.98600590236E+02 -0.31740349853E+03 -0.59066943377E+03  0.67777542539E+03  0.47000000000E+01 0.  1.
         11    1    6    6    0    0  0.13065917147E+02 -0.21725767290E+03 -0.41282131533E+03  0.46668303270E+03  0.00000000000E+00 0. -1.
        -12    1    6    6    0    0 -0.25853442412E+02 -0.30022977561E+03 -0.40897783087E+03  0.50800510311E+03  0.00000000000E+00 0.  1.
</event>
<event>
12    1  0.9656379E-001  0.2422727E+03  0.7818608E-02  0.1118288E+00
          1   -1    0    0  502    0  0.00000000000E+00  0.00000000000E+00  0.34736155106E+03  0.34736155106E+03  0.00000000000E+00 0. -1.
         -1   -1    0    0    0  501 -0.00000000000E+00 -0.00000000000E+00 -0.24512786120E+03  0.24512786120E+03  0.00000000000E+00 0.  1.
          6    2    1    2  502    0 -0.16714573257E+03  0.22629636252E+02 -0.11404246058E+03  0.26750735655E+03  0.17350707952E+03 0.  0.
         24    2    3    3    0    0 -0.18445726046E+03 -0.28021348882E+01 -0.69817767668E+02  0.21342984325E+03  0.81519595267E+02 0.  0.
         -6    2    1    2    0  501  0.16714573257E+03 -0.22629636252E+02  0.21627615044E+03  0.32498205571E+03  0.17432202079E+03 0.  0.
        -24    2    5    5    0    0  0.79708849918E+02 -0.60628114504E+02  0.58381342357E+02  0.14047744001E+03  0.79348982301E+02 0.  0.
          5    1    3    3  502    0  0.17311527894E+02  0.25431771140E+02 -0.44224692913E+02  0.54077513298E+02  0.47000000000E+01 0. -1.
        -13    1    4    4    0    0 -0.11564956501E+03  0.28238789461E+02 -0.69687886368E+02  0.13794438236E+03  0.00000000000E+00 0.  1.
         14    1    4    4    0    0 -0.68807695450E+02 -0.31040924349E+02 -0.12988129980E+00  0.75485460896E+02  0.00000000000E+00 0. -1.
         -5    1    5    5    0  501  0.87436882651E+02  0.37998478252E+02  0.15789480808E+03  0.18450461570E+03  0.47000000000E+01 0.  1.
         13    1    6    6    0    0  0.39664561574E+02 -0.52328659827E+02  0.71932590416E+02  0.97395398495E+02  0.00000000000E+00 0. -1.
        -14    1    6    6    0    0  0.40044288344E+02 -0.82994546770E+01 -0.13551248059E+02  0.43082041513E+02  0.00000000000E+00 0.  1.
</event>
<event>
12    1  0.9656379E-001  0.7026460E+03  0.7818608E-02  0.9712718E-01
         -2   -1    0    0    0  501 -0.00000000000E+00  0.00000000000E+00  0.80362216927E+03  0.80362216927E+03  0.00000000000E+00 0.  1.
          2   -1    0    0  502    0  0.00000000000E+00 -0.00000000000E+00 -0.73765884402E+03  0.73765884402E+03  0.00000000000E+00 0. -1.
          6    2    1    2  502    0  0.67610241483E+03 -0.76509896899E+02  0.34801847140E+03  0.78336783609E+03  0.17198857674E+03 0.  0.
         24    2    3    3    0    0  0.25508438876E+03 -0.31051556466E+02  0.19936310382E+03  0.33454365303E+03  0.78368131730E+02 0.  0.
         -6    2    1    2    0  501 -0.67610241483E+03  0.76509896899E+02 -0.28205514616E+03  0.75791317720E+03  0.17863101364E+03 0.  0.
        -24    2    5    5    0    0 -0.33617738921E+03  0.80500935482E+02 -0.20287101711E+03  0.40883271695E+03  0.80572347846E+02 0.  0.
          5    1    3    3  502    0  0.42101802607E+03 -0.45458340433E+02  0.14865536758E+03  0.44882418306E+03  0.47000000000E+01 0. -1.
        -13    1    4    4    0    0  0.16563749628E+03  0.17853621506E+02  0.11898392980E+03  0.20472349041E+03  0.00000000000E+00 0.  1.
         14    1    4    4    0    0  0.89446892475E+02 -0.48905177973E+02  0.80379174024E+02  0.12982016262E+03  0.00000000000E+00 0. -1.
         -5    1    5    5    0  501 -0.33992502562E+03 -0.39910385822E+01 -0.79184129046E+02  0.34908046025E+03  0.47000000000E+01 0.  1.
         11    1    6    6    0    0 -0.12525042099E+03 -0.83549890868E+01 -0.82723849425E+02  0.15033532208E+03  0.00000000000E+00 0. -1.
        -12    1    6    6    0    0 -0.21092696822E+03  0.88855924568E+02 -0.12014716768E+03  0.25849739487E+03  0.00000000000E+00 0.  1.
</event>
<event>
12    1  0.9656379E-001  0.4639970E+03  0.7818608E-02  0.1023628E+00
         -2   -1    0    0    0  501 -0.00000000000E+00  0.00000000000E+00  0.23115045982E+03  0.23115045982E+03  0.00000000000E+00 0.  1.
          2   -1    0    0  502    0  0.00000000000E+00 -0.00000000000E+00 -0.98205771744E+03  0.98205771744E+03  0.00000000000E+00 0. -1.
          6    2    1    2  502    0  0.42917244452E+03  0.50304626231E+02 -0.23829678546E+03  0.52232249935E+03  0.17121884478E+03 0.  0.
         24    2    3    3    0    0  0.16729633513E+03 -0.85480942151E+01 -0.15235962557E+03  0.24045369153E+03  0.80891214617E+02 0.  0.
         -6    2    1    2    0  501 -0.42917244452E+03 -0.50304626231E+02 -0.51261047216E+03  0.69088567791E+03  0.16683519176E+03 0.  0.
        -24    2    5    5    0    0 -0.25643681470E+03  0.29799852706E+02 -0.26584349844E+03  0.37916407988E+03  0.80279279115E+02 0.  0.
          5    1    3    3  502    0  0.26187610939E+03  0.58852720446E+02 -0.85937159885E+02  0.28186880782E+03  0.47000000000E+01 0. -1.
        -13    1    4    4    0    0  0.11407604379E+03  0.21685901018E+02 -0.62906355284E+02  0.13206374069E+03  0.00000000000E+00 0.  1.
         14    1    4    4    0    0  0.53220291349E+02 -0.30233995233E+02 -0.89453270286E+02  0.10838995084E+03  0.00000000000E+00 0. -1.
         -5    1    5    5    0  501 -0.17273562982E+03 -0.80104478937E+02 -0.24676697373E+03  0.31172159803E+03  0.47000000000E+01 0.  1.
         11    1    6    6    0    0 -0.10944119719E+03 -0.17479379911E+02 -0.14812686976E+03  0.18499857813E+03  0.00000000000E+00 0. -1.
        -12    1    6    6    0    0 -0.14699561751E+03  0.47279232617E+02 -0.11771662868E+03  0.19416550175E+03  0.00000000000E+00 0.  1.
</event>
<event>
12    1  0.9656379E-001  0.3477418E+03  0.7818608E-02  0.1063546E+00
         -2   -1    0    0    0  501 -0.00000000000E+00  0.00000000000E+00  0.11244415139E+03  0.11244415139E+03  0.00000000000E+00 0.  1.
          2   -1    0    0  502    0  0.00000000000E+00 -0.00000000000E+00 -0.13415370209E+04  0.13415370209E+04  0.00000000000E+00 0. -1.
          6    2    1    2  502    0  0.24904693048E+03 -0.16887872743E+03 -0.29057656675E+03  0.45306925784E+03  0.17404773224E+03 0.  0.
         24    2    3    3    0    0  0.11199492378E+03 -0.10917397357E+02 -0.96472245046E+02  0.16770350649E+03  0.78457118913E+02 0.  0.
         -6    2    1    2    0  501 -0.24904693048E+03  0.16887872743E+03 -0.93851630271E+03  0.10009119144E+04  0.17454916725E+03 0.  0.
        -24    2    5    5    0    0 -0.19797307401E+03  0.60942082075E+02 -0.69839606341E+03  0.73269804909E+03  0.78626295574E+02 0.  0.
          5    1    3    3  502    0  0.13705200669E+03 -0.15796133007E+03 -0.19410432170E+03  0.28536575134E+03  0.47000000000E+01 0. -1.
        -13    1    4    4    0    0  0.82347099357E+02 -0.38147617000E+02 -0.88310053372E+02  0.12662918693E+03  0.00000000000E+00 0.  1.
         14    1    4    4    0    0  0.29647824425E+02  0.27230219643E+02 -0.81621916742E+01  0.41074319566E+02  0.00000000000E+00 0. -1.
         -5    1    5    5    0  501 -0.51073856461E+02  0.10793664535E+03 -0.24012023931E+03  0.26821386532E+03  0.47000000000E+01 0.  1.
         13    1    6    6    0    0 -0.15056687387E+03  0.44123994604E+02 -0.39257038257E+03  0.42276330929E+03  0.00000000000E+00 0. -1.
        -14    1    6    6    0    0 -0.47406200143E+02  0.16818087471E+02 -0.30582568083E+03  0.30993473980E+03  0.00000000000E+00 0.  1.
</event>
<event>
12    1  0.9656379E-001  0.5220477E+03  0.7818608E-02  0.1008179E+00
          2   -1    0    0  502    0  0.00000000000E+00  0.00000000000E+00  0.11457884871E+04  0.11457884871E+04  0.00000000000E+00 0. -1.
         -2   -1    0    0    0  501 -0.00000000000E+00 -0.00000000000E+00 -0.43875602776E+03  0.43875602776E+03  0.00000000000E+00 0.  1.
          6    2    1    2  502    0 -0.21712975188E+03  0.44233278291E+03 -0.18272260999E+03  0.55276325076E+03  0.17133604177E+03 0.  0.
         24    2    3    3    0    0 -0.18197508475E+03  0.31852014080E+03 -0.19503968617E+03  0.42338310804E+03  0.81503162065E+02 0.  0.
         -6    2    1    2    0  501  0.21712975188E+03 -0.44233278291E+03  0.88975506938E+03  0.10317812641E+04  0.17350756054E+03 0.  0.
        -24    2    5    5    0    0  0.69868383716E+02 -0.13535269916E+03  0.39837055764E+03  0.43394892080E+03  0.80066350329E+02 0.  0.
          5    1    3    3  502    0 -0.35154667128E+02  0.12381264210E+03  0.12317076175E+02  0.12938014272E+03  0.47000000000E+01 0. -1.
        -13    1    4    4    0    0 -0.13650315372E+03  0.28462247964E+03 -0.18471131305E+03  0.36573396897E+03  0.00000000000E+00 0.  1.
         14    1    4    4    0    0 -0.45471931032E+02  0.33897661168E+02 -0.10328373117E+02  0.57649139072E+02  0.00000000000E+00 0. -1.
         -5    1    5    5    0  501  0.14726136816E+03 -0.30698008375E+03  0.49138451174E+03  0.59783234334E+03  0.47000000000E+01 0.  1.
         11    1    6    6    0    0  0.75438419288E+02 -0.76228062823E+02  0.30486725571E+03  0.32318062484E+03  0.00000000000E+00 0. -1.
        -12    1    6    6    0    0 -0.55700355717E+01 -0.59124636336E+02  0.93503301927E+02  0.11076829596E+03  0.00000000000E+00 0.  1.
</event>
<event>
12    1  0.9656379E-001  0.1702404E+03  0.7818608E-02  0.1177597E+00
          1   -1    0    0  502    0  0.00000000000E+00  0.00000000000E+00  0.11185694278E+04  0.11185694278E+04  0.00000000000E+00 0. -1.
         -1   -1    0    0    0  501 -0.00000000000E+00 -0.00000000000E+00 -0.50329243478E+02  0.50329243478E+02  0.00000000000E+00 0.  1.
          6    2    1    2  502    0 -0.14080624019E+00 -0.52188356510E+00  0.12339874799E+03  0.20843415217E+03  0.16797991725E+03 0.  0.
         24    2    3    3    0    0 -0.32465014423E+02  0.32987398452E+02  0.12910418890E+03  0.16129214891E+03  0.84882978792E+02 0.  0.
         -6    2    1    2    0  501  0.14080624019E+00  0.52188356510E+00  0.94484143633E+03  0.96046451910E+03  0.17252959300E+03 0.  0.
        -24    2    5    5    0    0 -0.36566460463E+02 -0.16034233477E+02  0.87531484818E+03  0.87998119847E+03  0.81219600736E+02 0.  0.
          5    1    3    3  502    0  0.32324208183E+02 -0.33509282017E+02 -0.57054409136E+01  0.47142003266E+02  0.47000000000E+01 0. -1.
        -13    1    4    4    0    0  0.41561411708E+01 -0.23339656417E+02  0.12709430286E+02  0.26898748843E+02  0.00000000000E+00 0.  1.
         14    1    4    4    0    0 -0.36621155594E+02  0.56327054869E+02  0.11639475862E+03  0.13439340007E+03  0.00000000000E+00 0. -1.
         -5    1    5    5    0  501  0.36707266703E+02  0.16556117042E+02  0.69526588157E+02  0.80483320639E+02  0.47000000000E+01 0.  1.
         11    1    6    6    0    0  0.20299272521E+02 -0.25711568490E+02  0.33273504660E+03  0.33434376988E+03  0.00000000000E+00 0. -1.
        -12    1    6    6    0    0 -0.56865732984E+02  0.96773350133E+01  0.54257980157E+03  0.54563742859E+03  0.00000000000E+00 0.  1.
</event>
<event>
12    1  0.9656379E-001  0.4225534E+03  0.7818608E-02  0.1036238E+00
          1   -1    0    0  502    0  0.00000000000E+00  0.00000000000E+00  0.21660543872E+03  0.21660543872E+03  0.00000000000E+00 0. -1.
         -1   -1    0    0    0  501 -0.00000000000E+00 -0.00000000000E+00 -0.97438568244E+03  0.97438568244E+03  0.00000000000E+00 0.  1.
          6    2    1    2  502    0 -0.79110752693E+02  0.37807892717E+03 -0.61276012060E+03  0.74445654657E+03  0.17186738486E+03 0.  0.
         24    2    3    3    0    0  0.16383477165E+02  0.21579429601E+03 -0.38139589721E+03  0.44611623198E+03  0.81983324615E+02 0.  0.
         -6    2    1    2    0  501  0.79110752693E+02 -0.37807892717E+03 -0.14502012311E+03  0.44653457459E+03  0.17076329768E+03 0.  0.
        -24    2    5    5    0    0  0.66062038138E+02 -0.28428117925E+03 -0.40632387606E+02  0.30551267633E+03  0.80666118742E+02 0.  0.
          5    1    3    3  502    0 -0.95494229858E+02  0.16228463116E+03 -0.23136422339E+03  0.29834031460E+03  0.47000000000E+01 0. -1.
        -11    1    4    4    0    0  0.95550648380E+01  0.20914111314E+03 -0.38296368403E+03  0.43645445095E+03  0.00000000000E+00 0.  1.
         12    1    4    4    0    0  0.68284123269E+01  0.66531828680E+01  0.15677868187E+01  0.96617810309E+01  0.00000000000E+00 0. -1.
         -5    1    5    5    0  501  0.13048714554E+02 -0.93797747912E+02 -0.10438773551E+03  0.14102189826E+03  0.47000000000E+01 0.  1.
         11    1    6    6    0    0 -0.18081588470E+02 -0.72402392359E+02 -0.14786686426E+02  0.76076910797E+02  0.00000000000E+00 0. -1.
        -12    1    6    6    0    0  0.84143626609E+02 -0.21187878689E+03 -0.25845701181E+02  0.22943576553E+03  0.00000000000E+00 0.  1.
</event>
<event>
12    1  0.9656379E-001  0.2246076E+03  0.7818608E-02  0.1130494E+00
          2   -1    0    0  502    0  0.00000000000E+00  0.00000000000E+00  0.16749000157E+04  0.16749000157E+04  0.00000000000E+00 0. -1.
         -2   -1    0    0    0  501 -0.00000000000E+00 -0.00000000000E+00 -0.42234307182E+02  0.42234307182E+02  0.00000000000E+00 0.  1.
          6    2    1    2  502    0 -0.89306354783E+02 -0.11430657502E+03  0.35665445911E+03  0.42151501665E+03  0.17155432947E+03 0.  0.
         24    2    3    3    0    0 -0.75514081597E+02 -0.67344867080E+02  0.10914704204E+03  0.16917072740E+03  0.80423569815E+02 0.  0.
         -6    2    1    2    0  501  0.89306354783E+02  0.11430657502E+03  0.12760112494E+04  0.12956193062E+04  0.17141487676E+03 0.  0.
        -24    2    5    5    0    0  0.11636931670E+03  0.75375835445E+02  0.11456449539E+04  0.11568192075E+04  0.80653481681E+02 0.  0.
          5    1    3    3  502    0 -0.13792273186E+02 -0.46961707938E+02  0.24750741707E+03  0.25234428925E+03  0.47000000000E+01 0. -1.
        -13    1    4    4    0    0 -0.23690571023E+02 -0.50962858757E+02  0.99059553963E+02  0.11389140160E+03  0.00000000000E+00 0.  1.
         14    1    4    4    0    0 -0.51823510575E+02 -0.16382008323E+02  0.10087488081E+02  0.55279325799E+02  0.00000000000E+00 0. -1.
         -5    1    5    5    0  501 -0.27062961919E+02  0.38930739573E+02  0.13036629548E+03  0.13880009866E+03  0.47000000000E+01 0.  1.
         13    1    6    6    0    0  0.10901755942E+03  0.64278671099E+02  0.11259953609E+04  0.11330852256E+04  0.00000000000E+00 0. -1.
        -14    1    6    6    0    0  0.73517572815E+01  0.11097164347E+02  0.19649593031E+02  0.23733981923E+02  0.00000000000E+00 0.  1.
</event>
<event>
12    1  0.9656379E-001  0.1993315E+03  0.7818608E-02  0.1150304E+00
         -2   -1    0    0    0  501 -0.00000000000E+00  0.00000000000E+00  0.15649773753E+04  0.15649773753E+04  0.00000000000E+00 0.  1.
          2   -1    0    0  502    0  0.00000000000E+00 -0.00000000000E+00 -0.47632083742E+02  0.47632083742E+02  0.00000000000E+00 0. -1.
          6    2    1    2  502    0 -0.74501721581E+02 -0.68506349993E+02  0.13085027917E+04  0.13235123680E+04  0.17106082479E+03 0.  0.
         24    2    3    3    0    0 -0.33160788785E+02  0.29953477389E+02  0.63270472295E+03  0.63931317909E+03  0.80057640491E+02 0.  0.
         -6    2    1    2    0  501  0.74501721581E+02  0.68506349993E+02  0.20884249991E+03  0.28909709112E+03  0.17238999919E+03 0.  0.
        -24    2    5    5    0    0  0.79586190416E+02  0.10122151005E+03  0.20546735220E+03  0.25548734338E+03  0.80481016419E+02 0.  0.
          5    1    3    3  502    0 -0.41340932796E+02 -0.98459827382E+02  0.67579806874E+03  0.68419918887E+03  0.47000000000E+01 0. -1.
        -13    1    4    4    0    0 -0.45039815625E+01  0.11132767520E+02  0.54519275740E+03  0.54532501051E+03  0.00000000000E+00 0.  1.
         14    1    4    4    0    0 -0.28656807223E+02  0.18820709869E+02  0.87511965545E+02  0.93988168584E+02  0.00000000000E+00 0. -1.
         -5    1    5    5    0  501 -0.50844688350E+01 -0.32715160061E+02  0.33751477045E+01  0.33609747740E+02  0.47000000000E+01 0.  1.
         13    1    6    6    0    0  0.56523424789E+01  0.47874324693E+02  0.27431741900E+02  0.55465308112E+02  0.00000000000E+00 0. -1.
        -14    1    6    6    0    0  0.73933847938E+02  0.53347185360E+02  0.17803561031E+03  0.20002203527E+03  0.00000000000E+00 0.  1.
</event>
<event>
12    1  0.9656379E-001  0.6625010E+03  0.7818608E-02  0.9783601E-01
         -1   -1    0    0    0  501 -0.00000000000E+00  0.00000000000E+00  0.16740081357E+04  0.16740081357E+04  0.00000000000E+00 0.  1.
          1   -1    0    0  502    0  0.00000000000E+00 -0.00000000000E+00 -0.14891560778E+04  0.14891560778E+04  0.00000000000E+00 0. -1.
          6    2    1    2  502    0 -0.21201135037E+01 -0.63919102737E+03  0.15280560276E+04  0.16657395973E+04  0.17653191848E+03 0.  0.
         24    2    3    3    0    0 -0.37548318168E+02 -0.33743417783E+03  0.64660839755E+03  0.73338538971E+03  0.66932873013E+02 0.  0.
         -6    2    1    2    0  501  0.21201135037E+01  0.63919102737E+03 -0.13432039697E+04  0.14974246162E+04  0.17179613645E+03 0.  0.
        -24    2    5    5    0    0 -0.12037461157E+02  0.54250593031E+03 -0.10002584458E+04  0.11407985272E+04  0.80291571881E+02 0.  0.
          5    1    3    3  502    0  0.35428204664E+02 -0.30175684954E+03  0.88144763004E+03  0.93235420760E+03  0.47000000000E+01 0. -1.
        -13    1    4    4    0    0 -0.20064801301E+01 -0.11854379509E+03  0.29193915729E+03  0.31509542821E+03  0.00000000000E+00 0.  1.
         14    1    4    4    0    0 -0.35541838038E+02 -0.21889038274E+03  0.35466924026E+03  0.41828996150E+03  0.00000000000E+00 0. -1.
         -5    1    5    5    0  501  0.14157574661E+02  0.96685097062E+02 -0.34294552396E+03  0.35662608894E+03  0.47000000000E+01 0.  1.
         11    1    6    6    0    0 -0.19311991887E+02  0.24697483015E+03 -0.53491835499E+03  0.58949738444E+03  0.00000000000E+00 0. -1.
        -12    1    6    6    0    0  0.72745307294E+01  0.29553110016E+03 -0.46534009078E+03  0.55130114280E+03  0.00000000000E+00 0.  1.
</event>
<event>
12    1  0.9656379E-001  0.2620845E+03  0.7818608E-02  0.1105897E+00
          1   -1    0    0  502    0  0.00000000000E+00  0.00000000000E+00  0.46271332434E+03  0.46271332434E+03  0.00000000000E+00 0. -1.
         -1   -1    0    0    0  501 -0.00000000000E+00 -0.00000000000E+00 -0.16246018691E+03  0.16246018691E+03  0.00000000000E+00 0.  1.
          6    2    1    2  502    0 -0.10004922421E+03  0.17087695324E+03  0.58430904864E+02  0.26872390578E+03  0.17201623901E+03 0.  0.
         24    2    3    3    0    0 -0.66831219954E+02  0.15778794870E+03 -0.11840864459E+02  0.18976208330E+03  0.80659738851E+02 0.  0.
         -6    2    1    2    0  501  0.10004922421E+03 -0.17087695324E+03  0.24182223257E+03  0.35644960546E+03  0.17137546107E+03 0.  0.
        -24    2    5    5    0    0  0.13142968935E+03 -0.17021508721E+03  0.21212651353E+03  0.31298585748E+03  0.81948459903E+02 0.  0.
          5    1    3    3  502    0 -0.33218004252E+02  0.13089004540E+02  0.70271769323E+02  0.78961822485E+02  0.47000000000E+01 0. -1.
        -11    1    4    4    0    0 -0.62533983902E+02  0.14344282930E+03  0.16862654953E+02  0.15738708191E+03  0.00000000000E+00 0.  1.
         12    1    4    4    0    0 -0.42972360521E+01  0.14345119400E+02 -0.28703519412E+02  0.32375001388E+02  0.00000000000E+00 0. -1.
         -5    1    5    5    0  501 -0.31380465148E+02 -0.66186602681E+00  0.29695719039E+02  0.43463747984E+02  0.47000000000E+01 0.  1.
         13    1    6    6    0    0  0.77055603638E+02 -0.47288983514E+02  0.11906190785E+03  0.14949766525E+03  0.00000000000E+00 0. -1.
        -14    1    6    6    0    0  0.54374085716E+02 -0.12292610370E+03  0.93064605678E+02  0.16348819223E+03  0.00000000000E+00 0.  1.
</event>
<event>
12    1  0.9656379E-001  0.4186243E+03  0.7818608E-02  0.1037515E+00
          2   -1    0    0  502    0  0.00000000000E+00  0.00000000000E+00  0.17620348495E+04  0.17620348495E+04  0.00000000000E+00 0. -1.
         -2   -1    0    0    0  501 -0.00000000000E+00 -0.00000000000E+00 -0.13544700904E+04  0.13544700904E+04  0.00000000000E+00 0.  1.
          6    2    1    2  502    0  0.21863456082E+03  0.31288846109E+03 -0.12961856802E+04  0.13619684425E+04  0.17076434243E+03 0.  0.
         24    2    3    3    0    0  0.15248445909E+03  0.11200823102E+03 -0.59573990726E+03  0.63027515050E+03  0.80891125280E+02 0.  0.
         -6    2    1    2    0  501 -0.21863456082E+03 -0.31288846109E+03  0.17037504393E+04  0.17545364974E+04  0.17301011812E+03 0.  0.
        -24    2    5    5    0    0 -0.23095747498E+03 -0.23186479722E+03  0.13994162004E+04  0.14393252868E+04  0.78669815041E+02 0.  0.
          5    1    3    3  502    0  0.66150101731E+02  0.20088023007E+03 -0.70044577294E+03  0.73169329204E+03  0.47000000000E+01 0. -1.
        -11    1    4    4    0    0  0.20030141650E+02  0.16622351439E+01 -0.16650677301E+03  0.16771545861E+03  0.00000000000E+00 0.  1.
         12    1    4    4    0    0  0.13245431744E+03  0.11034599587E+03 -0.42923313425E+03  0.46255969188E+03  0.00000000000E+00 0. -1.
         -5    1    5    5    0  501  0.12322914157E+02 -0.81023663875E+02  0.30433423885E+03  0.31521121055E+03  0.47000000000E+01 0.  1.
         11    1    6    6    0    0 -0.16900748743E+03 -0.14040605770E+03  0.10546428812E+04  0.10772877976E+04  0.00000000000E+00 0. -1.
        -12    1    6    6    0    0 -0.61949987548E+02 -0.91458739519E+02  0.34477331918E+03  0.36203748924E+03  0.00000000000E+00 0.  1.
</event>
<event>
12    1  0.9656379E-001  0.2494835E+03  0.7818608E-02  0.1113632E+00
         -2   -1    0    0    0  501 -0.00000000000E+00  0.00000000000E+00  0.36133481686E+02  0.36133481686E+02  0.00000000000E+00 0.  1.
          2   -1    0    0  502    0  0.00000000000E+00 -0.00000000000E+00 -0.19552648298E+04  0.19552648298E+04  0.00000000000E+00 0. -1.
          6    2    1    2  502    0 -0.20531745438E+01  0.18065881544E+03 -0.61646397464E+03  0.66507808356E+03  0.17221847195E+03 0.  0.
         24    2    3    3    0    0 -0.65885710576E+02  0.12859562608E+03 -0.36609996719E+03  0.40146967214E+03  0.79189328633E+02 0.  0.
         -6    2    1    2    0  501  0.20531745438E+01 -0.18065881544E+03 -0.13026673734E+04  0.13263202279E+04  0.17187564681E+03 0.  0.
        -24    2    5    5    0    0 -0.12776580055E+02 -0.20304999166E+03 -0.12132955668E+04  0.12328820333E+04  0.80743020760E+02 0.  0.
          5    1    3    3  502    0  0.63832536033E+02  0.52063189356E+02 -0.25036400745E+03  0.26360841141E+03  0.47000000000E+01 0. -1.
        -11    1    4    4    0    0 -0.92307489084E+01  0.54865956877E+02 -0.23003871472E+03  0.23667127038E+03  0.00000000000E+00 0.  1.
         12    1    4    4    0    0 -0.56654961668E+02  0.73729669207E+02 -0.13606125247E+03  0.16479840177E+03  0.00000000000E+00 0. -1.
         -5    1    5    5    0  501  0.14829754598E+02  0.22391176221E+02 -0.89371806584E+02  0.93438194579E+02  0.47000000000E+01 0.  1.
         11    1    6    6    0    0  0.11492266425E+02 -0.19023674300E+03 -0.10205982283E+04  0.10382402584E+04  0.00000000000E+00 0. -1.
        -12    1    6    6    0    0 -0.24268846479E+02 -0.12813248664E+02 -0.19269733856E+03  0.19464177491E+03  0.00000000000E+00 0.  1.
</event>
<event>
12    1  0.9656379E-001  0.3126849E+03  0.7818608E-02  0.1079066E+00
          1   -1    0    0  502    0  0.00000000000E+00  0.00000000000E+00  0.13742726252E+04  0.13742726252E+04  0.00000000000E+00 0. -1.
         -1   -1    0    0    0  501 -0.00000000000E+00 -0.00000000000E+00 -0.40157187588E+03  0.40157187588E+03  0.00000000000E+00 0.  1.
          6    2    1    2  502    0 -0.25242641633E+03  0.66502878977E+02 -0.31903977300E+03  0.44683726457E+03  0.17243965808E+03 0.  0.
         24    2    3    3    0    0 -0.17867300619E+03  0.11091329626E+03 -0.21841027525E+03  0.31432222207E+03  0.82883101574E+02 0.  0.
         -6    2    1    2    0  501  0.25242641633E+03 -0.66502878977E+02  0.12917405224E+04  0.13290072365E+04  0.17182819654E+03 0.  0.
        -24    2    5    5    0    0  0.17735764842E+03 -0.88323137332E+02  0.70234863163E+03  0.73443484025E+03  0.82729814296E+02 0.  0.
          5    1    3    3  502    0 -0.73753410139E+02 -0.44410417281E+02 -0.10062949775E+03  0.13251504250E+03  0.47000000000E+01 0. -1.
        -11    1    4    4    0    0 -0.12096908009E+03  0.28625370248E+02 -0.10436726669E+03  0.16231283534E+03  0.00000000000E+00 0.  1.
         12    1    4    4    0    0 -0.57703926107E+02  0.82287926009E+02 -0.11404300856E+03  0.15200938674E+03  0.00000000000E+00 0. -1.
         -5    1    5    5    0  501  0.75068767915E+02  0.21820258355E+02  0.58939189073E+03  0.59457239630E+03  0.47000000000E+01 0.  1.
         13    1    6    6    0    0  0.14248596745E+03 -0.65823599810E+02  0.64388696028E+03  0.66274083534E+03  0.00000000000E+00 0. -1.
        -14    1    6    6    0    0  0.34871680963E+02 -0.22499537522E+02  0.58461671354E+02  0.71694004906E+02  0.00000000000E+00 0.  1.
</event>
<event>
12    1  0.9656379E-001  0.2760894E+03  0.7818608E-02  0.1097844E+00
          1   -1    0    0  502    0  0.00000000000E+00  0.00000000000E+00  0.95019065013E+03  0.95019065013E+03  0.00000000000E+00 0. -1.
         -1   -1    0    0    0  501 -0.00000000000E+00 -0.00000000000E+00 -0.80289709572E+02  0.80289709572E+02  0.00000000000E+00 0.  1.
          6    2    1    2  502    0 -0.20793113380E+03 -0.54902754935E+02  0.41873279618E+03  0.50113212173E+03  0.17189118632E+03 0.  0.
         24    2    3    3    0    0 -0.18682132043E+03 -0.36351289821E+02  0.42464762876E+03  0.47203132582E+03  0.79147595666E+02 0.  0.
         -6    2    1    2    0  501  0.20793113380E+03  0.54902754935E+02  0.45116814438E+03  0.52934823797E+03  0.17437658569E+03 0.  0.
        -24    2    5    5    0    0  0.40832059918E+02  0.50759481118E+02  0.15576533321E+03  0.18990136723E+03  0.86924727235E+02 0.  0.
          5    1    3    3  502    0 -0.21109813370E+02 -0.18551465113E+02 -0.59148325861E+01  0.29100795915E+02  0.47000000000E+01 0. -1.
        -11    1    4    4    0    0 -0.16645516463E+03 -0.22732524327E+02  0.28978918845E+03  0.33496546573E+03  0.00000000000E+00 0.  1.
         12    1    4    4    0    0 -0.20366155801E+02 -0.13618765494E+02  0.13485844032E+03  0.13706586008E+03  0.00000000000E+00 0. -1.
         -5    1    5    5    0  501  0.16709907388E+03  0.41432738167E+01  0.29540281117E+03  0.33944687074E+03  0.47000000000E+01 0.  1.
         11    1    6    6    0    0  0.34131594392E+01  0.47714435518E+02  0.14212195872E+03  0.14995655426E+03  0.00000000000E+00 0. -1.
        -12    1    6    6    0    0  0.37418900479E+02  0.30450455995E+01  0.13643374487E+02  0.39944812970E+02  0.00000000000E+00 0.  1.
</event>
<event>
12    1  0.9656379E-001  0.4666569E+03  0.7818608E-02  0.1022868E+00
          2   -1    0    0  502    0  0.00000000000E+00  0.00000000000E+00  0.19791361615E+04  0.19791361615E+04  0.00000000000E+00 0. -1.
         -2   -1    0    0    0  501 -0.00000000000E+00 -0.00000000000E+00 -0.17613173839E+03  0.17613173839E+03  0.00000000000E+00 0.  1.
          6    2    1    2  502    0 -0.42247667837E+03 -0.10501226259E+03  0.15632485126E+04  0.16317924131E+04  0.17171618557E+03 0.  0.
         24    2    3    3    0    0 -0.37506935744E+03 -0.12337677369E+03  0.14818185050E+04  0.15356797423E+04  0.81408465137E+02 0.  0.
         -6    2    1    2    0  501  0.42247667837E+03  0.10501226259E+03  0.23975591052E+03  0.52347548675E+03  0.16440671988E+03 0.  0.
        -24    2    5    5    0    0  0.17468502023E+03  0.93028686144E+02  0.13985126551E+03  0.25599214140E+03  0.82488831085E+02 0.  0.
          5    1    3    3  502    0 -0.47407320930E+02  0.18364511103E+02  0.81430007632E+02  0.96112670803E+02  0.47000000000E+01 0. -1.
        -13    1    4    4    0    0 -0.25531547330E+03 -0.63932014820E+02  0.11027731022E+04  0.11337468008E+04  0.00000000000E+00 0.  1.
         14    1    4    4    0    0 -0.11975388414E+03 -0.59444758871E+02  0.37904540278E+03  0.40193294153E+03  0.00000000000E+00 0. -1.
         -5    1    5    5    0  501  0.24779165814E+03  0.11983576444E+02  0.99904645011E+02  0.26748334536E+03  0.47000000000E+01 0.  1.
         13    1    6    6    0    0  0.17592916825E+03  0.68690624851E+02  0.13188095685E+03  0.23035203703E+03  0.00000000000E+00 0. -1.
        -14    1    6    6    0    0 -0.12441480223E+01  0.24338061293E+02  0.79703086602E+01  0.25640104367E+02  0.00000000000E+00 0.  1.
</event>
<event>
12    1  0.9656379E-001  0.6696233E+03  0.7818608E-02  0.9770639E-01
         -2   -1    0    0    0  501 -0.00000000000E+00  0.00000000000E+00  0.17438291558E+03  0.17438291558E+03  0.00000000000E+00 0.  1.
          2   -1    0    0  502    0  0.00000000000E+00 -0.00000000000E+00 -0.30960086726E+04  0.30960086726E+04  0.00000000000E+00 0. -1.
          6    2    1    2  502    0 -0.52464896501E+03  0.37902920480E+03 -0.78762464150E+03  0.10337917884E+04  0.17161937917E+03 0.  0.
         24    2    3    3    0    0 -0.47774807437E+03  0.36732617550E+03 -0.65264673413E+03  0.89034221569E+03  0.59914603262E+02 0.  0.
         -6    2    1    2    0  501  0.52464896501E+03 -0.37902920480E+03 -0.21340011155E+04  0.22365997998E+04  0.17175048390E+03 0.  0.
        -24    2    5    5    0    0  0.19110588514E+03 -0.86137836254E+02 -0.77353235267E+03  0.80553946401E+03  0.81242484458E+02 0.  0.
          5    1    3    3  502    0 -0.46900890638E+02  0.11703029299E+02 -0.13497790736E+03  0.14344957272E+03  0.47000000000E+01 0. -1.
        -11    1    4    4    0    0 -0.26970644942E+03  0.19745552087E+03 -0.40378087645E+03  0.52418436430E+03  0.00000000000E+00 0.  1.
         12    1    4    4    0    0 -0.20804162495E+03  0.16987065463E+03 -0.24886585768E+03  0.36615785139E+03  0.00000000000E+00 0. -1.
         -5    1    5    5    0  501  0.33354307987E+03 -0.29289136855E+03 -0.13604687629E+04  0.14310603358E+04  0.47000000000E+01 0.  1.
         13    1    6    6    0    0  0.15312494190E+03 -0.93115938953E+02 -0.69885876357E+03  0.72147168852E+03  0.00000000000E+00 0. -1.
        -14    1    6    6    0    0  0.37980943237E+02  0.69781026994E+01 -0.74673589098E+02  0.84067775487E+02  0.00000000000E+00 0.  1.
</event>
<event>
12    1  0.9656379E-001  0.2761561E+03  0.7818608E-02  0.1097807E+00
         -2   -1    0    0    0  501 -0.00000000000E+00  0.00000000000E+00  0.45378535849E+03  0.45378535849E+03  0.00000000000E+00 0.  1.
          2   -1    0    0  502    0  0.00000000000E+00 -0.00000000000E+00 -0.45247254803E+03  0.45247254803E+03  0.00000000000E+00 0. -1.
          6    2    1    2  502    0  0.12536356491E+03  0.17683045928E+03  0.35990618778E+03  0.45291833542E+03  0.16916713576E+03 0.  0.
         24    2    3    3    0    0  0.12428837663E+03  0.10352237702E+03  0.16401254387E+03  0.24370160407E+03  0.79535364266E+02 0.  0.
         -6    2    1    2    0  501 -0.12536356491E+03 -0.17683045928E+03 -0.35859337733E+03  0.45333957110E+03  0.17303907572E+03 0.  0.
        -24    2    5    5    0    0 -0.30539458182E+02 -0.16804454340E+02 -0.14980648258E+03  0.17367192747E+03  0.80653009725E+02 0.  0.
          5    1    3    3  502    0  0.10751882805E+01  0.73308082267E+02  0.19589364391E+03  0.20921673136E+03  0.47000000000E+01 0. -1.
        -11    1    4    4    0    0  0.73131797676E+02  0.33049087712E+02  0.12438154934E+03  0.14802456501E+03  0.00000000000E+00 0.  1.
         12    1    4    4    0    0  0.51156578951E+02  0.70473289306E+02  0.39630994539E+02  0.95677039063E+02  0.00000000000E+00 0. -1.
         -5    1    5    5    0  501 -0.94824106725E+02 -0.16002600494E+03 -0.20878689475E+03  0.27966764363E+03  0.47000000000E+01 0.  1.
         13    1    6    6    0    0 -0.40606915362E+02 -0.36335749756E+02 -0.13876537958E+03  0.14908064548E+03  0.00000000000E+00 0. -1.
        -14    1    6    6    0    0  0.10067457180E+02  0.19531295416E+02 -0.11041102994E+02  0.24591281993E+02  0.00000000000E+00 0.  1.
</event>
<event>
12    1  0.9656379E-001  0.4021599E+03  0.7818608E-02  0.1043034E+00
          2   -1    0    0  502    0  0.00000000000E+00  0.00000000000E+00  0.22251631308E+04  0.22251631308E+04  0.00000000000E+00 0. -1.
         -2   -1    0    0    0  501 -0.00000000000E+00 -0.00000000000E+00 -0.17443222329E+03  0.17443222329E+03  0.00000000000E+00 0.  1.
          6    2    1    2  502    0  0.28666276104E+03 -0.22244744300E+03  0.10874558204E+03  0.41635363700E+03  0.17281882411E+03 0.  0.
         24    2    3    3    0    0  0.29138971648E+03 -0.17409268657E+03  0.73128484086E+02  0.35592852431E+03  0.78237515591E+02 0.  0.
         -6    2    1    2    0  501 -0.28666276104E+03  0.22244744300E+03  0.19419853254E+04  0.19832417171E+04  0.17401810434E+03 0.  0.
        -24    2    5    5    0    0 -0.27876500486E+03  0.15082876099E+03  0.16708590300E+04  0.17026652244E+04  0.82702630784E+02 0.  0.
          5    1    3    3  502    0 -0.47269554371E+01 -0.48354756431E+02  0.35617097957E+02  0.60425112694E+02  0.47000000000E+01 0. -1.
        -13    1    4    4    0    0  0.10804400751E+03 -0.28908477860E+02  0.44268783892E+02  0.12028687741E+03  0.00000000000E+00 0.  1.
         14    1    4    4    0    0  0.18334570897E+03 -0.14518420871E+03  0.28859700194E+02  0.23564164690E+03  0.00000000000E+00 0. -1.
         -5    1    5    5    0  501 -0.78977561813E+01  0.71618682016E+02  0.27112629548E+03  0.28057649272E+03  0.47000000000E+01 0.  1.
         11    1    6    6    0    0 -0.46798073537E+02 -0.22019901578E+01  0.17224452159E+03  0.17850233518E+03  0.00000000000E+00 0. -1.
        -12    1    6    6    0    0 -0.23196693132E+03  0.15303075114E+03  0.14986145084E+04  0.15241628892E+04  0.00000000000E+00 0.  1.
</event>
<event>
12    1  0.9656379E-001  0.1548076E+04  0.7818608E-02  0.8853098E-01
         -2   -1    0    0    0  501 -0.00000000000E+00  0.00000000000E+00  0.59878495915E+03  0.59878495915E+03  0.00000000000E+00 0.  1.
          2   -1    0    0  502    0  0.00000000000E+00 -0.00000000000E+00 -0.40128933471E+04  0.40128933471E+04  0.00000000000E+00 0. -1.
          6    2    1    2  502    0  0.11665939010E+04 -0.10028712856E+04 -0.15887682142E+04  0.22182587196E+04  0.17261275531E+03 0.  0.
         24    2    3    3    0    0  0.11310753949E+04 -0.96563115214E+03 -0.14896311810E+04  0.21064614335E+04  0.80022776521E+02 0.  0.
         -6    2    1    2    0  501 -0.11665939010E+04  0.10028712856E+04 -0.18253401738E+04  0.23934195867E+04  0.17291160271E+03 0.  0.
        -24    2    5    5    0    0 -0.10554236359E+04  0.93544787614E+03 -0.17221740116E+04  0.22273771493E+04  0.79648343835E+02 0.  0.
          5    1    3    3  502    0  0.35518506145E+02 -0.37240133498E+02 -0.99137033204E+02  0.11179728608E+03  0.47000000000E+01 0. -1.
        -11    1    4    4    0    0  0.94374901527E+03 -0.77757364856E+03 -0.12542503754E+04  0.17516926063E+04  0.00000000000E+00 0.  1.
         12    1    4    4    0    0  0.18732637960E+03 -0.18805750358E+03 -0.23538080560E+03  0.35476882725E+03  0.00000000000E+00 0. -1.
         -5    1    5    5    0  501 -0.11117026515E+03  0.67423409500E+02 -0.10316616221E+03  0.16604243743E+03  0.47000000000E+01 0.  1.
         13    1    6    6    0    0 -0.41928809187E+03  0.42397635891E+03 -0.72142133977E+03  0.93595256631E+03  0.00000000000E+00 0. -1.
        -14    1    6    6    0    0 -0.63613554398E+03  0.51147151722E+03 -0.10007526718E+04  0.12914245829E+04  0.00000000000E+00 0.  1.
</event>
<event>
12    1  0.9656379E-001  0.8005445E+03  0.7818608E-02  0.9559229E-01
          1   -1    0    0  502    0  0.00000000000E+00  0.00000000000E+00  0.26669934082E+04  0.26669934082E+04  0.00000000000E+00 0. -1.
         -1   -1    0    0    0  501 -0.00000000000E+00 -0.00000000000E+00 -0.30964451273E+03  0.30964451273E+03  0.00000000000E+00 0.  1.
          6    2    1    2  502    0 -0.70923158213E+03  0.32859811187E+03  0.47403517097E+03  0.93013587782E+03  0.17163115008E+03 0.  0.
         24    2    3    3    0    0 -0.46330097589E+03  0.24409726831E+03  0.38628474937E+03  0.65564638414E+03  0.80156115097E+02 0.  0.
         -6    2    1    2    0  501  0.70923158213E+03 -0.32859811187E+03  0.18833137245E+04  0.20465020431E+04  0.17410879160E+03 0.  0.
        -24    2    5    5    0    0  0.24307412143E+03 -0.64452412377E+02  0.66481892731E+03  0.71540197568E+03  0.81096477834E+02 0.  0.
          5    1    3    3  502    0 -0.24593060625E+03  0.84500843563E+02  0.87750421599E+02  0.27448949368E+03  0.47000000000E+01 0. -1.
        -11    1    4    4    0    0 -0.34267487289E+03  0.20612329854E+03  0.26034720631E+03  0.47717245367E+03  0.00000000000E+00 0.  1.
         12    1    4    4    0    0 -0.12062610300E+03  0.37973969766E+02  0.12593754306E+03  0.17847393047E+03  0.00000000000E+00 0. -1.
         -5    1    5    5    0  501  0.46615746071E+03 -0.26414569949E+03  0.12184947972E+04  0.13311000674E+04  0.47000000000E+01 0.  1.
         11    1    6    6    0    0  0.11791467703E+03 -0.17106986540E+02  0.21158419947E+03  0.24282585017E+03  0.00000000000E+00 0. -1.
        -12    1    6    6    0    0  0.12515944439E+03 -0.47345425837E+02  0.45323472785E+03  0.47257612550E+03  0.00000000000E+00 0.  1.
</event>
<event>
12    1  0.9656379E-001  0.2672623E+03  0.7818608E-02  0.1102857E+00
          1   -1    0    0  502    0  0.00000000000E+00  0.00000000000E+00  0.96386480669E+03  0.96386480669E+03  0.00000000000E+00 0. -1.
         -1   -1    0    0    0  501 -0.00000000000E+00 -0.00000000000E+00 -0.22485634785E+03  0.22485634785E+03  0.00000000000E+00 0.  1.
          6    2    1    2  502    0  0.96077371960E+02  0.18057362582E+03 -0.11717349501E+03  0.29178291236E+03  0.17195913547E+03 0.  0.
         24    2    3    3    0    0  0.63188807335E+02  0.74039356152E+02 -0.12802263410E+03  0.17966243200E+03  0.80088344971E+02 0.  0.
         -6    2    1    2    0  501 -0.96077371960E+02 -0.18057362582E+03  0.85618195385E+03  0.89693824218E+03  0.17208421323E+03 0.  0.
        -24    2    5    5    0    0 -0.34927703272E+02 -0.12244231369E+03  0.31384906660E+03  0.34806158753E+03  0.80209522311E+02 0.  0.
          5    1    3    3  502    0  0.32888564625E+02  0.10653426967E+03  0.10849139090E+02  0.11212048036E+03  0.47000000000E+01 0. -1.
        -11    1    4    4    0    0  0.19400275850E+02  0.75807736444E+02 -0.10247495195E+03  0.12893525269E+03  0.00000000000E+00 0.  1.
         12    1    4    4    0    0  0.43788531484E+02 -0.17683802924E+01 -0.25547682149E+02  0.50727179318E+02  0.00000000000E+00 0. -1.
         -5    1    5    5    0  501 -0.61149668688E+02 -0.58131312129E+02  0.54233288724E+03  0.54887665465E+03  0.47000000000E+01 0.  1.
         13    1    6    6    0    0 -0.17796267577E+02 -0.12536596115E+03  0.30068755114E+03  0.32626114504E+03  0.00000000000E+00 0. -1.
        -14    1    6    6    0    0 -0.17131435696E+02  0.29236474582E+01  0.13161515468E+02  0.21800442493E+02  0.00000000000E+00 0.  1.
</event>
<event>
12    1  0.9656379E-001  0.5371575E+03  0.7818608E-02  0.1004511E+00
         -2   -1    0    0    0  501 -0.00000000000E+00  0.00000000000E+00  0.17324769650E+03  0.17324769650E+03  0.00000000000E+00 0.  1.
          2   -1    0    0  502    0  0.00000000000E+00 -0.00000000000E+00 -0.17818664529E+04  0.17818664529E+04  0.00000000000E+00 0. -1.
          6    2    1    2  502    0  0.45326494148E+03  0.22869816421E+03 -0.55203339198E+03  0.76903092778E+03  0.17004630115E+03 0.  0.
         24    2    3    3    0    0  0.41282047368E+03  0.18275384747E+03 -0.53653338107E+03  0.70571445634E+03  0.79656215308E+02 0.  0.
         -6    2    1    2    0  501 -0.45326494148E+03 -0.22869816421E+03 -0.10565853644E+04  0.11860832216E+04  0.18074517646E+03 0.  0.
        -24    2    5    5    0    0 -0.83206970746E+02 -0.67630922121E+02 -0.24956017495E+03  0.28375439873E+03  0.82091024295E+02 0.  0.
          5    1    3    3  502    0  0.40444467803E+02  0.45944316746E+02 -0.15500010906E+02  0.63316471437E+02  0.47000000000E+01 0. -1.
        -13    1    4    4    0    0  0.17066415306E+03  0.47265276134E+02 -0.16539463904E+03  0.24231311580E+03  0.00000000000E+00 0.  1.
         14    1    4    4    0    0  0.24215632062E+03  0.13548857133E+03 -0.37113874203E+03  0.46340134054E+03  0.00000000000E+00 0. -1.
         -5    1    5    5    0  501 -0.37005797074E+03 -0.16106724209E+03 -0.80702518943E+03  0.90232882285E+03  0.47000000000E+01 0.  1.
         11    1    6    6    0    0 -0.15442921109E+02 -0.38588283349E+02 -0.17116116438E+03  0.17613541273E+03  0.00000000000E+00 0. -1.
        -12    1    6    6    0    0 -0.67764049637E+02 -0.29042638772E+02 -0.78399010567E+02  0.10761898600E+03  0.00000000000E+00 0.  1.
</event>
<event>
12    1  0.9656379E-001  0.3154948E+03  0.7818608E-02  0.1077742E+00
         -2   -1    0    0    0  501 -0.00000000000E+00  0.00000000000E+00  0.92656899512E+02  0.92656899512E+02  0.00000000000E+00 0.  1.
          2   -1    0    0  502    0  0.00000000000E+00 -0.00000000000E+00 -0.13100921107E+04  0.13100921107E+04  0.00000000000E+00 0. -1.
          6    2    1    2  502    0 -0.12925172147E+02  0.26656546259E+03 -0.31340996583E+03  0.44572124503E+03  0.17093102605E+03 0.  0.
         24    2    3    3    0    0  0.31163935998E+02  0.19160430866E+03 -0.14190190149E+03  0.25336706600E+03  0.79845591504E+02 0.  0.
         -6    2    1    2    0  501  0.12925172147E+02 -0.26656546259E+03 -0.90402524535E+03  0.95702776517E+03  0.16557866157E+03 0.  0.
        -24    2    5    5    0    0  0.17506951671E+01 -0.17523567795E+03 -0.39252681371E+03  0.43729828355E+03  0.80261332889E+02 0.  0.
          5    1    3    3  502    0 -0.44089108145E+02  0.74961153928E+02 -0.17150806434E+03  0.19235417903E+03  0.47000000000E+01 0. -1.
        -11    1    4    4    0    0  0.36768481561E+02  0.28482570909E+02 -0.27250859679E+02  0.53905356274E+02  0.00000000000E+00 0.  1.
         12    1    4    4    0    0 -0.56045455628E+01  0.16312173775E+03 -0.11465104181E+03  0.19946170972E+03  0.00000000000E+00 0. -1.
         -5    1    5    5    0  501  0.11174476980E+02 -0.91329784643E+02 -0.51149843164E+03  0.51972948162E+03  0.47000000000E+01 0.  1.
         11    1    6    6    0    0  0.40916731612E+02 -0.94268582730E+02 -0.20477130313E+03  0.22911139474E+03  0.00000000000E+00 0. -1.
        -12    1    6    6    0    0 -0.39166036444E+02 -0.80967095217E+02 -0.18775551058E+03  0.20818688881E+03  0.00000000000E+00 0.  1.
</event>
<event>
12    1  0.9656379E-001  0.5507429E+03  0.7818608E-02  0.1001322E+00
          2   -1    0    0  502    0  0.00000000000E+00  0.00000000000E+00  0.12447282705E+04  0.12447282705E+04  0.00000000000E+00 0. -1.
         -2   -1    0    0    0  501 -0.00000000000E+00 -0.00000000000E+00 -0.10280450745E+04  0.10280450745E+04  0.00000000000E+00 0.  1.
          6    2    1    2  502    0  0.19599740567E+03  0.48521006292E+03 -0.88426066464E+03  0.10418334428E+04  0.17220978855E+03 0.  0.
         24    2    3    3    0    0  0.87233248939E+02  0.26020680645E+03 -0.34880004762E+03  0.45090513105E+03  0.79603656653E+02 0.  0.
         -6    2    1    2    0  501 -0.19599740567E+03 -0.48521006292E+03  0.11009438607E+04  0.12309399022E+04  0.17114867874E+03 0.  0.
        -24    2    5    5    0    0 -0.60038537115E+02 -0.27673631003E+03  0.48249519442E+03  0.56427134706E+03  0.73572612112E+02 0.  0.
          5    1    3    3  502    0  0.10876415674E+03  0.22500325647E+03 -0.53546061702E+03  0.59092831172E+03  0.47000000000E+01 0. -1.
        -13    1    4    4    0    0  0.98736877229E+02  0.23915117166E+03 -0.29748732336E+03  0.39426001749E+03  0.00000000000E+00 0.  1.
         14    1    4    4    0    0 -0.11503628290E+02  0.21055634788E+02 -0.51312724260E+02  0.56645113568E+02  0.00000000000E+00 0. -1.
         -5    1    5    5    0  501 -0.13595886856E+03 -0.20847375288E+03  0.61844866630E+03  0.66666855515E+03  0.47000000000E+01 0.  1.
         11    1    6    6    0    0 -0.12327329534E+02 -0.14052942295E+03  0.30077058330E+03  0.33220991187E+03  0.00000000000E+00 0. -1.
        -12    1    6    6    0    0 -0.47711207581E+02 -0.13620688708E+03  0.18172461112E+03  0.23206143519E+03  0.00000000000E+00 0.  1.
</event>
<event>
12    1  0.9656379E-001  0.2205640E+04  0.7818608E-02  0.8516084E-01
          1   -1    0    0  502    0  0.00000000000E+00  0.00000000000E+00  0.27919586884E+04  0.27919586884E+04  0.00000000000E+00 0. -1.
         -1   -1    0    0    0  501 -0.00000000000E+00 -0.00000000000E+00 -0.17491672810E+04  0.17491672810E+04  0.00000000000E+00 0.  1.
          6    2    1    2  502    0  0.20733137511E+04 -0.73109850214E+03  0.38057671949E+03  0.22377949746E+04  0.17248993723E+03 0.  0.
         24    2    3    3    0    0  0.13029638696E+04 -0.50763089742E+03  0.28974619184E+03  0.14305471904E+04  0.84311534043E+02 0.  0.
         -6    2    1    2    0  501 -0.20733137511E+04  0.73109850214E+03  0.66221468798E+03  0.23033309948E+04  0.18349509107E+03 0.  0.
        -24    2    5    5    0    0 -0.85457685035E+03  0.36433226685E+03  0.24239143304E+03  0.96314042630E+03  0.76460971331E+02 0.  0.
          5    1    3    3  502    0  0.77034988156E+03 -0.22346760472E+03  0.90830527645E+02  0.80724778422E+03  0.47000000000E+01 0. -1.
        -13    1    4    4    0    0  0.22400924715E+03 -0.71507260064E+02  0.20460490298E+02  0.23603402872E+03  0.00000000000E+00 0.  1.
         14    1    4    4    0    0  0.10789546224E+04 -0.43612363736E+03  0.26928570154E+03  0.11945131616E+04  0.00000000000E+00 0. -1.
         -5    1    5    5    0  501 -0.12187369008E+04  0.36676623529E+03  0.41982325493E+03  0.13401905685E+04  0.47000000000E+01 0.  1.
         13    1    6    6    0    0 -0.43864249446E+03  0.15983320183E+03  0.91744588472E+02  0.47578457296E+03  0.00000000000E+00 0. -1.
        -14    1    6    6    0    0 -0.41593435589E+03  0.20449906503E+03  0.15064684457E+03  0.48735585334E+03  0.00000000000E+00 0.  1.
</event>
<event>
12    1  0.9656379E-001  0.2219362E+03  0.7818608E-02  0.1132448E+00
          1   -1    0    0  502    0  0.00000000000E+00  0.00000000000E+00  0.21202979289E+03  0.21202979289E+03  0.00000000000E+00 0. -1.
         -1   -1    0    0    0  501 -0.00000000000E+00 -0.00000000000E+00 -0.80318720400E+03  0.80318720400E+03  0.00000000000E+00 0.  1.
          6    2    1    2  502    0 -0.13422362036E+03 -0.39064692593E+02 -0.72317065133E+03  0.75618977743E+03  0.17118749392E+03 0.  0.
         24    2    3    3    0    0 -0.14792031723E+03 -0.39226010047E+02 -0.72364237418E+03  0.74170053830E+03  0.55157072897E+02 0.  0.
         -6    2    1    2    0  501  0.13422362036E+03  0.39064692593E+02  0.13201324021E+03  0.25902721946E+03  0.17356720416E+03 0.  0.
        -24    2    5    5    0    0  0.15360785918E+03  0.52932373726E+02  0.14542204451E+03  0.23127929473E+03  0.77105969623E+02 0.  0.
          5    1    3    3  502    0  0.13696696860E+02  0.16131745478E+00  0.47172285057E+00  0.14489239133E+02  0.47000000000E+01 0. -1.
        -13    1    4    4    0    0 -0.13218359713E+03 -0.44208162063E+02 -0.55428525892E+03  0.57154091122E+03  0.00000000000E+00 0.  1.
         14    1    4    4    0    0 -0.15736720100E+02  0.49821520159E+01 -0.16935711526E+03  0.17015962708E+03  0.00000000000E+00 0. -1.
         -5    1    5    5    0  501 -0.19384238813E+02 -0.13867681133E+02 -0.13408804297E+02  0.27747924734E+02  0.47000000000E+01 0.  1.
         11    1    6    6    0    0  0.70325025265E+02  0.64186565637E+02  0.86535070023E+02  0.12866173763E+03  0.00000000000E+00 0. -1.
        -12    1    6    6    0    0  0.83282833913E+02 -0.11254191912E+02  0.58886974487E+02  0.10261755710E+03  0.00000000000E+00 0.  1.
</event>
<event>
12    1  0.9656379E-001  0.4750678E+03  0.7818608E-02  0.1020500E+00
          1   -1    0    0  502    0  0.00000000000E+00  0.00000000000E+00  0.92700021417E+03  0.92700021417E+03  0.00000000000E+00 0. -1.
         -1   -1    0    0    0  501 -0.00000000000E+00 -0.00000000000E+00 -0.27238046339E+03  0.27238046339E+03  0.00000000000E+00 0.  1.
          6    2    1    2  502    0 -0.41146934594E+03 -0.16192239367E+03  0.13198039203E+03  0.49317111981E+03  0.17399150932E+03 0.  0.
         24    2    3    3    0    0 -0.35724370721E+03 -0.10367131538E+03  0.58531299666E+02  0.38477154791E+03  0.79072264880E+02 0.  0.
         -6    2    1    2    0  501  0.41146934594E+03  0.16192239367E+03  0.52263935875E+03  0.70620955775E+03  0.17336134493E+03 0.  0.
        -24    2    5    5    0    0  0.18155392180E+03  0.28932443693E+02  0.29756835647E+03  0.35803363221E+03  0.76434561587E+02 0.  0.
          5    1    3    3  502    0 -0.54225638733E+02 -0.58251078293E+02  0.73449092364E+02  0.10839957190E+03  0.47000000000E+01 0. -1.
        -13    1    4    4    0    0 -0.26514817027E+03 -0.96252125433E+02  0.14574711095E+02  0.28245432560E+03  0.00000000000E+00 0.  1.
         14    1    4    4    0    0 -0.92095536935E+02 -0.74191899472E+01  0.43956588570E+02  0.10231722231E+03  0.00000000000E+00 0. -1.
         -5    1    5    5    0  501  0.22991542414E+03  0.13298994998E+03  0.22507100229E+03  0.34817592554E+03  0.47000000000E+01 0.  1.
         13    1    6    6    0    0  0.99938377408E+02  0.35568107189E+02  0.22444833509E+03  0.24825354913E+03  0.00000000000E+00 0. -1.
        -14    1    6    6    0    0  0.81615544392E+02 -0.66356634952E+01  0.73120021375E+02  0.10978008309E+03  0.00000000000E+00 0.  1.
</event>
<event>
12    1  0.9656379E-001  0.2489003E+03  0.7818608E-02  0.1114002E+00
          2   -1    0    0  502    0  0.00000000000E+00  0.00000000000E+00  0.92878439534E+03  0.92878439534E+03  0.00000000000E+00 0. -1.
         -2   -1    0    0    0  501 -0.00000000000E+00 -0.00000000000E+00 -0.19289013302E+03  0.19289013302E+03  0.00000000000E+00 0.  1.
          6    2    1    2  502    0 -0.17845472441E+03  0.82742296522E+01 -0.85540154279E+02  0.26343370783E+03  0.17368260963E+03 0.  0.
         24    2    3    3    0    0 -0.98060525105E+02  0.33436651404E+02  0.15607766609E+02  0.13171671329E+03  0.79823642748E+02 0.  0.
         -6    2    1    2    0  501  0.17845472441E+03 -0.82742296522E+01  0.82143441660E+03  0.85824082053E+03  0.17294002921E+03 0.  0.
        -24    2    5    5    0    0  0.24852651701E+02  0.69474070891E+00  0.42272109285E+03  0.43084353028E+03  0.79466271390E+02 0.  0.
          5    1    3    3  502    0 -0.80394199302E+02 -0.25162421752E+02 -0.10114792089E+03  0.13171699454E+03  0.47000000000E+01 0. -1.
        -11    1    4    4    0    0 -0.10927920861E+03  0.35699910785E+02  0.24104712019E+02  0.11746261620E+03  0.00000000000E+00 0.  1.
         12    1    4    4    0    0  0.11218683503E+02 -0.22632593808E+01 -0.84969454102E+01  0.14254097090E+02  0.00000000000E+00 0. -1.
         -5    1    5    5    0  501  0.15360207271E+03 -0.89689703611E+01  0.39871332375E+03  0.42739729024E+03  0.47000000000E+01 0.  1.
         11    1    6    6    0    0  0.30703908357E+02 -0.50884641943E+00  0.42368164276E+03  0.42479303588E+03  0.00000000000E+00 0. -1.
        -12    1    6    6    0    0 -0.58512566564E+01  0.12035871283E+01 -0.96054991773E+00  0.60504944078E+01  0.00000000000E+00 0.  1.
</event>
<event>
12    1  0.9656379E-001  0.3423420E+03  0.7818608E-02  0.1065803E+00
         -1   -1    0    0    0  501 -0.00000000000E+00  0.00000000000E+00  0.43699554433E+03  0.43699554433E+03  0.00000000000E+00 0.  1.
          1   -1    0    0  502    0  0.00000000000E+00 -0.00000000000E+00 -0.31983182416E+03  0.31983182416E+03  0.00000000000E+00 0. -1.
          6    2    1    2  502    0  0.13878390487E+03  0.26125649499E+03  0.21060365588E+03  0.40173141199E+03  0.17180890280E+03 0.  0.
         24    2    3    3    0    0  0.79329775933E+02  0.18304773793E+03  0.62316484136E+02  0.22379159510E+03  0.79997788312E+02 0.  0.
         -6    2    1    2    0  501 -0.13878390487E+03 -0.26125649499E+03 -0.93439935705E+02  0.35509595650E+03  0.17276049408E+03 0.  0.
        -24    2    5    5    0    0 -0.14037265073E+03 -0.12472845504E+03 -0.73421475400E+02  0.21701895422E+03  0.80279791182E+02 0.  0.
          5    1    3    3  502    0  0.59454128938E+02  0.78208757062E+02  0.14828717174E+03  0.17793981688E+03  0.47000000000E+01 0. -1.
        -13    1    4    4    0    0  0.37939101629E+02  0.28002298125E+02  0.39877324756E+02  0.61755203525E+02  0.00000000000E+00 0.  1.
         14    1    4    4    0    0  0.41390674305E+02  0.15504543980E+03  0.22439159380E+02  0.16203639158E+03  0.00000000000E+00 0. -1.
         -5    1    5    5    0  501  0.15887458579E+01 -0.13652803995E+03 -0.20018460305E+02  0.13807700228E+03  0.47000000000E+01 0.  1.
         11    1    6    6    0    0 -0.36704209793E+02 -0.80027092066E+02 -0.51551035251E+02  0.10202472110E+03  0.00000000000E+00 0. -1.
        -12    1    6    6    0    0 -0.10366844094E+03 -0.44701362972E+02 -0.21870440150E+02  0.11499423312E+03  0.00000000000E+00 0.  1.
</event>
<event>
12    1  0.9656379E-001  0.9914580E+03  0.7818608E-02  0.9317963E-01
          1   -1    0    0  502    0  0.00000000000E+00  0.00000000000E+00  0.21562695142E+04  0.21562695142E+04  0.00000000000E+00 0. -1.
         -1   -1    0    0    0  501 -0.00000000000E+00 -0.00000000000E+00 -0.47105989861E+03  0.47105989861E+03  0.00000000000E+00 0.  1.
          6    2    1    2  502    0  0.34445246089E+03 -0.91268787249E+03  0.60733520144E+03  0.11632998653E+04  0.18100795355E+03 0.  0.
         24    2    3    3    0    0  0.18548856526E+03 -0.53332588925E+03  0.26798861208E+03  0.63004267391E+03  0.79330717586E+02 0.  0.
         -6    2    1    2    0  501 -0.34445246089E+03  0.91268787249E+03  0.10778744141E+04  0.14640295475E+04  0.17298153924E+03 0.  0.
        -24    2    5    5    0    0 -0.34760459014E+03  0.89679839080E+03  0.10783314138E+04  0.14471561840E+04  0.79912940214E+02 0.  0.
          5    1    3    3  502    0  0.15896389563E+03 -0.37936198324E+03  0.33934658936E+03  0.53325719137E+03  0.47000000000E+01 0. -1.
        -13    1    4    4    0    0  0.95818045835E+02 -0.18640294788E+03  0.12643772947E+03  0.24477266252E+03  0.00000000000E+00 0.  1.
         14    1    4    4    0    0  0.89670519427E+02 -0.34692294137E+03  0.14155088261E+03  0.38527001139E+03  0.00000000000E+00 0. -1.
         -5    1    5    5    0  501  0.31521292427E+01  0.15889481692E+02 -0.45699969971E+00  0.16873363504E+02  0.47000000000E+01 0.  1.
         13    1    6    6    0    0 -0.19039368620E+03  0.44430320306E+03  0.59584382625E+03  0.76725807736E+03  0.00000000000E+00 0. -1.
        -14    1    6    6    0    0 -0.15721090394E+03  0.45249518774E+03  0.48248758757E+03  0.67989810664E+03  0.00000000000E+00 0.  1.
</event>
<event>
12    1  0.9656379E-001  0.1335717E+04  0.7818608E-02  0.9001711E-01
         -2   -1    0    0    0  501 -0.00000000000E+00  0.00000000000E+00  0.80109190882E+03  0.80109190882E+03  0.00000000000E+00 0.  1.
          2   -1    0    0  502    0  0.00000000000E+00 -0.00000000000E+00 -0.23301734827E+04  0.23301734827E+04  0.00000000000E+00 0. -1.
          6    2    1    2  502    0 -0.79131495682E+03 -0.10624045157E+04 -0.43527488791E+03  0.14047814988E+04  0.17048200912E+03 0.  0.
         24    2    3    3    0    0 -0.34449317723E+03 -0.38556818376E+03 -0.20209242997E+03  0.56088975713E+03  0.80109898989E+02 0.  0.
         -6    2    1    2    0  501  0.79131495682E+03  0.10624045157E+04 -0.10938066860E+04  0.17264838927E+04  0.17161249816E+03 0.  0.
        -24    2    5    5    0    0  0.76643374176E+03  0.96323753309E+03 -0.10121409949E+04  0.15955467307E+04  0.78056072320E+02 0.  0.
          5    1    3    3  502    0 -0.44682177959E+03 -0.67683633198E+03 -0.23318245794E+03  0.84389174169E+03  0.47000000000E+01 0. -1.
        -13    1    4    4    0    0 -0.17936253704E+03 -0.25910650771E+03 -0.12695382324E+03  0.33974163016E+03  0.00000000000E+00 0.  1.
         14    1    4    4    0    0 -0.16513064019E+03 -0.12646167605E+03 -0.75138606727E+02  0.22114812697E+03  0.00000000000E+00 0. -1.
         -5    1    5    5    0  501  0.24881215057E+02  0.99166982654E+02 -0.81665691054E+02  0.13093716205E+03  0.47000000000E+01 0.  1.
         11    1    6    6    0    0  0.58236147453E+03  0.70771614119E+03 -0.71297706370E+03  0.11611818621E+04  0.00000000000E+00 0. -1.
        -12    1    6    6    0    0  0.18407226722E+03  0.25552139190E+03 -0.29916393124E+03  0.43436486856E+03  0.00000000000E+00 0.  1.
</event>
<event>
12    1  0.9656379E-001  0.2086647E+03  0.7818608E-02  0.1142628E+00
         -2   -1    0    0    0  501 -0.00000000000E+00  0.00000000000E+00  0.11197305688E+03  0.11197305688E+03  0.00000000000E+00 0.  1.
          2   -1    0    0  502    0  0.00000000000E+00 -0.00000000000E+00 -0.83820473213E+03  0.83820473213E+03  0.00000000000E+00 0. -1.
          6    2    1    2  502    0 -0.77609127669E+02 -0.88845479533E+02 -0.15655674042E+02  0.20973321952E+03  0.17270271367E+03 0.  0.
         24    2    3    3    0    0  0.51044420427E+01  0.86696618343E+01  0.10138079547E+02  0.79202973469E+02  0.77904505547E+02 0.  0.
         -6    2    1    2    0  501  0.77609127669E+02  0.88845479533E+02 -0.71057600121E+03  0.74044456950E+03  0.17153195349E+03 0.  0.
        -24    2    5    5    0    0  0.11622571960E+03  0.33387225323E+02 -0.45458849079E+03  0.47564548599E+03  0.70461391381E+02 0.  0.
          5    1    3    3  502    0 -0.82713569711E+02 -0.97515141368E+02 -0.25793753590E+02  0.13053024605E+03  0.47000000000E+01 0. -1.
        -11    1    4    4    0    0 -0.15901480470E+02 -0.20910073706E+02 -0.19205955849E+02  0.32541619560E+02  0.00000000000E+00 0.  1.
         12    1    4    4    0    0  0.21005922513E+02  0.29579735540E+02  0.29344035396E+02  0.46661353909E+02  0.00000000000E+00 0. -1.
         -5    1    5    5    0  501 -0.38616591934E+02  0.55458254211E+02 -0.25598751042E+03  0.26479908350E+03  0.47000000000E+01 0.  1.
         13    1    6    6    0    0  0.68282691549E+02 -0.12499490273E+02 -0.28975362701E+03  0.29795289492E+03  0.00000000000E+00 0. -1.
        -14    1    6    6    0    0  0.47943028054E+02  0.45886715596E+02 -0.16483486378E+03  0.17769259108E+03  0.00000000000E+00 0.  1.
</event>
<event>
12    1  0.9656379E-001  0.3695536E+03  0.7818608E-02  0.1054864E+00
          2   -1    0    0  502    0  0.00000000000E+00  0.00000000000E+00  0.66028185173E+03  0.66028185173E+03  0.00000000000E+00 0. -1.
         -2   -1    0    0    0  501 -0.00000000000E+00 -0.00000000000E+00 -0.24479845381E+03  0.24479845381E+03  0.00000000000E+00 0.  1.
          6    2    1    2  502    0  0.51742014566E+02  0.32378187662E+03  0.29834943760E+02  0.37138921175E+03  0.17183679186E+03 0.  0.
         24    2    3    3    0    0 -0.11134218579E+02  0.22098171606E+03  0.70994678713E+02  0.24396273300E+03  0.74301285523E+02 0.  0.
         -6    2    1    2    0  501 -0.51742014566E+02 -0.32378187662E+03  0.38564845416E+03  0.53369109379E+03  0.16908433901E+03 0.  0.
        -24    2    5    5    0    0  0.10455133066E+01 -0.20913242574E+03  0.32224707861E+03  0.39236578075E+03  0.79813918799E+02 0.  0.
          5    1    3    3  502    0  0.62876233145E+02  0.10280016056E+03 -0.41159734952E+02  0.12742647875E+03  0.47000000000E+01 0. -1.
        -13    1    4    4    0    0  0.84178403367E+01  0.69544906534E+01 -0.94915467281E+01  0.14467703186E+02  0.00000000000E+00 0.  1.
         14    1    4    4    0    0 -0.19552058915E+02  0.21402722540E+03  0.80486225441E+02  0.22949502981E+03  0.00000000000E+00 0. -1.
         -5    1    5    5    0  501 -0.52787527873E+02 -0.11464945088E+03  0.63401375552E+02  0.14132531305E+03  0.47000000000E+01 0.  1.
         11    1    6    6    0    0  0.90236123304E+01 -0.87115516716E+02  0.70271330137E+02  0.11228801660E+03  0.00000000000E+00 0. -1.
        -12    1    6    6    0    0 -0.79780990238E+01 -0.12201690902E+03  0.25197574847E+03  0.28007776415E+03  0.00000000000E+00 0.  1.
</event>
<event>
12    1  0.9656379E-001  0.3440690E+03  0.7818608E-02  0.1065076E+00
         -1   -1    0    0    0  501 -0.00000000000E+00  0.00000000000E+00  0.77803746220E+03  0.77803746220E+03  0.00000000000E+00 0.  1.
          1   -1    0    0  502    0  0.00000000000E+00 -0.00000000000E+00 -0.15419980825E+03  0.15419980825E+03  0.00000000000E+00 0. -1.
          6    2    1    2  502    0 -0.28393287287E+03 -0.91432920938E+02  0.36537945440E+03  0.50173276588E+03  0.17104317388E+03 0.  0.
         24    2    3    3    0    0 -0.20186033079E+03 -0.84397841197E+02  0.16680888785E+03  0.28670310650E+03  0.80640420816E+02 0.  0.
         -6    2    1    2    0  501  0.28393287287E+03  0.91432920938E+02  0.25845819956E+03  0.43050450457E+03  0.17191751572E+03 0.  0.
        -24    2    5    5    0    0  0.11986234014E+03  0.10736062697E+03  0.13428312602E+03  0.22407202065E+03  0.79265551775E+02 0.  0.
          5    1    3    3  502    0 -0.82072542082E+02 -0.70350797416E+01  0.19857056655E+03  0.21502965938E+03  0.47000000000E+01 0. -1.
        -11    1    4    4    0    0 -0.18216796855E+03 -0.89887557554E+02  0.17135753080E+03  0.26575993891E+03  0.00000000000E+00 0.  1.
         12    1    4    4    0    0 -0.19692362237E+02  0.54897163574E+01 -0.45486429487E+01  0.20943167593E+02  0.00000000000E+00 0. -1.
         -5    1    5    5    0  501  0.16407053273E+03 -0.15927706029E+02  0.12417507354E+03  0.20643248392E+03  0.47000000000E+01 0.  1.
         11    1    6    6    0    0  0.58780991927E+02  0.45591038777E+02  0.11189038892E+03  0.13436222297E+03  0.00000000000E+00 0. -1.
        -12    1    6    6    0    0  0.61081348210E+02  0.61769588191E+02  0.22392737094E+02  0.89709797676E+02  0.00000000000E+00 0.  1.
</event>
<event>
12    1  0.9656379E-001  0.1004569E+04  0.7818608E-02  0.9303547E-01
          2   -1    0    0  502    0  0.00000000000E+00  0.00000000000E+00  0.12965986491E+04  0.12965986491E+04  0.00000000000E+00 0. -1.
         -2   -1    0    0    0  501 -0.00000000000E+00 -0.00000000000E+00 -0.81193334839E+03  0.81193334839E+03  0.00000000000E+00 0.  1.
          6    2    1    2  502    0  0.87790897049E+03  0.45706001723E+03  0.27791693404E+02  0.10049141311E+04  0.17161588741E+03 0.  0.
         24    2    3    3    0    0  0.80153616457E+03  0.37260429293E+03  0.53969076558E+02  0.88798286820E+03  0.65625686778E+02 0.  0.
         -6    2    1    2    0  501 -0.87790897049E+03 -0.45706001723E+03  0.45687360728E+03  0.11036178664E+04  0.17207812802E+03 0.  0.
        -24    2    5    5    0    0 -0.75660086893E+03 -0.39815224745E+03  0.45033968688E+03  0.96852322192E+03  0.65278716350E+02 0.  0.
          5    1    3    3  502    0  0.76372805918E+02  0.84455724300E+02 -0.26177383154E+02  0.11693126288E+03  0.47000000000E+01 0. -1.
        -11    1    4    4    0    0  0.48438175597E+03  0.19042156990E+03  0.38831570500E+02  0.52191373872E+03  0.00000000000E+00 0.  1.
         12    1    4    4    0    0  0.31715440860E+03  0.18218272303E+03  0.15137506057E+02  0.36606912948E+03  0.00000000000E+00 0. -1.
         -5    1    5    5    0  501 -0.12130810156E+03 -0.58907769778E+02  0.65339203981E+01  0.13509464445E+03  0.47000000000E+01 0.  1.
         11    1    6    6    0    0 -0.58743035611E+03 -0.31613298815E+03  0.32087276938E+03  0.74025254042E+03  0.00000000000E+00 0. -1.
        -12    1    6    6    0    0 -0.16917051282E+03 -0.82019259299E+02  0.12946691751E+03  0.22827068150E+03  0.00000000000E+00 0.  1.
</event>
<event>
12    1  0.9656379E-001  0.3131980E+03  0.7818608E-02  0.1078823E+00
         -2   -1    0    0    0  501 -0.00000000000E+00  0.00000000000E+00  0.44058871288E+03  0.44058871288E+03  0.00000000000E+00 0.  1.
          2   -1    0    0  502    0  0.00000000000E+00 -0.00000000000E+00 -0.25671382629E+03  0.25671382629E+03  0.00000000000E+00 0. -1.
          6    2    1    2  502    0  0.25867986537E+03 -0.37177335803E+02  0.21914135272E+03  0.38285212115E+03  0.17394075760E+03 0.  0.
         24    2    3    3    0    0  0.98660637806E+02  0.32530923960E+02  0.13895412357E+03  0.19071291020E+03  0.79189539657E+02 0.  0.
         -6    2    1    2    0  501 -0.25867986537E+03  0.37177335803E+02 -0.35266466133E+02  0.31445041801E+03  0.17128314193E+03 0.  0.
        -24    2    5    5    0    0 -0.10507376048E+03 -0.31960009058E+02 -0.63326775560E+02  0.14361634974E+03  0.67479167833E+02 0.  0.
          5    1    3    3  502    0  0.16001922757E+03 -0.69708259763E+02  0.80187229145E+02  0.19213921096E+03  0.47000000000E+01 0. -1.
        -13    1    4    4    0    0  0.19297646061E+02 -0.25545901388E+02  0.39523311398E+02  0.50863389241E+02  0.00000000000E+00 0.  1.
         14    1    4    4    0    0  0.79362991745E+02  0.58076825348E+02  0.99430812175E+02  0.13984952095E+03  0.00000000000E+00 0. -1.
         -5    1    5    5    0  501 -0.15360610490E+03  0.69137344861E+02  0.28060309427E+02  0.17083406827E+03  0.47000000000E+01 0.  1.
         13    1    6    6    0    0 -0.81480286513E+02  0.86270752505E+01 -0.41428660084E+02  0.91813928104E+02  0.00000000000E+00 0. -1.
        -14    1    6    6    0    0 -0.23593473963E+02 -0.40587084309E+02 -0.21898115476E+02  0.51802421639E+02  0.00000000000E+00 0.  1.
</event>
<event>
12    1  0.9656379E-001  0.3583054E+03  0.7818608E-02  0.1059257E+00
         -3   -1    0    0    0  501 -0.00000000000E+00  0.00000000000E+00  0.12260670966E+04  0.12260670966E+04  0.00000000000E+00 0.  1.
          3   -1    0    0  502    0  0.00000000000E+00 -0.00000000000E+00 -0.11478402116E+03  0.11478402116E+03  0.00000000000E+00 0. -1.
          6    2    1    2  502    0  0.31282395513E+03  0.31058623669E+02  0.75392861436E+03  0.83464399643E+03  0.17146072497E+03 0.  0.
         24    2    3    3    0    0  0.16247844861E+03  0.98980393020E+01  0.25387699297E+03  0.31203012777E+03  0.80075312226E+02 0.  0.
         -6    2    1    2    0  501 -0.31282395513E+03 -0.31058623669E+02  0.35735446106E+03  0.50620712131E+03  0.17239481957E+03 0.  0.
        -24    2    5    5    0    0 -0.22161348648E+03  0.40549975059E+02  0.22167153337E+03  0.32765996264E+03  0.86405697386E+02 0.  0.
          5    1    3    3  502    0  0.15034550652E+03  0.21160584367E+02  0.50005162139E+03  0.52261386866E+03  0.47000000000E+01 0. -1.
        -11    1    4    4    0    0  0.70183903848E+01  0.26189908386E+01  0.73132513380E+02  0.73515178228E+02  0.00000000000E+00 0.  1.
         12    1    4    4    0    0  0.15546005823E+03  0.72790484634E+01  0.18074447959E+03  0.23851494954E+03  0.00000000000E+00 0. -1.
         -5    1    5    5    0  501 -0.91210468654E+02 -0.71608598728E+02  0.13568292769E+03  0.17854715868E+03  0.47000000000E+01 0.  1.
         13    1    6    6    0    0 -0.74555861881E+02 -0.62072689330E+01  0.12466175335E+03  0.14538796194E+03  0.00000000000E+00 0. -1.
        -14    1    6    6    0    0 -0.14705762460E+03  0.46757243992E+02  0.97009780018E+02  0.18227200069E+03  0.00000000000E+00 0.  1.
</event>
<event>
12    1  0.9656379E-001  0.1819634E+03  0.7818608E-02  0.1165916E+00
          1   -1    0    0  502    0  0.00000000000E+00  0.00000000000E+00  0.25866190393E+04  0.25866190393E+04  0.00000000000E+00 0. -1.
         -1   -1    0    0    0  501 -0.00000000000E+00 -0.00000000000E+00 -0.26399994802E+02  0.26399994802E+02  0.00000000000E+00 0.  1.
          6    2    1    2  502    0  0.29511552449E+02 -0.55401296393E+02  0.34144116393E+03  0.38676911584E+03  0.17049353410E+03 0.  0.
         24    2    3    3    0    0 -0.27212476720E+02 -0.77353716673E+02  0.26884629100E+03  0.29194491103E+03  0.78926462742E+02 0.  0.
         -6    2    1    2    0  501 -0.29511552449E+02  0.55401296393E+02  0.22187778805E+04  0.22262499182E+04  0.17109406740E+03 0.  0.
        -24    2    5    5    0    0 -0.29552569191E+02  0.10373983708E+02  0.20391623711E+04  0.20410168709E+04  0.81152436639E+02 0.  0.
          5    1    3    3  502    0  0.56724029169E+02  0.21952420281E+02  0.72594872932E+02  0.94824204808E+02  0.47000000000E+01 0. -1.
        -11    1    4    4    0    0  0.19393597037E+01 -0.47425909542E+02  0.49212874299E+02  0.68373130751E+02  0.00000000000E+00 0.  1.
         12    1    4    4    0    0 -0.29151836424E+02 -0.29927807132E+02  0.21963341670E+03  0.22357178028E+03  0.00000000000E+00 0. -1.
         -5    1    5    5    0  501  0.41016742270E-01  0.45027312685E+02  0.17961550949E+03  0.18523304732E+03  0.47000000000E+01 0.  1.
         13    1    6    6    0    0 -0.38138518502E+02  0.36455432438E+02  0.16706819353E+04  0.16715147843E+04  0.00000000000E+00 0. -1.
        -14    1    6    6    0    0  0.85859493109E+01 -0.26081448730E+02  0.36848043575E+03  0.36950208663E+03  0.00000000000E+00 0.  1.
</event>
<event>
12    1  0.9656379E-001  0.4653768E+03  0.7818608E-02  0.1023233E+00
         -1   -1    0    0    0  501 -0.00000000000E+00  0.00000000000E+00  0.35454000216E+03  0.35454000216E+03  0.00000000000E+00 0.  1.
          1   -1    0    0  502    0  0.00000000000E+00 -0.00000000000E+00 -0.23477809910E+04  0.23477809910E+04  0.00000000000E+00 0. -1.
          6    2    1    2  502    0  0.19071847385E+03  0.38858277631E+03  0.16516808294E+03  0.49445347694E+03  0.17272415848E+03 0.  0.
         24    2    3    3    0    0  0.62681225598E+02  0.27886394305E+03  0.13573355114E+03  0.32322193494E+03  0.65990814116E+02 0.  0.
         -6    2    1    2    0  501 -0.19071847385E+03 -0.38858277631E+03 -0.21584090718E+04  0.22078675162E+04  0.16905365344E+03 0.  0.
        -24    2    5    5    0    0 -0.21523969149E+03 -0.35509798908E+03 -0.19614403677E+04  0.20065188597E+04  0.80292662891E+02 0.  0.
          5    1    3    3  502    0  0.12803724825E+03  0.10971883326E+03  0.29434531798E+02  0.17123154200E+03  0.47000000000E+01 0. -1.
        -11    1    4    4    0    0  0.68854215240E+01  0.94115098520E+02  0.14929521038E+02  0.95540312944E+02  0.00000000000E+00 0.  1.
         12    1    4    4    0    0  0.55795804074E+02  0.18474884453E+03  0.12080403010E+03  0.22768162200E+03  0.00000000000E+00 0. -1.
         -5    1    5    5    0  501  0.24521217638E+02 -0.33484787227E+02 -0.19696870406E+03  0.20134865649E+03  0.47000000000E+01 0.  1.
         13    1    6    6    0    0 -0.18861328594E+03 -0.31140320073E+03 -0.18212447624E+04  0.18572774186E+04  0.00000000000E+00 0. -1.
        -14    1    6    6    0    0 -0.26626405552E+02 -0.43694788354E+02 -0.14019560525E+03  0.14924144107E+03  0.00000000000E+00 0.  1.
</event>
<event>
12    1  0.9656379E-001  0.4499779E+03  0.7818608E-02  0.1027729E+00
         -2   -1    0    0    0  501 -0.00000000000E+00  0.00000000000E+00  0.16935728578E+04  0.16935728578E+04  0.00000000000E+00 0.  1.
          2   -1    0    0  502    0  0.00000000000E+00 -0.00000000000E+00 -0.12336406770E+03  0.12336406770E+03  0.00000000000E+00 0. -1.
          6    2    1    2  502    0  0.40240245779E+03 -0.11641988889E+03  0.62789910362E+03  0.77329674481E+03  0.16807511013E+03 0.  0.
         24    2    3    3    0    0  0.24804532547E+03 -0.11363891791E+03  0.31641595853E+03  0.42562204373E+03  0.81208239390E+02 0.  0.
         -6    2    1    2    0  501 -0.40240245779E+03  0.11641988889E+03  0.94230968652E+03  0.10436401807E+04  0.16048661309E+03 0.  0.
        -24    2    5    5    0    0 -0.33304721128E+03  0.14013636163E+03  0.72386664539E+03  0.81317961250E+03  0.81972660546E+02 0.  0.
          5    1    3    3  502    0  0.15435713231E+03 -0.27809709842E+01  0.31148314509E+03  0.34767470108E+03  0.47000000000E+01 0. -1.
        -13    1    4    4    0    0  0.70469684653E+02 -0.39488074309E+02  0.15361489052E+03  0.17355926670E+03  0.00000000000E+00 0.  1.
         14    1    4    4    0    0  0.17757564082E+03 -0.74150843598E+02  0.16280106800E+03  0.25206277703E+03  0.00000000000E+00 0. -1.
         -5    1    5    5    0  501 -0.69355246504E+02 -0.23716472738E+02  0.21844304113E+03  0.23046056824E+03  0.47000000000E+01 0.  1.
         11    1    6    6    0    0 -0.22485811109E+03  0.51579019791E+02  0.45166649732E+03  0.50717274198E+03  0.00000000000E+00 0. -1.
        -12    1    6    6    0    0 -0.10818910019E+03  0.88557341838E+02  0.27220014807E+03  0.30600687052E+03  0.00000000000E+00 0.  1.
</event>
<event>
12    1  0.9656379E-001  0.2722124E+03  0.7818608E-02  0.1100020E+00
          1   -1    0    0  502    0  0.00000000000E+00  0.00000000000E+00  0.27997917814E+03  0.27997917814E+03  0.00000000000E+00 0. -1.
         -1   -1    0    0    0  501 -0.00000000000E+00 -0.00000000000E+00 -0.27909898994E+03  0.27909898994E+03  0.00000000000E+00 0.  1.
          6    2    1    2  502    0 -0.40490602868E+02  0.20709714906E+03 -0.63138438140E+02  0.27965125839E+03  0.17230683643E+03 0.  0.
         24    2    3    3    0    0 -0.43551053321E+02  0.22632730993E+03 -0.38589152568E+02  0.24796651654E+03  0.82930845665E+02 0.  0.
         -6    2    1    2    0  501  0.40490602868E+02 -0.20709714906E+03  0.64018626333E+02  0.27942690969E+03  0.17161671035E+03 0.  0.
        -24    2    5    5    0    0  0.67659155400E+02 -0.19121815260E+03  0.92937427026E+02  0.23643086559E+03  0.78230720725E+02 0.  0.
          5    1    3    3  502    0  0.30604504531E+01 -0.19230160874E+02 -0.24549285573E+02  0.31684741854E+02  0.47000000000E+01 0. -1.
        -13    1    4    4    0    0 -0.32268928910E+02  0.85688266823E+02 -0.53570040129E+02  0.10608257182E+03  0.00000000000E+00 0.  1.
         14    1    4    4    0    0 -0.11282124412E+02  0.14063904311E+03  0.14980887561E+02  0.14188394472E+03  0.00000000000E+00 0. -1.
         -5    1    5    5    0  501 -0.27168552531E+02 -0.15878996453E+02 -0.28918800692E+02  0.42996044103E+02  0.47000000000E+01 0.  1.
         13    1    6    6    0    0  0.22814494342E+02 -0.68514538242E+02 -0.61328402907E+01  0.72473131798E+02  0.00000000000E+00 0. -1.
        -14    1    6    6    0    0  0.44844661058E+02 -0.12270361436E+03  0.99070267316E+02  0.16395773379E+03  0.00000000000E+00 0.  1.
</event>
<event>
12    1  0.9656379E-001  0.5533710E+03  0.7818608E-02  0.1000717E+00
         -2   -1    0    0    0  501 -0.00000000000E+00  0.00000000000E+00  0.23254582953E+03  0.23254582953E+03  0.00000000000E+00 0.  1.
          2   -1    0    0  502    0  0.00000000000E+00 -0.00000000000E+00 -0.17729371494E+04  0.17729371494E+04  0.00000000000E+00 0. -1.
          6    2    1    2  502    0 -0.21741824051E+03 -0.47888305004E+03 -0.26167443810E+03  0.61219799354E+03  0.17237518621E+03 0.  0.
         24    2    3    3    0    0 -0.21025976579E+03 -0.31221893447E+03 -0.16260696799E+03  0.41812423227E+03  0.81835294482E+02 0.  0.
         -6    2    1    2    0  501  0.21741824051E+03  0.47888305004E+03 -0.12787168817E+04  0.13932849854E+04  0.17183282541E+03 0.  0.
        -24    2    5    5    0    0  0.13549630490E+03  0.31953121662E+03 -0.67052601367E+03  0.75923259609E+03  0.79809478885E+02 0.  0.
          5    1    3    3  502    0 -0.71584747158E+01 -0.16666411557E+03 -0.99067470106E+02  0.19407376126E+03  0.47000000000E+01 0. -1.
        -11    1    4    4    0    0 -0.13203850005E+02 -0.14729339144E+02  0.95098448898E+01  0.21948399404E+02  0.00000000000E+00 0.  1.
         12    1    4    4    0    0 -0.19705591579E+03 -0.29748959533E+03 -0.17211681288E+03  0.39617583287E+03  0.00000000000E+00 0. -1.
         -5    1    5    5    0  501  0.81921935605E+02  0.15935183342E+03 -0.60819086808E+03  0.63405238929E+03  0.47000000000E+01 0.  1.
         11    1    6    6    0    0  0.96165024733E+02  0.12774911586E+03 -0.32068992146E+03  0.35834281674E+03  0.00000000000E+00 0. -1.
        -12    1    6    6    0    0  0.39331280168E+02  0.19178210077E+03 -0.34983609221E+03  0.40088977935E+03  0.00000000000E+00 0.  1.
</event>
<event>
12    1  0.9656379E-001  0.7340561E+03  0.7818608E-02  0.9660701E-01
         -2   -1    0    0    0  501 -0.00000000000E+00  0.00000000000E+00  0.21515206745E+03  0.21515206745E+03  0.00000000000E+00 0.  1.
          2   -1    0    0  502    0  0.00000000000E+00 -0.00000000000E+00 -0.34259177992E+04  0.34259177992E+04  0.00000000000E+00 0. -1.
          6    2    1    2  502    0 -0.65274739634E+03  0.28927633488E+03 -0.66060880576E+03  0.98726224435E+03  0.16888689565E+03 0.  0.
         24    2    3    3    0    0 -0.47544768167E+03  0.26701791077E+03 -0.54054707002E+03  0.77193101890E+03  0.79607162704E+02 0.  0.
         -6    2    1    2    0  501  0.65274739634E+03 -0.28927633488E+03 -0.25501569260E+04  0.26538076224E+04  0.17214699445E+03 0.  0.
        -24    2    5    5    0    0  0.46310753020E+03 -0.26278259683E+03 -0.17452789164E+04  0.18264528633E+04  0.80051783152E+02 0.  0.
          5    1    3    3  502    0 -0.17729971467E+03  0.22258424114E+02 -0.12006173574E+03  0.21533122545E+03  0.47000000000E+01 0. -1.
        -13    1    4    4    0    0 -0.22213035745E+03  0.13010290229E+03 -0.20017343859E+03  0.32609517997E+03  0.00000000000E+00 0.  1.
         14    1    4    4    0    0 -0.25331732423E+03  0.13691500847E+03 -0.34037363143E+03  0.44583583893E+03  0.00000000000E+00 0. -1.
         -5    1    5    5    0  501  0.18963986614E+03 -0.26493738054E+02 -0.80487800963E+03  0.82735475908E+03  0.47000000000E+01 0.  1.
         13    1    6    6    0    0  0.27161965804E+03 -0.18172786774E+03 -0.11683431256E+04  0.12131891508E+04  0.00000000000E+00 0. -1.
        -14    1    6    6    0    0  0.19148787216E+03 -0.81054729086E+02 -0.57693579083E+03  0.61326371247E+03  0.00000000000E+00 0.  1.
</event>
<event>
12    1  0.9656379E-001  0.2701886E+03  0.7818608E-02  0.1101172E+00
         -2   -1    0    0    0  501 -0.00000000000E+00  0.00000000000E+00  0.91718296775E+02  0.91718296775E+02  0.00000000000E+00 0.  1.
          2   -1    0    0  502    0  0.00000000000E+00 -0.00000000000E+00 -0.98336639676E+03  0.98336639676E+03  0.00000000000E+00 0. -1.
          6    2    1    2  502    0  0.10541027467E+02  0.20801159245E+03 -0.20919731919E+03  0.34055060856E+03  0.16979771135E+03 0.  0.
         24    2    3    3    0    0  0.36398007600E+02  0.16620706003E+03 -0.22046887155E+03  0.28990142056E+03  0.80540105279E+02 0.  0.
         -6    2    1    2    0  501 -0.10541027467E+02 -0.20801159245E+03 -0.68245078079E+03  0.73453408497E+03  0.17441708037E+03 0.  0.
        -24    2    5    5    0    0 -0.57350688818E+02 -0.18234329017E+03 -0.61142133604E+03  0.64555499664E+03  0.79793649803E+02 0.  0.
          5    1    3    3  502    0 -0.25856980133E+02  0.41804532422E+02  0.11271552361E+02  0.50649188002E+02  0.47000000000E+01 0. -1.
        -11    1    4    4    0    0 -0.20152644539E+02  0.73303133122E+02 -0.64170655814E+02  0.99485433481E+02  0.00000000000E+00 0.  1.
         12    1    4    4    0    0  0.56550652139E+02  0.92903926907E+02 -0.15629821573E+03  0.19041598707E+03  0.00000000000E+00 0. -1.
         -5    1    5    5    0  501  0.46809661351E+02 -0.25668302280E+02 -0.71029444755E+02  0.88979088329E+02  0.47000000000E+01 0.  1.
         13    1    6    6    0    0 -0.73766102205E+02 -0.10807361878E+03 -0.37197658208E+03  0.39431956903E+03  0.00000000000E+00 0. -1.
        -14    1    6    6    0    0  0.16415413387E+02 -0.74269671393E+02 -0.23944475396E+03  0.25123542761E+03  0.00000000000E+00 0.  1.
</event>
<event>
12    1  0.9656379E-001  0.5951252E+03  0.7818608E-02  0.9915572E-01
         -2   -1    0    0    0  501 -0.00000000000E+00  0.00000000000E+00  0.31497968987E+03  0.31497968987E+03  0.00000000000E+00 0.  1.
          2   -1    0    0  502    0  0.00000000000E+00 -0.00000000000E+00 -0.24013853587E+04  0.24013853587E+04  0.00000000000E+00 0. -1.
          6    2    1    2  502    0  0.55196086041E+03 -0.13688709568E+03 -0.51952802309E+02  0.59636555560E+03  0.17191251800E+03 0.  0.
         24    2    3    3    0    0  0.45281264713E+03 -0.16719791748E+03 -0.29202177310E+02  0.49011681418E+03  0.79795284122E+02 0.  0.
         -6    2    1    2    0  501 -0.55196086041E+03  0.13688709568E+03 -0.20344528665E+04  0.21199994930E+04  0.17888687969E+03 0.  0.
        -24    2    5    5    0    0 -0.56093893045E+03  0.14285576524E+03 -0.19964621302E+04  0.20802299468E+04  0.80220576081E+02 0.  0.
          5    1    3    3  502    0  0.99148213285E+02  0.30310821806E+02 -0.22750624999E+02  0.10624874142E+03  0.47000000000E+01 0. -1.
        -13    1    4    4    0    0  0.38643842153E+03 -0.16465415950E+03 -0.71040138369E+01  0.42011440452E+03  0.00000000000E+00 0.  1.
         14    1    4    4    0    0  0.66374225599E+02 -0.25437579864E+01 -0.22098163473E+02  0.70002409654E+02  0.00000000000E+00 0. -1.
         -5    1    5    5    0  501  0.89780700349E+01 -0.59686695593E+01 -0.37990736303E+02  0.39769546172E+02  0.47000000000E+01 0.  1.
         13    1    6    6    0    0 -0.52451337430E+03  0.13609905778E+03 -0.17811967143E+04  0.18617999270E+04  0.00000000000E+00 0. -1.
        -14    1    6    6    0    0 -0.36425556152E+02  0.67567074576E+01 -0.21526541597E+03  0.21843001980E+03  0.00000000000E+00 0.  1.
</event>
<event>
12    1  0.9656379E-001  0.8508216E+03  0.7818608E-02  0.9489235E-01
          1   -1    0    0  502    0  0.00000000000E+00  0.00000000000E+00  0.15883666201E+04  0.15883666201E+04  0.00000000000E+00 0. -1.
         -1   -1    0    0    0  501 -0.00000000000E+00 -0.00000000000E+00 -0.49265367647E+03  0.49265367647E+03  0.00000000000E+00 0.  1.
          6    2    1    2  502    0  0.68009856211E+03  0.47997850033E+03  0.83218531032E+03  0.11895965070E+04  0.17231959781E+03 0.  0.
         24    2    3    3    0    0  0.45903245456E+03  0.28570695038E+03  0.45378737119E+03  0.71020235876E+03  0.78263377796E+02 0.  0.
         -6    2    1    2    0  501 -0.68009856211E+03 -0.47997850033E+03  0.26352763335E+03  0.89142378961E+03  0.17965562663E+03 0.  0.
        -24    2    5    5    0    0 -0.63346261908E+03 -0.48658265424E+03  0.23592616489E+03  0.83662910837E+03  0.79054035418E+02 0.  0.
          5    1    3    3  502    0  0.22106610755E+03  0.19427154996E+03  0.37839793913E+03  0.47939414824E+03  0.47000000000E+01 0. -1.
        -11    1    4    4    0    0  0.35724869969E+03  0.25676342741E+03  0.35289389932E+03  0.56399308086E+03  0.00000000000E+00 0.  1.
         12    1    4    4    0    0  0.10178375486E+03  0.28943522969E+02  0.10089347187E+03  0.14620927789E+03  0.00000000000E+00 0. -1.
         -5    1    5    5    0  501 -0.46635943028E+02  0.66041539090E+01  0.27601468451E+02  0.54794681235E+02  0.47000000000E+01 0.  1.
         13    1    6    6    0    0 -0.92081886323E+02 -0.51091633011E+02  0.54307034884E+02  0.11848494753E+03  0.00000000000E+00 0. -1.
        -14    1    6    6    0    0 -0.54138073276E+03 -0.43549102123E+03  0.18161913001E+03  0.71814416085E+03  0.00000000000E+00 0.  1.
</event>
<event>
12    1  0.9656379E-001  0.6343436E+03  0.7818608E-02  0.9836609E-01
          2   -1    0    0  502    0  0.00000000000E+00  0.00000000000E+00  0.53637594068E+03  0.53637594068E+03  0.00000000000E+00 0. -1.
         -2   -1    0    0    0  501 -0.00000000000E+00 -0.00000000000E+00 -0.77544814227E+03  0.77544814227E+03  0.00000000000E+00 0.  1.
          6    2    1    2  502    0 -0.28289816676E+02  0.60936710233E+03 -0.13067070020E+01  0.63495986238E+03  0.17619233873E+03 0.  0.
         24    2    3    3    0    0 -0.65694294880E+02  0.31255860214E+03 -0.46562016275E+02  0.33236357392E+03  0.79302608772E+02 0.  0.
         -6    2    1    2    0  501  0.28289816676E+02 -0.60936710233E+03 -0.23776549459E+03  0.67686422057E+03  0.17170953250E+03 0.  0.
        -24    2    5    5    0    0  0.88238400620E+01 -0.60813402628E+03 -0.23373585616E+03  0.65640028381E+03  0.79523757832E+02 0.  0.
          5    1    3    3  502    0  0.37404478204E+02  0.29680850018E+03  0.45255309273E+02  0.30259628846E+03  0.47000000000E+01 0. -1.
        -11    1    4    4    0    0  0.10628605893E+02  0.71881248427E+02 -0.32166899395E+02  0.79464398037E+02  0.00000000000E+00 0.  1.
         12    1    4    4    0    0 -0.76322900773E+02  0.24067735372E+03 -0.14395116881E+02  0.25289917589E+03  0.00000000000E+00 0. -1.
         -5    1    5    5    0  501  0.19465976613E+02 -0.12330760492E+01 -0.40296384292E+01  0.20463936765E+02  0.47000000000E+01 0.  1.
         13    1    6    6    0    0  0.19756140596E+02 -0.20754728934E+03 -0.44277090848E+02  0.21313526967E+03  0.00000000000E+00 0. -1.
        -14    1    6    6    0    0 -0.10932300534E+02 -0.40058673693E+03 -0.18945876531E+03  0.44326501414E+03  0.00000000000E+00 0.  1.
</event>
<event>
12    1  0.9656379E-001  0.9006960E+03  0.7818608E-02  0.9424712E-01
         -2   -1    0    0    0  501 -0.00000000000E+00  0.00000000000E+00  0.93404852335E+03  0.93404852335E+03  0.00000000000E+00 0.  1.
          2   -1    0    0  502    0  0.00000000000E+00 -0.00000000000E+00 -0.87811638586E+03  0.87811638586E+03  0.00000000000E+00 0. -1.
          6    2    1    2  502    0 -0.88321014836E+03 -0.37705938415E+02 -0.66683299810E+02  0.90315736071E+03  0.17252435122E+03 0.  0.
         24    2    3    3    0    0 -0.75279053903E+03 -0.80478462704E+02 -0.33790378996E+02  0.76193839041E+03  0.78980646073E+02 0.  0.
         -6    2    1    2    0  501  0.88321014836E+03  0.37705938415E+02  0.12261543730E+03  0.90900754850E+03  0.17256382530E+03 0.  0.
        -24    2    5    5    0    0  0.53451823771E+03 -0.40301820809E+02  0.50326173819E+02  0.54442684870E+03  0.80832460097E+02 0.  0.
          5    1    3    3  502    0 -0.13041960933E+03  0.42772524289E+02 -0.32892920813E+02  0.14121897029E+03  0.47000000000E+01 0. -1.
        -13    1    4    4    0    0 -0.53905137586E+03 -0.79828906422E+02 -0.52101110743E+02  0.54741535041E+03  0.00000000000E+00 0.  1.
         14    1    4    4    0    0 -0.21373916317E+03 -0.64955628199E+00  0.18310731747E+02  0.21452304000E+03  0.00000000000E+00 0. -1.
         -5    1    5    5    0  501  0.34869191065E+03  0.78007759223E+02  0.72289263480E+02  0.36458069980E+03  0.47000000000E+01 0.  1.
         13    1    6    6    0    0  0.50267926264E+02  0.10458354735E+01 -0.18481460154E+02  0.53567924658E+02  0.00000000000E+00 0. -1.
        -14    1    6    6    0    0  0.48425031145E+03 -0.41347656282E+02  0.68807633973E+02  0.49085892404E+03  0.00000000000E+00 0.  1.
</event>
<event>
12    1  0.9656379E-001  0.7253536E+03  0.7818608E-02  0.9674830E-01
          1   -1    0    0  502    0  0.00000000000E+00  0.00000000000E+00  0.10833809557E+04  0.10833809557E+04  0.00000000000E+00 0. -1.
         -1   -1    0    0    0  501 -0.00000000000E+00 -0.00000000000E+00 -0.48950516500E+03  0.48950516500E+03  0.00000000000E+00 0.  1.
          6    2    1    2  502    0 -0.50184074845E+03 -0.49458822252E+03  0.22713908262E+03  0.76019083132E+03  0.17273184565E+03 0.  0.
         24    2    3    3    0    0 -0.19749120397E+03 -0.14382649023E+03  0.11813979354E+03  0.28315270592E+03  0.80805996763E+02 0.  0.
         -6    2    1    2    0  501  0.50184074845E+03  0.49458822252E+03  0.36673670807E+03  0.81269528937E+03  0.17180271725E+03 0.  0.
        -24    2    5    5    0    0  0.43430309242E+03  0.43689598848E+03  0.25864247207E+03  0.67270892323E+03  0.78384221575E+02 0.  0.
          5    1    3    3  502    0 -0.30434954448E+03 -0.35076173229E+03  0.10899928908E+03  0.47703812540E+03  0.47000000000E+01 0. -1.
        -13    1    4    4    0    0 -0.18670376756E+00 -0.19500233281E+02 -0.39829015924E+01  0.19903704715E+02  0.00000000000E+00 0.  1.
         14    1    4    4    0    0 -0.19730450020E+03 -0.12432625695E+03  0.12212269513E+03  0.26324900120E+03  0.00000000000E+00 0. -1.
         -5    1    5    5    0  501  0.67537656028E+02  0.57692234046E+02  0.10809423599E+03  0.13998636614E+03  0.47000000000E+01 0.  1.
         13    1    6    6    0    0  0.25863039239E+03  0.25896258323E+03  0.19497325504E+03  0.41468767713E+03  0.00000000000E+00 0. -1.
        -14    1    6    6    0    0  0.17567270003E+03  0.17793340525E+03  0.63669217029E+02  0.25802124610E+03  0.00000000000E+00 0.  1.
</event>
<event>
12    1  0.9656379E-001  0.3405042E+03  0.7818608E-02  0.1066581E+00
          1   -1    0    0  502    0  0.00000000000E+00  0.00000000000E+00  0.22726518280E+04  0.22726518280E+04  0.00000000000E+00 0. -1.
         -1   -1    0    0    0  501 -0.00000000000E+00 -0.00000000000E+00 -0.87914891836E+02  0.87914891836E+02  0.00000000000E+00 0.  1.
          6    2    1    2  502    0 -0.23875116366E+03  0.17007984264E+03  0.32772183565E+03  0.47259157537E+03  0.17323950048E+03 0.  0.
         24    2    3    3    0    0 -0.15864770730E+03  0.18342082078E+03  0.22012527844E+03  0.33770771962E+03  0.82335127096E+02 0.  0.
         -6    2    1    2    0  501  0.23875116366E+03 -0.17007984264E+03  0.18570151005E+04  0.18879751445E+04  0.17325066109E+03 0.  0.
        -24    2    5    5    0    0  0.17908685070E+03 -0.19157938752E+03  0.14009566798E+04  0.14275042618E+04  0.79460914864E+02 0.  0.
          5    1    3    3  502    0 -0.80103456366E+02 -0.13340978141E+02  0.10759655720E+03  0.13488385575E+03  0.47000000000E+01 0. -1.
        -13    1    4    4    0    0 -0.91225904149E+02  0.71870190298E+02  0.58390467260E+02  0.12998821681E+03  0.00000000000E+00 0.  1.
         14    1    4    4    0    0 -0.67421803148E+02  0.11155063048E+03  0.16173481118E+03  0.20771950281E+03  0.00000000000E+00 0. -1.
         -5    1    5    5    0  501  0.59664312959E+02  0.21499544882E+02  0.45605842077E+03  0.46047088271E+03  0.47000000000E+01 0.  1.
         11    1    6    6    0    0  0.48932150378E+02 -0.27843936386E+02  0.46882514402E+03  0.47219345167E+03  0.00000000000E+00 0. -1.
        -12    1    6    6    0    0  0.13015470033E+03 -0.16373545113E+03  0.93213153574E+03  0.95531081010E+03  0.00000000000E+00 0.  1.
</event>
<event>
12    1  0.9656379E-001  0.3142837E+03  0.7818608E-02  0.1078311E+00
         -1   -1    0    0    0  501 -0.00000000000E+00  0.00000000000E+00  0.14937196354E+04  0.14937196354E+04  0.00000000000E+00 0.  1.
          1   -1    0    0  502    0  0.00000000000E+00 -0.00000000000E+00 -0.96859130377E+03  0.96859130377E+03  0.00000000000E+00 0. -1.
          6    2    1    2  502    0 -0.26450408384E+03  0.22818445162E+02  0.14508161280E+04  0.14839865996E+04  0.16390759229E+03 0.  0.
         24    2    3    3    0    0 -0.18120919117E+03 -0.41563746106E+02  0.82934848091E+03  0.85364761775E+03  0.79567811013E+02 0.  0.
         -6    2    1    2    0  501  0.26450408384E+03 -0.22818445162E+02 -0.92568779637E+03  0.97832433953E+03  0.17244571654E+03 0.  0.
        -24    2    5    5    0    0  0.16009930384E+03 -0.61809934938E+02 -0.71940273821E+03  0.74381141967E+03  0.79138316459E+02 0.  0.
          5    1    3    3  502    0 -0.83294892672E+02  0.64382191268E+02  0.62146764706E+03  0.63033898186E+03  0.47000000000E+01 0. -1.
        -13    1    4    4    0    0 -0.18954229265E+03 -0.39208965362E+02  0.79562248282E+03  0.81882767346E+03  0.00000000000E+00 0.  1.
         14    1    4    4    0    0  0.83331014831E+01 -0.23547807438E+01  0.33725998094E+02  0.34819944286E+02  0.00000000000E+00 0. -1.
         -5    1    5    5    0  501  0.10440478000E+03  0.38991489777E+02 -0.20628505816E+03  0.23451291986E+03  0.47000000000E+01 0.  1.
         13    1    6    6    0    0  0.13817396106E+03 -0.48885443310E+02 -0.45130236513E+03  0.47450569528E+03  0.00000000000E+00 0. -1.
        -14    1    6    6    0    0  0.21925342781E+02 -0.12924491629E+02 -0.26810037308E+03  0.26930572438E+03  0.00000000000E+00 0.  1.
</event>
<event>
12    1  0.9656379E-001  0.1721475E+03  0.7818608E-02  0.1175627E+00
          1   -1    0    0  502    0  0.00000000000E+00  0.00000000000E+00  0.55105803632E+03  0.55105803632E+03  0.00000000000E+00 0.  1.
         -1   -1    0    0    0  501 -0.00000000000E+00 -0.00000000000E+00 -0.56844055560E+02  0.56844055560E+02  0.00000000000E+00 0. -1.
          6    2    1    2  502    0  0.38223086403E+01  0.11763432085E+02  0.31721624930E+03  0.36074847089E+03  0.17134853967E+03 0.  0.
         24    2    3    3    0    0  0.56303458724E+02 -0.27757049020E+02  0.14586198045E+03  0.17717147071E+03  0.78571492650E+02 0.  0.
         -6    2    1    2    0  501 -0.38223086403E+01 -0.11763432085E+02  0.17699773146E+03  0.24715362099E+03  0.17205733652E+03 0.  0.
        -24    2    5    5    0    0 -0.34629032576E+02 -0.30442649642E+02  0.18788369674E+03  0.20922524575E+03  0.79680581979E+02 0.  0.
          5    1    3    3  502    0 -0.52481150084E+02  0.39520481105E+02  0.17135426886E+03  0.18357700018E+03  0.47000000000E+01 0. -1.
        -13    1    4    4    0    0  0.68209120714E+02 -0.20161143389E+02  0.14669055904E+03  0.16302477101E+03  0.00000000000E+00 0.  1.
         14    1    4    4    0    0 -0.11905661990E+02 -0.75959056311E+01 -0.82857859351E+00  0.14146699695E+02  0.00000000000E+00 0. -1.
         -5    1    5    5    0  501  0.30806723936E+02  0.18679217557E+02 -0.10885965285E+02  0.37928375241E+02  0.47000000000E+01 0.  1.
         13    1    6    6    0    0  0.10261066603E+02 -0.39994200438E+02  0.12303941505E+03  0.12978259981E+03  0.00000000000E+00 0. -1.
        -14    1    6    6    0    0 -0.44890099179E+02  0.95515507959E+01  0.64844281692E+02  0.79442645946E+02  0.00000000000E+00 0.  1.
</event>
<event>
12    1  0.2735646E+000  0.1007702E+04  0.7818608E-02  0.9300137E-01
          4   -1    0    0  502    0  0.00000000000E+00  0.00000000000E+00  0.73091488867E+03  0.73091488867E+03  0.00000000000E+00 0. -1.
         -4   -1    0    0    0  501 -0.00000000000E+00 -0.00000000000E+00 -0.15001552113E+04  0.15001552113E+04  0.00000000000E+00 0.  1.
          6    2    1    2  502    0  0.94475963810E+03  0.30525570764E+03 -0.68779596273E+03  0.12199091267E+04  0.17135685027E+03 0.  0.
         24    2    3    3    0    0  0.38911489149E+03  0.19533602294E+03 -0.30212381001E+03  0.53464383431E+03  0.70701289606E+02 0.  0.
         -6    2    1    2    0  501 -0.94475963810E+03 -0.30525570764E+03 -0.81444359880E+02  0.10111609733E+04  0.17338255192E+03 0.  0.
        -24    2    5    5    0    0 -0.78935652418E+03 -0.24184201736E+03 -0.12164549486E+03  0.83850627400E+03  0.81999155452E+02 0.  0.
          5    1    3    3  502    0  0.55564474661E+03  0.10991968470E+03 -0.38567215272E+03  0.68526529235E+03  0.47000000000E+01 0. -1.
        -11    1    4    4    0    0  0.28427189311E+03  0.10658974402E+03 -0.20181409721E+03  0.36455563715E+03  0.00000000000E+00 0.  1.
         12    1    4    4    0    0  0.10484299838E+03  0.88746278927E+02 -0.10030971280E+03  0.17008819717E+03  0.00000000000E+00 0. -1.
         -5    1    5    5    0  501 -0.15540311392E+03 -0.63413690280E+02  0.40201134982E+02  0.17265469928E+03  0.47000000000E+01 0.  1.
         11    1    6    6    0    0 -0.27683885974E+03 -0.56885179760E+02 -0.13078266482E+02  0.28292528871E+03  0.00000000000E+00 0. -1.
        -12    1    6    6    0    0 -0.51251766444E+03 -0.18495683760E+03 -0.10856722838E+03  0.55558098529E+03  0.00000000000E+00 0.  1.
</event>
<event>
12    1  0.9656379E-001  0.2212509E+03  0.7818608E-02  0.1132954E+00
          2   -1    0    0  502    0  0.00000000000E+00  0.00000000000E+00  0.23169669632E+04  0.23169669632E+04  0.00000000000E+00 0. -1.
         -2   -1    0    0    0  501 -0.00000000000E+00 -0.00000000000E+00 -0.44345721547E+02  0.44345721547E+02  0.00000000000E+00 0.  1.
          6    2    1    2  502    0  0.61378150813E+02 -0.12670821318E+03  0.27938371535E+03  0.35571365303E+03  0.16927697383E+03 0.  0.
         24    2    3    3    0    0  0.76803384712E+02 -0.14597174168E+03  0.27277965384E+03  0.32973818385E+03  0.84332799475E+02 0.  0.
         -6    2    1    2    0  501 -0.61378150813E+02  0.12670821318E+03  0.19932375263E+04  0.20055990317E+04  0.17207379538E+03 0.  0.
        -24    2    5    5    0    0 -0.31958221948E+00  0.10114548393E+02  0.10821127515E+04  0.10850053772E+04  0.78525507787E+02 0.  0.
          5    1    3    3  502    0 -0.15425233899E+02  0.19263528500E+02  0.66040615101E+01  0.25975469188E+02  0.47000000000E+01 0. -1.
        -11    1    4    4    0    0  0.43036254325E+02 -0.14319824628E+03  0.20254395212E+03  0.25175764033E+03  0.00000000000E+00 0.  1.
         12    1    4    4    0    0  0.33767130387E+02 -0.27734953953E+01  0.70235701720E+02  0.77980543519E+02  0.00000000000E+00 0. -1.
         -5    1    5    5    0  501 -0.61058568593E+02  0.11659366478E+03  0.91112477480E+03  0.92059365451E+03  0.47000000000E+01 0.  1.
         11    1    6    6    0    0 -0.21001680055E+02  0.14277896443E+02  0.99677745073E+03  0.99710090521E+03  0.00000000000E+00 0. -1.
        -12    1    6    6    0    0  0.20682097836E+02 -0.41633480492E+01  0.85335300746E+02  0.87904471964E+02  0.00000000000E+00 0.  1.
</event>
<event>
12    1  0.9656379E-001  0.2878231E+03  0.7818608E-02  0.1091491E+00
         -1   -1    0    0    0  501 -0.00000000000E+00  0.00000000000E+00  0.50438228533E+02  0.50438228533E+02  0.00000000000E+00 0.  1.
          1   -1    0    0  502    0  0.00000000000E+00 -0.00000000000E+00 -0.24816715555E+04  0.24816715555E+04  0.00000000000E+00 0. -1.
          6    2    1    2  502    0 -0.53635777378E+02 -0.22595012769E+03 -0.48237543681E+03  0.56226797799E+03  0.17183992615E+03 0.  0.
         24    2    3    3    0    0 -0.50282743438E+01 -0.89526366169E+02 -0.11395053164E+03  0.16637262211E+03  0.81577398489E+02 0.  0.
         -6    2    1    2    0  501  0.53635777378E+02  0.22595012769E+03 -0.19488578901E+04  0.19698418060E+04  0.16822427882E+03 0.  0.
        -24    2    5    5    0    0  0.27340044681E+02  0.24020435361E+03 -0.16491476097E+04  0.16686060333E+04  0.78183416030E+02 0.  0.
          5    1    3    3  502    0 -0.48607503035E+02 -0.13642376152E+03 -0.36842490517E+03  0.39589535588E+03  0.47000000000E+01 0. -1.
        -11    1    4    4    0    0  0.25990547205E+02 -0.86134310823E+02 -0.86664669096E+02  0.12492154704E+03  0.00000000000E+00 0.  1.
         12    1    4    4    0    0 -0.31018821549E+02 -0.33920553463E+01 -0.27285862543E+02  0.41451075070E+02  0.00000000000E+00 0. -1.
         -5    1    5    5    0  501  0.26295732698E+02 -0.14254225919E+02 -0.29971028049E+03  0.30123577268E+03  0.47000000000E+01 0.  1.
         11    1    6    6    0    0 -0.13426598701E+02  0.35338764073E+02 -0.13777716298E+03  0.14286934044E+03  0.00000000000E+00 0. -1.
        -12    1    6    6    0    0  0.40766643382E+02  0.20486558954E+03 -0.15113704467E+04  0.15257366929E+04  0.00000000000E+00 0.  1.
</event>
<event>
12    1  0.9656379E-001  0.1870552E+03  0.7818608E-02  0.1161144E+00
          3   -1    0    0  502    0  0.00000000000E+00  0.00000000000E+00  0.10768688170E+04  0.10768688170E+04  0.00000000000E+00 0. -1.
         -3   -1    0    0    0  501 -0.00000000000E+00 -0.00000000000E+00 -0.13041270185E+03  0.13041270185E+03  0.00000000000E+00 0.  1.
          6    2    1    2  502    0 -0.29854436572E+02  0.68707316093E+02 -0.50883508619E+02  0.19223965738E+03  0.16957290984E+03 0.  0.
         24    2    3    3    0    0 -0.75270833773E+00  0.99541726569E+02 -0.69782445750E+02  0.14558206121E+03  0.80096347691E+02 0.  0.
         -6    2    1    2    0  501  0.29854436572E+02 -0.68707316093E+02  0.99733962373E+03  0.10150418614E+04  0.17323877370E+03 0.  0.
        -24    2    5    5    0    0 -0.33947507977E+02 -0.46808019318E+02  0.33015931711E+03  0.34444368154E+03  0.79327492746E+02 0.  0.
          5    1    3    3  502    0 -0.29101728234E+02 -0.30834410476E+02  0.18898937131E+02  0.46657596169E+02  0.47000000000E+01 0. -1.
        -13    1    4    4    0    0  0.30916993212E+02  0.19948110452E+02 -0.41290005982E+02  0.55305082713E+02  0.00000000000E+00 0.  1.
         14    1    4    4    0    0 -0.31669701550E+02  0.79593616117E+02 -0.28492439769E+02  0.90276978498E+02  0.00000000000E+00 0. -1.
         -5    1    5    5    0  501  0.63801944549E+02 -0.21899296775E+02  0.66718030662E+03  0.67059817989E+03  0.47000000000E+01 0.  1.
         11    1    6    6    0    0 -0.12735123047E+02 -0.57032285057E+02  0.30261543186E+03  0.30820604228E+03  0.00000000000E+00 0. -1.
        -12    1    6    6    0    0 -0.21212384930E+02  0.10224265739E+02  0.27543885256E+02  0.36237639262E+02  0.00000000000E+00 0.  1.
</event>
<event>
12    1  0.9656379E-001  0.5715238E+03  0.7818608E-02  0.9966312E-01
         -2   -1    0    0    0  501 -0.00000000000E+00  0.00000000000E+00  0.28457040419E+03  0.28457040419E+03  0.00000000000E+00 0.  1.
          2   -1    0    0  502    0  0.00000000000E+00 -0.00000000000E+00 -0.11635818382E+04  0.11635818382E+04  0.00000000000E+00 0. -1.
          6    2    1    2  502    0  0.15996979043E+02  0.54483805222E+03 -0.35529247035E+03  0.67298387730E+03  0.17195974275E+03 0.  0.
         24    2    3    3    0    0  0.11791792680E+02  0.17255148254E+03 -0.17544607422E+03  0.25948443382E+03  0.81472608472E+02 0.  0.
         -6    2    1    2    0  501 -0.15996979043E+02 -0.54483805222E+03 -0.52371896368E+03  0.77516836511E+03  0.17175574185E+03 0.  0.
        -24    2    5    5    0    0  0.54465439583E+02 -0.25710710105E+03 -0.23300934076E+03  0.36009219432E+03  0.79388223351E+02 0.  0.
          5    1    3    3  502    0  0.42051863633E+01  0.37228656969E+03 -0.17984639612E+03  0.41349944348E+03  0.47000000000E+01 0. -1.
        -13    1    4    4    0    0  0.24767956415E+02  0.14385406950E+03 -0.17513170295E+03  0.22798806626E+03  0.00000000000E+00 0.  1.
         14    1    4    4    0    0 -0.12976163735E+02  0.28697413035E+02 -0.31437127596E+00  0.31496367560E+02  0.00000000000E+00 0. -1.
         -5    1    5    5    0  501 -0.70462418627E+02 -0.28773095118E+03 -0.29070962292E+03  0.41507617079E+03  0.47000000000E+01 0.  1.
         11    1    6    6    0    0 -0.27481720153E+01 -0.17053313849E+03 -0.13791158641E+03  0.21933697690E+03  0.00000000000E+00 0. -1.
        -12    1    6    6    0    0  0.57213611599E+02 -0.86573962561E+02 -0.95097754357E+02  0.14075521741E+03  0.00000000000E+00 0.  1.
</event>
<event>
12    1  0.9656379E-001  0.2826549E+03  0.7818608E-02  0.1094248E+00
         -2   -1    0    0    0  501 -0.00000000000E+00  0.00000000000E+00  0.18452471879E+03  0.18452471879E+03  0.00000000000E+00 0.  1.
          2   -1    0    0  502    0  0.00000000000E+00 -0.00000000000E+00 -0.83216923481E+03  0.83216923481E+03  0.00000000000E+00 0. -1.
          6    2    1    2  502    0 -0.45148665586E+02 -0.21912044929E+03  0.28583407646E+02  0.28356186801E+03  0.17186665905E+03 0.  0.
         24    2    3    3    0    0 -0.19954611277E+02 -0.15811692910E+03  0.83489293106E+02  0.19757979949E+03  0.81658834946E+02 0.  0.
         -6    2    1    2    0  501  0.45148665586E+02  0.21912044929E+03 -0.67622792366E+03  0.73313208559E+03  0.17362683229E+03 0.  0.
        -24    2    5    5    0    0 -0.82345401333E+01  0.21453934640E+03 -0.56192592233E+03  0.60680793642E+03  0.79750803818E+02 0.  0.
          5    1    3    3  502    0 -0.25194054309E+02 -0.61003520184E+02 -0.54905885460E+02  0.85982068512E+02  0.47000000000E+01 0. -1.
        -11    1    4    4    0    0  0.16515817268E+01 -0.13236984171E+03  0.32169616019E+02  0.13623284079E+03  0.00000000000E+00 0.  1.
         12    1    4    4    0    0 -0.21606193003E+02 -0.25747087395E+02  0.51319677087E+02  0.61346958700E+02  0.00000000000E+00 0. -1.
         -5    1    5    5    0  501  0.53383205719E+02  0.45811028839E+01 -0.11430200133E+03  0.12632414918E+03  0.47000000000E+01 0.  1.
         13    1    6    6    0    0 -0.52578347398E+01  0.93495745549E+02 -0.14461346790E+03  0.17228509616E+03  0.00000000000E+00 0. -1.
        -14    1    6    6    0    0 -0.29767053935E+01  0.12104360085E+03 -0.41731245442E+03  0.43452284025E+03  0.00000000000E+00 0.  1.
</event>
<event>
12    1  0.9656379E-001  0.1509555E+04  0.7818608E-02  0.8878124E-01
          2   -1    0    0  502    0  0.00000000000E+00  0.00000000000E+00  0.16414545009E+04  0.16414545009E+04  0.00000000000E+00 0. -1.
         -2   -1    0    0    0  501 -0.00000000000E+00 -0.00000000000E+00 -0.14502278311E+04  0.14502278311E+04  0.00000000000E+00 0.  1.
          6    2    1    2  502    0 -0.59684160974E+03  0.13758690978E+04  0.41517359830E+03  0.15656626588E+04  0.17232168471E+03 0.  0.
         24    2    3    3    0    0 -0.55742623603E+03  0.13164092195E+04  0.42451278953E+03  0.14935630103E+04  0.82837887669E+02 0.  0.
         -6    2    1    2    0  501  0.59684160974E+03 -0.13758690978E+04 -0.22394692845E+03  0.15260196733E+04  0.17131297393E+03 0.  0.
        -24    2    5    5    0    0  0.16271940955E+03 -0.43750601406E+03 -0.34968538131E+02  0.47496197569E+03  0.80479569524E+02 0.  0.
          5    1    3    3  502    0 -0.39415373712E+02  0.59459878321E+02 -0.93391912288E+01  0.72099648457E+02  0.47000000000E+01 0.  1.
        -11    1    4    4    0    0 -0.13092144076E+03  0.31762045736E+03  0.13916030508E+03  0.37065991029E+03  0.00000000000E+00 0.  1.
         12    1    4    4    0    0 -0.42650479527E+03  0.99878876210E+03  0.28535248445E+03  0.11229031000E+04  0.00000000000E+00 0. -1.
         -5    1    5    5    0  501  0.43412220019E+03 -0.93836308373E+03 -0.18897839032E+03  0.10510576976E+04  0.47000000000E+01 0.  1.
         13    1    6    6    0    0  0.16805399974E+03 -0.41202560788E+03 -0.21134538241E+02  0.44548166863E+03  0.00000000000E+00 0. -1.
        -14    1    6    6    0    0 -0.53345901879E+01 -0.25480406176E+02 -0.13833999891E+02  0.29480307060E+02  0.00000000000E+00 0.  1.
</event>
<event>
12    1  0.9656379E-001  0.8331184E+03  0.7818608E-02  0.9513279E-01
          2   -1    0    0  502    0  0.00000000000E+00  0.00000000000E+00  0.23357555257E+04  0.23357555257E+04  0.00000000000E+00 0. -1.
         -2   -1    0    0    0  501 -0.00000000000E+00 -0.00000000000E+00 -0.86084725426E+03  0.86084725426E+03  0.00000000000E+00 0.  1.
          6    2    1    2  502    0 -0.52453538377E+03  0.62509527623E+03 -0.55558424124E+03  0.10022243629E+04  0.17291139706E+03 0.  0.
         24    2    3    3    0    0 -0.12073344926E+03  0.19588396599E+03 -0.19081994003E+03  0.30914901590E+03  0.78827473731E+02 0.  0.
         -6    2    1    2    0  501  0.52453538377E+03 -0.62509527623E+03  0.20304925127E+04  0.21943784170E+04  0.16283525437E+03 0.  0.
        -24    2    5    5    0    0  0.27971150778E+03 -0.40806300913E+03  0.11422166019E+04  0.12477539304E+04  0.86470561508E+02 0.  0.
          5    1    3    3  502    0 -0.40380193451E+03  0.42921131024E+03 -0.36476430121E+03  0.69307534697E+03  0.47000000000E+01 0. -1.
        -11    1    4    4    0    0 -0.11688476982E+03  0.12959775397E+03 -0.15646159572E+03  0.23438826375E+03  0.00000000000E+00 0.  1.
         12    1    4    4    0    0 -0.38486794431E+01  0.66286212025E+02 -0.34358344314E+02  0.74760752151E+02  0.00000000000E+00 0. -1.
         -5    1    5    5    0  501  0.24482387599E+03 -0.21703226710E+03  0.88827591072E+03  0.94662448668E+03  0.47000000000E+01 0.  1.
         13    1    6    6    0    0  0.20281657379E+03 -0.25631690181E+03  0.83300551885E+03  0.89483580125E+03  0.00000000000E+00 0. -1.
        -14    1    6    6    0    0  0.76894933990E+02 -0.15174610732E+03  0.30921108308E+03  0.35291812912E+03  0.00000000000E+00 0.  1.
</event>
<event>
12    1  0.9656379E-001  0.7515555E+03  0.7818608E-02  0.9632913E-01
          2   -1    0    0  502    0  0.00000000000E+00  0.00000000000E+00  0.89657713619E+03  0.89657713619E+03  0.00000000000E+00 0. -1.
         -2   -1    0    0    0  501 -0.00000000000E+00 -0.00000000000E+00 -0.73190274662E+03  0.73190274662E+03  0.00000000000E+00 0.  1.
          6    2    1    2  502    0  0.14763645270E+03 -0.71643965056E+03 -0.22152384881E+03  0.78325369435E+03  0.17126365368E+03 0.  0.
         24    2    3    3    0    0  0.17451483249E+03 -0.56686438736E+03 -0.16599417671E+03  0.62138695550E+03  0.82322666128E+02 0.  0.
         -6    2    1    2    0  501 -0.14763645270E+03  0.71643965056E+03  0.38619823839E+03  0.84522618846E+03  0.17371221969E+03 0.  0.
        -24    2    5    5    0    0 -0.12756789046E+03  0.38110901053E+03  0.26507314693E+03  0.48809489171E+03  0.80344293618E+02 0.  0.
          5    1    3    3  502    0 -0.26878379794E+02 -0.14957526320E+03 -0.55529672103E+02  0.16186673885E+03  0.47000000000E+01 0. -1.
        -11    1    4    4    0    0  0.13076965879E+03 -0.35336127986E+03 -0.13979187546E+03  0.40187891984E+03  0.00000000000E+00 0.  1.
         12    1    4    4    0    0  0.43745173699E+02 -0.21350310749E+03 -0.26202301254E+02  0.21950803567E+03  0.00000000000E+00 0. -1.
         -5    1    5    5    0  501 -0.20068562242E+02  0.33533064003E+03  0.12112509146E+03  0.35713129674E+03  0.47000000000E+01 0.  1.
         11    1    6    6    0    0 -0.44747253520E+02  0.76655949044E+02  0.93597751749E+02  0.12899221044E+03  0.00000000000E+00 0. -1.
        -12    1    6    6    0    0 -0.82820636937E+02  0.30445306148E+03  0.17147539518E+03  0.35910268128E+03  0.00000000000E+00 0.  1.
</event>
<event>
12    1  0.9656379E-001  0.8263455E+03  0.7818608E-02  0.9522647E-01
         -2   -1    0    0    0  501 -0.00000000000E+00  0.00000000000E+00  0.60169170545E+03  0.60169170545E+03  0.00000000000E+00 0.  1.
          2   -1    0    0  502    0  0.00000000000E+00 -0.00000000000E+00 -0.15816120375E+04  0.15816120375E+04  0.00000000000E+00 0. -1.
          6    2    1    2  502    0  0.58483313882E+03  0.55760689818E+03  0.90234718502E+02  0.83120972317E+03  0.17266165270E+03 0.  0.
         24    2    3    3    0    0  0.57973301939E+03  0.52991529008E+03  0.63008540581E+02  0.79176113458E+03  0.77556621972E+02 0.  0.
         -6    2    1    2    0  501 -0.58483313882E+03 -0.55760689818E+03 -0.10701550506E+04  0.13520940198E+04  0.17312178654E+03 0.  0.
        -24    2    5    5    0    0 -0.35131603744E+03 -0.35687898769E+03 -0.55381880378E+03  0.75088927895E+03  0.79585625563E+02 0.  0.
          5    1    3    3  502    0  0.51001194210E+01  0.27691608097E+02  0.27226177921E+02  0.39448588584E+02  0.47000000000E+01 0. -1.
        -11    1    4    4    0    0  0.22181136436E+03  0.15932778721E+03  0.35188523150E+01  0.27312635804E+03  0.00000000000E+00 0.  1.
         12    1    4    4    0    0  0.35792165504E+03  0.37058750287E+03  0.59489688266E+02  0.51863477654E+03  0.00000000000E+00 0. -1.
         -5    1    5    5    0  501 -0.23351710137E+03 -0.20072791049E+03 -0.51633624677E+03  0.60120474085E+03  0.47000000000E+01 0.  1.
         11    1    6    6    0    0 -0.11886607970E+03 -0.92869259961E+02 -0.12250115649E+03  0.19432029665E+03  0.00000000000E+00 0. -1.
        -12    1    6    6    0    0 -0.23244995774E+03 -0.26400972773E+03 -0.43131764729E+03  0.55656898229E+03  0.00000000000E+00 0.  1.
</event>
<event>
12    1  0.9656379E-001  0.3544221E+03  0.7818608E-02  0.1060815E+00
         -2   -1    0    0    0  501 -0.00000000000E+00  0.00000000000E+00  0.40349800381E+03  0.40349800381E+03  0.00000000000E+00 0.  1.
          2   -1    0    0  502    0  0.00000000000E+00 -0.00000000000E+00 -0.14557162422E+04  0.14557162422E+04  0.00000000000E+00 0. -1.
          6    2    1    2  502    0  0.12703911455E+03  0.28372198904E+03  0.29811916046E+03  0.46314308340E+03  0.17026267405E+03 0.  0.
         24    2    3    3    0    0  0.12319898381E+03  0.27186870022E+03  0.31525237071E+03  0.44144322272E+03  0.79984260194E+02 0.  0.
         -6    2    1    2    0  501 -0.12703911455E+03 -0.28372198904E+03 -0.13503373988E+04  0.13960711626E+04  0.17019546608E+03 0.  0.
        -24    2    5    5    0    0 -0.56554747065E+02 -0.10379854048E+03 -0.36593881636E+03  0.39287469502E+03  0.80415994960E+02 0.  0.
          5    1    3    3  502    0  0.38401307386E+01  0.11853288815E+02 -0.17133210248E+02  0.21699860673E+02  0.47000000000E+01 0.  1.
        -13    1    4    4    0    0  0.98097707734E+02  0.19976147006E+03  0.27909843755E+03  0.35696462434E+03  0.00000000000E+00 0.  1.
         14    1    4    4    0    0  0.25101276080E+02  0.72107230168E+02  0.36153933151E+02  0.84478598388E+02  0.00000000000E+00 0. -1.
         -5    1    5    5    0  501 -0.70484367487E+02 -0.17992344856E+03 -0.98439858245E+03  0.10031964676E+04  0.47000000000E+01 0.  1.
         11    1    6    6    0    0 -0.44667088065E+02 -0.95911455530E+02 -0.36326634793E+03  0.37836040437E+03  0.00000000000E+00 0. -1.
        -12    1    6    6    0    0 -0.11887659000E+02 -0.78870849470E+01 -0.26724684317E+01  0.14514290647E+02  0.00000000000E+00 0.  1.
</event>
<event>
12    1  0.9656379E-001  0.1835927E+03  0.7818608E-02  0.1164371E+00
         -2   -1    0    0    0  501 -0.00000000000E+00  0.00000000000E+00  0.16440247630E+03  0.16440247630E+03  0.00000000000E+00 0.  1.
          2   -1    0    0  502    0  0.00000000000E+00 -0.00000000000E+00 -0.16470912546E+04  0.16470912546E+04  0.00000000000E+00 0. -1.
          6    2    1    2  502    0 -0.34185574245E+02 -0.52986858310E+02  0.10653393041E+03  0.21161491090E+03  0.17162497355E+03 0.  0.
         24    2    3    3    0    0 -0.81293860756E+02 -0.52693410685E+02  0.43377692792E+02  0.13268407333E+03  0.79612510057E+02 0.  0.
         -6    2    1    2    0  501  0.34185574245E+02  0.52986858310E+02 -0.15892227088E+04  0.15998788200E+04  0.17322574913E+03 0.  0.
        -24    2    5    5    0    0  0.78223496654E+02  0.74486480063E+02 -0.11151969385E+04  0.11233034396E+04  0.80493817879E+02 0.  0.
          5    1    3    3  502    0  0.47108286511E+02 -0.29344762590E+00  0.63156237617E+02  0.78930837570E+02  0.47000000000E+01 0. -1.
        -13    1    4    4    0    0 -0.64518380155E+02  0.33735410587E+01  0.35256588896E+02  0.73600470227E+02  0.00000000000E+00 0.  1.
         14    1    4    4    0    0 -0.16775480601E+02 -0.56066951743E+02  0.81211038957E+01  0.59083603103E+02  0.00000000000E+00 0. -1.
         -5    1    5    5    0  501 -0.44037922409E+02 -0.21499621752E+02 -0.47402577024E+03  0.47657538040E+03  0.47000000000E+01 0.  1.
         11    1    6    6    0    0  0.68109191946E+02  0.83636415181E+02 -0.10827141161E+04  0.10880734208E+04  0.00000000000E+00 0. -1.
        -12    1    6    6    0    0  0.10114304708E+02 -0.91499351180E+01 -0.32482822451E+02  0.35230018830E+02  0.00000000000E+00 0.  1.
</event>
<event>
12    1  0.9656379E-001  0.3622623E+03  0.7818608E-02  0.1057692E+00
         -2   -1    0    0    0  501 -0.00000000000E+00  0.00000000000E+00  0.59665552642E+02  0.59665552642E+02  0.00000000000E+00 0.  1.
          2   -1    0    0  502    0  0.00000000000E+00 -0.00000000000E+00 -0.27864234876E+04  0.27864234876E+04  0.00000000000E+00 0. -1.
          6    2    1    2  502    0  0.25305586448E+03  0.19154679259E+03 -0.70723949466E+03  0.79415534099E+03  0.17253277519E+03 0.  0.
         24    2    3    3    0    0  0.24700005635E+03  0.17419942516E+03 -0.52590041385E+03  0.61182718574E+03  0.80042440957E+02 0.  0.
         -6    2    1    2    0  501 -0.25305586448E+03 -0.19154679259E+03 -0.20195184403E+04  0.20519336993E+04  0.17677593480E+03 0.  0.
        -24    2    5    5    0    0 -0.22609779904E+03 -0.86446190855E+02 -0.14176786611E+04  0.14403733313E+04  0.79179472417E+02 0.  0.
          5    1    3    3  502    0  0.60558081311E+01  0.17347367425E+02 -0.18133908081E+03  0.18232815525E+03  0.47000000000E+01 0. -1.
        -13    1    4    4    0    0  0.94834503812E+02  0.29983280302E+02 -0.21440263378E+03  0.23634946495E+03  0.00000000000E+00 0.  1.
         14    1    4    4    0    0  0.15216555254E+03  0.14421614486E+03 -0.31149778007E+03  0.37547772079E+03  0.00000000000E+00 0. -1.
         -5    1    5    5    0  501 -0.26958065445E+02 -0.10510060173E+03 -0.60183977924E+03  0.61156036796E+03  0.47000000000E+01 0.  1.
         11    1    6    6    0    0 -0.47876770444E+02 -0.29787974695E+01 -0.47220687335E+03  0.47463711361E+03  0.00000000000E+00 0. -1.
        -12    1    6    6    0    0 -0.17822102860E+03 -0.83467393386E+02 -0.94547178773E+03  0.96573621770E+03  0.00000000000E+00 0.  1.
</event>
<event>
12    1  0.9656379E-001  0.2432893E+03  0.7818608E-02  0.1117621E+00
         -2   -1    0    0    0  501 -0.00000000000E+00  0.00000000000E+00  0.43289025205E+03  0.43289025205E+03  0.00000000000E+00 0.  1.
          2   -1    0    0  502    0  0.00000000000E+00 -0.00000000000E+00 -0.21109501780E+03  0.21109501780E+03  0.00000000000E+00 0. -1.
          6    2    1    2  502    0  0.17048637507E+03 -0.25710144764E+02  0.30206342419E+03  0.38797105514E+03  0.17190873092E+03 0.  0.
         24    2    3    3    0    0  0.14355889001E+03 -0.47941802749E+02  0.30867745631E+03  0.35212176659E+03  0.76160325128E+02 0.  0.
         -6    2    1    2    0  501 -0.17048637507E+03  0.25710144764E+02 -0.80268189938E+02  0.25601421471E+03  0.17138751469E+03 0.  0.
        -24    2    5    5    0    0 -0.56622385266E+02 -0.45983246795E+02 -0.42913145032E+02  0.11629148948E+03  0.79759758081E+02 0.  0.
          5    1    3    3  502    0  0.26927485063E+02  0.22231657984E+02 -0.66140321198E+01  0.35849288548E+02  0.47000000000E+01 0. -1.
        -13    1    4    4    0    0  0.36400156347E+02  0.16089218601E+02  0.11508632108E+03  0.12177313184E+03  0.00000000000E+00 0.  1.
         14    1    4    4    0    0  0.10715873366E+03 -0.64031021350E+02  0.19359113523E+03  0.23034863475E+03  0.00000000000E+00 0. -1.
         -5    1    5    5    0  501 -0.11386398980E+03  0.71693391560E+02 -0.37355044906E+02  0.13972272523E+03  0.47000000000E+01 0.  1.
         13    1    6    6    0    0 -0.55938648772E+02 -0.33700815527E+01 -0.47452463837E+02  0.73431779226E+02  0.00000000000E+00 0. -1.
        -14    1    6    6    0    0 -0.68373649410E+00 -0.42613165243E+02  0.45393188047E+01  0.42859710251E+02  0.00000000000E+00 0.  1.
</event>
<event>
12    1  0.9656379E-001  0.4576628E+03  0.7818608E-02  0.1025461E+00
         -2   -1    0    0    0  501 -0.00000000000E+00  0.00000000000E+00  0.88021456058E+02  0.88021456058E+02  0.00000000000E+00 0.  1.
          2   -1    0    0  502    0  0.00000000000E+00 -0.00000000000E+00 -0.29912688697E+04  0.29912688697E+04  0.00000000000E+00 0. -1.
          6    2    1    2  502    0  0.37150899093E+03 -0.21258784598E+03 -0.74932908890E+03  0.87678104792E+03  0.15504321950E+03 0.  0.
         24    2    3    3    0    0  0.18290717626E+03 -0.58182325083E+02 -0.30099813817E+03  0.36645327015E+03  0.82752050973E+02 0.  0.
         -6    2    1    2    0  501 -0.37150899093E+03  0.21258784598E+03 -0.21539183247E+04  0.22025092778E+04  0.16873187817E+03 0.  0.
        -24    2    5    5    0    0 -0.16197957550E+03  0.89345105468E+02 -0.70377779142E+03  0.73212803292E+03  0.80550270921E+02 0.  0.
          5    1    3    3  502    0  0.18860181467E+03 -0.15440552090E+03 -0.44833095072E+03  0.51032777777E+03  0.47000000000E+01 0. -1.
        -11    1    4    4    0    0  0.11792243909E+03 -0.53176157515E+02 -0.25728675584E+03  0.28797548524E+03  0.00000000000E+00 0.  1.
         12    1    4    4    0    0  0.64984737171E+02 -0.50061675685E+01 -0.43711382337E+02  0.78477784912E+02  0.00000000000E+00 0. -1.
         -5    1    5    5    0  501 -0.20952941542E+03  0.12324274052E+03 -0.14501405333E+04  0.14703812449E+04  0.47000000000E+01 0.  1.
         11    1    6    6    0    0 -0.99030432514E+02  0.25626843457E+02 -0.48603234854E+03  0.49668018432E+03  0.00000000000E+00 0. -1.
        -12    1    6    6    0    0 -0.62949142990E+02  0.63718262012E+02 -0.21774544288E+03  0.23544784860E+03  0.00000000000E+00 0.  1.
</event>
<event>
12    1  0.9656379E-001  0.2271798E+03  0.7818608E-02  0.1128641E+00
          1   -1    0    0  502    0  0.00000000000E+00  0.00000000000E+00  0.13267411395E+04  0.13267411395E+04  0.00000000000E+00 0. -1.
         -1   -1    0    0    0  501 -0.00000000000E+00 -0.00000000000E+00 -0.53316538303E+02  0.53316538303E+02  0.00000000000E+00 0.  1.
          6    2    1    2  502    0  0.11178100205E+03 -0.93332218036E+02  0.27875381145E+03  0.35986519449E+03  0.17490962084E+03 0.  0.
         24    2    3    3    0    0  0.12690940127E+03 -0.30112919574E+02  0.14109389867E+03  0.20755665977E+03  0.78482448458E+02 0.  0.
         -6    2    1    2    0  501 -0.11178100205E+03  0.93332218036E+02  0.99467078974E+03  0.10201924833E+04  0.17382988149E+03 0.  0.
        -24    2    5    5    0    0 -0.92863880376E+02  0.12107698286E+03  0.68511003555E+03  0.70878024848E+03  0.98541076546E+02 0.  0.
          5    1    3    3  502    0 -0.15128399225E+02 -0.63219298463E+02  0.13765991278E+03  0.15230853472E+03  0.47000000000E+01 0. -1.
        -11    1    4    4    0    0 -0.98589855791E+01  0.27051070364E+01  0.17749756345E+02  0.20483433575E+02  0.00000000000E+00 0.  1.
         12    1    4    4    0    0  0.13676838685E+03 -0.32818026610E+02  0.12334414233E+03  0.18707322620E+03  0.00000000000E+00 0. -1.
         -5    1    5    5    0  501 -0.18917121672E+02 -0.27744764821E+02  0.30956075419E+03  0.31141223483E+03  0.47000000000E+01 0.  1.
         11    1    6    6    0    0 -0.47997271949E+02  0.48317017726E+02  0.50318996599E+03  0.50777791818E+03  0.00000000000E+00 0. -1.
        -12    1    6    6    0    0 -0.44866608427E+02  0.72759965132E+02  0.18192006956E+03  0.20100233030E+03  0.00000000000E+00 0.  1.
</event>
<event>
12    1  0.1110857E+000  0.5165130E+03  0.7818608E-02  0.1009556E+00
          2   -1    0    0  502    0  0.00000000000E+00  0.00000000000E+00  0.25323963706E+04  0.25323963706E+04  0.00000000000E+00 0. -1.
         -2   -1    0    0    0  501 -0.00000000000E+00 -0.00000000000E+00 -0.19762944329E+03  0.19762944329E+03  0.00000000000E+00 0.  1.
          6    2    1    2  502    0  0.44511131395E+03  0.19800782130E+03  0.23354771565E+03  0.56603828626E+03  0.16888939256E+03 0.  0.
         24    2    3    3    0    0  0.32136586280E+03  0.17339315211E+03  0.23162659499E+03  0.43976636015E+03  0.80014805124E+02 0.  0.
         -6    2    1    2    0  501 -0.44511131395E+03 -0.19800782130E+03  0.21012192117E+04  0.21639875276E+04  0.17432344994E+03 0.  0.
        -24    2    5    5    0    0 -0.40687469639E+03 -0.22360106561E+03  0.19353633986E+04  0.19918036323E+04  0.78139426705E+02 0.  0.
          5    1    3    3  502    0  0.12374545115E+03  0.24614669194E+02  0.19211206678E+01  0.12627192611E+03  0.47000000000E+01 0. -1.
        -13    1    4    4    0    0  0.21952162663E+03  0.10835307766E+03  0.11023111847E+03  0.26847911180E+03  0.00000000000E+00 0.  1.
         14    1    4    4    0    0  0.10184423618E+03  0.65040074445E+02  0.12139547652E+03  0.17128724834E+03  0.00000000000E+00 0. -1.
         -5    1    5    5    0  501 -0.38236617559E+02  0.25593244312E+02  0.16585581308E+03  0.17218389533E+03  0.47000000000E+01 0.  1.
         11    1    6    6    0    0 -0.13378740988E+03 -0.49028428413E+02  0.72001576120E+03  0.73397926007E+03  0.00000000000E+00 0. -1.
        -12    1    6    6    0    0 -0.27308728651E+03 -0.17457263720E+03  0.12153476374E+04  0.12578243722E+04  0.00000000000E+00 0.  1.
</event>
<event>
12    1  0.9656379E-001  0.7798833E+03  0.7818608E-02  0.9589600E-01
          2   -1    0    0  502    0  0.00000000000E+00  0.00000000000E+00  0.17685744196E+04  0.17685744196E+04  0.00000000000E+00 0. -1.
         -2   -1    0    0    0  501 -0.00000000000E+00 -0.00000000000E+00 -0.40157356189E+03  0.40157356189E+03  0.00000000000E+00 0.  1.
          6    2    1    2  502    0  0.68470288921E+03 -0.33515065762E+03  0.27194704066E+03  0.82549368301E+03  0.16229792965E+03 0.  0.
         24    2    3    3    0    0  0.42108281942E+03 -0.26517115586E+03  0.20943076010E+03  0.54563113247E+03  0.78902514074E+02 0.  0.
         -6    2    1    2    0  501 -0.68470288921E+03  0.33515065762E+03  0.10950538170E+04  0.13446542985E+04  0.16675823937E+03 0.  0.
        -24    2    5    5    0    0 -0.60319915506E+03  0.24715151685E+03  0.87557707738E+03  0.10944966748E+04  0.79716119189E+02 0.  0.
          5    1    3    3  502    0  0.26362006979E+03 -0.69979501761E+02  0.62516280559E+02  0.27986255055E+03  0.47000000000E+01 0. -1.
        -13    1    4    4    0    0  0.33265571027E+03 -0.19071288303E+03  0.19164348322E+03  0.42867056114E+03  0.00000000000E+00 0.  1.
         14    1    4    4    0    0  0.88427109156E+02 -0.74458272824E+02  0.17787276879E+02  0.11696057132E+03  0.00000000000E+00 0. -1.
         -5    1    5    5    0  501 -0.81503734150E+02  0.87999140764E+02  0.21947673966E+03  0.25015762372E+03  0.47000000000E+01 0.  1.
         13    1    6    6    0    0 -0.40422573334E+03  0.13332973487E+03  0.60751905423E+03  0.74179152256E+03  0.00000000000E+00 0. -1.
        -14    1    6    6    0    0 -0.19897342172E+03  0.11382178198E+03  0.26805802316E+03  0.35270515219E+03  0.00000000000E+00 0.  1.
</event>
<event>
12    1  0.9656379E-001  0.3218701E+03  0.7818608E-02  0.1074792E+00
         -1   -1    0    0    0  501 -0.00000000000E+00  0.00000000000E+00  0.18165974452E+03  0.18165974452E+03  0.00000000000E+00 0.  1.
          1   -1    0    0  502    0  0.00000000000E+00 -0.00000000000E+00 -0.61495637859E+03  0.61495637859E+03  0.00000000000E+00 0. -1.
          6    2    1    2  502    0 -0.21242371371E+03 -0.16968976154E+03 -0.32408367622E+03  0.45687363142E+03  0.17258283976E+03 0.  0.
         24    2    3    3    0    0 -0.21856336364E+03 -0.17384786705E+03 -0.33466965412E+03  0.44312088367E+03  0.79745315541E+02 0.  0.
         -6    2    1    2    0  501  0.21242371371E+03  0.16968976154E+03 -0.10921295785E+03  0.33974249170E+03  0.17198558424E+03 0.  0.
        -24    2    5    5    0    0  0.32215226798E+02  0.70796798452E+02 -0.10059173908E+02  0.11146967297E+03  0.79210438093E+02 0.  0.
          5    1    3    3  502    0  0.61396499339E+01  0.41581055117E+01  0.10585977896E+02  0.13752747754E+02  0.47000000000E+01 0. -1.
        -13    1    4    4    0    0 -0.16264734165E+03 -0.10423212331E+03 -0.17743158439E+03  0.26229841863E+03  0.00000000000E+00 0.  1.
         14    1    4    4    0    0 -0.55916021997E+02 -0.69615743735E+02 -0.15723806973E+03  0.18082246504E+03  0.00000000000E+00 0. -1.
         -5    1    5    5    0  501  0.18020848691E+03  0.98892963084E+02 -0.99153783938E+02  0.22827281873E+03  0.47000000000E+01 0.  1.
         11    1    6    6    0    0  0.58090421212E+02  0.38765201814E+02 -0.61508568222E+01  0.70107566980E+02  0.00000000000E+00 0. -1.
        -12    1    6    6    0    0 -0.25875194414E+02  0.32031596637E+02 -0.39083170861E+01  0.41362105986E+02  0.00000000000E+00 0.  1.
</event>
<event>
12    1  0.9656379E-001  0.3452820E+03  0.7818608E-02  0.1064568E+00
          1   -1    0    0  502    0  0.00000000000E+00  0.00000000000E+00  0.75151725126E+03  0.75151725126E+03  0.00000000000E+00 0. -1.
         -1   -1    0    0    0  501 -0.00000000000E+00 -0.00000000000E+00 -0.55073228795E+03  0.55073228795E+03  0.00000000000E+00 0.  1.
          6    2    1    2  502    0  0.25372715003E+03 -0.15883093208E+03 -0.44898181238E+03  0.56658404256E+03  0.17270807099E+03 0.  0.
         24    2    3    3    0    0  0.22713578846E+03 -0.12388710153E+03 -0.44670484621E+03  0.52236361313E+03  0.79873928024E+02 0.  0.
         -6    2    1    2    0  501 -0.25372715003E+03  0.15883093208E+03  0.64976677569E+03  0.73566549665E+03  0.17147048881E+03 0.  0.
        -24    2    5    5    0    0 -0.63272871939E+02  0.93955212695E+02  0.20578468736E+03  0.24819870213E+03  0.80151231253E+02 0.  0.
          5    1    3    3  502    0  0.26591361571E+02 -0.34943830548E+02 -0.22769661780E+01  0.44220429425E+02  0.47000000000E+01 0. -1.
        -11    1    4    4    0    0  0.16624764424E+03 -0.12739635330E+03 -0.33475394492E+03  0.39487759330E+03  0.00000000000E+00 0.  1.
         12    1    4    4    0    0  0.60888144217E+02  0.35092517747E+01 -0.11195090129E+03  0.12748601983E+03  0.00000000000E+00 0. -1.
         -5    1    5    5    0  501 -0.19045427809E+03  0.64875719382E+02  0.44398208832E+03  0.48746679452E+03  0.47000000000E+01 0.  1.
         13    1    6    6    0    0 -0.39431317185E+02  0.26837168739E+02  0.15095815847E+03  0.15831433292E+03  0.00000000000E+00 0. -1.
        -14    1    6    6    0    0 -0.23841554754E+02  0.67118043956E+02  0.54826528896E+02  0.89884369211E+02  0.00000000000E+00 0.  1.
</event>
<event>
12    1  0.9656379E-001  0.5070882E+03  0.7818608E-02  0.1011945E+00
         -1   -1    0    0    0  501 -0.00000000000E+00  0.00000000000E+00  0.10706616102E+04  0.10706616102E+04  0.00000000000E+00 0.  1.
          1   -1    0    0  502    0  0.00000000000E+00 -0.00000000000E+00 -0.26764357089E+03  0.26764357089E+03  0.00000000000E+00 0. -1.
          6    2    1    2  502    0 -0.22737119016E+03  0.41960152684E+03  0.61592922002E+03  0.79783351500E+03  0.17148298499E+03 0.  0.
         24    2    3    3    0    0 -0.20087627186E+03  0.33712518463E+03  0.40607585248E+03  0.57075455607E+03  0.82816052817E+02 0.  0.
         -6    2    1    2    0  501  0.22737119016E+03 -0.41960152684E+03  0.18708881927E+03  0.54047166606E+03  0.17130176905E+03 0.  0.
        -24    2    5    5    0    0  0.23875955761E+03 -0.37166294046E+03  0.13436085856E+03  0.46815202269E+03  0.77291709594E+02 0.  0.
          5    1    3    3  502    0 -0.26494918306E+02  0.82476342212E+02  0.20985336753E+03  0.22707895892E+03  0.47000000000E+01 0. -1.
        -13    1    4    4    0    0 -0.47056193201E+02  0.13477502221E+03  0.18653257627E+03  0.23488932275E+03  0.00000000000E+00 0.  1.
         14    1    4    4    0    0 -0.15382007865E+03  0.20235016242E+03  0.21954327621E+03  0.33586523333E+03  0.00000000000E+00 0. -1.
         -5    1    5    5    0  501 -0.11388367449E+02 -0.47938586378E+02  0.52727960710E+02  0.72319643374E+02  0.47000000000E+01 0.  1.
         11    1    6    6    0    0  0.63542045400E+02 -0.14742521814E+03  0.21316586425E+02  0.16194500095E+03  0.00000000000E+00 0. -1.
        -12    1    6    6    0    0  0.17521751221E+03 -0.22423772232E+03  0.11304427214E+03  0.30620702174E+03  0.00000000000E+00 0.  1.
</event>
<event>
12    1  0.1130719E+000  0.4334227E+03  0.7818608E-02  0.1032784E+00
          1   -1    0    0  502    0  0.00000000000E+00  0.00000000000E+00  0.13817663670E+04  0.13817663670E+04  0.00000000000E+00 0. -1.
         -1   -1    0    0    0  501 -0.00000000000E+00 -0.00000000000E+00 -0.41290544555E+03  0.41290544555E+03  0.00000000000E+00 0.  1.
          6    2    1    2  502    0 -0.34816938333E+03  0.19214250153E+03 -0.25037423602E+03  0.50078265960E+03  0.17307615003E+03 0.  0.
         24    2    3    3    0    0 -0.27547086856E+03  0.11544538466E+03 -0.11651375851E+03  0.33017129062E+03  0.78903668885E+02 0.  0.
         -6    2    1    2    0  501  0.34816938333E+03 -0.19214250153E+03  0.12192351575E+04  0.12938891530E+04  0.17168025669E+03 0.  0.
        -24    2    5    5    0    0  0.29232548024E+03 -0.88804362394E+02  0.90719218886E+03  0.96043718224E+03  0.78112177849E+02 0.  0.
          5    1    3    3  502    0 -0.72698514773E+02  0.76697116862E+02 -0.13386047751E+03  0.17061136898E+03  0.47000000000E+01 0. -1.
        -11    1    4    4    0    0 -0.76501959901E+02  0.53642185686E+02 -0.69863649152E+02  0.11666603373E+03  0.00000000000E+00 0.  1.
         12    1    4    4    0    0 -0.19896890866E+03  0.61803198978E+02 -0.46650109360E+02  0.21350525689E+03  0.00000000000E+00 0. -1.
         -5    1    5    5    0  501  0.55843903092E+02 -0.10333813913E+03  0.31204296864E+03  0.33345197074E+03  0.47000000000E+01 0.  1.
         11    1    6    6    0    0  0.16767403249E+03 -0.87829125815E+02  0.50183225418E+03  0.53634331156E+03  0.00000000000E+00 0. -1.
        -12    1    6    6    0    0  0.12465144775E+03 -0.97523657880E+00  0.40535993468E+03  0.42409387069E+03  0.00000000000E+00 0.  1.
</event>
<event>
12    1  0.9656379E-001  0.3220543E+03  0.7818608E-02  0.1074708E+00
         -2   -1    0    0    0  501 -0.00000000000E+00  0.00000000000E+00  0.44816135649E+03  0.44816135649E+03  0.00000000000E+00 0.  1.
          2   -1    0    0  502    0  0.00000000000E+00 -0.00000000000E+00 -0.50111973923E+03  0.50111973923E+03  0.00000000000E+00 0. -1.
          6    2    1    2  502    0 -0.24937469642E+03 -0.10538022792E+03  0.32176305673E+03  0.45432923247E+03  0.17201992661E+03 0.  0.
         24    2    3    3    0    0 -0.26784886047E+03 -0.87200386967E+02  0.28025668092E+03  0.40516958859E+03  0.79193868313E+02 0.  0.
         -6    2    1    2    0  501  0.24937469642E+03  0.10538022792E+03 -0.37472143946E+03  0.49495186324E+03  0.17682889493E+03 0.  0.
        -24    2    5    5    0    0  0.11668152705E+03  0.12278208034E+03 -0.22948783621E+03  0.29740391671E+03  0.84228289174E+02 0.  0.
          5    1    3    3  502    0  0.18474164041E+02 -0.18179840955E+02  0.41506375805E+02  0.49159643882E+02  0.47000000000E+01 0. -1.
        -11    1    4    4    0    0 -0.17529426399E+03 -0.76633008480E+02  0.14113285887E+03  0.23773763023E+03  0.00000000000E+00 0.  1.
         12    1    4    4    0    0 -0.92554596475E+02 -0.10567378487E+02  0.13912382206E+03  0.16743195836E+03  0.00000000000E+00 0. -1.
         -5    1    5    5    0  501  0.13269316938E+03 -0.17401852419E+02 -0.14523360325E+03  0.19754794654E+03  0.47000000000E+01 0.  1.
         11    1    6    6    0    0  0.26407309691E+02 -0.89561037669E+01 -0.49221599591E+02  0.56571403254E+02  0.00000000000E+00 0. -1.
        -12    1    6    6    0    0  0.90274217356E+02  0.13173818411E+03 -0.18026623662E+03  0.24083251346E+03  0.00000000000E+00 0.  1.
</event>
<event>
12    1  0.9656379E-001  0.2400109E+03  0.7818608E-02  0.1119786E+00
         -1   -1    0    0    0  501 -0.00000000000E+00  0.00000000000E+00  0.17483381597E+03  0.17483381597E+03  0.00000000000E+00 0.  1.
          1   -1    0    0  502    0  0.00000000000E+00 -0.00000000000E+00 -0.12461493587E+04  0.12461493587E+04  0.00000000000E+00 0. -1.
          6    2    1    2  502    0  0.80294225140E+02  0.15413277659E+03  0.70931557324E+02  0.25471872019E+03  0.17218090829E+03 0.  0.
         24    2    3    3    0    0 -0.98618919995E+01  0.68997469304E+02  0.75699072428E+02  0.13053754124E+03  0.80323050382E+02 0.  0.
         -6    2    1    2    0  501 -0.80294225140E+02 -0.15413277659E+03 -0.11422471001E+04  0.11662644545E+04  0.15887185027E+03 0.  0.
        -24    2    5    5    0    0 -0.93143139930E+02 -0.15058421466E+03 -0.79144446348E+03  0.81517719079E+03  0.82330209467E+02 0.  0.
          5    1    3    3  502    0  0.90156117140E+02  0.85135307291E+02 -0.47675151042E+01  0.12418117895E+03  0.47000000000E+01 0. -1.
        -11    1    4    4    0    0 -0.58732498338E+01  0.63724982129E+02  0.92501839248E+02  0.11248092583E+03  0.00000000000E+00 0.  1.
         12    1    4    4    0    0 -0.39886421658E+01  0.52724871746E+01 -0.16802766820E+02  0.18056615412E+02  0.00000000000E+00 0. -1.
         -5    1    5    5    0  501  0.12848914790E+02 -0.35485619356E+01 -0.35080263657E+03  0.35108726370E+03  0.47000000000E+01 0.  1.
         13    1    6    6    0    0 -0.18322269589E+02 -0.69280424915E+02 -0.46623068312E+03  0.47170598122E+03  0.00000000000E+00 0. -1.
        -14    1    6    6    0    0 -0.74820870341E+02 -0.81303789744E+02 -0.32521378036E+03  0.34347120957E+03  0.00000000000E+00 0.  1.
</event>
<event>
12    1  0.9656379E-001  0.3080707E+03  0.7818608E-02  0.1081274E+00
         -2   -1    0    0    0  501 -0.00000000000E+00  0.00000000000E+00  0.12089226134E+03  0.12089226134E+03  0.00000000000E+00 0.  1.
          2   -1    0    0  502    0  0.00000000000E+00 -0.00000000000E+00 -0.12354048419E+04  0.12354048419E+04  0.00000000000E+00 0. -1.
          6    2    1    2  502    0 -0.25000870592E+03 -0.49062356996E+02 -0.96595898717E+03  0.10137009117E+04  0.17205029958E+03 0.  0.
         24    2    3    3    0    0 -0.14148334033E+03 -0.96922200887E+02 -0.62231030112E+03  0.65012859557E+03  0.77366861682E+02 0.  0.
         -6    2    1    2    0  501  0.25000870592E+03  0.49062356996E+02 -0.14855359335E+03  0.34259619150E+03  0.17433448433E+03 0.  0.
        -24    2    5    5    0    0  0.25006359168E+03  0.63144465969E+02 -0.93883776301E+02  0.28594649864E+03  0.80201079587E+02 0.  0.
          5    1    3    3  502    0 -0.10852536558E+03  0.47859843890E+02 -0.34364868605E+03  0.36357231613E+03  0.47000000000E+01 0. -1.
        -13    1    4    4    0    0 -0.79176380129E+02 -0.29201861924E+02 -0.18643537235E+03  0.20464553739E+03  0.00000000000E+00 0.  1.
         14    1    4    4    0    0 -0.62306960206E+02 -0.67720338962E+02 -0.43587492877E+03  0.44548305819E+03  0.00000000000E+00 0. -1.
         -5    1    5    5    0  501 -0.54885758044E-01 -0.14082108972E+02 -0.54669817049E+02  0.56649692865E+02  0.47000000000E+01 0.  1.
         13    1    6    6    0    0  0.89037079895E+02 -0.71543191059E+01 -0.58330173228E+02  0.10668268363E+03  0.00000000000E+00 0. -1.
        -14    1    6    6    0    0  0.16102651178E+03  0.70298785075E+02 -0.35553603073E+02  0.17926381501E+03  0.00000000000E+00 0.  1.
</event>
<event>
12    1  0.1114528E+000  0.1353864E+04  0.7818608E-02  0.8987908E-01
         -1   -1    0    0    0  501 -0.00000000000E+00  0.00000000000E+00  0.13119037050E+04  0.13119037050E+04  0.00000000000E+00 0.  1.
          1   -1    0    0  502    0  0.00000000000E+00 -0.00000000000E+00 -0.21432346205E+04  0.21432346205E+04  0.00000000000E+00 0. -1.
          6    2    1    2  502    0 -0.10603859019E+04  0.82393788759E+03  0.60359676822E+03  0.14823622511E+04  0.17255979046E+03 0.  0.
         24    2    3    3    0    0 -0.34439171481E+03  0.33287122559E+03  0.21028292910E+03  0.52920328820E+03  0.80176704350E+02 0.  0.
         -6    2    1    2    0  501  0.10603859019E+04 -0.82393788759E+03 -0.14349276837E+04  0.19727760744E+04  0.17186063695E+03 0.  0.
        -24    2    5    5    0    0  0.31247909059E+03 -0.30133689143E+03 -0.48279204073E+03  0.65404153995E+03  0.78962505052E+02 0.  0.
          5    1    3    3  502    0 -0.71599418710E+03  0.49106666200E+03  0.39331383913E+03  0.95315896290E+03  0.47000000000E+01 0. -1.
        -11    1    4    4    0    0 -0.18037368340E+03  0.12202846801E+03  0.80044962766E+02  0.23201898356E+03  0.00000000000E+00 0.  1.
         12    1    4    4    0    0 -0.16401803140E+03  0.21084275758E+03  0.13023796633E+03  0.29718430464E+03  0.00000000000E+00 0. -1.
         -5    1    5    5    0  501  0.74790681133E+03 -0.52260099617E+03 -0.95213564297E+03  0.13187345344E+04  0.47000000000E+01 0.  1.
         11    1    6    6    0    0  0.25780465062E+03 -0.20272049007E+03 -0.37269170464E+03  0.49644530583E+03  0.00000000000E+00 0. -1.
        -12    1    6    6    0    0  0.54674439968E+02 -0.98616401355E+02 -0.11010033609E+03  0.15759623412E+03  0.00000000000E+00 0.  1.
</event>
<event>
12    1  0.9656379E-001  0.4353502E+03  0.7818608E-02  0.1032183E+00
          2   -1    0    0  502    0  0.00000000000E+00  0.00000000000E+00  0.53502834958E+03  0.53502834958E+03  0.00000000000E+00 0. -1.
         -2   -1    0    0    0  501 -0.00000000000E+00 -0.00000000000E+00 -0.10412803602E+04  0.10412803602E+04  0.00000000000E+00 0.  1.
          6    2    1    2  502    0  0.39449964171E+03 -0.42808495929E+02 -0.89398724348E+03  0.99586014700E+03  0.18724771360E+03 0.  0.
         24    2    3    3    0    0  0.19760169125E+03 -0.48220197078E+02 -0.63054715393E+03  0.66689075605E+03  0.76039143699E+02 0.  0.
         -6    2    1    2    0  501 -0.39449964171E+03  0.42808495929E+02  0.38773523284E+03  0.58044856281E+03  0.17064404075E+03 0.  0.
        -24    2    5    5    0    0 -0.30203238555E+03  0.72279207472E+02  0.22881982262E+03  0.39418285499E+03  0.81078765368E+02 0.  0.
          5    1    3    3  502    0  0.19689795046E+03  0.54117011489E+01 -0.26344008955E+03  0.32896939096E+03  0.47000000000E+01 0. -1.
        -11    1    4    4    0    0  0.14961773011E+03 -0.65029969406E+02 -0.42737572503E+03  0.45745422987E+03  0.00000000000E+00 0.  1.
         12    1    4    4    0    0  0.47983961141E+02  0.16809772329E+02 -0.20317142891E+03  0.20943652617E+03  0.00000000000E+00 0. -1.
         -5    1    5    5    0  501 -0.92467256160E+02 -0.29470711544E+02  0.15891541022E+03  0.18626570781E+03  0.47000000000E+01 0.  1.
         13    1    6    6    0    0 -0.16940126870E+03  0.64356268488E+02  0.91123861399E+02  0.20283509865E+03  0.00000000000E+00 0. -1.
        -14    1    6    6    0    0 -0.13263111685E+03  0.79229389844E+01  0.13769596122E+03  0.19134775634E+03  0.00000000000E+00 0.  1.
</event>
<event>
12    1  0.9656379E-001  0.6370834E+03  0.7818608E-02  0.9831323E-01
          2   -1    0    0  502    0  0.00000000000E+00  0.00000000000E+00  0.90412462806E+03  0.90412462806E+03  0.00000000000E+00 0. -1.
         -2   -1    0    0    0  501 -0.00000000000E+00 -0.00000000000E+00 -0.57840505631E+03  0.57840505631E+03  0.00000000000E+00 0.  1.
          6    2    1    2  502    0  0.56522656552E+03  0.23417957183E+03 -0.18752654824E+03  0.66575675268E+03  0.18369731957E+03 0.  0.
         24    2    3    3    0    0  0.23652482445E+03  0.29666420716E+02 -0.10231667937E+03  0.26933112875E+03  0.72432485360E+02 0.  0.
         -6    2    1    2    0  501 -0.56522656552E+03 -0.23417957183E+03  0.51324611999E+03  0.81677293169E+03  0.17139224031E+03 0.  0.
        -24    2    5    5    0    0 -0.18617527920E+03 -0.85493929981E+02  0.24071255459E+03  0.32678932787E+03  0.82935421999E+02 0.  0.
          5    1    3    3  502    0  0.32870174107E+03  0.20451315111E+03 -0.85209868869E+02  0.39642562393E+03  0.47000000000E+01 0. -1.
        -11    1    4    4    0    0  0.56634116440E+02  0.50542479248E+01 -0.60472107600E+02  0.83005086378E+02  0.00000000000E+00 0.  1.
         12    1    4    4    0    0  0.17989070801E+03  0.24612172791E+02 -0.41844571768E+02  0.18632604237E+03  0.00000000000E+00 0. -1.
         -5    1    5    5    0  501 -0.37905128632E+03 -0.14868564185E+03  0.27253356539E+03  0.48998360382E+03  0.47000000000E+01 0.  1.
         13    1    6    6    0    0 -0.11579350821E+03 -0.94423715898E+02  0.15116740157E+03  0.21254542565E+03  0.00000000000E+00 0. -1.
        -14    1    6    6    0    0 -0.70381770991E+02  0.89297859178E+01  0.89545153027E+02  0.11424390222E+03  0.00000000000E+00 0.  1.
</event>
<event>
12    1  0.9656379E-001  0.1790506E+03  0.7818608E-02  0.1168725E+00
          1   -1    0    0  502    0  0.00000000000E+00  0.00000000000E+00  0.64987281773E+02  0.64987281773E+02  0.00000000000E+00 0. -1.
         -1   -1    0    0    0  501 -0.00000000000E+00 -0.00000000000E+00 -0.60473537825E+03  0.60473537825E+03  0.00000000000E+00 0.  1.
          6    2    1    2  502    0 -0.45204714246E+02 -0.16970992670E+02 -0.41375908419E+03  0.45088693313E+03  0.17254264962E+03 0.  0.
         24    2    3    3    0    0 -0.92596083850E+02  0.55097522630E+01 -0.33578769495E+03  0.35679679898E+03  0.77111526803E+02 0.  0.
         -6    2    1    2    0  501  0.45204714246E+02  0.16970992670E+02 -0.12598901229E+03  0.21883572689E+03  0.17229150694E+03 0.  0.
        -24    2    5    5    0    0  0.61118924947E+02  0.50302012220E+02 -0.31490683942E+02  0.11726681911E+03  0.80585533876E+02 0.  0.
          5    1    3    3  502    0  0.47391369604E+02 -0.22480744933E+02 -0.77971389241E+02  0.94090134158E+02  0.47000000000E+01 0. -1.
        -11    1    4    4    0    0 -0.78100187659E+02 -0.28555853499E+02 -0.21768783453E+03  0.23303018986E+03  0.00000000000E+00 0.  1.
         12    1    4    4    0    0 -0.14495896192E+02  0.34065605762E+02 -0.11809986042E+03  0.12376660912E+03  0.00000000000E+00 0. -1.
         -5    1    5    5    0  501 -0.15914210700E+02 -0.33331019551E+02 -0.94498328347E+02  0.10156890778E+03  0.47000000000E+01 0.  1.
         13    1    6    6    0    0  0.70116886679E+02  0.10876739408E+02 -0.10575584040E+02  0.71739279586E+02  0.00000000000E+00 0. -1.
        -14    1    6    6    0    0 -0.89979617323E+01  0.39425272812E+02 -0.20915099902E+02  0.45527539529E+02  0.00000000000E+00 0.  1.
</event>
<event>
12    1  0.9656379E-001  0.3903149E+03  0.7818608E-02  0.1047186E+00
         -2   -1    0    0    0  501 -0.00000000000E+00  0.00000000000E+00  0.31796464618E+03  0.31796464618E+03  0.00000000000E+00 0.  1.
          2   -1    0    0  502    0  0.00000000000E+00 -0.00000000000E+00 -0.14360666443E+04  0.14360666443E+04  0.00000000000E+00 0. -1.
          6    2    1    2  502    0  0.29090774030E+03  0.19409186530E+03  0.15701272776E+03  0.42042526566E+03  0.17264252598E+03 0.  0.
         24    2    3    3    0    0  0.13289193283E+03  0.12739971729E+03  0.14707954041E+03  0.24856021327E+03  0.79112796931E+02 0.  0.
         -6    2    1    2    0  501 -0.29090774030E+03 -0.19409186530E+03 -0.12751147258E+04  0.13336060248E+04  0.17403591511E+03 0.  0.
        -24    2    5    5    0    0 -0.26129749780E+03 -0.11105545935E+03 -0.85936590159E+03  0.90858721810E+03  0.80070485608E+02 0.  0.
          5    1    3    3  502    0  0.15801580748E+03  0.66692148012E+02  0.99331873493E+01  0.17186505238E+03  0.47000000000E+01 0. -1.
        -11    1    4    4    0    0  0.11329661039E+03  0.13737822923E+03  0.13509793445E+03  0.22351812384E+03  0.00000000000E+00 0.  1.
         12    1    4    4    0    0  0.19595322438E+02 -0.99785119358E+01  0.11981605963E+02  0.25042089436E+02  0.00000000000E+00 0. -1.
         -5    1    5    5    0  501 -0.29610242501E+02 -0.83036405948E+02 -0.41574882425E+03  0.42501880669E+03  0.47000000000E+01 0.  1.
         13    1    6    6    0    0 -0.12066683728E+03 -0.89233329356E+02 -0.50108297745E+03  0.52307477761E+03  0.00000000000E+00 0. -1.
        -14    1    6    6    0    0 -0.14063066052E+03 -0.21822129997E+02 -0.35828292414E+03  0.38551244049E+03  0.00000000000E+00 0.  1.
</event>
<event>
12    1  0.9656379E-001  0.2944234E+03  0.7818608E-02  0.1088062E+00
          4   -1    0    0  502    0  0.00000000000E+00  0.00000000000E+00  0.11241797016E+03  0.11241797016E+03  0.00000000000E+00 0. -1.
         -4   -1    0    0    0  501 -0.00000000000E+00 -0.00000000000E+00 -0.77562743901E+03  0.77562743901E+03  0.00000000000E+00 0.  1.
          6    2    1    2  502    0 -0.16472716386E+03 -0.17556356933E+03 -0.29648584215E+03  0.41707123208E+03  0.16759162463E+03 0.  0.
         24    2    3    3    0    0 -0.10329091269E+03 -0.83229012531E+02 -0.81916818052E+02  0.17548886634E+03  0.80559890500E+02 0.  0.
         -6    2    1    2    0  501  0.16472716386E+03  0.17556356933E+03 -0.36672362670E+03  0.47097417708E+03  0.17138509766E+03 0.  0.
        -24    2    5    5    0    0  0.94964906651E+02  0.17822627534E+03 -0.22318650560E+03  0.31129055967E+03  0.79414466814E+02 0.  0.
          5    1    3    3  502    0 -0.61436251173E+02 -0.92334556803E+02 -0.21456902410E+03  0.24158236575E+03  0.47000000000E+01 0. -1.
        -11    1    4    4    0    0 -0.24916440733E+01 -0.19774148538E+00 -0.37448664636E+02  0.37531984691E+02  0.00000000000E+00 0.  1.
         12    1    4    4    0    0 -0.10079926862E+03 -0.83031271045E+02 -0.44468153416E+02  0.13795688165E+03  0.00000000000E+00 0. -1.
         -5    1    5    5    0  501  0.69762257214E+02 -0.26627060081E+01 -0.14353712110E+03  0.15968361741E+03  0.47000000000E+01 0.  1.
         11    1    6    6    0    0  0.84137680563E+02  0.84884772884E+02 -0.96809542527E+02  0.15380722181E+03  0.00000000000E+00 0. -1.
        -12    1    6    6    0    0  0.10827226087E+02  0.93341502458E+02 -0.12637696308E+03  0.15748333785E+03  0.00000000000E+00 0.  1.
</event>
<event>
12    1  0.9656379E-001  0.1921208E+03  0.7818608E-02  0.1156562E+00
          3   -1    0    0  502    0  0.00000000000E+00  0.00000000000E+00  0.50146113311E+03  0.50146113311E+03  0.00000000000E+00 0. -1.
         -3   -1    0    0    0  501 -0.00000000000E+00 -0.00000000000E+00 -0.18695484958E+03  0.18695484958E+03  0.00000000000E+00 0.  1.
          6    2    1    2  502    0  0.39493639281E+02 -0.66623211552E+02 -0.11151865731E+03  0.22007208752E+03  0.17319616888E+03 0.  0.
         24    2    3    3    0    0  0.35360139941E+02  0.31901798968E+02 -0.46587214436E+02  0.10190929392E+03  0.77117257247E+02 0.  0.
         -6    2    1    2    0  501 -0.39493639281E+02  0.66623211552E+02  0.42602494084E+03  0.46834389517E+03  0.17846667494E+03 0.  0.
        -24    2    5    5    0    0 -0.31651997335E+02  0.10857126894E+03  0.38301590571E+03  0.40757385346E+03  0.81398357637E+02 0.  0.
          5    1    3    3  502    0  0.41334993398E+01 -0.98525010521E+02 -0.64931442879E+02  0.11816279359E+03  0.47000000000E+01 0. -1.
        -11    1    4    4    0    0  0.48177656634E+02  0.31198852129E+02 -0.41207432512E+01  0.57545073619E+02  0.00000000000E+00 0.  1.
         12    1    4    4    0    0 -0.12817516693E+02  0.70294683928E+00 -0.42466471185E+02  0.44364220306E+02  0.00000000000E+00 0. -1.
         -5    1    5    5    0  501 -0.78416419457E+01 -0.41948057383E+02  0.43009035135E+02  0.60770041713E+02  0.47000000000E+01 0.  1.
         13    1    6    6    0    0 -0.29334793694E+02  0.11613291890E+03  0.28378259711E+03  0.30802588754E+03  0.00000000000E+00 0. -1.
        -14    1    6    6    0    0 -0.23172036415E+01 -0.75616499689E+01  0.99233308602E+02  0.99547965921E+02  0.00000000000E+00 0.  1.
</event>
<event>
12    1  0.9656379E-001  0.4193709E+03  0.7818608E-02  0.1037271E+00
         -2   -1    0    0    0  501 -0.00000000000E+00  0.00000000000E+00  0.10146199027E+04  0.10146199027E+04  0.00000000000E+00 0.  1.
          2   -1    0    0  502    0  0.00000000000E+00 -0.00000000000E+00 -0.86256731498E+03  0.86256731498E+03  0.00000000000E+00 0. -1.
          6    2    1    2  502    0  0.31143241171E+03  0.22372049757E+03  0.91504619462E+03  0.10067763826E+04  0.17102087071E+03 0.  0.
         24    2    3    3    0    0  0.25843121781E+03  0.20814929796E+03  0.63046589659E+03  0.71684600332E+03  0.79171466682E+02 0.  0.
         -6    2    1    2    0  501 -0.31143241171E+03 -0.22372049757E+03 -0.76299360694E+03  0.87041083501E+03  0.16856680983E+03 0.  0.
        -24    2    5    5    0    0 -0.21835770721E+03 -0.21885903802E+03 -0.52044772825E+03  0.61053177145E+03  0.79396720900E+02 0.  0.
          5    1    3    3  502    0  0.53001193895E+02  0.15571199601E+02  0.28458029803E+03  0.28993037930E+03  0.47000000000E+01 0. -1.
        -11    1    4    4    0    0  0.99536354073E+02  0.35486204010E+02  0.21940076966E+03  0.24352300546E+03  0.00000000000E+00 0.  1.
         12    1    4    4    0    0  0.15889486374E+03  0.17266309395E+03  0.41106512693E+03  0.47332299787E+03  0.00000000000E+00 0. -1.
         -5    1    5    5    0  501 -0.93074704498E+02 -0.48614595484E+01 -0.24254587870E+03  0.25987906356E+03  0.47000000000E+01 0.  1.
         13    1    6    6    0    0 -0.40189387067E+02 -0.54994361993E+02 -0.62022437498E+02  0.92121384255E+02  0.00000000000E+00 0. -1.
        -14    1    6    6    0    0 -0.17816832014E+03 -0.16386467602E+03 -0.45842529075E+03  0.51841038719E+03  0.00000000000E+00 0.  1.
</event>
<event>
12    1  0.9656379E-001  0.5310499E+03  0.7818608E-02  0.1005978E+00
          1   -1    0    0  502    0  0.00000000000E+00  0.00000000000E+00  0.79697182570E+03  0.79697182570E+03  0.00000000000E+00 0. -1.
         -1   -1    0    0    0  501 -0.00000000000E+00 -0.00000000000E+00 -0.36727439728E+03  0.36727439728E+03  0.00000000000E+00 0.  1.
          6    2    1    2  502    0 -0.34909677411E+03  0.36143295143E+03  0.32613854366E+03  0.62325799172E+03  0.17199371647E+03 0.  0.
         24    2    3    3    0    0 -0.11355231524E+03  0.20563269722E+03  0.16069352825E+03  0.29592168997E+03  0.81045062221E+02 0.  0.
         -6    2    1    2    0  501  0.34909677411E+03 -0.36143295143E+03  0.10355888475E+03  0.54098823126E+03  0.17158521985E+03 0.  0.
        -24    2    5    5    0    0  0.23518940477E+03 -0.19642090219E+03  0.27988150447E+01  0.31653657314E+03  0.79324282755E+02 0.  0.
          5    1    3    3  502    0 -0.23554445888E+03  0.15580025421E+03  0.16544501541E+03  0.32733630175E+03  0.47000000000E+01 0. -1.
        -13    1    4    4    0    0 -0.78331987058E+02  0.70278149764E+02  0.45182488893E+02  0.11452674724E+03  0.00000000000E+00 0.  1.
         14    1    4    4    0    0 -0.35220328178E+02  0.13535454746E+03  0.11551103936E+03  0.18139494273E+03  0.00000000000E+00 0. -1.
         -5    1    5    5    0  501  0.11390736934E+03 -0.16501204924E+03  0.10076006971E+03  0.22445165812E+03  0.47000000000E+01 0.  1.
         13    1    6    6    0    0  0.19702073627E+03 -0.11890518377E+03  0.20734185195E+01  0.23013020730E+03  0.00000000000E+00 0. -1.
        -14    1    6    6    0    0  0.38168668501E+02 -0.77515718417E+02  0.72539652526E+00  0.86406365836E+02  0.00000000000E+00 0.  1.
</event>
<event>
12    1  0.9656379E-001  0.3435113E+03  0.7818608E-02  0.1065310E+00
         -2   -1    0    0    0  501 -0.00000000000E+00  0.00000000000E+00  0.19526922869E+04  0.19526922869E+04  0.00000000000E+00 0.  1.
          2   -1    0    0  502    0  0.00000000000E+00 -0.00000000000E+00 -0.11765638596E+03  0.11765638596E+03  0.00000000000E+00 0. -1.
          6    2    1    2  502    0 -0.22081368022E+03 -0.19559603216E+03  0.16372632926E+04  0.16725845330E+04  0.17289141541E+03 0.  0.
         24    2    3    3    0    0 -0.12825076717E+03 -0.15867114164E+03  0.13663163588E+04  0.13838533927E+04  0.81271334459E+02 0.  0.
         -6    2    1    2    0  501  0.22081368022E+03  0.19559603216E+03  0.19777260839E+03  0.39776413992E+03  0.17912514399E+03 0.  0.
        -24    2    5    5    0    0  0.18539178378E+03  0.14840326860E+03  0.74864950752E+02  0.26134474986E+03  0.79389380914E+02 0.  0.
          5    1    3    3  502    0 -0.92562913049E+02 -0.36924890514E+02  0.27094693378E+03  0.28873114022E+03  0.47000000000E+01 0. -1.
        -11    1    4    4    0    0  0.17177662338E+01 -0.47822272245E+02  0.35527432622E+03  0.35848258998E+03  0.00000000000E+00 0.  1.
         12    1    4    4    0    0 -0.12996853341E+03 -0.11084886940E+03  0.10110420326E+04  0.10253708028E+04  0.00000000000E+00 0. -1.
         -5    1    5    5    0  501  0.35421896440E+02  0.47192763557E+02  0.12290765764E+03  0.13641939007E+03  0.47000000000E+01 0.  1.
         11    1    6    6    0    0  0.50318270271E+02  0.69957867152E+02 -0.41943789855E+01  0.86276441249E+02  0.00000000000E+00 0. -1.
        -12    1    6    6    0    0  0.13507351351E+03  0.78445401449E+02  0.79059329738E+02  0.17506830861E+03  0.00000000000E+00 0.  1.
</event>
<event>
12    1  0.9656379E-001  0.6082060E+03  0.7818608E-02  0.9888526E-01
         -2   -1    0    0    0  501 -0.00000000000E+00  0.00000000000E+00  0.26122106778E+03  0.26122106778E+03  0.00000000000E+00 0.  1.
          2   -1    0    0  502    0  0.00000000000E+00 -0.00000000000E+00 -0.14175632045E+04  0.14175632045E+04  0.00000000000E+00 0. -1.
          6    2    1    2  502    0  0.27549470115E+03  0.51464547259E+03 -0.60546465004E+03  0.85842834689E+03  0.17191419802E+03 0.  0.
         24    2    3    3    0    0  0.71232218385E+02  0.11043617882E+03 -0.12226330887E+03  0.19614899410E+03  0.79094454041E+02 0.  0.
         -6    2    1    2    0  501 -0.27549470115E+03 -0.51464547259E+03 -0.55087748667E+03  0.82035592538E+03  0.16958934568E+03 0.  0.
        -24    2    5    5    0    0 -0.19973334601E+03 -0.31548591036E+03 -0.26834063372E+03  0.46644424511E+03  0.78350296386E+02 0.  0.
          5    1    3    3  502    0  0.20426248276E+03  0.40420929377E+03 -0.48320134117E+03  0.66227935280E+03  0.47000000000E+01 0. -1.
        -13    1    4    4    0    0 -0.13020921717E+02  0.44088916288E+02 -0.32505799923E+02  0.56302788301E+02  0.00000000000E+00 0.  1.
         14    1    4    4    0    0  0.84253140102E+02  0.66347262535E+02 -0.89757508951E+02  0.13984620580E+03  0.00000000000E+00 0. -1.
         -5    1    5    5    0  501 -0.75761355140E+02 -0.19915956223E+03 -0.28253685295E+03  0.35391168027E+03  0.47000000000E+01 0.  1.
         13    1    6    6    0    0 -0.12980416276E+03 -0.18172734365E+03 -0.20362453710E+03  0.30221995336E+03  0.00000000000E+00 0. -1.
        -14    1    6    6    0    0 -0.69929183249E+02 -0.13375856671E+03 -0.64716096622E+02  0.16422429175E+03  0.00000000000E+00 0.  1.
</event>
<event>
12    1  0.9656379E-001  0.4734468E+03  0.7818608E-02  0.1020952E+00
          1   -1    0    0  502    0  0.00000000000E+00  0.00000000000E+00  0.36708279246E+03  0.36708279246E+03  0.00000000000E+00 0. -1.
         -1   -1    0    0    0  501 -0.00000000000E+00 -0.00000000000E+00 -0.61924675316E+03  0.61924675316E+03  0.00000000000E+00 0.  1.
          6    2    1    2  502    0  0.30161724283E+03  0.32264294667E+03 -0.67936485174E+02  0.47840057606E+03  0.17082246030E+03 0.  0.
         24    2    3    3    0    0  0.14371523402E+03  0.23335669925E+03 -0.15273386890E+01  0.28517184346E+03  0.78811356824E+02 0.  0.
         -6    2    1    2    0  501 -0.30161724283E+03 -0.32264294667E+03 -0.18422747552E+03  0.50792896956E+03  0.17023702058E+03 0.  0.
        -24    2    5    5    0    0 -0.82585727025E+02 -0.12248680783E+03 -0.21852839246E+02  0.16966147580E+03  0.80523595223E+02 0.  0.
          5    1    3    3  502    0  0.15790200880E+03  0.89286247424E+02 -0.66409146485E+02  0.19322873260E+03  0.47000000000E+01 0. -1.
        -13    1    4    4    0    0  0.52767098356E+02  0.32160834731E+02  0.15529424024E+02  0.63716944135E+02  0.00000000000E+00 0.  1.
         14    1    4    4    0    0  0.90948135667E+02  0.20119586452E+03 -0.17056762713E+02  0.22145489933E+03  0.00000000000E+00 0. -1.
         -5    1    5    5    0  501 -0.21903151580E+03 -0.20015613885E+03 -0.16237463627E+03  0.33826749376E+03  0.47000000000E+01 0.  1.
         11    1    6    6    0    0 -0.89525244486E+02 -0.90289644737E+02 -0.38373539836E+02  0.13281384682E+03  0.00000000000E+00 0. -1.
        -12    1    6    6    0    0  0.69395174609E+01 -0.32197163091E+02  0.16520700590E+02  0.36847628983E+02  0.00000000000E+00 0.  1.
</event>
<event>
12    1  0.9656379E-001  0.3197633E+03  0.7818608E-02  0.1075758E+00
          2   -1    0    0  502    0  0.00000000000E+00  0.00000000000E+00  0.26245632265E+03  0.26245632265E+03  0.00000000000E+00 0. -1.
         -2   -1    0    0    0  501 -0.00000000000E+00 -0.00000000000E+00 -0.42911866533E+03  0.42911866533E+03  0.00000000000E+00 0.  1.
          6    2    1    2  502    0 -0.16659079052E+03 -0.21163245272E+03 -0.18827793349E+03  0.37103645097E+03  0.17227501610E+03 0.  0.
         24    2    3    3    0    0 -0.16606733268E+03 -0.18732158296E+03 -0.10247820627E+03  0.28173373215E+03  0.78767878252E+02 0.  0.
         -6    2    1    2    0  501  0.16659079052E+03  0.21163245272E+03  0.21615590812E+02  0.32053853701E+03  0.17244400080E+03 0.  0.
        -24    2    5    5    0    0  0.14171211286E+02  0.65818175876E+02 -0.21147350899E+02  0.10526129564E+03  0.78101692720E+02 0.  0.
          5    1    3    3  502    0 -0.52345783979E+00 -0.24310869760E+02 -0.85799727220E+02  0.89302718814E+02  0.47000000000E+01 0. -1.
        -13    1    4    4    0    0 -0.11249861144E+03 -0.15722541233E+03 -0.10545162262E+03  0.22021764818E+03  0.00000000000E+00 0.  1.
         14    1    4    4    0    0 -0.53568721242E+02 -0.30096170628E+02  0.29734163442E+01  0.61516083968E+02  0.00000000000E+00 0. -1.
         -5    1    5    5    0  501  0.15241957924E+03  0.14581427684E+03  0.42762941711E+02  0.21527724136E+03  0.47000000000E+01 0.  1.
         11    1    6    6    0    0 -0.85728972574E+01  0.60813214479E+02  0.14102870636E+02  0.63012955674E+02  0.00000000000E+00 0. -1.
        -12    1    6    6    0    0  0.22744108543E+02  0.50049613974E+01 -0.35250221535E+02  0.42248339971E+02  0.00000000000E+00 0.  1.
</event>
<event>
12    1  0.9656379E-001  0.1755410E+03  0.7818608E-02  0.1172190E+00
         -1   -1    0    0    0  501 -0.00000000000E+00  0.00000000000E+00  0.17840079113E+03  0.17840079113E+03  0.00000000000E+00 0.  1.
          1   -1    0    0  502    0  0.00000000000E+00 -0.00000000000E+00 -0.40610295182E+03  0.40610295182E+03  0.00000000000E+00 0. -1.
          6    2    1    2  502    0 -0.20496060815E+02 -0.66450529775E+01  0.10832992435E+03  0.20426725769E+03  0.17182984262E+03 0.  0.
         24    2    3    3    0    0  0.30287686016E+02  0.47524771029E+02  0.76463933398E+02  0.12332968820E+03  0.78660861268E+02 0.  0.
         -6    2    1    2    0  501  0.20496060815E+02  0.66450529775E+01 -0.33603208504E+03  0.38023648525E+03  0.17662949160E+03 0.  0.
        -24    2    5    5    0    0  0.77155960213E+02 -0.19543415236E+02 -0.24442749127E+03  0.26928752551E+03  0.80224594949E+02 0.  0.
          5    1    3    3  502    0 -0.50783746831E+02 -0.54169824007E+02  0.31865990952E+02  0.80937569487E+02  0.47000000000E+01 0. -1.
        -11    1    4    4    0    0  0.29282818523E+02 -0.15907172876E+02  0.26552818811E+02  0.42609550530E+02  0.00000000000E+00 0.  1.
         12    1    4    4    0    0  0.10048674932E+01  0.63431943905E+02  0.49911114587E+02  0.80720137671E+02  0.00000000000E+00 0. -1.
         -5    1    5    5    0  501 -0.56659899398E+02  0.26188468214E+02 -0.91604593775E+02  0.11094895974E+03  0.47000000000E+01 0.  1.
         13    1    6    6    0    0  0.38109473934E+02  0.18107025572E+02 -0.18089208962E+03  0.18574752883E+03  0.00000000000E+00 0. -1.
        -14    1    6    6    0    0  0.39046486279E+02 -0.37650440808E+02 -0.63535401647E+02  0.83539996686E+02  0.00000000000E+00 0.  1.
</event>
<event>
12    1  0.9656379E-001  0.4186210E+03  0.7818608E-02  0.1037516E+00
         -1   -1    0    0    0  501 -0.00000000000E+00  0.00000000000E+00  0.12402133935E+03  0.12402133935E+03  0.00000000000E+00 0.  1.
          1   -1    0    0  502    0  0.00000000000E+00 -0.00000000000E+00 -0.14391991869E+04  0.14391991869E+04  0.00000000000E+00 0. -1.
          6    2    1    2  502    0  0.29175112790E+02  0.38043139673E+03 -0.55273817967E+03  0.69359839961E+03  0.17314736454E+03 0.  0.
         24    2    3    3    0    0 -0.33897022158E+02  0.19520099376E+03 -0.21025142326E+03  0.29912702585E+03  0.77581444550E+02 0.  0.
         -6    2    1    2    0  501 -0.29175112790E+02 -0.38043139673E+03 -0.76243966785E+03  0.86962212662E+03  0.17131596882E+03 0.  0.
        -24    2    5    5    0    0 -0.62049853096E+01 -0.29235318372E+03 -0.68601464600E+03  0.75067561626E+03  0.85958713594E+02 0.  0.
          5    1    3    3  502    0  0.63072134948E+02  0.18523040297E+03 -0.34248675642E+03  0.39447137375E+03  0.47000000000E+01 0. -1.
        -11    1    4    4    0    0 -0.34738823334E+02  0.19748037495E+03 -0.21487807041E+03  0.29390112194E+03  0.00000000000E+00 0.  1.
         12    1    4    4    0    0  0.84180117671E+00 -0.22793811868E+01  0.46266471529E+01  0.52259039116E+01  0.00000000000E+00 0. -1.
         -5    1    5    5    0  501 -0.22970127481E+02 -0.88078213002E+02 -0.76425021852E+02  0.11894651036E+03  0.47000000000E+01 0.  1.
         11    1    6    6    0    0 -0.42803081499E+02 -0.18580575987E+03 -0.46587104166E+03  0.50338028532E+03  0.00000000000E+00 0. -1.
        -12    1    6    6    0    0  0.36598096189E+02 -0.10654742385E+03 -0.22014360434E+03  0.24729533094E+03  0.00000000000E+00 0.  1.
</event>
<event>
12    1  0.9656379E-001  0.3921566E+03  0.7818608E-02  0.1046530E+00
          2   -1    0    0  502    0  0.00000000000E+00  0.00000000000E+00  0.66118052777E+03  0.66118052777E+03  0.00000000000E+00 0. -1.
         -2   -1    0    0    0  501 -0.00000000000E+00 -0.00000000000E+00 -0.23941246604E+03  0.23941246604E+03  0.00000000000E+00 0.  1.
          6    2    1    2  502    0  0.21444701064E+03 -0.28032692894E+03  0.13505075069E+03  0.41504275172E+03  0.17161314934E+03 0.  0.
         24    2    3    3    0    0  0.20071644590E+03 -0.20192184668E+03  0.53131803723E+02  0.30072438396E+03  0.80948395426E+02 0.  0.
         -6    2    1    2    0  501 -0.21444701064E+03  0.28032692894E+03  0.28671731104E+03  0.48555024209E+03  0.17023957731E+03 0.  0.
        -24    2    5    5    0    0 -0.15142675870E+03  0.26735638185E+03  0.19521344694E+03  0.37359116747E+03  0.83979594981E+02 0.  0.
          5    1    3    3  502    0  0.13730564738E+02 -0.78405082265E+02  0.81918946972E+02  0.11431836775E+03  0.47000000000E+01 0. -1.
        -11    1    4    4    0    0  0.65371296794E+02 -0.59292488148E+02 -0.20775863885E+02  0.90667756758E+02  0.00000000000E+00 0.  1.
         12    1    4    4    0    0  0.13534514911E+03 -0.14262935853E+03  0.73907667608E+02  0.21005662720E+03  0.00000000000E+00 0. -1.
         -5    1    5    5    0  501 -0.63020251941E+02  0.12970547086E+02  0.91503864097E+02  0.11195907463E+03  0.47000000000E+01 0.  1.
         11    1    6    6    0    0 -0.11666645244E+03  0.12181336380E+03  0.11043847889E+03  0.20160906315E+03  0.00000000000E+00 0. -1.
        -12    1    6    6    0    0 -0.34760306258E+02  0.14554301806E+03  0.84774968047E+02  0.17198210431E+03  0.00000000000E+00 0.  1.
</event>
<event>
12    1  0.9656379E-001  0.2551520E+03  0.7818608E-02  0.1110091E+00
         -2   -1    0    0    0  501 -0.00000000000E+00  0.00000000000E+00  0.77433327685E+03  0.77433327685E+03  0.00000000000E+00 0.  1.
          2   -1    0    0  502    0  0.00000000000E+00 -0.00000000000E+00 -0.25749468201E+03  0.25749468201E+03  0.00000000000E+00 0. -1.
          6    2    1    2  502    0 -0.10441444527E+03 -0.15686160058E+03  0.68186812513E+03  0.72810447864E+03  0.17229060805E+03 0.  0.
         24    2    3    3    0    0 -0.34490183394E+02 -0.10461568220E+03  0.57011888548E+03  0.58622769777E+03  0.80581364703E+02 0.  0.
         -6    2    1    2    0  501  0.10441444527E+03  0.15686160058E+03 -0.16502953029E+03  0.30372348022E+03  0.17177097674E+03 0.  0.
        -24    2    5    5    0    0  0.75439700701E+02  0.16906056297E+03 -0.87191535430E+02  0.21964498148E+03  0.79805586571E+02 0.  0.
          5    1    3    3  502    0 -0.69924261879E+02 -0.52245918382E+02  0.11174923965E+03  0.14187678087E+03  0.47000000000E+01 0. -1.
        -13    1    4    4    0    0 -0.23166806678E+02 -0.11247309437E+03  0.41803762657E+03  0.43352318867E+03  0.00000000000E+00 0.  1.
         14    1    4    4    0    0 -0.11323376716E+02  0.78574121724E+01  0.15208125891E+03  0.15270450910E+03  0.00000000000E+00 0. -1.
         -5    1    5    5    0  501  0.28974744571E+02 -0.12198962383E+02 -0.77837994860E+02  0.84078498738E+02  0.47000000000E+01 0.  1.
         13    1    6    6    0    0  0.18344864972E+02  0.21692439889E+02 -0.49653606621E+02  0.57206439057E+02  0.00000000000E+00 0. -1.
        -14    1    6    6    0    0  0.57094835729E+02  0.14736812308E+03 -0.37537928809E+02  0.16243854243E+03  0.00000000000E+00 0.  1.
</event>
<event>
12    1  0.9656379E-001  0.2619581E+03  0.7818608E-02  0.1105972E+00
         -2   -1    0    0    0  501 -0.00000000000E+00  0.00000000000E+00  0.41278682399E+03  0.41278682399E+03  0.00000000000E+00 0.  1.
          2   -1    0    0  502    0  0.00000000000E+00 -0.00000000000E+00 -0.67006285650E+03  0.67006285650E+03  0.00000000000E+00 0. -1.
          6    2    1    2  502    0  0.94806182430E+02 -0.17304448887E+03  0.34082639562E+03  0.42995369156E+03  0.17252517954E+03 0.  0.
         24    2    3    3    0    0  0.78095993693E+02 -0.20034487484E+03  0.29048281662E+03  0.37011133675E+03  0.79781462374E+02 0.  0.
         -6    2    1    2    0  501 -0.94806182430E+02  0.17304448887E+03 -0.59810242813E+03  0.65289598894E+03  0.17208733388E+03 0.  0.
        -24    2    5    5    0    0 -0.11163134092E+03  0.18041757612E+03 -0.58993359348E+03  0.63224972455E+03  0.81890240129E+02 0.  0.
          5    1    3    3  502    0  0.16710188737E+02  0.27300385965E+02  0.50343579004E+02  0.59842354803E+02  0.47000000000E+01 0. -1.
        -13    1    4    4    0    0  0.15950336448E+01 -0.91544483029E+02  0.15654622575E+03  0.18135505866E+03  0.00000000000E+00 0.  1.
         14    1    4    4    0    0  0.76500960048E+02 -0.10880039181E+03  0.13393659087E+03  0.18875627809E+03  0.00000000000E+00 0. -1.
         -5    1    5    5    0  501  0.16825158488E+02 -0.73730872517E+01 -0.81688346563E+01  0.20646264394E+02  0.47000000000E+01 0.  1.
         13    1    6    6    0    0 -0.33429163356E+02  0.12691718820E+03 -0.37680296111E+03  0.39900620687E+03  0.00000000000E+00 0. -1.
        -14    1    6    6    0    0 -0.78202177561E+02  0.53500387926E+02 -0.21313063237E+03  0.23324351767E+03  0.00000000000E+00 0.  1.
</event>
<event>
12    1  0.9656379E-001  0.3665815E+03  0.7818608E-02  0.1056008E+00
          1   -1    0    0  502    0  0.00000000000E+00  0.00000000000E+00  0.23872645045E+04  0.23872645045E+04  0.00000000000E+00 0. -1.
         -1   -1    0    0    0  501 -0.00000000000E+00 -0.00000000000E+00 -0.61414611778E+03  0.61414611778E+03  0.00000000000E+00 0.  1.
          6    2    1    2  502    0  0.17291904575E+03  0.27286568082E+03 -0.54394510431E+03  0.65536664182E+03  0.17109202948E+03 0.  0.
         24    2    3    3    0    0  0.13824837863E+03  0.26123805653E+03 -0.53646631212E+03  0.61774644594E+03  0.80353164602E+02 0.  0.
         -6    2    1    2    0  501 -0.17291904575E+03 -0.27286568082E+03  0.23170634910E+04  0.23460439805E+04  0.17544931064E+03 0.  0.
        -24    2    5    5    0    0 -0.10171023406E+03 -0.76895741073E+02  0.72809754656E+03  0.74344927971E+03  0.79579315745E+02 0.  0.
          5    1    3    3  502    0  0.34670667120E+02  0.11627624285E+02 -0.74787921948E+01  0.37620195876E+02  0.47000000000E+01 0. -1.
        -13    1    4    4    0    0  0.11086682654E+03  0.25269464851E+03 -0.50256324706E+03  0.57333747122E+03  0.00000000000E+00 0.  1.
         14    1    4    4    0    0  0.27381552085E+02  0.85434080253E+01 -0.33903065058E+02  0.44408974720E+02  0.00000000000E+00 0. -1.
         -5    1    5    5    0  501 -0.71208811683E+02 -0.19596993975E+03  0.15889659445E+04  0.16025947008E+04  0.47000000000E+01 0.  1.
         13    1    6    6    0    0 -0.56767480473E+02 -0.86426016119E+02  0.54105784862E+03  0.55084988759E+03  0.00000000000E+00 0. -1.
        -14    1    6    6    0    0 -0.44942753589E+02  0.95302750464E+01  0.18703969794E+03  0.19259939212E+03  0.00000000000E+00 0.  1.
</event>
<event>
12    1  0.9656379E-001  0.8559472E+03  0.7818608E-02  0.9482389E-01
         -1   -1    0    0    0  501 -0.00000000000E+00  0.00000000000E+00  0.22326173062E+03  0.22326173062E+03  0.00000000000E+00 0.  1.
          1   -1    0    0  502    0  0.00000000000E+00 -0.00000000000E+00 -0.37834027262E+04  0.37834027262E+04  0.00000000000E+00 0. -1.
          6    2    1    2  502    0  0.82572952610E+03  0.14583334323E+03 -0.25098006760E+04  0.26517632172E+04  0.17219788756E+03 0.  0.
         24    2    3    3    0    0  0.71638137571E+03  0.16692797514E+03 -0.20775967176E+04  0.22054176636E+04  0.79948269916E+02 0.  0.
         -6    2    1    2    0  501 -0.82572952610E+03 -0.14583334323E+03 -0.10503403195E+04  0.13549012396E+04  0.17159827492E+03 0.  0.
        -24    2    5    5    0    0 -0.45909989768E+03 -0.14962849443E+03 -0.58989490225E+03  0.76628951707E+03  0.77860297099E+02 0.  0.
          5    1    3    3  502    0  0.10934815039E+03 -0.21094631909E+02 -0.43220395848E+03  0.44634555359E+03  0.47000000000E+01 0. -1.
        -11    1    4    4    0    0  0.79406806420E+02  0.45283167176E+02 -0.25996650358E+03  0.27556957219E+03  0.00000000000E+00 0.  1.
         12    1    4    4    0    0  0.63697456929E+03  0.12164480796E+03 -0.18176302140E+04  0.19298480914E+04  0.00000000000E+00 0. -1.
         -5    1    5    5    0  501 -0.36662962842E+03  0.37951512031E+01 -0.46044541728E+03  0.58861172253E+03  0.47000000000E+01 0.  1.
         13    1    6    6    0    0 -0.44852736024E+03 -0.13415208710E+03 -0.55041064540E+03  0.72258248935E+03  0.00000000000E+00 0. -1.
        -14    1    6    6    0    0 -0.10572537444E+02 -0.15476407334E+02 -0.39484256857E+02  0.43707027713E+02  0.00000000000E+00 0.  1.
</event>
<event>
12    1  0.9656379E-001  0.8473031E+03  0.7818608E-02  0.9493964E-01
         -1   -1    0    0    0  501 -0.00000000000E+00  0.00000000000E+00  0.13693473066E+04  0.13693473066E+04  0.00000000000E+00 0.  1.
          1   -1    0    0  502    0  0.00000000000E+00 -0.00000000000E+00 -0.65565337920E+03  0.65565337920E+03  0.00000000000E+00 0. -1.
          6    2    1    2  502    0 -0.66726205573E+03  0.49313729551E+03  0.81009418419E+03  0.11723076565E+04  0.17213253930E+03 0.  0.
         24    2    3    3    0    0 -0.58885224315E+03  0.37230249198E+03  0.70240428030E+03  0.99239558399E+03  0.78237537810E+02 0.  0.
         -6    2    1    2    0  501  0.66726205573E+03 -0.49313729551E+03 -0.96400256789E+02  0.85269302925E+03  0.17137487969E+03 0.  0.
        -24    2    5    5    0    0  0.46597076686E+03 -0.37202396131E+03 -0.13035663606E+03  0.61528673534E+03  0.77809580163E+02 0.  0.
          5    1    3    3  502    0 -0.78409812576E+02  0.12083480353E+03  0.10768990389E+03  0.17991207255E+03  0.47000000000E+01 0. -1.
        -13    1    4    4    0    0 -0.26711471209E+03  0.17699900632E+03  0.37768611580E+03  0.49530366416E+03  0.00000000000E+00 0.  1.
         14    1    4    4    0    0 -0.32173753106E+03  0.19530348566E+03  0.32471816450E+03  0.49709191983E+03  0.00000000000E+00 0. -1.
         -5    1    5    5    0  501  0.20129128887E+03 -0.12111333420E+03  0.33956379271E+02  0.23740629391E+03  0.47000000000E+01 0.  1.
         13    1    6    6    0    0  0.23903255768E+03 -0.17175333501E+03 -0.10104415014E+03  0.31120040488E+03  0.00000000000E+00 0. -1.
        -14    1    6    6    0    0  0.22693820918E+03 -0.20027062629E+03 -0.29312485918E+02  0.30408633046E+03  0.00000000000E+00 0.  1.
</event>
<event>
12    1  0.9656379E-001  0.5303637E+03  0.7818608E-02  0.1006144E+00
         -2   -1    0    0    0  501 -0.00000000000E+00  0.00000000000E+00  0.32975412321E+03  0.32975412321E+03  0.00000000000E+00 0.  1.
          2   -1    0    0  502    0  0.00000000000E+00 -0.00000000000E+00 -0.14040123583E+04  0.14040123583E+04  0.00000000000E+00 0. -1.
          6    2    1    2  502    0  0.48053137733E+03  0.14402426753E+03  0.57782561063E+01  0.53064621832E+03  0.17291219314E+03 0.  0.
         24    2    3    3    0    0  0.41331000720E+03  0.99402922248E+02  0.55138149673E+02  0.43594528828E+03  0.79384984866E+02 0.  0.
         -6    2    1    2    0  501 -0.48053137733E+03 -0.14402426753E+03 -0.10800364912E+04  0.12031202631E+04  0.17136554830E+03 0.  0.
        -24    2    5    5    0    0 -0.35759471355E+03 -0.16636617822E+03 -0.87578183275E+03  0.96363197585E+03  0.77724397018E+02 0.  0.
          5    1    3    3  502    0  0.67221370131E+02  0.44621345286E+02 -0.49359893566E+02  0.94700930040E+02  0.47000000000E+01 0. -1.
        -11    1    4    4    0    0  0.19928741761E+03  0.14566317087E+02  0.48525136710E+02  0.20562670377E+03  0.00000000000E+00 0.  1.
         12    1    4    4    0    0  0.21402258959E+03  0.84836605162E+02  0.66130129625E+01  0.23031858451E+03  0.00000000000E+00 0. -1.
         -5    1    5    5    0  501 -0.12293666378E+03  0.22341910691E+02 -0.20425465840E+03  0.23948828730E+03  0.47000000000E+01 0.  1.
         11    1    6    6    0    0 -0.18980375594E+03 -0.46084349219E+02 -0.40991455518E+03  0.45406957128E+03  0.00000000000E+00 0. -1.
        -12    1    6    6    0    0 -0.16779095762E+03 -0.12028182901E+03 -0.46586727757E+03  0.50956240458E+03  0.00000000000E+00 0.  1.
</event>
<event>
12    1  0.9656379E-001  0.7615337E+03  0.7818608E-02  0.9617428E-01
         -3   -1    0    0    0  501 -0.00000000000E+00  0.00000000000E+00  0.33258021466E+03  0.33258021466E+03  0.00000000000E+00 0.  1.
          3   -1    0    0  502    0  0.00000000000E+00 -0.00000000000E+00 -0.17506727155E+04  0.17506727155E+04  0.00000000000E+00 0. -1.
          6    2    1    2  502    0  0.73632898156E+03  0.90799931392E+02 -0.64359884147E+03  0.99715370749E+03  0.17225286932E+03 0.  0.
         24    2    3    3    0    0  0.72065299098E+03  0.10539558419E+03 -0.59483392787E+03  0.94368524426E+03  0.79154759300E+02 0.  0.
         -6    2    1    2    0  501 -0.73632898156E+03 -0.90799931392E+02 -0.77449365940E+03  0.10860992227E+04  0.17130702403E+03 0.  0.
        -24    2    5    5    0    0 -0.53469419109E+03 -0.95461079624E+02 -0.48081887862E+03  0.72980540870E+03  0.80115197205E+02 0.  0.
          5    1    3    3  502    0  0.15675990584E+02 -0.14595652802E+02 -0.48764913598E+02  0.53468463225E+02  0.47000000000E+01 0. -1.
        -13    1    4    4    0    0  0.55690397688E+03  0.11015776449E+03 -0.48265348144E+03  0.74513834668E+03  0.00000000000E+00 0.  1.
         14    1    4    4    0    0  0.16374901410E+03 -0.47621802978E+01 -0.11218044643E+03  0.19854689758E+03  0.00000000000E+00 0. -1.
         -5    1    5    5    0  501 -0.20163479047E+03  0.46611482315E+01 -0.29367478077E+03  0.35629381400E+03  0.47000000000E+01 0.  1.
         13    1    6    6    0    0 -0.36796205818E+03 -0.33550858165E+02 -0.35081128503E+03  0.50950004322E+03  0.00000000000E+00 0. -1.
        -14    1    6    6    0    0 -0.16673213291E+03 -0.61910221459E+02 -0.13000759360E+03  0.22030536548E+03  0.00000000000E+00 0.  1.
</event>
<event>
12    1  0.9656379E-001  0.3879004E+03  0.7818608E-02  0.1048052E+00
         -2   -1    0    0    0  501 -0.00000000000E+00  0.00000000000E+00  0.10178972483E+04  0.10178972483E+04  0.00000000000E+00 0.  1.
          2   -1    0    0  502    0  0.00000000000E+00 -0.00000000000E+00 -0.18362018591E+03  0.18362018591E+03  0.00000000000E+00 0. -1.
          6    2    1    2  502    0  0.13274828068E+03  0.32176238259E+03  0.15172453886E+03  0.41635447941E+03  0.17081446062E+03 0.  0.
         24    2    3    3    0    0  0.13454966933E+03  0.16101644554E+03  0.11132823757E+03  0.25053393654E+03  0.79645261159E+02 0.  0.
         -6    2    1    2    0  501 -0.13274828068E+03 -0.32176238259E+03  0.68255252354E+03  0.78516295482E+03  0.17160938597E+03 0.  0.
        -24    2    5    5    0    0 -0.16232869255E+03 -0.29951396457E+03  0.59977989008E+03  0.69436982887E+03  0.79714009385E+02 0.  0.
          5    1    3    3  502    0 -0.18013886524E+01  0.16074593706E+03  0.40396301288E+02  0.16582054287E+03  0.47000000000E+01 0. -1.
        -11    1    4    4    0    0  0.53934956305E+02  0.35761097436E+02  0.71311321786E+02  0.96297145421E+02  0.00000000000E+00 0.  1.
         12    1    4    4    0    0  0.80614713025E+02  0.12525534810E+03  0.40016915783E+02  0.15423679111E+03  0.00000000000E+00 0. -1.
         -5    1    5    5    0  501  0.29580411871E+02 -0.22248418025E+02  0.82772633460E+02  0.90793125957E+02  0.47000000000E+01 0.  1.
         13    1    6    6    0    0 -0.15363163340E+03 -0.26827343702E+03  0.57744762865E+03  0.65499548061E+03  0.00000000000E+00 0. -1.
        -14    1    6    6    0    0 -0.86970591483E+01 -0.31240527549E+02  0.22332261434E+02  0.39374348250E+02  0.00000000000E+00 0.  1.
</event>
<event>
12    1  0.9656379E-001  0.2948892E+03  0.7818608E-02  0.1087824E+00
         -2   -1    0    0    0  501 -0.00000000000E+00  0.00000000000E+00  0.58993175216E+02  0.58993175216E+02  0.00000000000E+00 0.  1.
          2   -1    0    0  502    0  0.00000000000E+00 -0.00000000000E+00 -0.17143784691E+04  0.17143784691E+04  0.00000000000E+00 0. -1.
          6    2    1    2  502    0  0.12787519590E+03  0.20119375898E+03 -0.49808631406E+03  0.57933382459E+03  0.17523330073E+03 0.  0.
         24    2    3    3    0    0  0.11100363565E+03  0.54643775000E+02 -0.23019994451E+03  0.27347970195E+03  0.80569123432E+02 0.  0.
         -6    2    1    2    0  501 -0.12787519590E+03 -0.20119375898E+03 -0.11572989798E+04  0.11940378197E+04  0.17191390823E+03 0.  0.
        -24    2    5    5    0    0 -0.15744342921E+03 -0.15786859242E+03 -0.85236823288E+03  0.88459283121E+03  0.79132463272E+02 0.  0.
          5    1    3    3  502    0  0.16871560249E+02  0.14654998398E+03 -0.26788636954E+03  0.30585412264E+03  0.47000000000E+01 0. -1.
        -11    1    4    4    0    0  0.66674403190E+02  0.43985259875E+02 -0.67705171708E+02  0.10470992982E+03  0.00000000000E+00 0.  1.
         12    1    4    4    0    0  0.44329232456E+02  0.10658515126E+02 -0.16249477280E+03  0.16876977213E+03  0.00000000000E+00 0. -1.
         -5    1    5    5    0  501  0.29568233310E+02 -0.43325166564E+02 -0.30493074697E+03  0.30944498853E+03  0.47000000000E+01 0.  1.
         11    1    6    6    0    0 -0.83871477003E+02 -0.12588061141E+03 -0.63850449085E+03  0.65617706286E+03  0.00000000000E+00 0. -1.
        -12    1    6    6    0    0 -0.73571952203E+02 -0.31987981008E+02 -0.21386374202E+03  0.22841576835E+03  0.00000000000E+00 0.  1.
</event>
<event>
12    1  0.9656379E-001  0.5052107E+03  0.7818608E-02  0.1012428E+00
          2   -1    0    0  502    0  0.00000000000E+00  0.00000000000E+00  0.57587552352E+03  0.57587552352E+03  0.00000000000E+00 0. -1.
         -2   -1    0    0    0  501 -0.00000000000E+00 -0.00000000000E+00 -0.57821602747E+03  0.57821602747E+03  0.00000000000E+00 0.  1.
          6    2    1    2  502    0 -0.14738074392E+03  0.45197417463E+03 -0.27999485641E+03  0.57802421246E+03  0.17237497605E+03 0.  0.
         24    2    3    3    0    0 -0.11281132602E+03  0.25696902210E+03 -0.23492417949E+03  0.37486046057E+03  0.81064919603E+02 0.  0.
         -6    2    1    2    0  501  0.14738074392E+03 -0.45197417463E+03  0.27765435247E+03  0.57606733852E+03  0.16958744310E+03 0.  0.
        -24    2    5    5    0    0  0.80573266758E+02 -0.13585385918E+03  0.13878824335E+03  0.22435555438E+03  0.78261842030E+02 0.  0.
          5    1    3    3  502    0 -0.34569417898E+02  0.19500515252E+03 -0.45070676920E+02  0.20316375189E+03  0.47000000000E+01 0. -1.
        -13    1    4    4    0    0 -0.97800249849E+02  0.18472129147E+03 -0.21171359467E+03  0.29750544627E+03  0.00000000000E+00 0.  1.
         14    1    4    4    0    0 -0.15011076172E+02  0.72247730639E+02 -0.23210584825E+02  0.77355014305E+02  0.00000000000E+00 0. -1.
         -5    1    5    5    0  501  0.66807477163E+02 -0.31612031545E+03  0.13886610912E+03  0.35171178415E+03  0.47000000000E+01 0.  1.
         11    1    6    6    0    0  0.14022666622E+02 -0.89022050830E+02  0.98655345999E+02  0.13362049995E+03  0.00000000000E+00 0. -1.
        -12    1    6    6    0    0  0.66550600136E+02 -0.46831808347E+02  0.40132897349E+02  0.90735054423E+02  0.00000000000E+00 0.  1.
</event>
<event>
12    1  0.9656379E-001  0.2130990E+03  0.7818608E-02  0.1139135E+00
         -2   -1    0    0    0  501 -0.00000000000E+00  0.00000000000E+00  0.25321486717E+03  0.25321486717E+03  0.00000000000E+00 0.  1.
          2   -1    0    0  502    0  0.00000000000E+00 -0.00000000000E+00 -0.37359114739E+04  0.37359114739E+04  0.00000000000E+00 0. -1.
          6    2    1    2  502    0  0.77331673119E+02 -0.96710416931E+02  0.20427358602E+03  0.29607256333E+03  0.17492333292E+03 0.  0.
         24    2    3    3    0    0 -0.18975638409E+02 -0.41947459191E+02  0.91033323277E+02  0.13758115378E+03  0.92313832893E+02 0.  0.
         -6    2    1    2    0  501 -0.77331673119E+02  0.96710416931E+02 -0.36869701928E+04  0.36930537778E+04  0.17194159075E+03 0.  0.
        -24    2    5    5    0    0  0.18889427093E+02  0.24977586560E+02 -0.20466464179E+04  0.20483385211E+04  0.77126174772E+02 0.  0.
          5    1    3    3  502    0  0.96307311528E+02 -0.54762957740E+02  0.11324026274E+03  0.15849140955E+03  0.47000000000E+01 0. -1.
        -13    1    4    4    0    0  0.28617642286E+02  0.47688932711E+01  0.53996391477E+02  0.61296998993E+02  0.00000000000E+00 0.  1.
         14    1    4    4    0    0 -0.47593280695E+02 -0.46716352462E+02  0.37036931800E+02  0.76284154789E+02  0.00000000000E+00 0. -1.
         -5    1    5    5    0  501 -0.96221100212E+02  0.71732830371E+02 -0.16403237749E+04  0.16447152567E+04  0.47000000000E+01 0.  1.
         13    1    6    6    0    0 -0.17878321482E+02  0.39602320763E+02 -0.99641080622E+03  0.99735774572E+03  0.00000000000E+00 0. -1.
        -14    1    6    6    0    0  0.36767748575E+02 -0.14624734203E+02 -0.10502356117E+04  0.10509807754E+04  0.00000000000E+00 0.  1.
</event>
<event>
12    1  0.9656379E-001  0.9255481E+03  0.7818608E-02  0.9394197E-01
         -2   -1    0    0    0  501 -0.00000000000E+00  0.00000000000E+00  0.13748175569E+04  0.13748175569E+04  0.00000000000E+00 0.  1.
          2   -1    0    0  502    0  0.00000000000E+00 -0.00000000000E+00 -0.24340166792E+04  0.24340166792E+04  0.00000000000E+00 0. -1.
          6    2    1    2  502    0 -0.22577199142E+03  0.88092809127E+03  0.11130916451E+04  0.14475311560E+04  0.17136552535E+03 0.  0.
         24    2    3    3    0    0 -0.18415668217E+03  0.84361411050E+03  0.10673226796E+04  0.13751360227E+04  0.78885535019E+02 0.  0.
         -6    2    1    2    0  501  0.22577199142E+03 -0.88092809127E+03 -0.21722907674E+04  0.23613030801E+04  0.17290969761E+03 0.  0.
        -24    2    5    5    0    0  0.11726915430E+03 -0.44113120302E+03 -0.93011051388E+03  0.10390973317E+04  0.79176410426E+02 0.  0.
          5    1    3    3  502    0 -0.41615309254E+02  0.37313980761E+02  0.45768965502E+02  0.72395133315E+02  0.47000000000E+01 0. -1.
        -11    1    4    4    0    0 -0.11147515757E+03  0.54918696732E+03  0.63298625456E+03  0.84540205482E+03  0.00000000000E+00 0.  1.
         12    1    4    4    0    0 -0.72681524598E+02  0.29442714318E+03  0.43433642499E+03  0.52973396789E+03  0.00000000000E+00 0. -1.
         -5    1    5    5    0  501  0.10850283713E+03 -0.43979688825E+03 -0.12421802536E+04  0.13222057483E+04  0.47000000000E+01 0.  1.
         13    1    6    6    0    0  0.10310958932E+03 -0.34113451044E+03 -0.78710589935E+03  0.86402548482E+03  0.00000000000E+00 0. -1.
        -14    1    6    6    0    0  0.14159564975E+02 -0.99996692576E+02 -0.14300461452E+03  0.17507184691E+03  0.00000000000E+00 0.  1.
</event>
<event>
12    1  0.9656379E-001  0.3220353E+03  0.7818608E-02  0.1074716E+00
          1   -1    0    0  502    0  0.00000000000E+00  0.00000000000E+00  0.14114475279E+04  0.14114475279E+04  0.00000000000E+00 0. -1.
         -1   -1    0    0    0  501 -0.00000000000E+00 -0.00000000000E+00 -0.10727040382E+04  0.10727040382E+04  0.00000000000E+00 0.  1.
          6    2    1    2  502    0 -0.25002029030E+03 -0.10684903160E+03 -0.10294097917E+04  0.10786179329E+04  0.17264201332E+03 0.  0.
         24    2    3    3    0    0 -0.97065136205E+02 -0.44486079404E+02 -0.64761539790E+03  0.66259694049E+03  0.90710253137E+02 0.  0.
         -6    2    1    2    0  501  0.25002029030E+03  0.10684903160E+03  0.13681532814E+04  0.14055336332E+04  0.17249501869E+03 0.  0.
        -24    2    5    5    0    0  0.21521189998E+03  0.12008899373E+03  0.91680648910E+03  0.95262863481E+03  0.78928126027E+02 0.  0.
          5    1    3    3  502    0 -0.15295515409E+03 -0.62362952193E+02 -0.38179439383E+03  0.41602099241E+03  0.47000000000E+01 0. -1.
        -11    1    4    4    0    0 -0.53703294832E+02  0.16711544872E+02 -0.39807688557E+03  0.40203050436E+03  0.00000000000E+00 0.  1.
         12    1    4    4    0    0 -0.43361841373E+02 -0.61197624276E+02 -0.24953851233E+03  0.26056643613E+03  0.00000000000E+00 0. -1.
         -5    1    5    5    0  501  0.34808390321E+02 -0.13239962138E+02  0.45134679233E+03  0.45290499841E+03  0.47000000000E+01 0.  1.
         11    1    6    6    0    0  0.16962279452E+03  0.71177458401E+02  0.76400665132E+03  0.78583986045E+03  0.00000000000E+00 0. -1.
        -12    1    6    6    0    0  0.45589105456E+02  0.48911535334E+02  0.15279983779E+03  0.16678877436E+03  0.00000000000E+00 0.  1.
</event>
<event>
12    1  0.9656379E-001  0.3990317E+03  0.7818608E-02  0.1044115E+00
          1   -1    0    0  502    0  0.00000000000E+00  0.00000000000E+00  0.14107439958E+04  0.14107439958E+04  0.00000000000E+00 0. -1.
         -1   -1    0    0    0  501 -0.00000000000E+00 -0.00000000000E+00 -0.11428845860E+03  0.11428845860E+03  0.00000000000E+00 0.  1.
          6    2    1    2  502    0  0.27528238654E+03  0.23187671343E+03  0.73314647085E+03  0.83466717482E+03  0.17209980370E+03 0.  0.
         24    2    3    3    0    0  0.14547927687E+03  0.74683114624E+02  0.24223985629E+03  0.30309397289E+03  0.80274658648E+02 0.  0.
         -6    2    1    2    0  501 -0.27528238654E+03 -0.23187671343E+03  0.56330906631E+03  0.69036527955E+03  0.17245263828E+03 0.  0.
        -24    2    5    5    0    0 -0.84537314773E+02 -0.97965587532E+02  0.31574789769E+03  0.35032926050E+03  0.79309784623E+02 0.  0.
          5    1    3    3  502    0  0.12980310966E+03  0.15719359881E+03  0.49090661457E+03  0.53157320193E+03  0.47000000000E+01 0. -1.
        -11    1    4    4    0    0  0.11227059826E+03  0.87957365840E+02  0.21557735571E+03  0.25848555421E+03  0.00000000000E+00 0.  1.
         12    1    4    4    0    0  0.33208678616E+02 -0.13274251216E+02  0.26662500576E+02  0.44608418686E+02  0.00000000000E+00 0. -1.
         -5    1    5    5    0  501 -0.19074507177E+03 -0.13391112590E+03  0.24756116862E+03  0.34003601905E+03  0.47000000000E+01 0.  1.
         13    1    6    6    0    0 -0.66247125842E+02 -0.10772536360E+03  0.23393369309E+03  0.26592932972E+03  0.00000000000E+00 0. -1.
        -14    1    6    6    0    0 -0.18290188931E+02  0.97597760726E+01  0.81814204602E+02  0.84399930774E+02  0.00000000000E+00 0.  1.
</event>
<event>
12    1  0.9656379E-001  0.4213085E+03  0.7818608E-02  0.1036641E+00
          2   -1    0    0  502    0  0.00000000000E+00  0.00000000000E+00  0.20546311579E+04  0.20546311579E+04  0.00000000000E+00 0. -1.
         -2   -1    0    0    0  501 -0.00000000000E+00 -0.00000000000E+00 -0.11140398062E+03  0.11140398062E+03  0.00000000000E+00 0.  1.
          6    2    1    2  502    0  0.38258819567E+03 -0.35372514061E+02  0.45956308597E+03  0.62388443249E+03  0.17438065516E+03 0.  0.
         24    2    3    3    0    0  0.36558670534E+03 -0.38904315523E+02  0.47082959003E+03  0.60265830687E+03  0.79682790512E+02 0.  0.
         -6    2    1    2    0  501 -0.38258819567E+03  0.35372514061E+02  0.14836640913E+04  0.15421507061E+04  0.17130301238E+03 0.  0.
        -24    2    5    5    0    0 -0.18604938154E+03  0.40289138714E+02  0.97884088978E+03  0.10003756296E+04  0.79901975513E+02 0.  0.
          5    1    3    3  502    0  0.17001490330E+02  0.35318014618E+01 -0.11266504058E+02  0.21226125617E+02  0.47000000000E+01 0. -1.
        -11    1    4    4    0    0  0.29267348221E+03 -0.56899734664E+02  0.34367250709E+03  0.45497927329E+03  0.00000000000E+00 0.  1.
         12    1    4    4    0    0  0.72913223126E+02  0.17995419142E+02  0.12715708294E+03  0.14767903357E+03  0.00000000000E+00 0. -1.
         -5    1    5    5    0  501 -0.19653881412E+03 -0.49166246532E+01  0.50482320156E+03  0.54177507648E+03  0.47000000000E+01 0.  1.
         11    1    6    6    0    0 -0.81693714959E+02  0.49275609242E+02  0.34541734400E+03  0.35835051314E+03  0.00000000000E+00 0. -1.
        -12    1    6    6    0    0 -0.10435566659E+03 -0.89864705273E+01  0.63342354577E+03  0.64202511644E+03  0.00000000000E+00 0.  1.
</event>
<event>
12    1  0.9656379E-001  0.2566508E+03  0.7818608E-02  0.1109172E+00
          3   -1    0    0  502    0  0.00000000000E+00  0.00000000000E+00  0.41707209650E+02  0.41707209650E+02  0.00000000000E+00 0. -1.
         -3   -1    0    0    0  501 -0.00000000000E+00 -0.00000000000E+00 -0.21314577057E+04  0.21314577057E+04  0.00000000000E+00 0.  1.
          6    2    1    2  502    0  0.58090592316E+02 -0.18163859465E+03 -0.15884743092E+04  0.16085894725E+04  0.16715969680E+03 0.  0.
         24    2    3    3    0    0  0.86351297642E+02 -0.17563807971E+03 -0.11677042154E+04  0.11868025175E+04  0.81619845328E+02 0.  0.
         -6    2    1    2    0  501 -0.58090592316E+02  0.18163859465E+03 -0.50127618693E+03  0.56457544287E+03  0.17635339274E+03 0.  0.
        -24    2    5    5    0    0 -0.34141562445E+02  0.19708079260E+03 -0.35224478743E+03  0.41277140622E+03  0.79355897197E+02 0.  0.
          5    1    3    3  502    0 -0.28260705326E+02 -0.60005149476E+01 -0.42077009377E+03  0.42178695506E+03  0.47000000000E+01 0. -1.
        -11    1    4    4    0    0 -0.20308855400E+01  0.36410596629E+01 -0.12750607543E+03  0.12757421794E+03  0.00000000000E+00 0.  1.
         12    1    4    4    0    0  0.88382183182E+02 -0.17927913937E+03 -0.10401981400E+04  0.10592282995E+04  0.00000000000E+00 0. -1.
         -5    1    5    5    0  501 -0.23949029871E+02 -0.15442197947E+02 -0.14903139950E+03  0.15180403666E+03  0.47000000000E+01 0.  1.
         11    1    6    6    0    0 -0.31169163698E+02  0.13803794304E+03 -0.17007812171E+03  0.22125224963E+03  0.00000000000E+00 0. -1.
        -12    1    6    6    0    0 -0.29723987472E+01  0.59042849565E+02 -0.18216666572E+03  0.19151915658E+03  0.00000000000E+00 0.  1.
</event>
<event>
12    1  0.9656379E-001  0.1638539E+04  0.7818608E-02  0.8797216E-01
          2   -1    0    0  502    0  0.00000000000E+00  0.00000000000E+00  0.23582600066E+04  0.23582600066E+04  0.00000000000E+00 0. -1.
         -2   -1    0    0    0  501 -0.00000000000E+00 -0.00000000000E+00 -0.13699512728E+04  0.13699512728E+04  0.00000000000E+00 0.  1.
          6    2    1    2  502    0 -0.30784375614E+03 -0.16001030375E+04 -0.27206731595E+03  0.16611172884E+04  0.17375992856E+03 0.  0.
         24    2    3    3    0    0 -0.99877516040E+02 -0.85839105279E+03 -0.16220120828E+03  0.88299179928E+03  0.80960285983E+02 0.  0.
         -6    2    1    2    0  501  0.30784375614E+03  0.16001030375E+04  0.12603760497E+04  0.20670939910E+04  0.17097447824E+03 0.  0.
        -24    2    5    5    0    0  0.31009740420E+03  0.15117933156E+04  0.12245724971E+04  0.19716598761E+04  0.78647549895E+02 0.  0.
          5    1    3    3  502    0 -0.20796624010E+03 -0.74171198468E+03 -0.10986610767E+03  0.77812548915E+03  0.47000000000E+01 0. -1.
        -13    1    4    4    0    0 -0.98691550509E+02 -0.61115620885E+03 -0.91153750170E+02  0.62574830398E+03  0.00000000000E+00 0.  1.
         14    1    4    4    0    0 -0.11859655312E+01 -0.24723484394E+03 -0.71047458111E+02  0.25724349530E+03  0.00000000000E+00 0. -1.
         -5    1    5    5    0  501 -0.22536480611E+01  0.88309721868E+02  0.35803552526E+02  0.95434114862E+02  0.47000000000E+01 0.  1.
         11    1    6    6    0    0  0.19673881612E+03  0.97543001316E+03  0.83696817678E+03  0.13002636661E+04  0.00000000000E+00 0. -1.
        -12    1    6    6    0    0  0.11335858808E+03  0.53636330245E+03  0.38760432036E+03  0.67139621005E+03  0.00000000000E+00 0.  1.
</event>
<event>
12    1  0.9656379E-001  0.3371829E+03  0.7818608E-02  0.1068002E+00
         -2   -1    0    0    0  501 -0.00000000000E+00  0.00000000000E+00  0.19790347908E+03  0.19790347908E+03  0.00000000000E+00 0.  1.
          2   -1    0    0  502    0  0.00000000000E+00 -0.00000000000E+00 -0.83675556737E+03  0.83675556737E+03  0.00000000000E+00 0. -1.
          6    2    1    2  502    0 -0.26375263561E+03  0.12056380254E+03 -0.29954929289E+02  0.33875420009E+03  0.17249935367E+03 0.  0.
         24    2    3    3    0    0 -0.96448082971E+02 -0.10782726981E+02  0.89299911097E+00  0.12377418047E+03  0.76816341971E+02 0.  0.
         -6    2    1    2    0  501  0.26375263561E+03 -0.12056380254E+03 -0.60889715901E+03  0.69590484636E+03  0.17154218626E+03 0.  0.
        -24    2    5    5    0    0  0.24737668714E+03 -0.15118213868E+03 -0.56184543484E+03  0.63723961864E+03  0.79704294196E+02 0.  0.
          5    1    3    3  502    0 -0.16730455264E+03  0.13134652952E+03 -0.30847928400E+02  0.21498001962E+03  0.47000000000E+01 0. -1.
        -11    1    4    4    0    0  0.72368796331E+00  0.20454806355E+02  0.67096111215E+01  0.21539306133E+02  0.00000000000E+00 0.  1.
         12    1    4    4    0    0 -0.97171770934E+02 -0.31237533336E+02 -0.58166120106E+01  0.10223487434E+03  0.00000000000E+00 0. -1.
         -5    1    5    5    0  501  0.16375948472E+02  0.30618336145E+02 -0.47051724167E+02  0.58665227723E+02  0.47000000000E+01 0.  1.
         13    1    6    6    0    0  0.66661553795E+02 -0.83859588395E+01 -0.16882287824E+03  0.18170099416E+03  0.00000000000E+00 0. -1.
        -14    1    6    6    0    0  0.18071513334E+03 -0.14279617984E+03 -0.39302255660E+03  0.45553862448E+03  0.00000000000E+00 0.  1.
</event>
<event>
12    1  0.9656379E-001  0.1072200E+04  0.7818608E-02  0.9232719E-01
         -1   -1    0    0    0  501 -0.00000000000E+00  0.00000000000E+00  0.44277627014E+03  0.44277627014E+03  0.00000000000E+00 0.  1.
          1   -1    0    0  502    0  0.00000000000E+00 -0.00000000000E+00 -0.33116826797E+04  0.33116826797E+04  0.00000000000E+00 0. -1.
          6    2    1    2  502    0 -0.72020286224E+03  0.77537892747E+03 -0.56215314703E+03  0.12107564648E+04  0.17323513643E+03 0.  0.
         24    2    3    3    0    0 -0.47049179347E+03  0.41857564881E+03 -0.29353880677E+03  0.69905347352E+03  0.77088431479E+02 0.  0.
         -6    2    1    2    0  501  0.72020286224E+03 -0.77537892747E+03 -0.23067532625E+04  0.25437024850E+04  0.17148490935E+03 0.  0.
        -24    2    5    5    0    0  0.44146427909E+03 -0.53939941469E+03 -0.16335135640E+04  0.17777682125E+04  0.79062097133E+02 0.  0.
          5    1    3    3  502    0 -0.24971106877E+03  0.35680327866E+03 -0.26861434027E+03  0.51170299132E+03  0.47000000000E+01 0. -1.
        -13    1    4    4    0    0 -0.23909947014E+03  0.25127787007E+03 -0.13299918420E+03  0.37148069614E+03  0.00000000000E+00 0.  1.
         14    1    4    4    0    0 -0.23139232332E+03  0.16729777874E+03 -0.16053962257E+03  0.32757277738E+03  0.00000000000E+00 0. -1.
         -5    1    5    5    0  501  0.27873858315E+03 -0.23597951278E+03 -0.67323969855E+03  0.76593427256E+03  0.47000000000E+01 0.  1.
         11    1    6    6    0    0  0.12427399207E+03 -0.16087774170E+03 -0.39053100238E+03  0.44027279805E+03  0.00000000000E+00 0. -1.
        -12    1    6    6    0    0  0.31719028701E+03 -0.37852167299E+03 -0.12429825616E+04  0.13374954144E+04  0.00000000000E+00 0.  1.
</event>
<event>
12    1  0.9656379E-001  0.2989609E+03  0.7818608E-02  0.1085761E+00
          3   -1    0    0  502    0  0.00000000000E+00  0.00000000000E+00  0.97523769281E+02  0.97523769281E+02  0.00000000000E+00 0. -1.
         -3   -1    0    0    0  501 -0.00000000000E+00 -0.00000000000E+00 -0.94348427488E+03  0.94348427488E+03  0.00000000000E+00 0.  1.
          6    2    1    2  502    0 -0.38078808527E+02 -0.23974602959E+03 -0.50867536436E+03  0.58916894205E+03  0.17158456110E+03 0.  0.
         24    2    3    3    0    0 -0.51635571807E+02 -0.22774282906E+03 -0.51379359829E+03  0.56977438168E+03  0.78268486046E+02 0.  0.
         -6    2    1    2    0  501  0.38078808527E+02  0.23974602959E+03 -0.33728514123E+03  0.45183910211E+03  0.17739547157E+03 0.  0.
        -24    2    5    5    0    0 -0.32670063381E+02  0.52373970176E+02 -0.12329437963E+03  0.15870461492E+03  0.78582981340E+02 0.  0.
          5    1    3    3  502    0  0.13556763279E+02 -0.12003200526E+02  0.51182339288E+01  0.19394560372E+02  0.47000000000E+01 0. -1.
        -11    1    4    4    0    0 -0.54432412407E+02 -0.77357090981E+02 -0.22733763470E+03  0.24623039454E+03  0.00000000000E+00 0.  1.
         12    1    4    4    0    0  0.27968406007E+01 -0.15038573808E+03 -0.28645596360E+03  0.32354398714E+03  0.00000000000E+00 0. -1.
         -5    1    5    5    0  501  0.70748871908E+02  0.18737205941E+03 -0.21399076160E+03  0.29313448718E+03  0.47000000000E+01 0.  1.
         13    1    6    6    0    0 -0.54348400447E+01  0.61479012179E+01  0.11211089767E+02  0.13893261297E+02  0.00000000000E+00 0. -1.
        -14    1    6    6    0    0 -0.27235223336E+02  0.46226068958E+02 -0.13450546940E+03  0.14481135363E+03  0.00000000000E+00 0.  1.
</event>
<event>
12    1  0.9656379E-001  0.4902796E+03  0.7818608E-02  0.1016348E+00
          2   -1    0    0  502    0  0.00000000000E+00  0.00000000000E+00  0.13080702451E+04  0.13080702451E+04  0.00000000000E+00 0. -1.
         -2   -1    0    0    0  501 -0.00000000000E+00 -0.00000000000E+00 -0.72184052700E+03  0.72184052700E+03  0.00000000000E+00 0.  1.
          6    2    1    2  502    0 -0.42572619144E+03 -0.17106669414E+03 -0.58315033204E+03  0.76197969746E+03  0.17332670210E+03 0.  0.
         24    2    3    3    0    0 -0.38147509937E+03 -0.17067205258E+03 -0.58058707974E+03  0.71740419798E+03  0.54177718144E+02 0.  0.
         -6    2    1    2    0  501  0.42572619144E+03  0.17106669414E+03  0.11693800502E+04  0.12679310747E+04  0.17231629187E+03 0.  0.
        -24    2    5    5    0    0  0.10645492826E+03  0.90725275337E+02  0.37512850755E+03  0.40813663061E+03  0.79311945736E+02 0.  0.
          5    1    3    3  502    0 -0.44251092070E+02 -0.39464155838E+00 -0.25632522934E+01  0.44575499477E+02  0.47000000000E+01 0. -1.
        -13    1    4    4    0    0 -0.25102216225E+03 -0.13734319900E+03 -0.41278549616E+03  0.50226202931E+03  0.00000000000E+00 0.  1.
         14    1    4    4    0    0 -0.13045293713E+03 -0.33328853578E+02 -0.16780158359E+03  0.21514216867E+03  0.00000000000E+00 0. -1.
         -5    1    5    5    0  501  0.31927126318E+03  0.80341418801E+02  0.79425154263E+03  0.85979444406E+03  0.47000000000E+01 0.  1.
         11    1    6    6    0    0  0.32376546452E+02 -0.10393725298E+01  0.15559562243E+03  0.15893180543E+03  0.00000000000E+00 0. -1.
        -12    1    6    6    0    0  0.74078381811E+02  0.91764647867E+02  0.21953288511E+03  0.24920482519E+03  0.00000000000E+00 0.  1.
</event>
<event>
12    1  0.9656379E-001  0.3737537E+03  0.7818608E-02  0.1053267E+00
         -2   -1    0    0    0  501 -0.00000000000E+00  0.00000000000E+00  0.17256558370E+04  0.17256558370E+04  0.00000000000E+00 0.  1.
          2   -1    0    0  502    0  0.00000000000E+00 -0.00000000000E+00 -0.51776281915E+03  0.51776281915E+03  0.00000000000E+00 0. -1.
          6    2    1    2  502    0  0.13075446097E+03 -0.30342206957E+03  0.16344832926E+04  0.16768843141E+04  0.17675884093E+03 0.  0.
         24    2    3    3    0    0  0.57246713302E+02 -0.22875675712E+03  0.85841662044E+03  0.89376244145E+03  0.79532178259E+02 0.  0.
         -6    2    1    2    0  501 -0.13075446097E+03  0.30342206957E+03 -0.42659027467E+03  0.56653434210E+03  0.17268531198E+03 0.  0.
        -24    2    5    5    0    0 -0.11999172321E+03  0.13694108180E+03 -0.28685066373E+03  0.34886256010E+03  0.79189071465E+02 0.  0.
          5    1    3    3  502    0  0.73507747672E+02 -0.74665312441E+02  0.77606667211E+03  0.78312187264E+03  0.47000000000E+01 0. -1.
        -13    1    4    4    0    0  0.64053671804E+02 -0.10240205131E+03  0.46895267673E+03  0.48425785073E+03  0.00000000000E+00 0.  1.
         14    1    4    4    0    0 -0.68069585015E+01 -0.12635470582E+03  0.38946394372E+03  0.40950459072E+03  0.00000000000E+00 0. -1.
         -5    1    5    5    0  501 -0.10762737769E+02  0.16648098777E+03 -0.13973961094E+03  0.21767178200E+03  0.47000000000E+01 0.  1.
         11    1    6    6    0    0 -0.12121515762E+03  0.13371685140E+03 -0.29163556378E+03  0.34296444837E+03  0.00000000000E+00 0. -1.
        -12    1    6    6    0    0  0.12234344128E+01  0.32242303979E+01  0.47849000570E+01  0.58981117297E+01  0.00000000000E+00 0.  1.
</event>
<event>
12    1  0.9656379E-001  0.3815617E+03  0.7818608E-02  0.1050358E+00
          1   -1    0    0  502    0  0.00000000000E+00  0.00000000000E+00  0.97745175702E+03  0.97745175702E+03  0.00000000000E+00 0. -1.
         -1   -1    0    0    0  501 -0.00000000000E+00 -0.00000000000E+00 -0.10551434483E+04  0.10551434483E+04  0.00000000000E+00 0.  1.
          6    2    1    2  502    0 -0.25281166182E+03 -0.22823036136E+03 -0.98069764753E+03  0.10526921916E+04  0.17432768060E+03 0.  0.
         24    2    3    3    0    0 -0.15388491176E+03 -0.19690091586E+03 -0.82306372516E+03  0.86391036116E+03  0.80353467254E+02 0.  0.
         -6    2    1    2    0  501  0.25281166182E+03  0.22823036136E+03  0.90300595622E+03  0.97990301373E+03  0.16966827973E+03 0.  0.
        -24    2    5    5    0    0  0.12299826820E+03  0.87519523835E+02  0.27512693213E+03  0.32346930356E+03  0.78417603422E+02 0.  0.
          5    1    3    3  502    0 -0.98926750052E+02 -0.31329445497E+02 -0.15763392237E+03  0.18878183047E+03  0.47000000000E+01 0. -1.
        -11    1    4    4    0    0 -0.10786981401E+03 -0.82638000732E+02 -0.36161337713E+03  0.38630191620E+03  0.00000000000E+00 0.  1.
         12    1    4    4    0    0 -0.46015097751E+02 -0.11426291513E+03 -0.46145034803E+03  0.47760844495E+03  0.00000000000E+00 0. -1.
         -5    1    5    5    0  501  0.12981339361E+03  0.14071083752E+03  0.62787902409E+03  0.65643371017E+03  0.47000000000E+01 0.  1.
         11    1    6    6    0    0  0.40711882205E+02  0.51616260905E+02  0.18467359489E+03  0.19602559117E+03  0.00000000000E+00 0. -1.
        -12    1    6    6    0    0  0.82286385999E+02  0.35903262930E+02  0.90453337239E+02  0.12744371239E+03  0.00000000000E+00 0.  1.
</event>
<event>
12    1  0.9656379E-001  0.4109216E+03  0.7818608E-02  0.1040062E+00
         -1   -1    0    0    0  501 -0.00000000000E+00  0.00000000000E+00  0.14340689873E+03  0.14340689873E+03  0.00000000000E+00 0.  1.
          1   -1    0    0  502    0  0.00000000000E+00 -0.00000000000E+00 -0.12512723040E+04  0.12512723040E+04  0.00000000000E+00 0. -1.
          6    2    1    2  502    0  0.19850641100E+03 -0.31349883378E+03 -0.38221957890E+03  0.55983346719E+03  0.17214932618E+03 0.  0.
         24    2    3    3    0    0  0.11382474114E+03 -0.17365386307E+03 -0.12509993893E+03  0.25510375039E+03  0.79474479478E+02 0.  0.
         -6    2    1    2    0  501 -0.19850641100E+03  0.31349883378E+03 -0.72564582639E+03  0.83484573555E+03  0.18088455661E+03 0.  0.
        -24    2    5    5    0    0 -0.52674257640E+02  0.21910119184E+03 -0.42466402408E+03  0.48729708129E+03  0.79617852281E+02 0.  0.
          5    1    3    3  502    0  0.84681669859E+02 -0.13984497071E+03 -0.25711963997E+03  0.30472971680E+03  0.47000000000E+01 0. -1.
        -13    1    4    4    0    0  0.10522785606E+03 -0.18197827592E+03 -0.12037686510E+03  0.24223869272E+03  0.00000000000E+00 0.  1.
         14    1    4    4    0    0  0.85968850796E+01  0.83244128539E+01 -0.47230738203E+01  0.12865057666E+02  0.00000000000E+00 0. -1.
         -5    1    5    5    0  501 -0.14583215336E+03  0.94397641940E+02 -0.30098180231E+03  0.34754865426E+03  0.47000000000E+01 0.  1.
         11    1    6    6    0    0 -0.16938647468E+02  0.92245711538E+01 -0.79084149374E+02  0.81402169340E+02  0.00000000000E+00 0. -1.
        -12    1    6    6    0    0 -0.35735610172E+02  0.20987662068E+03 -0.34557987470E+03  0.40589491195E+03  0.00000000000E+00 0.  1.
</event>
<event>
12    1  0.9656379E-001  0.2215124E+03  0.7818608E-02  0.1132761E+00
          4   -1    0    0  502    0  0.00000000000E+00  0.00000000000E+00  0.11773558849E+03  0.11773558849E+03  0.00000000000E+00 0. -1.
         -4   -1    0    0    0  501 -0.00000000000E+00 -0.00000000000E+00 -0.10224514891E+04  0.10224514891E+04  0.00000000000E+00 0.  1.
          6    2    1    2  502    0  0.13925301524E+03 -0.95248291608E+01 -0.89131235736E+03  0.91847531171E+03  0.17227029694E+03 0.  0.
         24    2    3    3    0    0  0.15960326794E+02  0.24493752349E+02 -0.48964912437E+03  0.49691417302E+03  0.79452843989E+02 0.  0.
         -6    2    1    2    0  501 -0.13925301524E+03  0.95248291608E+01 -0.13403543253E+02  0.22171176588E+03  0.17173912639E+03 0.  0.
        -24    2    5    5    0    0 -0.71918332216E+02 -0.43416474026E+02  0.37241789566E+02  0.12209359054E+03  0.80390653907E+02 0.  0.
          5    1    3    3  502    0  0.12329268845E+03 -0.34018581510E+02 -0.40166323299E+03  0.42156113869E+03  0.47000000000E+01 0. -1.
        -13    1    4    4    0    0  0.37735888894E+00  0.50191055740E+02 -0.22311148288E+03  0.22868759973E+03  0.00000000000E+00 0.  1.
         14    1    4    4    0    0  0.15582967905E+02 -0.25697303391E+02 -0.26653764149E+03  0.26822657329E+03  0.00000000000E+00 0. -1.
         -5    1    5    5    0  501 -0.67334683029E+02  0.52941303187E+02 -0.50645332818E+02  0.99618175339E+02  0.47000000000E+01 0.  1.
         11    1    6    6    0    0 -0.39960617777E+02  0.20008995633E+02  0.85792073500E+01  0.45506193844E+02  0.00000000000E+00 0. -1.
        -12    1    6    6    0    0 -0.31957714439E+02 -0.63425469659E+02  0.28662582216E+02  0.76587396697E+02  0.00000000000E+00 0.  1.
</event>
<event>
12    1  0.9656379E-001  0.5546984E+03  0.7818608E-02  0.1000412E+00
          1   -1    0    0  502    0  0.00000000000E+00  0.00000000000E+00  0.32355419254E+04  0.32355419254E+04  0.00000000000E+00 0. -1.
         -1   -1    0    0    0  501 -0.00000000000E+00 -0.00000000000E+00 -0.19752008378E+03  0.19752008378E+03  0.00000000000E+00 0.  1.
          6    2    1    2  502    0  0.29931424713E+03 -0.43596716017E+03  0.28506441271E+03  0.62509389139E+03  0.17269704796E+03 0.  0.
         24    2    3    3    0    0  0.23268860100E+03 -0.35142251025E+03  0.15821396273E+03  0.45866101840E+03  0.87729732971E+02 0.  0.
         -6    2    1    2    0  501 -0.29931424713E+03  0.43596716017E+03  0.27529574289E+04  0.28079681178E+04  0.16203074365E+03 0.  0.
        -24    2    5    5    0    0 -0.25814809145E+03  0.42351565642E+03  0.23748783329E+04  0.24274216881E+04  0.79517340251E+02 0.  0.
          5    1    3    3  502    0  0.66625646130E+02 -0.84544649924E+02  0.12685044998E+03  0.16643287299E+03  0.47000000000E+01 0. -1.
        -11    1    4    4    0    0  0.16398174244E+03 -0.30866335742E+03  0.13157324699E+03  0.37346298262E+03  0.00000000000E+00 0.  1.
         12    1    4    4    0    0  0.68706858566E+02 -0.42759152834E+02  0.26640715739E+02  0.85198035777E+02  0.00000000000E+00 0. -1.
         -5    1    5    5    0  501 -0.41166155677E+02  0.12451503750E+02  0.37807909600E+03  0.38054642969E+03  0.47000000000E+01 0.  1.
         13    1    6    6    0    0 -0.15475863163E+03  0.20776190367E+03  0.10809704111E+04  0.11115809787E+04  0.00000000000E+00 0. -1.
        -14    1    6    6    0    0 -0.10338945982E+03  0.21575375275E+03  0.12939079218E+04  0.13158407094E+04  0.00000000000E+00 0.  1.
</event>
<event>
12    1  0.9656379E-001  0.2669428E+03  0.7818608E-02  0.1103042E+00
          2   -1    0    0  502    0  0.00000000000E+00  0.00000000000E+00  0.14609759251E+04  0.14609759251E+04  0.00000000000E+00 0. -1.
         -2   -1    0    0    0  501 -0.00000000000E+00 -0.00000000000E+00 -0.62664053845E+03  0.62664053845E+03  0.00000000000E+00 0.  1.
          6    2    1    2  502    0  0.11437032936E+03  0.16091674131E+03 -0.58471059392E+03  0.64438187411E+03  0.18538271537E+03 0.  0.
         24    2    3    3    0    0  0.45446609824E+02  0.90376885602E+02 -0.49286461450E+03  0.50953335059E+03  0.80469443523E+02 0.  0.
         -6    2    1    2    0  501 -0.11437032936E+03 -0.16091674131E+03  0.14190459806E+04  0.14432345894E+04  0.17395348614E+03 0.  0.
        -24    2    5    5    0    0 -0.12997920997E+03 -0.15507137345E+03  0.14026189106E+04  0.14193652763E+04  0.79474860816E+02 0.  0.
          5    1    3    3  502    0  0.68923719536E+02  0.70539855709E+02 -0.91845979418E+02  0.13484852351E+03  0.47000000000E+01 0. -1.
        -11    1    4    4    0    0  0.33218975071E+02  0.48194647270E+02 -0.11416956780E+03  0.12830009564E+03  0.00000000000E+00 0.  1.
         12    1    4    4    0    0  0.12227634753E+02  0.42182238332E+02 -0.37869504670E+03  0.38123325495E+03  0.00000000000E+00 0. -1.
         -5    1    5    5    0  501  0.15608880613E+02 -0.58453678575E+01  0.16427069990E+02  0.23869313099E+02  0.47000000000E+01 0.  1.
         11    1    6    6    0    0 -0.90582080848E+02 -0.14657857954E+03  0.10002451233E+04  0.10149781772E+04  0.00000000000E+00 0. -1.
        -12    1    6    6    0    0 -0.39397129124E+02 -0.84927939156E+01  0.40237378723E+03  0.40438709918E+03  0.00000000000E+00 0.  1.
</event>
<event>
12    1  0.9656379E-001  0.2499140E+03  0.7818608E-02  0.1113359E+00
          2   -1    0    0  502    0  0.00000000000E+00  0.00000000000E+00  0.39337438321E+03  0.39337438321E+03  0.00000000000E+00 0. -1.
         -2   -1    0    0    0  501 -0.00000000000E+00 -0.00000000000E+00 -0.16437951161E+03  0.16437951161E+03  0.00000000000E+00 0.  1.
          6    2    1    2  502    0  0.17207257976E+03 -0.39384206201E+02  0.16747215360E+03  0.30393526961E+03  0.18212533452E+03 0.  0.
         24    2    3    3    0    0  0.79962122297E+01  0.12725740921E+02  0.25995559592E+02  0.81058133889E+02  0.75291221660E+02 0.  0.
         -6    2    1    2    0  501 -0.17207257976E+03  0.39384206201E+02  0.61522717997E+02  0.25381862521E+03  0.17169380091E+03 0.  0.
        -24    2    5    5    0    0 -0.78290092329E+02  0.75454228744E+02 -0.38525015289E+01  0.13385108459E+03  0.77965324885E+02 0.  0.
          5    1    3    3  502    0  0.16407636753E+03 -0.52109947122E+02  0.14147659401E+03  0.22287713572E+03  0.47000000000E+01 0. -1.
        -13    1    4    4    0    0  0.37949142209E+02 -0.66562185636E+01  0.23858247479E+02  0.45317310299E+02  0.00000000000E+00 0.  1.
         14    1    4    4    0    0 -0.29952929980E+02  0.19381959485E+02  0.21373121128E+01  0.35740823590E+02  0.00000000000E+00 0. -1.
         -5    1    5    5    0  501 -0.93782487434E+02 -0.36070022543E+02  0.65375219526E+02  0.11996754063E+03  0.47000000000E+01 0.  1.
         13    1    6    6    0    0 -0.63090683938E+02  0.67215952040E+02 -0.34690148782E+02  0.98497842773E+02  0.00000000000E+00 0. -1.
        -14    1    6    6    0    0 -0.15199408392E+02  0.82382767037E+01  0.30837647253E+02  0.35353241812E+02  0.00000000000E+00 0.  1.
</event>
<event>
12    1  0.9656379E-001  0.3523945E+03  0.7818608E-02  0.1061637E+00
         -2   -1    0    0    0  501 -0.00000000000E+00  0.00000000000E+00  0.22555542300E+03  0.22555542300E+03  0.00000000000E+00 0.  1.
          2   -1    0    0  502    0  0.00000000000E+00 -0.00000000000E+00 -0.60626706759E+03  0.60626706759E+03  0.00000000000E+00 0. -1.
          6    2    1    2  502    0 -0.28039713345E+03  0.12838930159E+03 -0.63774116882E+02  0.35708772285E+03  0.16833935553E+03 0.  0.
         24    2    3    3    0    0 -0.64821400258E+02  0.51946391378E+02  0.98000963063E+01  0.11677195119E+03  0.81482545305E+02 0.  0.
         -6    2    1    2    0  501  0.28039713345E+03 -0.12838930159E+03 -0.31693752771E+03  0.47473476773E+03  0.17267697592E+03 0.  0.
        -24    2    5    5    0    0  0.29822124972E+03 -0.11852105300E+03 -0.28545178130E+03  0.43693895212E+03  0.80310488972E+02 0.  0.
          5    1    3    3  502    0 -0.21557573319E+03  0.76442910207E+02 -0.73574213189E+02  0.24031577166E+03  0.47000000000E+01 0. -1.
        -13    1    4    4    0    0 -0.64302427189E+02  0.53542874156E+02  0.35588080884E+02  0.90929384779E+02  0.00000000000E+00 0.  1.
         14    1    4    4    0    0 -0.51897306920E+00 -0.15964827772E+01 -0.25787984578E+02  0.25842566415E+02  0.00000000000E+00 0. -1.
         -5    1    5    5    0  501 -0.17824116272E+02 -0.98682485876E+01 -0.31485746412E+02  0.37795815617E+02  0.47000000000E+01 0.  1.
         11    1    6    6    0    0  0.16250105410E+03 -0.31870937042E+02 -0.11002828585E+03  0.19881793908E+03  0.00000000000E+00 0. -1.
        -12    1    6    6    0    0  0.13572019562E+03 -0.86650115956E+02 -0.17542349545E+03  0.23812101304E+03  0.00000000000E+00 0.  1.
</event>
<event>
12    1  0.9656379E-001  0.2090139E+03  0.7818608E-02  0.1142349E+00
         -2   -1    0    0    0  501 -0.00000000000E+00  0.00000000000E+00  0.33672449867E+02  0.33672449867E+02  0.00000000000E+00 0.  1.
          2   -1    0    0  502    0  0.00000000000E+00 -0.00000000000E+00 -0.20993027000E+04  0.20993027000E+04  0.00000000000E+00 0. -1.
          6    2    1    2  502    0  0.49842823130E+02  0.10572503400E+03 -0.37167257096E+03  0.42609043820E+03  0.17248325046E+03 0.  0.
         24    2    3    3    0    0 -0.94109190429E+01  0.43062072552E+02 -0.30028704659E+03  0.31403850476E+03  0.80653360933E+02 0.  0.
         -6    2    1    2    0  501 -0.49842823130E+02 -0.10572503400E+03 -0.16939576792E+04  0.17068847117E+04  0.17407099205E+03 0.  0.
        -24    2    5    5    0    0 -0.98945498621E+02 -0.49029917691E+02 -0.11185398042E+04  0.11265802831E+04  0.76535587909E+02 0.  0.
          5    1    3    3  502    0  0.59253742173E+02  0.62662961444E+02 -0.71385524370E+02  0.11205193344E+03  0.47000000000E+01 0. -1.
        -11    1    4    4    0    0 -0.53107432648E+01 -0.12217658722E+02 -0.60602191085E+01  0.14635622102E+02  0.00000000000E+00 0.  1.
         12    1    4    4    0    0 -0.41001757781E+01  0.55279731275E+02 -0.29422682748E+03  0.29940288266E+03  0.00000000000E+00 0. -1.
         -5    1    5    5    0  501  0.49102675490E+02 -0.56695116305E+02 -0.57541787505E+03  0.58030442862E+03  0.47000000000E+01 0.  1.
         13    1    6    6    0    0 -0.41697759030E+02 -0.90190148169E+01 -0.76607707934E+03  0.76726405965E+03  0.00000000000E+00 0. -1.
        -14    1    6    6    0    0 -0.57247739591E+02 -0.40010902874E+02 -0.35246272483E+03  0.35931622344E+03  0.00000000000E+00 0.  1.
</event>
<event>
12    1  0.9656379E-001  0.3194045E+03  0.7818608E-02  0.1075924E+00
         -2   -1    0    0    0  501 -0.00000000000E+00  0.00000000000E+00  0.18166356401E+03  0.18166356401E+03  0.00000000000E+00 0.  1.
          2   -1    0    0  502    0  0.00000000000E+00 -0.00000000000E+00 -0.16803099005E+04  0.16803099005E+04  0.00000000000E+00 0. -1.
          6    2    1    2  502    0 -0.78308086076E+02  0.25835885657E+03  0.10048974071E+02  0.31991028234E+03  0.17134804276E+03 0.  0.
         24    2    3    3    0    0 -0.33631507141E+02  0.69961855961E+02  0.61939260854E+02  0.11940063568E+03  0.66289518047E+02 0.  0.
         -6    2    1    2    0  501  0.78308086076E+02 -0.25835885657E+03 -0.15086953105E+04  0.15420631821E+04  0.17004664822E+03 0.  0.
        -24    2    5    5    0    0  0.43377947111E+01 -0.21866265491E+03 -0.11821093706E+04  0.12048275692E+04  0.79967083707E+02 0.  0.
          5    1    3    3  502    0 -0.44676578935E+02  0.18839700061E+03 -0.51890286784E+02  0.20050964666E+03  0.47000000000E+01 0. -1.
        -13    1    4    4    0    0 -0.49191507494E+02  0.30795183608E+02  0.47022122730E+02  0.74694228485E+02  0.00000000000E+00 0.  1.
         14    1    4    4    0    0  0.15560000353E+02  0.39166672353E+02  0.14917138124E+02  0.44706407192E+02  0.00000000000E+00 0. -1.
         -5    1    5    5    0  501  0.73970291365E+02 -0.39696201658E+02 -0.32658593995E+03  0.33723561290E+03  0.47000000000E+01 0.  1.
         13    1    6    6    0    0 -0.17644198998E+02 -0.18919957807E+03 -0.86687117837E+03  0.88745334412E+03  0.00000000000E+00 0. -1.
        -14    1    6    6    0    0  0.21981993709E+02 -0.29463076842E+02 -0.31523819221E+03  0.31737422512E+03  0.00000000000E+00 0.  1.
</event>
<event>
12    1  0.9656379E-001  0.5855984E+03  0.7818608E-02  0.9935744E-01
          2   -1    0    0  502    0  0.00000000000E+00  0.00000000000E+00  0.69791287015E+03  0.69791287015E+03  0.00000000000E+00 0. -1.
         -2   -1    0    0    0  501 -0.00000000000E+00 -0.00000000000E+00 -0.50131534876E+03  0.50131534876E+03  0.00000000000E+00 0.  1.
          6    2    1    2  502    0 -0.15088986676E+03 -0.53954339510E+03  0.13893342696E+02  0.58634598025E+03  0.17243478913E+03 0.  0.
         24    2    3    3    0    0 -0.74171370837E+02 -0.19651029027E+03 -0.52000767721E+02  0.22868474052E+03  0.73992866319E+02 0.  0.
         -6    2    1    2    0  501  0.15088986676E+03  0.53954339510E+03  0.18270417869E+03  0.61288223866E+03  0.16843097834E+03 0.  0.
        -24    2    5    5    0    0  0.15496294491E+03  0.42072421066E+03  0.95459318753E+02  0.46534124727E+03  0.80047605431E+02 0.  0.
          5    1    3    3  502    0 -0.76718495922E+02 -0.34303310483E+03  0.65894110417E+02  0.35766123974E+03  0.47000000000E+01 0. -1.
        -11    1    4    4    0    0 -0.72590662381E+02 -0.20226873276E+03 -0.55246963017E+02  0.22188797047E+03  0.00000000000E+00 0.  1.
         12    1    4    4    0    0 -0.15807084560E+01  0.57584424885E+01  0.32461952959E+01  0.67967700429E+01  0.00000000000E+00 0. -1.
         -5    1    5    5    0  501 -0.40730781561E+01  0.11881918443E+03  0.87244859935E+02  0.14754099139E+03  0.47000000000E+01 0.  1.
         13    1    6    6    0    0  0.71961723620E+02  0.27357384288E+03  0.31229882236E+02  0.28459873984E+03  0.00000000000E+00 0. -1.
        -14    1    6    6    0    0  0.83001221294E+02  0.14715036779E+03  0.64229436517E+02  0.18074250743E+03  0.00000000000E+00 0.  1.
</event>
<event>
12    1  0.9656379E-001  0.3565201E+03  0.7818608E-02  0.1059970E+00
         -1   -1    0    0    0  501 -0.00000000000E+00  0.00000000000E+00  0.91893652143E+02  0.91893652143E+02  0.00000000000E+00 0.  1.
          1   -1    0    0  502    0  0.00000000000E+00 -0.00000000000E+00 -0.13879429945E+04  0.13879429945E+04  0.00000000000E+00 0. -1.
          6    2    1    2  502    0 -0.11522355940E+03 -0.28995195437E+03 -0.69123334434E+03  0.77773913648E+03  0.17241236499E+03 0.  0.
         24    2    3    3    0    0 -0.13847507120E+02 -0.21356689259E+03 -0.41888610758E+03  0.47722809008E+03  0.80489177973E+02 0.  0.
         -6    2    1    2    0  501  0.11522355940E+03  0.28995195437E+03 -0.60481599799E+03  0.70209751013E+03  0.17259756031E+03 0.  0.
        -24    2    5    5    0    0  0.57475157540E+02  0.25916009725E+03 -0.39586243854E+03  0.48308450506E+03  0.78716066009E+02 0.  0.
          5    1    3    3  502    0 -0.10137605228E+03 -0.76385061780E+02 -0.27234723676E+03  0.30051104640E+03  0.47000000000E+01 0. -1.
        -13    1    4    4    0    0 -0.73425519107E+01 -0.12167775647E+03 -0.31824898664E+03  0.34079584356E+03  0.00000000000E+00 0.  1.
         14    1    4    4    0    0 -0.65049552094E+01 -0.91889136126E+02 -0.10063712094E+03  0.13643224653E+03  0.00000000000E+00 0. -1.
         -5    1    5    5    0  501  0.57748401862E+02  0.30791857128E+02 -0.20895355945E+03  0.21901300507E+03  0.47000000000E+01 0.  1.
         11    1    6    6    0    0  0.68980395736E+02  0.17982956916E+03 -0.23920280543E+03  0.30710739338E+03  0.00000000000E+00 0. -1.
        -12    1    6    6    0    0 -0.11505238196E+02  0.79330528082E+02 -0.15665963311E+03  0.17597711168E+03  0.00000000000E+00 0.  1.
</event>
<event>
12    1  0.9656379E-001  0.8337800E+03  0.7818608E-02  0.9512369E-01
         -2   -1    0    0    0  501 -0.00000000000E+00  0.00000000000E+00  0.11892110695E+04  0.11892110695E+04  0.00000000000E+00 0.  1.
          2   -1    0    0  502    0  0.00000000000E+00 -0.00000000000E+00 -0.16892072113E+04  0.16892072113E+04  0.00000000000E+00 0. -1.
          6    2    1    2  502    0 -0.55048758299E+03 -0.60245003162E+03  0.91383307887E+03  0.12370503375E+04  0.17093864908E+03 0.  0.
         24    2    3    3    0    0 -0.55370732724E+03 -0.59341654235E+03  0.87234433921E+03  0.11942090466E+04  0.80097465186E+02 0.  0.
         -6    2    1    2    0  501  0.55048758299E+03  0.60245003162E+03 -0.14138292207E+04  0.16413679434E+04  0.17085971015E+03 0.  0.
        -24    2    5    5    0    0  0.15539516953E+03  0.15642614823E+03 -0.46662636536E+03  0.52232788201E+03  0.80432909418E+02 0.  0.
          5    1    3    3  502    0  0.32197442441E+01 -0.90334892633E+01  0.41488739663E+02  0.42841290832E+02  0.47000000000E+01 0. -1.
        -11    1    4    4    0    0 -0.22779512283E+03 -0.22689897015E+03  0.29149109667E+03  0.43398251126E+03  0.00000000000E+00 0.  1.
         12    1    4    4    0    0 -0.32591220441E+03 -0.36651757220E+03  0.58085324254E+03  0.76022653538E+03  0.00000000000E+00 0. -1.
         -5    1    5    5    0  501  0.39509241346E+03  0.44602388339E+03 -0.94720285537E+03  0.11190400614E+04  0.47000000000E+01 0.  1.
         13    1    6    6    0    0  0.12981721818E+03  0.89730115297E+02 -0.36926437629E+03  0.40157213963E+03  0.00000000000E+00 0. -1.
        -14    1    6    6    0    0  0.25577951354E+02  0.66696032930E+02 -0.97361989065E+02  0.12075574238E+03  0.00000000000E+00 0.  1.
</event>
<event>
12    1  0.9656379E-001  0.4150467E+03  0.7818608E-02  0.1038691E+00
          1   -1    0    0  502    0  0.00000000000E+00  0.00000000000E+00  0.23565901396E+04  0.23565901396E+04  0.00000000000E+00 0. -1.
         -1   -1    0    0    0  501 -0.00000000000E+00 -0.00000000000E+00 -0.81625031345E+02  0.81625031345E+02  0.00000000000E+00 0.  1.
          6    2    1    2  502    0  0.34420188985E+03 -0.15712365615E+03  0.74332462717E+03  0.85132025724E+03  0.17044616372E+03 0.  0.
         24    2    3    3    0    0  0.18384659303E+03 -0.15459665495E+03  0.42409289661E+03  0.49403718354E+03  0.80735731099E+02 0.  0.
         -6    2    1    2    0  501 -0.34420188985E+03  0.15712365615E+03  0.15316404811E+04  0.15868949138E+04  0.17073406092E+03 0.  0.
        -24    2    5    5    0    0 -0.35877963951E+03  0.14939196087E+03  0.14554513202E+04  0.15087977426E+04  0.84209826826E+02 0.  0.
          5    1    3    3  502    0  0.16035529683E+03 -0.25270012034E+01  0.31923173056E+03  0.35728307370E+03  0.47000000000E+01 0. -1.
        -11    1    4    4    0    0  0.13896630174E+03 -0.13822172606E+03  0.27663758055E+03  0.33903573491E+03  0.00000000000E+00 0.  1.
         12    1    4    4    0    0  0.44880291285E+02 -0.16374928883E+02  0.14745531606E+03  0.15500144863E+03  0.00000000000E+00 0. -1.
         -5    1    5    5    0  501  0.14577749662E+02  0.77316952802E+01  0.76189160966E+02  0.78097171176E+02  0.47000000000E+01 0.  1.
         11    1    6    6    0    0 -0.14978406359E+03  0.96728706455E+02  0.76421292245E+03  0.78473759895E+03  0.00000000000E+00 0. -1.
        -12    1    6    6    0    0 -0.20899557592E+03  0.52663254414E+02  0.69123839771E+03  0.72406014363E+03  0.00000000000E+00 0.  1.
</event>
<event>
12    1  0.9656379E-001  0.7934167E+03  0.7818608E-02  0.9569595E-01
          1   -1    0    0  502    0  0.00000000000E+00  0.00000000000E+00  0.29090934669E+03  0.29090934669E+03  0.00000000000E+00 0. -1.
         -1   -1    0    0    0  501 -0.00000000000E+00 -0.00000000000E+00 -0.21869566730E+04  0.21869566730E+04  0.00000000000E+00 0.  1.
          6    2    1    2  502    0 -0.17084145563E+03  0.75560769776E+03 -0.82075680021E+03  0.11414605586E+04  0.17076500187E+03 0.  0.
         24    2    3    3    0    0 -0.14296960542E+03  0.60588544961E+03 -0.57085954912E+03  0.84877588574E+03  0.83680303914E+02 0.  0.
         -6    2    1    2    0  501  0.17084145563E+03 -0.75560769776E+03 -0.10752905261E+04  0.13364054611E+04  0.17204663624E+03 0.  0.
        -24    2    5    5    0    0  0.17634898858E+03 -0.72202000038E+03 -0.96389866771E+03  0.12198348711E+04  0.80527165788E+02 0.  0.
          5    1    3    3  502    0 -0.27871850212E+02  0.14972224815E+03 -0.24989725108E+03  0.29268467286E+03  0.47000000000E+01 0. -1.
        -11    1    4    4    0    0  0.66254496193E+01  0.47682250562E+02 -0.64049627260E+02  0.80123956177E+02  0.00000000000E+00 0.  1.
         12    1    4    4    0    0 -0.14959505503E+03  0.55820319905E+03 -0.50680992186E+03  0.76865192956E+03  0.00000000000E+00 0. -1.
         -5    1    5    5    0  501 -0.55075329542E+01 -0.33587697381E+02 -0.11139185838E+03  0.11657058998E+03  0.47000000000E+01 0.  1.
         13    1    6    6    0    0  0.22150670265E+02 -0.22824223038E+03 -0.26766322430E+03  0.35246101851E+03  0.00000000000E+00 0. -1.
        -14    1    6    6    0    0  0.15419831832E+03 -0.49377777000E+03 -0.69623544341E+03  0.86737385260E+03  0.00000000000E+00 0.  1.
</event>
<event>
12    1  0.9656379E-001  0.8385481E+03  0.7818608E-02  0.9505838E-01
         -1   -1    0    0    0  501 -0.00000000000E+00  0.00000000000E+00  0.64577356535E+03  0.64577356535E+03  0.00000000000E+00 0.  1.
          1   -1    0    0  502    0  0.00000000000E+00 -0.00000000000E+00 -0.11762204227E+04  0.11762204227E+04  0.00000000000E+00 0. -1.
          6    2    1    2  502    0 -0.55468413123E+03 -0.60547632206E+03 -0.16979759144E+02  0.83877716969E+03  0.17024325584E+03 0.  0.
         24    2    3    3    0    0 -0.40706886098E+03 -0.41801402608E+03  0.50981827533E+02  0.59063759669E+03  0.76241985198E+02 0.  0.
         -6    2    1    2    0  501  0.55468413123E+03  0.60547632206E+03 -0.51346709818E+03  0.98321681834E+03  0.16967848698E+03 0.  0.
        -24    2    5    5    0    0  0.46122900754E+03  0.54409433524E+03 -0.48946184087E+03  0.86876180173E+03  0.80020818759E+02 0.  0.
          5    1    3    3  502    0 -0.14761527025E+03 -0.18746229597E+03 -0.67961586677E+02  0.24813957299E+03  0.47000000000E+01 0. -1.
        -11    1    4    4    0    0 -0.13655529683E+03 -0.15267744647E+03 -0.17484602424E+02  0.20558079452E+03  0.00000000000E+00 0.  1.
         12    1    4    4    0    0 -0.27051356415E+03 -0.26533657962E+03  0.68466429957E+02  0.38505680218E+03  0.00000000000E+00 0. -1.
         -5    1    5    5    0  501  0.93455123691E+02  0.61381986813E+02 -0.24005257313E+02  0.11445501661E+03  0.47000000000E+01 0.  1.
         13    1    6    6    0    0  0.99127411170E+02  0.84322637748E+02 -0.62770773302E+02  0.14448778794E+03  0.00000000000E+00 0. -1.
        -14    1    6    6    0    0  0.36210159637E+03  0.45977169749E+03 -0.42669106757E+03  0.72427401379E+03  0.00000000000E+00 0.  1.
</event>
<event>
12    1  0.9656379E-001  0.2196140E+03  0.7818608E-02  0.1134171E+00
          1   -1    0    0  502    0  0.00000000000E+00  0.00000000000E+00  0.11395101310E+04  0.11395101310E+04  0.00000000000E+00 0. -1.
         -1   -1    0    0    0  501 -0.00000000000E+00 -0.00000000000E+00 -0.83666730649E+02  0.83666730649E+02  0.00000000000E+00 0.  1.
          6    2    1    2  502    0 -0.37397011346E+02 -0.13110069383E+03  0.99096284109E+02  0.24174516257E+03  0.17330528475E+03 0.  0.
         24    2    3    3    0    0 -0.34787149932E+02 -0.27997156605E+02 -0.94363320678E+01  0.91950070734E+02  0.79823458749E+02 0.  0.
         -6    2    1    2    0  501  0.37397011346E+02  0.13110069383E+03  0.95674711622E+03  0.98143169905E+03  0.17104738272E+03 0.  0.
        -24    2    5    5    0    0  0.36879177962E+02  0.14449555077E+03  0.58010330225E+03  0.60452011400E+03  0.81766062607E+02 0.  0.
          5    1    3    3  502    0 -0.26098614144E+01 -0.10310353722E+03  0.10853261618E+03  0.14979509184E+03  0.47000000000E+01 0. -1.
        -13    1    4    4    0    0 -0.32818725789E+02 -0.55036144756E+02 -0.98815147450E+01  0.64835872213E+02  0.00000000000E+00 0.  1.
         14    1    4    4    0    0 -0.19684241425E+01  0.27038988150E+02  0.44518267715E+00  0.27114198521E+02  0.00000000000E+00 0. -1.
         -5    1    5    5    0  501  0.51783338386E+00 -0.13394856941E+02  0.37664381397E+03  0.37691158506E+03  0.47000000000E+01 0.  1.
         11    1    6    6    0    0  0.41163527918E+02  0.33838174230E+02  0.12037040808E+03  0.13163773474E+03  0.00000000000E+00 0. -1.
        -12    1    6    6    0    0 -0.42843499558E+01  0.11065737654E+03  0.45973289416E+03  0.47288237926E+03  0.00000000000E+00 0.  1.
</event>
<event>
12    1  0.9656379E-001  0.4080264E+03  0.7818608E-02  0.1041035E+00
         -2   -1    0    0    0  501 -0.00000000000E+00  0.00000000000E+00  0.26471706195E+03  0.26471706195E+03  0.00000000000E+00 0.  1.
          2   -1    0    0  502    0  0.00000000000E+00 -0.00000000000E+00 -0.12199811128E+04  0.12199811128E+04  0.00000000000E+00 0. -1.
          6    2    1    2  502    0 -0.33801794894E+03  0.14996331891E+03  0.38853295740E+02  0.41024499738E+03  0.17333853716E+03 0.  0.
         24    2    3    3    0    0 -0.34033926650E+03  0.16787510317E+03  0.45309938135E+02  0.39049661107E+03  0.80135798343E+02 0.  0.
         -6    2    1    2    0  501  0.33801794894E+03 -0.14996331891E+03 -0.99411734663E+03  0.10744531774E+04  0.17156689878E+03 0.  0.
        -24    2    5    5    0    0  0.33207105989E+03 -0.14881357852E+03 -0.82578622882E+03  0.90594756144E+03  0.80008864469E+02 0.  0.
          5    1    3    3  502    0  0.23213175648E+01 -0.17911784264E+02 -0.64566423949E+01  0.19748386309E+02  0.47000000000E+01 0. -1.
        -13    1    4    4    0    0 -0.17920259443E+03  0.87820871451E+02 -0.16508051652E+02  0.20024632602E+03  0.00000000000E+00 0.  1.
         14    1    4    4    0    0 -0.16113667207E+03  0.80054231719E+02  0.61817989787E+02  0.19025028505E+03  0.00000000000E+00 0. -1.
         -5    1    5    5    0  501  0.59468890480E+01 -0.11497403873E+01 -0.16833111781E+03  0.16850561597E+03  0.47000000000E+01 0.  1.
         11    1    6    6    0    0  0.17928155101E+03 -0.12211654007E+03 -0.50574404278E+03  0.55030115455E+03  0.00000000000E+00 0. -1.
        -12    1    6    6    0    0  0.15278950888E+03 -0.26697038451E+02 -0.32004218604E+03  0.35564640688E+03  0.00000000000E+00 0.  1.
</event>
<event>
12    1  0.9656379E-001  0.5631564E+03  0.7818608E-02  0.9984938E-01
          2   -1    0    0  502    0  0.00000000000E+00  0.00000000000E+00  0.17494383410E+04  0.17494383410E+04  0.00000000000E+00 0. -1.
         -2   -1    0    0    0  501 -0.00000000000E+00 -0.00000000000E+00 -0.37934075524E+03  0.37934075524E+03  0.00000000000E+00 0.  1.
          6    2    1    2  502    0 -0.37294878137E+03  0.38535504227E+03 -0.84213970023E+02  0.56913487096E+03  0.17097721036E+03 0.  0.
         24    2    3    3    0    0 -0.23885125242E+03  0.18434341951E+03  0.35343168636E+01  0.31201685991E+03  0.79433068496E+02 0.  0.
         -6    2    1    2    0  501  0.37294878137E+03 -0.38535504227E+03  0.14543115558E+04  0.15596442253E+04  0.17285458074E+03 0.  0.
        -24    2    5    5    0    0  0.78287328767E+02 -0.88113056786E+02  0.30613116250E+03  0.33754828998E+03  0.79559680714E+02 0.  0.
          5    1    3    3  502    0 -0.13409752895E+03  0.20101162276E+03 -0.87748286886E+02  0.25711801105E+03  0.47000000000E+01 0. -1.
        -11    1    4    4    0    0 -0.14996007400E+03  0.16054176791E+03 -0.36340616729E+01  0.21971547383E+03  0.00000000000E+00 0.  1.
         12    1    4    4    0    0 -0.88891178423E+02  0.23801651600E+02  0.71683785365E+01  0.92301386074E+02  0.00000000000E+00 0. -1.
         -5    1    5    5    0  501  0.29466145260E+03 -0.29724198549E+03  0.11481803933E+04  0.12220959353E+04  0.47000000000E+01 0.  1.
         11    1    6    6    0    0  0.23620140213E+02 -0.78734745780E+02  0.13937857218E+03  0.16181303285E+03  0.00000000000E+00 0. -1.
        -12    1    6    6    0    0  0.54667188554E+02 -0.93783110063E+01  0.16675259032E+03  0.17573525714E+03  0.00000000000E+00 0.  1.
</event>
<event>
12    1  0.9656379E-001  0.8113428E+03  0.7818608E-02  0.9543743E-01
         -2   -1    0    0    0  501 -0.00000000000E+00  0.00000000000E+00  0.36297528692E+03  0.36297528692E+03  0.00000000000E+00 0.  1.
          2   -1    0    0  502    0  0.00000000000E+00 -0.00000000000E+00 -0.18447925589E+04  0.18447925589E+04  0.00000000000E+00 0. -1.
          6    2    1    2  502    0  0.69645068090E+03  0.37892908882E+03 -0.88452982413E+03  0.12002686172E+04  0.17210734543E+03 0.  0.
         24    2    3    3    0    0  0.64095561467E+03  0.30029748670E+03 -0.74201831214E+03  0.10282388166E+04  0.75373788491E+02 0.  0.
         -6    2    1    2    0  501 -0.69645068090E+03 -0.37892908882E+03 -0.59728744784E+03  0.10074992286E+04  0.17225444862E+03 0.  0.
        -24    2    5    5    0    0 -0.51379757010E+03 -0.30223942628E+03 -0.51911358322E+03  0.79448113941E+03  0.79904660439E+02 0.  0.
          5    1    3    3  502    0  0.55495066228E+02  0.78631602121E+02 -0.14251151199E+03  0.17202980055E+03  0.47000000000E+01 0. -1.
        -11    1    4    4    0    0  0.34695256341E+03  0.13664628893E+03 -0.43243689489E+03  0.57100784373E+03  0.00000000000E+00 0.  1.
         12    1    4    4    0    0  0.29400305126E+03  0.16365119777E+03 -0.30958141725E+03  0.45723097291E+03  0.00000000000E+00 0. -1.
         -5    1    5    5    0  501 -0.18265311080E+03 -0.76689662537E+02 -0.78173864618E+02  0.21301808922E+03  0.47000000000E+01 0.  1.
         13    1    6    6    0    0 -0.13163549473E+03 -0.55596714196E+02 -0.16335853781E+03  0.21703665584E+03  0.00000000000E+00 0. -1.
        -14    1    6    6    0    0 -0.38216207537E+03 -0.24664271208E+03 -0.35575504541E+03  0.57744448358E+03  0.00000000000E+00 0.  1.
</event>
<event>
12    1  0.9656379E-001  0.3104478E+03  0.7818608E-02  0.1080131E+00
         -1   -1    0    0    0  501 -0.00000000000E+00  0.00000000000E+00  0.30297455900E+03  0.30297455900E+03  0.00000000000E+00 0.  1.
          1   -1    0    0  502    0  0.00000000000E+00 -0.00000000000E+00 -0.44876427622E+03  0.44876427622E+03  0.00000000000E+00 0. -1.
          6    2    1    2  502    0 -0.25395851994E+03  0.47508405922E+02  0.13007708083E+03  0.33570481684E+03  0.17036930066E+03 0.  0.
         24    2    3    3    0    0 -0.35803464107E+02 -0.25366526506E+02  0.54131816988E+01  0.74045569136E+02  0.59397769853E+02 0.  0.
         -6    2    1    2    0  501  0.25395851994E+03 -0.47508405922E+02 -0.27586679805E+03  0.41603401838E+03  0.17386729337E+03 0.  0.
        -24    2    5    5    0    0  0.18550200083E+03 -0.94368055231E+02 -0.15717189657E+03  0.27114547025E+03  0.74165617429E+02 0.  0.
          5    1    3    3  502    0 -0.21815505583E+03  0.72874932429E+02  0.12466389913E+03  0.26165924770E+03  0.47000000000E+01 0. -1.
        -13    1    4    4    0    0 -0.44119559670E+02  0.14091986264E+01  0.10919436388E+02  0.45472579400E+02  0.00000000000E+00 0.  1.
         14    1    4    4    0    0  0.83160955624E+01 -0.26775725133E+02 -0.55062546893E+01  0.28572989737E+02  0.00000000000E+00 0. -1.
         -5    1    5    5    0  501  0.68456519113E+02  0.46859649309E+02 -0.11869490148E+03  0.14488854813E+03  0.47000000000E+01 0.  1.
         11    1    6    6    0    0  0.70988473394E+02 -0.25953025381E+02 -0.10161779611E+03  0.12664556592E+03  0.00000000000E+00 0. -1.
        -12    1    6    6    0    0  0.11451352743E+03 -0.68415029850E+02 -0.55554100463E+02  0.14449990433E+03  0.00000000000E+00 0.  1.
</event>
<event>
12    1  0.9656379E-001  0.6502007E+03  0.7818608E-02  0.9806403E-01
         -2   -1    0    0    0  501 -0.00000000000E+00  0.00000000000E+00  0.59005281681E+03  0.59005281681E+03  0.00000000000E+00 0.  1.
          2   -1    0    0  502    0  0.00000000000E+00 -0.00000000000E+00 -0.40336449665E+04  0.40336449665E+04  0.00000000000E+00 0. -1.
          6    2    1    2  502    0  0.60001885496E+03  0.18509133998E+03  0.37433669323E+03  0.75092891947E+03  0.17171153644E+03 0.  0.
         24    2    3    3    0    0  0.59425395613E+03  0.17576610021E+03  0.38593135467E+03  0.73429400651E+03  0.78823797925E+02 0.  0.
         -6    2    1    2    0  501 -0.60001885496E+03 -0.18509133998E+03 -0.38179288429E+04  0.38727688638E+04  0.16576064882E+03 0.  0.
        -24    2    5    5    0    0 -0.45155584872E+03 -0.19752155598E+03 -0.30495395766E+04  0.30900556794E+04  0.76387322202E+02 0.  0.
          5    1    3    3  502    0  0.57648988336E+01  0.93252397645E+01 -0.11594661439E+02  0.16634912958E+02  0.47000000000E+01 0. -1.
        -11    1    4    4    0    0  0.42387076874E+03  0.12480650868E+03  0.23188869586E+03  0.49901448924E+03  0.00000000000E+00 0.  1.
         12    1    4    4    0    0  0.17038318739E+03  0.50959591537E+02  0.15404265881E+03  0.23527951727E+03  0.00000000000E+00 0. -1.
         -5    1    5    5    0  501 -0.14846300624E+03  0.12430216004E+02 -0.76838926627E+03  0.78271318438E+03  0.47000000000E+01 0.  1.
         11    1    6    6    0    0 -0.31298263342E+03 -0.11297518271E+03 -0.22178499800E+04  0.22426725250E+04  0.00000000000E+00 0. -1.
        -12    1    6    6    0    0 -0.13857321530E+03 -0.84546373276E+02 -0.83168959668E+03  0.84738315446E+03  0.00000000000E+00 0.  1.
</event>
<event>
12    1  0.9656379E-001  0.3702614E+03  0.7818608E-02  0.1054593E+00
          1   -1    0    0  502    0  0.00000000000E+00  0.00000000000E+00  0.83255007808E+02  0.83255007808E+02  0.00000000000E+00 0. -1.
         -1   -1    0    0    0  501 -0.00000000000E+00 -0.00000000000E+00 -0.18096195540E+04  0.18096195540E+04  0.00000000000E+00 0.  1.
          6    2    1    2  502    0 -0.32122175036E+03 -0.67034754286E+02 -0.11464650964E+04  0.12046678085E+04  0.17077833749E+03 0.  0.
         24    2    3    3    0    0 -0.24165622638E+03 -0.96816724168E+02 -0.99051966564E+03  0.10270201075E+04  0.76615163442E+02 0.  0.
         -6    2    1    2    0  501  0.32122175036E+03  0.67034754286E+02 -0.57989944984E+03  0.68820675329E+03  0.17224428047E+03 0.  0.
        -24    2    5    5    0    0  0.29839755183E+03  0.55666142632E+02 -0.58299846552E+03  0.66209385862E+03  0.79631956251E+02 0.  0.
          5    1    3    3  502    0 -0.79565523973E+02  0.29781969883E+02 -0.15594543071E+03  0.17764770107E+03  0.47000000000E+01 0. -1.
        -13    1    4    4    0    0 -0.92266496213E+02 -0.68471159810E+02 -0.51994664962E+03  0.53249030461E+03  0.00000000000E+00 0.  1.
         14    1    4    4    0    0 -0.14938973017E+03 -0.28345564358E+02 -0.47057301602E+03  0.49452980285E+03  0.00000000000E+00 0. -1.
         -5    1    5    5    0  501  0.22824198530E+02  0.11368611654E+02  0.30990156772E+01  0.26112894663E+02  0.47000000000E+01 0.  1.
         13    1    6    6    0    0  0.24129179348E+03  0.30004304008E+02 -0.39392126962E+03  0.46292111047E+03  0.00000000000E+00 0. -1.
        -14    1    6    6    0    0  0.57105758352E+02  0.25661838624E+02 -0.18907719590E+03  0.19917274816E+03  0.00000000000E+00 0.  1.
</event>
<event>
12    1  0.9656379E-001  0.1393132E+04  0.7818608E-02  0.8958805E-01
         -2   -1    0    0    0  501 -0.00000000000E+00  0.00000000000E+00  0.13703120979E+04  0.13703120979E+04  0.00000000000E+00 0.  1.
          2   -1    0    0  502    0  0.00000000000E+00 -0.00000000000E+00 -0.14703338579E+04  0.14703338579E+04  0.00000000000E+00 0. -1.
          6    2    1    2  502    0 -0.51945802954E+03  0.12817680953E+04 -0.32218657464E+03  0.14292815120E+04  0.16209675215E+03 0.  0.
         24    2    3    3    0    0 -0.38390392998E+03  0.80776936377E+03 -0.17680343747E+03  0.91526978258E+03  0.81152614857E+02 0.  0.
         -6    2    1    2    0  501  0.51945802954E+03 -0.12817680953E+04  0.22216481468E+03  0.14113644438E+04  0.17270290549E+03 0.  0.
        -24    2    5    5    0    0  0.25671869957E+03 -0.76337241609E+03  0.16713798677E+03  0.82756989295E+03  0.91076257798E+02 0.  0.
          5    1    3    3  502    0 -0.13555409956E+03  0.47399873156E+03 -0.14538313717E+03  0.51401172944E+03  0.47000000000E+01 0. -1.
        -11    1    4    4    0    0 -0.20719021535E+03  0.52663036552E+03 -0.10701893915E+03  0.57595171722E+03  0.00000000000E+00 0.  1.
         12    1    4    4    0    0 -0.17671371464E+03  0.28113899824E+03 -0.69784498323E+02  0.33931806536E+03  0.00000000000E+00 0. -1.
         -5    1    5    5    0  501  0.26273932998E+03 -0.51839567924E+03  0.55026827913E+02  0.58379455081E+03  0.47000000000E+01 0.  1.
         13    1    6    6    0    0  0.13861490534E+03 -0.30316983173E+03  0.40067344991E+02  0.33575501632E+03  0.00000000000E+00 0. -1.
        -14    1    6    6    0    0  0.11810379423E+03 -0.46020258436E+03  0.12707064178E+03  0.49181487662E+03  0.00000000000E+00 0.  1.
</event>
<event>
12    1  0.9656379E-001  0.1175015E+04  0.7818608E-02  0.9135012E-01
         -2   -1    0    0    0  501 -0.00000000000E+00  0.00000000000E+00  0.18342161054E+04  0.18342161054E+04  0.00000000000E+00 0.  1.
          2   -1    0    0  502    0  0.00000000000E+00 -0.00000000000E+00 -0.77738317566E+03  0.77738317566E+03  0.00000000000E+00 0. -1.
          6    2    1    2  502    0  0.91389897391E+03  0.71794189469E+03  0.29577248991E+03  0.12114924207E+04  0.17199017666E+03 0.  0.
         24    2    3    3    0    0  0.37392793646E+03  0.26467589233E+03  0.62875603950E+02  0.46900885878E+03  0.78361587478E+02 0.  0.
         -6    2    1    2    0  501 -0.91389897391E+03 -0.71794189469E+03  0.76106043981E+03  0.14001068604E+04  0.17445437451E+03 0.  0.
        -24    2    5    5    0    0 -0.72588226626E+03 -0.49459148131E+03  0.54425595728E+03  0.10364284816E+04  0.80272365635E+02 0.  0.
          5    1    3    3  502    0  0.53997103744E+03  0.45326600236E+03  0.23289688596E+03  0.74248356188E+03  0.47000000000E+01 0. -1.
        -13    1    4    4    0    0  0.22962711267E+03  0.15943325415E+03  0.76677641873E+02  0.28987416954E+03  0.00000000000E+00 0.  1.
         14    1    4    4    0    0  0.14430082380E+03  0.10524263818E+03 -0.13802037923E+02  0.17913468925E+03  0.00000000000E+00 0. -1.
         -5    1    5    5    0  501 -0.18801670765E+03 -0.22335041339E+03  0.21680448254E+03  0.36367837874E+03  0.47000000000E+01 0.  1.
         11    1    6    6    0    0 -0.58254634206E+03 -0.43349656461E+03  0.44301131979E+03  0.85061068747E+03  0.00000000000E+00 0. -1.
        -12    1    6    6    0    0 -0.14333592420E+03 -0.61094916694E+02  0.10124463749E+03  0.18581779418E+03  0.00000000000E+00 0.  1.
</event>
<event>
12    1  0.9656379E-001  0.3108127E+03  0.7818608E-02  0.1079957E+00
         -1   -1    0    0    0  501 -0.00000000000E+00  0.00000000000E+00  0.17840656981E+03  0.17840656981E+03  0.00000000000E+00 0.  1.
          1   -1    0    0  502    0  0.00000000000E+00 -0.00000000000E+00 -0.54153340289E+03  0.54153340289E+03  0.00000000000E+00 0. -1.
          6    2    1    2  502    0  0.24720776799E+03 -0.78613078208E+02 -0.18493779861E+03  0.36164894833E+03  0.17116154901E+03 0.  0.
         24    2    3    3    0    0  0.12697811594E+03 -0.42867849704E+02 -0.24721569084E+02  0.15811953819E+03  0.80184399436E+02 0.  0.
         -6    2    1    2    0  501 -0.24720776799E+03  0.78613078208E+02 -0.17818903447E+03  0.35829102437E+03  0.17125837066E+03 0.  0.
        -24    2    5    5    0    0 -0.24808490201E+03  0.99610166503E+02 -0.18659670322E+03  0.33517336932E+03  0.77811014480E+02 0.  0.
          5    1    3    3  502    0  0.12022965205E+03 -0.35745228503E+02 -0.16021622952E+03  0.20352941015E+03  0.47000000000E+01 0. -1.
        -11    1    4    4    0    0  0.98419252657E+02 -0.40333441064E+02 -0.52133652896E+02  0.11845274807E+03  0.00000000000E+00 0.  1.
         12    1    4    4    0    0  0.28558863280E+02 -0.25344086399E+01  0.27412083812E+02  0.39666790113E+02  0.00000000000E+00 0. -1.
         -5    1    5    5    0  501  0.87713402588E+00 -0.20997088295E+02  0.84076687494E+01  0.23117655045E+02  0.47000000000E+01 0.  1.
         11    1    6    6    0    0 -0.13171760275E+03  0.49012323641E+02 -0.14426886303E+03  0.20140814180E+03  0.00000000000E+00 0. -1.
        -12    1    6    6    0    0 -0.11636729926E+03  0.50597842862E+02 -0.42327840188E+02  0.13376522752E+03  0.00000000000E+00 0.  1.
</event>
<event>
12    1  0.9656379E-001  0.1068320E+04  0.7818608E-02  0.9236632E-01
         -1   -1    0    0    0  501 -0.00000000000E+00  0.00000000000E+00  0.15693025727E+04  0.15693025727E+04  0.00000000000E+00 0.  1.
          1   -1    0    0  502    0  0.00000000000E+00 -0.00000000000E+00 -0.29714252980E+04  0.29714252980E+04  0.00000000000E+00 0. -1.
          6    2    1    2  502    0 -0.21725515400E+03 -0.10315632496E+04  0.12720397112E+04  0.16609631386E+04  0.17143798071E+03 0.  0.
         24    2    3    3    0    0 -0.22419937276E+03 -0.77467869765E+03  0.93390387297E+03  0.12362328356E+04  0.75516465897E+02 0.  0.
         -6    2    1    2    0  501  0.21725515400E+03  0.10315632496E+04 -0.26741624364E+04  0.28797647320E+04  0.17486462040E+03 0.  0.
        -24    2    5    5    0    0  0.15804737924E+03  0.62023502159E+03 -0.17938410579E+04  0.19062739558E+04  0.79650472078E+02 0.  0.
          5    1    3    3  502    0  0.69442187665E+01 -0.25688455199E+03  0.33813583819E+03  0.42473030300E+03  0.47000000000E+01 0. -1.
        -13    1    4    4    0    0 -0.14807742120E+03 -0.41051187334E+03  0.54217316373E+03  0.69598754320E+03  0.00000000000E+00 0.  1.
         14    1    4    4    0    0 -0.76121951560E+02 -0.36416682431E+03  0.39173070924E+03  0.54024529243E+03  0.00000000000E+00 0. -1.
         -5    1    5    5    0  501  0.59207774756E+02  0.41132822805E+03 -0.88032137855E+03  0.97349077618E+03  0.47000000000E+01 0.  1.
         13    1    6    6    0    0  0.54456890299E+02  0.21728669431E+03 -0.51957398241E+03  0.56580578260E+03  0.00000000000E+00 0. -1.
        -14    1    6    6    0    0  0.10359048894E+03  0.40294832728E+03 -0.12742670755E+04  0.13404681732E+04  0.00000000000E+00 0.  1.
</event>
<event>
12    1  0.9656379E-001  0.6038624E+03  0.7818608E-02  0.9897425E-01
         -1   -1    0    0    0  501 -0.00000000000E+00  0.00000000000E+00  0.80603733134E+03  0.80603733134E+03  0.00000000000E+00 0.  1.
          1   -1    0    0  502    0  0.00000000000E+00 -0.00000000000E+00 -0.48955234500E+03  0.48955234500E+03  0.00000000000E+00 0. -1.
          6    2    1    2  502    0 -0.57578799605E+03 -0.59795017965E+02 -0.20187345893E+02  0.60432513709E+03  0.17231970815E+03 0.  0.
         24    2    3    3    0    0 -0.26916016818E+03  0.23432748958E+01 -0.63181056342E+02  0.28848919645E+03  0.82349763291E+02 0.  0.
         -6    2    1    2    0  501  0.57578799605E+03  0.59795017965E+02  0.33667233223E+03  0.69126453925E+03  0.17143845361E+03 0.  0.
        -24    2    5    5    0    0  0.14517224482E+03  0.19500429266E+02  0.14126649924E+03  0.21664984432E+03  0.74334943515E+02 0.  0.
          5    1    3    3  502    0 -0.30662782786E+03 -0.62138292861E+02  0.42993710449E+02  0.31583594064E+03  0.47000000000E+01 0. -1.
        -13    1    4    4    0    0 -0.18174183565E+03 -0.36197961058E+02 -0.50832677596E+02  0.19215709282E+03  0.00000000000E+00 0.  1.
         14    1    4    4    0    0 -0.87418332534E+02  0.38541235954E+02 -0.12348378747E+02  0.96332103629E+02  0.00000000000E+00 0. -1.
         -5    1    5    5    0  501  0.43061575123E+03  0.40294588699E+02  0.19540583299E+03  0.47461469494E+03  0.47000000000E+01 0.  1.
         11    1    6    6    0    0  0.91580012604E+02  0.46160316039E+02  0.73150383517E+02  0.12597083827E+03  0.00000000000E+00 0. -1.
        -12    1    6    6    0    0  0.53592232213E+02 -0.26659886774E+02  0.68116115722E+02  0.90679006046E+02  0.00000000000E+00 0.  1.
</event>
<event>
12    1  0.9656379E-001  0.5755194E+03  0.7818608E-02  0.9957539E-01
          2   -1    0    0  502    0  0.00000000000E+00  0.00000000000E+00  0.96797728178E+03  0.96797728178E+03  0.00000000000E+00 0. -1.
         -2   -1    0    0    0  501 -0.00000000000E+00 -0.00000000000E+00 -0.34976141314E+03  0.34976141314E+03  0.00000000000E+00 0.  1.
          6    2    1    2  502    0 -0.39149753283E+03 -0.38763662418E+03  0.21164681914E+03  0.61237489405E+03  0.16332839372E+03 0.  0.
         24    2    3    3    0    0 -0.11270797803E+03 -0.11762587845E+03  0.11276171472E+03  0.21183803863E+03  0.74974760488E+02 0.  0.
         -6    2    1    2    0  501  0.39149753283E+03  0.38763662418E+03  0.40656904950E+03  0.70536380087E+03  0.16943207766E+03 0.  0.
        -24    2    5    5    0    0  0.38632468739E+03  0.35045901714E+03  0.33681962916E+03  0.62601643523E+03  0.79880083931E+02 0.  0.
          5    1    3    3  502    0 -0.27878955480E+03 -0.27001074573E+03  0.98885104415E+02  0.40053685542E+03  0.47000000000E+01 0. -1.
        -13    1    4    4    0    0 -0.12268936016E+02 -0.41874900878E+02  0.11327542531E+01  0.43649939825E+02  0.00000000000E+00 0.  1.
         14    1    4    4    0    0 -0.10043904201E+03 -0.75750977572E+02  0.11162896047E+03  0.16818809880E+03  0.00000000000E+00 0. -1.
         -5    1    5    5    0  501  0.51728454418E+01  0.37177607035E+02  0.69749420346E+02  0.79347365637E+02  0.47000000000E+01 0.  1.
         13    1    6    6    0    0  0.21473389221E+03  0.14770791107E+03  0.14373927567E+03  0.29763946450E+03  0.00000000000E+00 0. -1.
        -14    1    6    6    0    0  0.17159079518E+03  0.20275110607E+03  0.19308035349E+03  0.32837697073E+03  0.00000000000E+00 0.  1.
</event>
<event>
12    1  0.9656379E-001  0.1174041E+04  0.7818608E-02  0.9135887E-01
          1   -1    0    0  502    0  0.00000000000E+00  0.00000000000E+00  0.18913748225E+04  0.18913748225E+04  0.00000000000E+00 0. -1.
         -1   -1    0    0    0  501 -0.00000000000E+00 -0.00000000000E+00 -0.78304139982E+03  0.78304139982E+03  0.00000000000E+00 0.  1.
          6    2    1    2  502    0  0.23600347448E+03  0.11379559919E+04  0.20233342134E+03  0.11918335637E+04  0.16996161524E+03 0.  0.
         24    2    3    3    0    0  0.83982004592E+02  0.46198826334E+03  0.14446199558E+03  0.49655369969E+03  0.72181548490E+02 0.  0.
         -6    2    1    2    0  501 -0.23600347448E+03 -0.11379559919E+04  0.90600000138E+03  0.14825826587E+04  0.16301490101E+03 0.  0.
        -24    2    5    5    0    0 -0.19341497975E+03 -0.86170841624E+03  0.61440311522E+03  0.10786305118E+04  0.77471569463E+02 0.  0.
          5    1    3    3  502    0  0.15202146989E+03  0.67596772853E+03  0.57871425757E+02  0.69527986397E+03  0.47000000000E+01 0. -1.
        -11    1    4    4    0    0  0.35218635257E+01  0.21271715832E+03  0.54705989861E+02  0.21966733552E+03  0.00000000000E+00 0.  1.
         12    1    4    4    0    0  0.80460141066E+02  0.24927110502E+03  0.89756005718E+02  0.27688636416E+03  0.00000000000E+00 0. -1.
         -5    1    5    5    0  501 -0.42588494729E+02 -0.27624757564E+03  0.29159688617E+03  0.40395214686E+03  0.47000000000E+01 0.  1.
         11    1    6    6    0    0 -0.91420369399E+02 -0.54913950247E+03  0.36068281195E+03  0.66332794902E+03  0.00000000000E+00 0. -1.
        -12    1    6    6    0    0 -0.10199461035E+03 -0.31256891377E+03  0.25372030326E+03  0.41530256282E+03  0.00000000000E+00 0.  1.
</event>
<event>
12    1  0.9952936E-001  0.2504810E+03  0.7818608E-02  0.1113001E+00
          2   -1    0    0  502    0  0.00000000000E+00  0.00000000000E+00  0.28182779950E+04  0.28182779950E+04  0.00000000000E+00 0. -1.
         -2   -1    0    0    0  501 -0.00000000000E+00 -0.00000000000E+00 -0.22807135704E+03  0.22807135704E+03  0.00000000000E+00 0.  1.
          6    2    1    2  502    0 -0.17720016920E+03  0.55389606163E+01 -0.15181851967E+03  0.29290841721E+03  0.17696298457E+03 0.  0.
         24    2    3    3    0    0 -0.14165631141E+03 -0.45304210869E+02 -0.53183804815E+02  0.17629241965E+03  0.78304010406E+02 0.  0.
         -6    2    1    2    0  501  0.17720016920E+03 -0.55389606163E+01  0.27420251577E+04  0.27534409349E+04  0.17693059789E+03 0.  0.
        -24    2    5    5    0    0  0.10945040517E+02 -0.51584191327E+00  0.11143449771E+04  0.11172774774E+04  0.80150941217E+02 0.  0.
          5    1    3    3  502    0 -0.35543857789E+02  0.50843171485E+02 -0.98634714854E+02  0.11661599756E+03  0.47000000000E+01 0. -1.
        -13    1    4    4    0    0 -0.57106442377E+02 -0.41148635705E+02 -0.58428586020E+02  0.91478170323E+02  0.00000000000E+00 0.  1.
         14    1    4    4    0    0 -0.84549869035E+02 -0.41555751640E+01  0.52447812051E+01  0.84814249326E+02  0.00000000000E+00 0. -1.
         -5    1    5    5    0  501  0.16625512869E+03 -0.50231187030E+01  0.16276801805E+04  0.16361634575E+04  0.47000000000E+01 0.  1.
         11    1    6    6    0    0  0.44514405714E+02 -0.57530795653E+01  0.50700156274E+03  0.50898449373E+03  0.00000000000E+00 0. -1.
        -12    1    6    6    0    0 -0.33569365197E+02  0.52372376520E+01  0.60734341438E+03  0.60829298362E+03  0.00000000000E+00 0.  1.
</event>
<event>
12    1  0.9656379E-001  0.3167647E+03  0.7818608E-02  0.1077148E+00
          2   -1    0    0  502    0  0.00000000000E+00  0.00000000000E+00  0.31684779259E+04  0.31684779259E+04  0.00000000000E+00 0. -1.
         -2   -1    0    0    0  501 -0.00000000000E+00 -0.00000000000E+00 -0.32830246683E+02  0.32830246683E+02  0.00000000000E+00 0.  1.
          6    2    1    2  502    0 -0.16920889023E+03  0.20506650389E+03  0.12640997025E+04  0.13030521849E+04  0.17121045286E+03 0.  0.
         24    2    3    3    0    0 -0.13247294022E+03  0.64917260024E+02  0.78256743024E+03  0.80017371071E+03  0.78120764825E+02 0.  0.
         -6    2    1    2    0  501  0.16920889023E+03 -0.20506650389E+03  0.18715479767E+04  0.18982559877E+04  0.17320521372E+03 0.  0.
        -24    2    5    5    0    0  0.77471676552E+02 -0.19482793072E+03  0.13872292536E+04  0.14051969037E+04  0.78826092188E+02 0.  0.
          5    1    3    3  502    0 -0.36735950010E+02  0.14014924387E+03  0.48153227226E+03  0.50287847420E+03  0.47000000000E+01 0. -1.
        -11    1    4    4    0    0 -0.13697709250E+03  0.73472057002E+02  0.70046882003E+03  0.71750779428E+03  0.00000000000E+00 0.  1.
         12    1    4    4    0    0  0.45041522830E+01 -0.85547969774E+01  0.82098610210E+02  0.82665916420E+02  0.00000000000E+00 0. -1.
         -5    1    5    5    0  501  0.91737213678E+02 -0.10238573169E+02  0.48431872315E+03  0.49305908403E+03  0.47000000000E+01 0.  1.
         13    1    6    6    0    0  0.30953433432E+02 -0.10390606039E+03  0.95157241916E+03  0.95772890388E+03  0.00000000000E+00 0. -1.
        -14    1    6    6    0    0  0.46518243119E+02 -0.90921870329E+02  0.43565683442E+03  0.44746799978E+03  0.00000000000E+00 0.  1.
</event>
<event>
12    1  0.9656379E-001  0.5562515E+03  0.7818608E-02  0.1000057E+00
         -2   -1    0    0    0  501 -0.00000000000E+00  0.00000000000E+00  0.22987267784E+03  0.22987267784E+03  0.00000000000E+00 0.  1.
          2   -1    0    0  502    0  0.00000000000E+00 -0.00000000000E+00 -0.13479274852E+04  0.13479274852E+04  0.00000000000E+00 0. -1.
          6    2    1    2  502    0  0.26845799159E+03 -0.45649017027E+03 -0.52865026536E+03  0.76680597722E+03  0.16753308574E+03 0.  0.
         24    2    3    3    0    0  0.27714776154E+03 -0.41568079563E+03 -0.51669870883E+03  0.72314997116E+03  0.79792979040E+02 0.  0.
         -6    2    1    2    0  501 -0.26845799159E+03  0.45649017027E+03 -0.58940454202E+03  0.81099418585E+03  0.17280302812E+03 0.  0.
        -24    2    5    5    0    0 -0.12587749430E+03  0.18102999712E+03 -0.34033796497E+03  0.41317041205E+03  0.79138205458E+02 0.  0.
          5    1    3    3  502    0 -0.86897699494E+01 -0.40809374647E+02 -0.11951556528E+02  0.43656006051E+02  0.47000000000E+01 0. -1.
        -11    1    4    4    0    0  0.99619272049E+02 -0.15434671592E+03 -0.13676564186E+03  0.22902346795E+03  0.00000000000E+00 0.  1.
         12    1    4    4    0    0  0.17752848950E+03 -0.26133407970E+03 -0.37993306697E+03  0.49412650321E+03  0.00000000000E+00 0. -1.
         -5    1    5    5    0  501 -0.14258049730E+03  0.27546017315E+03 -0.24906657705E+03  0.39782377381E+03  0.47000000000E+01 0.  1.
         11    1    6    6    0    0 -0.62928298935E+02  0.13320733030E+03 -0.16724443866E+03  0.22287859008E+03  0.00000000000E+00 0. -1.
        -12    1    6    6    0    0 -0.62949195361E+02  0.47822666825E+02 -0.17309352630E+03  0.19029182197E+03  0.00000000000E+00 0.  1.
</event>
<event>
12    1  0.1144254E+000  0.1425123E+04  0.7818608E-02  0.8935832E-01
         -1   -1    0    0    0  501 -0.00000000000E+00  0.00000000000E+00  0.86206708204E+03  0.86206708204E+03  0.00000000000E+00 0.  1.
          1   -1    0    0  502    0  0.00000000000E+00 -0.00000000000E+00 -0.31500548116E+04  0.31500548116E+04  0.00000000000E+00 0. -1.
          6    2    1    2  502    0  0.14695637384E+03 -0.14070687521E+04 -0.13676907119E+03  0.14316761209E+04  0.17190720584E+03 0.  0.
         24    2    3    3    0    0  0.68888222715E+02 -0.11592046982E+04 -0.87439095991E+02  0.11671260087E+04  0.77694305130E+02 0.  0.
         -6    2    1    2    0  501 -0.14695637384E+03  0.14070687521E+04 -0.21512186584E+04  0.25804457727E+04  0.17181391368E+03 0.  0.
        -24    2    5    5    0    0 -0.14604306405E+03  0.76131347938E+03 -0.12200399540E+04  0.14472570965E+04  0.71615806053E+02 0.  0.
          5    1    3    3  502    0  0.78068151128E+02 -0.24786405391E+03 -0.49329975203E+02  0.26455011226E+03  0.47000000000E+01 0. -1.
        -13    1    4    4    0    0  0.58876507039E+02 -0.38616688614E+03 -0.37067179194E+02  0.39238410111E+03  0.00000000000E+00 0.  1.
         14    1    4    4    0    0  0.10011715675E+02 -0.77303781205E+03 -0.50371916796E+02  0.77474190755E+03  0.00000000000E+00 0. -1.
         -5    1    5    5    0  501 -0.91330979359E+00  0.64575527272E+03 -0.93117870434E+03  0.11331886762E+04  0.47000000000E+01 0.  1.
         11    1    6    6    0    0 -0.12219617010E+02  0.22567115421E+03 -0.33388212680E+03  0.40317993933E+03  0.00000000000E+00 0. -1.
        -12    1    6    6    0    0 -0.13382344704E+03  0.53564232517E+03 -0.88615782721E+03  0.10440771572E+04  0.00000000000E+00 0.  1.
</event>
<event>
12    1  0.9656379E-001  0.3107625E+03  0.7818608E-02  0.1079981E+00
          1   -1    0    0  502    0  0.00000000000E+00  0.00000000000E+00  0.14886930044E+04  0.14886930044E+04  0.00000000000E+00 0. -1.
         -1   -1    0    0    0  501 -0.00000000000E+00 -0.00000000000E+00 -0.66351194119E+02  0.66351194119E+02  0.00000000000E+00 0.  1.
          6    2    1    2  502    0  0.65772254189E+02 -0.24940402301E+03  0.59563573889E+03  0.67195077568E+03  0.17380320876E+03 0.  0.
         24    2    3    3    0    0  0.11484193609E+02 -0.22710632481E+03  0.53936621586E+03  0.59050920099E+03  0.77948907382E+02 0.  0.
         -6    2    1    2    0  501 -0.65772254189E+02  0.24940402301E+03  0.82670607134E+03  0.88309342279E+03  0.17286615883E+03 0.  0.
        -24    2    5    5    0    0 -0.90318081678E+02  0.24813937293E+03  0.67238159432E+03  0.72675330895E+03  0.79642070675E+02 0.  0.
          5    1    3    3  502    0  0.54288060580E+02 -0.22297698200E+02  0.56269523027E+02  0.81441574692E+02  0.47000000000E+01 0. -1.
        -11    1    4    4    0    0  0.13964651443E+02 -0.19202013067E+03  0.36535060920E+03  0.41297434510E+03  0.00000000000E+00 0.  1.
         12    1    4    4    0    0 -0.24804578340E+01 -0.35086194147E+02  0.17401560667E+03  0.17753485589E+03  0.00000000000E+00 0. -1.
         -5    1    5    5    0  501  0.24545827489E+02  0.12646500872E+01  0.15432447702E+03  0.15634011384E+03  0.47000000000E+01 0.  1.
         13    1    6    6    0    0 -0.57539774610E+02  0.16612672287E+03  0.53755416636E+03  0.56557351024E+03  0.00000000000E+00 0. -1.
        -14    1    6    6    0    0 -0.32778307069E+02  0.82012650053E+02  0.13482742796E+03  0.16117979871E+03  0.00000000000E+00 0.  1.
</event>
<event>
12    1  0.9656379E-001  0.5411571E+03  0.7818608E-02  0.1003562E+00
          2   -1    0    0  502    0  0.00000000000E+00  0.00000000000E+00  0.10840345615E+04  0.10840345615E+04  0.00000000000E+00 0. -1.
         -2   -1    0    0    0  501 -0.00000000000E+00 -0.00000000000E+00 -0.27152127842E+03  0.27152127842E+03  0.00000000000E+00 0.  1.
          6    2    1    2  502    0  0.49561333983E+03 -0.13321570635E+03  0.45454650031E+03  0.70683805649E+03  0.17212934128E+03 0.  0.
         24    2    3    3    0    0  0.20467923647E+03 -0.11790871667E+03  0.23069186921E+03  0.33940106558E+03  0.78602095936E+02 0.  0.
         -6    2    1    2    0  501 -0.49561333983E+03  0.13321570635E+03  0.35796678276E+03  0.64871778342E+03  0.17121780847E+03 0.  0.
        -24    2    5    5    0    0 -0.25313804446E+03  0.61231675387E+02  0.26274160539E+03  0.37841074692E+03  0.79582375928E+02 0.  0.
          5    1    3    3  502    0  0.29093410335E+03 -0.15306989676E+02  0.22385463110E+03  0.36743699091E+03  0.47000000000E+01 0. -1.
        -13    1    4    4    0    0  0.13566314768E+03 -0.95943074724E+02  0.11209279399E+03  0.20043542024E+03  0.00000000000E+00 0.  1.
         14    1    4    4    0    0  0.69016088797E+02 -0.21965641949E+02  0.11859907523E+03  0.13896564534E+03  0.00000000000E+00 0. -1.
         -5    1    5    5    0  501 -0.24247529536E+03  0.71984030961E+02  0.95225177367E+02  0.27030703650E+03  0.47000000000E+01 0.  1.
         11    1    6    6    0    0 -0.12631713431E+03  0.64635131341E+02  0.10805136162E+03  0.17835026036E+03  0.00000000000E+00 0. -1.
        -12    1    6    6    0    0 -0.12682091015E+03 -0.34034559535E+01  0.15469024377E+03  0.20006048656E+03  0.00000000000E+00 0.  1.
</event>
<event>
12    1  0.9656379E-001  0.4593581E+03  0.7818608E-02  0.1024968E+00
         -2   -1    0    0    0  501 -0.00000000000E+00  0.00000000000E+00  0.29505285903E+03  0.29505285903E+03  0.00000000000E+00 0.  1.
          2   -1    0    0  502    0  0.00000000000E+00 -0.00000000000E+00 -0.22049939330E+04  0.22049939330E+04  0.00000000000E+00 0. -1.
          6    2    1    2  502    0 -0.42440122200E+03  0.36847660955E+02  0.72706319126E+02  0.46482280431E+03  0.17117208657E+03 0.  0.
         24    2    3    3    0    0 -0.41792119548E+03  0.32025048556E+02  0.98013955628E+02  0.43784476140E+03  0.80109738631E+02 0.  0.
         -6    2    1    2    0  501  0.42440122200E+03 -0.36847660955E+02 -0.19826473931E+04  0.20352239878E+04  0.17254520407E+03 0.  0.
        -24    2    5    5    0    0  0.19147525732E+03 -0.54215748132E+02 -0.72150589518E+03  0.75262657494E+03  0.79207846942E+02 0.  0.
          5    1    3    3  502    0 -0.64800265145E+01  0.48226123987E+01 -0.25307636502E+02  0.26978042910E+02  0.47000000000E+01 0. -1.
        -11    1    4    4    0    0 -0.16673760465E+03  0.36105377086E+02  0.72388766296E+02  0.18532447368E+03  0.00000000000E+00 0.  1.
         12    1    4    4    0    0 -0.25118359083E+03 -0.40803285297E+01  0.25625189332E+02  0.25252028772E+03  0.00000000000E+00 0. -1.
         -5    1    5    5    0  501  0.23292596468E+03  0.17368087177E+02 -0.12611414980E+04  0.12825974128E+04  0.47000000000E+01 0.  1.
         11    1    6    6    0    0  0.13829753026E+03 -0.60496875711E+02 -0.61704849993E+03  0.63524399258E+03  0.00000000000E+00 0. -1.
        -12    1    6    6    0    0  0.53177727056E+02  0.62811275798E+01 -0.10445739525E+03  0.11738258236E+03  0.00000000000E+00 0.  1.
</event>
<event>
12    1  0.9656379E-001  0.6845323E+03  0.7818608E-02  0.9744056E-01
         -2   -1    0    0    0  501 -0.00000000000E+00  0.00000000000E+00  0.46501635064E+03  0.46501635064E+03  0.00000000000E+00 0.  1.
          2   -1    0    0  502    0  0.00000000000E+00 -0.00000000000E+00 -0.19436783214E+04  0.19436783214E+04  0.00000000000E+00 0. -1.
          6    2    1    2  502    0  0.65460854018E+03 -0.10170614104E+03  0.96373116764E+02  0.69137206464E+03  0.17277463393E+03 0.  0.
         24    2    3    3    0    0  0.17877433025E+03 -0.58909670290E+02  0.68401197051E+01  0.20527744339E+03  0.81617590730E+02 0.  0.
         -6    2    1    2    0  501 -0.65460854018E+03  0.10170614104E+03 -0.15750350875E+04  0.17173226074E+04  0.17206083497E+03 0.  0.
        -24    2    5    5    0    0 -0.14574194534E+03  0.38074412679E+02 -0.39839075555E+03  0.43376965478E+03  0.82161692819E+02 0.  0.
          5    1    3    3  502    0  0.47583420993E+03 -0.42796470754E+02  0.89532997059E+02  0.48609462126E+03  0.47000000000E+01 0. -1.
        -13    1    4    4    0    0  0.17649002932E+03 -0.60699540774E+02  0.23730972062E+02  0.18813910740E+03  0.00000000000E+00 0.  1.
         14    1    4    4    0    0  0.22843009328E+01  0.17898704838E+01 -0.16890852357E+02  0.17138335988E+02  0.00000000000E+00 0. -1.
         -5    1    5    5    0  501 -0.50886659484E+03  0.63631728365E+02 -0.11766443320E+04  0.12835529526E+04  0.47000000000E+01 0.  1.
         13    1    6    6    0    0 -0.95851110966E+02 -0.16419327508E+02 -0.21063597520E+03  0.23200117206E+03  0.00000000000E+00 0. -1.
        -14    1    6    6    0    0 -0.49890834378E+02  0.54493740187E+02 -0.18775478035E+03  0.20176848272E+03  0.00000000000E+00 0.  1.
</event>
<event>
12    1  0.9656379E-001  0.6925854E+03  0.7818608E-02  0.9729997E-01
         -2   -1    0    0    0  501 -0.00000000000E+00  0.00000000000E+00  0.14712792633E+04  0.14712792633E+04  0.00000000000E+00 0.  1.
          2   -1    0    0  502    0  0.00000000000E+00 -0.00000000000E+00 -0.64400916825E+03  0.64400916825E+03  0.00000000000E+00 0. -1.
          6    2    1    2  502    0 -0.39619629033E+03  0.54065105677E+03  0.11567982854E+04  0.13482450552E+04  0.17409017835E+03 0.  0.
         24    2    3    3    0    0 -0.22263419207E+03  0.29173347023E+03  0.50524290062E+03  0.62947508071E+03  0.79335285192E+02 0.  0.
         -6    2    1    2    0  501  0.39619629033E+03 -0.54065105677E+03 -0.32952819034E+03  0.76704337633E+03  0.17461857660E+03 0.  0.
        -24    2    5    5    0    0  0.24753194255E+03 -0.44269377902E+03 -0.23326342866E+03  0.56459409650E+03  0.84290106674E+02 0.  0.
          5    1    3    3  502    0 -0.17356209826E+03  0.24891758653E+03  0.65155538476E+03  0.71876997450E+03  0.47000000000E+01 0. -1.
        -13    1    4    4    0    0 -0.14890138062E+03  0.14142652449E+03  0.31530851163E+03  0.37628784260E+03  0.00000000000E+00 0.  1.
         14    1    4    4    0    0 -0.73732811454E+02  0.15030694574E+03  0.18993438899E+03  0.25318723812E+03  0.00000000000E+00 0. -1.
         -5    1    5    5    0  501  0.14866434779E+03 -0.97957277749E+02 -0.96264761673E+02  0.20244927984E+03  0.47000000000E+01 0.  1.
         13    1    6    6    0    0  0.25271802188E+03 -0.44008021749E+03 -0.22665426669E+03  0.55579596348E+03  0.00000000000E+00 0. -1.
        -14    1    6    6    0    0 -0.51860793269E+01 -0.26135615270E+01 -0.66091619739E+01  0.87981330200E+01  0.00000000000E+00 0.  1.
</event>
<event>
12    1  0.9656379E-001  0.2500374E+03  0.7818608E-02  0.1113281E+00
          1   -1    0    0  502    0  0.00000000000E+00  0.00000000000E+00  0.41918993738E+03  0.41918993738E+03  0.00000000000E+00 0. -1.
         -1   -1    0    0    0  501 -0.00000000000E+00 -0.00000000000E+00 -0.59570336759E+03  0.59570336759E+03  0.00000000000E+00 0.  1.
          6    2    1    2  502    0  0.13862441841E+03 -0.11766033090E+03 -0.52757901221E+03  0.58367144786E+03  0.17109080065E+03 0.  0.
         24    2    3    3    0    0  0.35795581926E+02 -0.57651180398E+02 -0.38177450264E+03  0.39537404275E+03  0.77226164805E+02 0.  0.
         -6    2    1    2    0  501 -0.13862441841E+03  0.11766033090E+03  0.35106558200E+03  0.43122185711E+03  0.17217596910E+03 0.  0.
        -24    2    5    5    0    0 -0.29935548302E+02  0.51911533547E+02  0.24835735121E+03  0.26779834133E+03  0.80272245201E+02 0.  0.
          5    1    3    3  502    0  0.10282883649E+03 -0.60009150498E+02 -0.14580450957E+03  0.18829740510E+03  0.47000000000E+01 0. -1.
        -11    1    4    4    0    0 -0.10127327110E+02 -0.69857724244E+01 -0.21184818427E+03  0.21220512941E+03  0.00000000000E+00 0.  1.
         12    1    4    4    0    0  0.45922909037E+02 -0.50665407973E+02 -0.16992631837E+03  0.18316891334E+03  0.00000000000E+00 0. -1.
         -5    1    5    5    0  501 -0.10868887011E+03  0.65748797348E+02  0.10270823079E+03  0.16342351579E+03  0.47000000000E+01 0.  1.
         13    1    6    6    0    0 -0.55620546354E+02  0.48413555721E+02  0.17128229653E+03  0.18648094449E+03  0.00000000000E+00 0. -1.
        -14    1    6    6    0    0  0.25684998052E+02  0.34979778267E+01  0.77075054683E+02  0.81317396836E+02  0.00000000000E+00 0.  1.
</event>
<event>
12    1  0.9656379E-001  0.2377063E+03  0.7818608E-02  0.1121330E+00
         -1   -1    0    0    0  501 -0.00000000000E+00  0.00000000000E+00  0.16420943033E+03  0.16420943033E+03  0.00000000000E+00 0.  1.
          1   -1    0    0  502    0  0.00000000000E+00 -0.00000000000E+00 -0.58043903227E+03  0.58043903227E+03  0.00000000000E+00 0. -1.
          6    2    1    2  502    0 -0.14882339275E+03 -0.69303573799E+02  0.29339769645E+02  0.23975156612E+03  0.17224576571E+03 0.  0.
         24    2    3    3    0    0 -0.58649637721E+02 -0.97544521566E+02 -0.71719002557E+01  0.13834126455E+03  0.78308081514E+02 0.  0.
         -6    2    1    2    0  501  0.14882339275E+03  0.69303573799E+02 -0.44556937158E+03  0.50489689648E+03  0.17157337676E+03 0.  0.
        -24    2    5    5    0    0  0.17318536995E+03  0.34928475199E+02 -0.38282204447E+03  0.42917061045E+03  0.80134414545E+02 0.  0.
          5    1    3    3  502    0 -0.90173755030E+02  0.28240947767E+02  0.36511669901E+02  0.10141030158E+03  0.47000000000E+01 0. -1.
        -13    1    4    4    0    0 -0.47168936199E+02 -0.86198663938E+02 -0.36536070469E+02  0.10483321350E+03  0.00000000000E+00 0.  1.
         14    1    4    4    0    0 -0.11480701522E+02 -0.11345857628E+02  0.29364170213E+02  0.33508051048E+02  0.00000000000E+00 0. -1.
         -5    1    5    5    0  501 -0.24361977199E+02  0.34375098600E+02 -0.62747327108E+02  0.75726286031E+02  0.47000000000E+01 0.  1.
         13    1    6    6    0    0  0.68126176529E+02  0.47240336886E+02 -0.21900076384E+03  0.23416694882E+03  0.00000000000E+00 0. -1.
        -14    1    6    6    0    0  0.10505919342E+03 -0.12311861687E+02 -0.16382128064E+03  0.19500366163E+03  0.00000000000E+00 0.  1.
</event>
<event>
12    1  0.9656379E-001  0.3363304E+03  0.7818608E-02  0.1068370E+00
         -2   -1    0    0    0  501 -0.00000000000E+00  0.00000000000E+00  0.10651511798E+03  0.10651511798E+03  0.00000000000E+00 0.  1.
          2   -1    0    0  502    0  0.00000000000E+00 -0.00000000000E+00 -0.21479501566E+04  0.21479501566E+04  0.00000000000E+00 0. -1.
          6    2    1    2  502    0  0.12474112311E+03  0.26071998403E+03 -0.21918561297E+03  0.40143486689E+03  0.17196616399E+03 0.  0.
         24    2    3    3    0    0  0.11463790030E+03  0.10015196540E+03 -0.14856243374E+03  0.22566829680E+03  0.75386464990E+02 0.  0.
         -6    2    1    2    0  501 -0.12474112311E+03 -0.26071998403E+03 -0.18222494256E+04  0.18530304077E+04  0.17202751146E+03 0.  0.
        -24    2    5    5    0    0 -0.10035610930E+03 -0.26020888404E+03 -0.13948567449E+04  0.14249165400E+04  0.83557137810E+02 0.  0.
          5    1    3    3  502    0  0.10103222808E+02  0.16056801862E+03 -0.70623179231E+02  0.17576657009E+03  0.47000000000E+01 0. -1.
        -13    1    4    4    0    0  0.57363071332E+02  0.91609699149E+02 -0.11861168985E+03  0.16047302546E+03  0.00000000000E+00 0.  1.
         14    1    4    4    0    0  0.57274828968E+02  0.85422662534E+01 -0.29950743891E+02  0.65195271344E+02  0.00000000000E+00 0. -1.
         -5    1    5    5    0  501 -0.24385013804E+02 -0.51109998913E+00 -0.42739268072E+03  0.42811386762E+03  0.47000000000E+01 0.  1.
         13    1    6    6    0    0 -0.32297084209E+02 -0.18148862443E+03 -0.79424689201E+03  0.81535841684E+03  0.00000000000E+00 0. -1.
        -14    1    6    6    0    0 -0.68059025095E+02 -0.78720259611E+02 -0.60060985288E+03  0.60955812319E+03  0.00000000000E+00 0.  1.
</event>
<event>
12    1  0.9656379E-001  0.5561691E+03  0.7818608E-02  0.1000076E+00
          2   -1    0    0  502    0  0.00000000000E+00  0.00000000000E+00  0.36247098090E+03  0.36247098090E+03  0.00000000000E+00 0. -1.
         -2   -1    0    0    0  501 -0.00000000000E+00 -0.00000000000E+00 -0.17419825000E+04  0.17419825000E+04  0.00000000000E+00 0.  1.
          6    2    1    2  502    0 -0.48343928282E+03  0.21637381020E+03 -0.14413128109E+04  0.15449173089E+04  0.16986967558E+03 0.  0.
         24    2    3    3    0    0 -0.34021950381E+03  0.18553321879E+03 -0.88377301110E+03  0.96843160613E+03  0.81444180686E+02 0.  0.
         -6    2    1    2    0  501  0.48343928282E+03 -0.21637381020E+03  0.61801291776E+02  0.55953617199E+03  0.16949974094E+03 0.  0.
        -24    2    5    5    0    0  0.38700239034E+03 -0.10974191532E+03  0.68308998721E+02  0.41554007660E+03  0.78697508527E+02 0.  0.
          5    1    3    3  502    0 -0.14321977902E+03  0.30840591412E+02 -0.55753979977E+03  0.57648570277E+03  0.47000000000E+01 0. -1.
        -11    1    4    4    0    0 -0.14558793282E+03  0.11307475298E+03 -0.34788536371E+03  0.39370797836E+03  0.00000000000E+00 0.  1.
         12    1    4    4    0    0 -0.19463157099E+03  0.72458465806E+02 -0.53588764739E+03  0.57472362777E+03  0.00000000000E+00 0. -1.
         -5    1    5    5    0  501  0.96436892486E+02 -0.10663189487E+03 -0.65077069444E+01  0.14399609539E+03  0.47000000000E+01 0.  1.
         13    1    6    6    0    0  0.16416686808E+03 -0.77688825546E+02  0.50467818618E+01  0.18169145329E+03  0.00000000000E+00 0. -1.
        -14    1    6    6    0    0  0.22283552225E+03 -0.32053089778E+02  0.63262216859E+02  0.23384862331E+03  0.00000000000E+00 0.  1.
</event>
<event>
12    1  0.9656379E-001  0.5087355E+03  0.7818608E-02  0.1011524E+00
         -2   -1    0    0    0  501 -0.00000000000E+00  0.00000000000E+00  0.46194714113E+03  0.46194714113E+03  0.00000000000E+00 0.  1.
          2   -1    0    0  502    0  0.00000000000E+00 -0.00000000000E+00 -0.90857965025E+03  0.90857965025E+03  0.00000000000E+00 0. -1.
          6    2    1    2  502    0 -0.39667984817E+03  0.26860586220E+03  0.20090460521E+03  0.54720733372E+03  0.17195695545E+03 0.  0.
         24    2    3    3    0    0 -0.21938995272E+03  0.16846564367E+03  0.18624757534E+03  0.34300966253E+03  0.80342048860E+02 0.  0.
         -6    2    1    2    0  501  0.39667984817E+03 -0.26860586220E+03 -0.64753711433E+03  0.82331945766E+03  0.17043064214E+03 0.  0.
        -24    2    5    5    0    0  0.34431797185E+03 -0.27226972515E+03 -0.51973837674E+03  0.68508126716E+03  0.80763193283E+02 0.  0.
          5    1    3    3  502    0 -0.17728989545E+03  0.10014021852E+03  0.14657029876E+02  0.20419767119E+03  0.47000000000E+01 0. -1.
        -13    1    4    4    0    0 -0.38377783685E+02 -0.29172441390E+01  0.19905657992E+02  0.43331279857E+02  0.00000000000E+00 0.  1.
         14    1    4    4    0    0 -0.18101216904E+03  0.17138288781E+03  0.16634191734E+03  0.29967838267E+03  0.00000000000E+00 0. -1.
         -5    1    5    5    0  501  0.52361876328E+02  0.36638629493E+01 -0.12779873759E+03  0.13823819050E+03  0.47000000000E+01 0.  1.
         11    1    6    6    0    0  0.17551871645E+03 -0.18227833118E+03 -0.32768420889E+03  0.41401588206E+03  0.00000000000E+00 0. -1.
        -12    1    6    6    0    0  0.16879925540E+03 -0.89991393967E+02 -0.19205416785E+03  0.27106538510E+03  0.00000000000E+00 0.  1.
</event>
<event>
12    1  0.9656379E-001  0.7515883E+03  0.7818608E-02  0.9632862E-01
          2   -1    0    0  502    0  0.00000000000E+00  0.00000000000E+00  0.10971918817E+04  0.10971918817E+04  0.00000000000E+00 0. -1.
         -2   -1    0    0    0  501 -0.00000000000E+00 -0.00000000000E+00 -0.51715859399E+03  0.51715859399E+03  0.00000000000E+00 0.  1.
          6    2    1    2  502    0 -0.52231136793E+03 -0.51208502644E+03  0.34407734892E+03  0.82680756522E+03  0.17372762729E+03 0.  0.
         24    2    3    3    0    0 -0.18209862704E+03 -0.10620619423E+03  0.10068051398E+03  0.24392983810E+03  0.70182151297E+02 0.  0.
         -6    2    1    2    0  501  0.52231136793E+03  0.51208502644E+03  0.23595593882E+03  0.78754291051E+03  0.17178006709E+03 0.  0.
        -24    2    5    5    0    0  0.28005247102E+03  0.22266081774E+03  0.16674182013E+03  0.40378722007E+03  0.85053267033E+02 0.  0.
          5    1    3    3  502    0 -0.34021274089E+03 -0.40587883221E+03  0.24339683494E+03  0.58287772711E+03  0.47000000000E+01 0. -1.
        -13    1    4    4    0    0 -0.66986781767E+02 -0.79598164129E+02  0.46673615037E+02  0.11402422113E+03  0.00000000000E+00 0.  1.
         14    1    4    4    0    0 -0.11511184527E+03 -0.26608030100E+02  0.54006898941E+02  0.12990561697E+03  0.00000000000E+00 0. -1.
         -5    1    5    5    0  501  0.24225889692E+03  0.28942420870E+03  0.69214118697E+02  0.38375569044E+03  0.47000000000E+01 0.  1.
         11    1    6    6    0    0  0.14810805665E+03  0.79654877358E+02  0.11057847862E+03  0.20126722502E+03  0.00000000000E+00 0. -1.
        -12    1    6    6    0    0  0.13194441437E+03  0.14300594038E+03  0.56163341504E+02  0.20251999505E+03  0.00000000000E+00 0.  1.
</event>
<event>
12    1  0.9656379E-001  0.1165011E+04  0.7818608E-02  0.9144046E-01
          1   -1    0    0  502    0  0.00000000000E+00  0.00000000000E+00  0.16883356572E+04  0.16883356572E+04  0.00000000000E+00 0. -1.
         -1   -1    0    0    0  501 -0.00000000000E+00 -0.00000000000E+00 -0.80467719001E+03  0.80467719001E+03  0.00000000000E+00 0.  1.
          6    2    1    2  502    0  0.36808992523E+03 -0.10919963001E+04  0.40326209784E+03  0.12333031789E+04  0.17455743773E+03 0.  0.
         24    2    3    3    0    0  0.22911572652E+03 -0.53989786399E+03  0.15328444325E+03  0.61150141881E+03  0.80337693466E+02 0.  0.
         -6    2    1    2    0  501 -0.36808992523E+03  0.10919963001E+04  0.48039636932E+03  0.12597096683E+04  0.16775477384E+03 0.  0.
        -24    2    5    5    0    0 -0.35623868251E+03  0.10501204569E+04  0.42791759226E+03  0.11913711708E+04  0.81196230525E+02 0.  0.
          5    1    3    3  502    0  0.13897419871E+03 -0.55209843612E+03  0.24997765459E+03  0.62180176010E+03  0.47000000000E+01 0. -1.
        -13    1    4    4    0    0  0.20328604584E+02 -0.12707779194E+03  0.45463617521E+02  0.13648794044E+03  0.00000000000E+00 0.  1.
         14    1    4    4    0    0  0.20878712194E+03 -0.41282007205E+03  0.10782082573E+03  0.47501347837E+03  0.00000000000E+00 0. -1.
         -5    1    5    5    0  501 -0.11851242721E+02  0.41875843221E+02  0.52478777062E+02  0.68338497506E+02  0.47000000000E+01 0.  1.
         13    1    6    6    0    0 -0.18825680376E+03  0.52671149806E+03  0.25820899191E+03  0.61606615704E+03  0.00000000000E+00 0. -1.
        -14    1    6    6    0    0 -0.16798187875E+03  0.52340895883E+03  0.16970860035E+03  0.57530501371E+03  0.00000000000E+00 0.  1.
</event>
<event>
12    1  0.9656379E-001  0.4430974E+03  0.7818608E-02  0.1029801E+00
          4   -1    0    0  502    0  0.00000000000E+00  0.00000000000E+00  0.72633308535E+03  0.72633308535E+03  0.00000000000E+00 0.  1.
         -4   -1    0    0    0  501 -0.00000000000E+00 -0.00000000000E+00 -0.27386816579E+03  0.27386816579E+03  0.00000000000E+00 0. -1.
          6    2    1    2  502    0 -0.40842470991E+03 -0.10952414340E+02  0.16919989297E+03  0.47424461663E+03  0.17131448735E+03 0.  0.
         24    2    3    3    0    0 -0.18465161208E+03  0.50460397160E+02  0.54453510614E+02  0.21533390810E+03  0.82225529079E+02 0.  0.
         -6    2    1    2    0  501  0.40842470991E+03  0.10952414340E+02  0.28326502658E+03  0.52595663452E+03  0.17164092479E+03 0.  0.
        -24    2    5    5    0    0  0.36272493867E+03  0.35252760376E+02  0.18740289907E+03  0.41691254527E+03  0.76707793415E+02 0.  0.
          5    1    3    3  502    0 -0.22377309783E+03 -0.61412811500E+02  0.11474638235E+03  0.25891070853E+03  0.47000000000E+01 0. -1.
        -11    1    4    4    0    0 -0.16336496680E+03  0.18492536536E+02  0.62864467971E+02  0.17601712308E+03  0.00000000000E+00 0.  1.
         12    1    4    4    0    0 -0.21286645281E+02  0.31967860624E+02 -0.84109573569E+01  0.39316785014E+02  0.00000000000E+00 0. -1.
         -5    1    5    5    0  501  0.45699771235E+02 -0.24300346036E+02  0.95862127516E+02  0.10904408925E+03  0.47000000000E+01 0.  1.
         13    1    6    6    0    0  0.17385500891E+03 -0.20418461541E+02  0.77807195480E+02  0.19156314197E+03  0.00000000000E+00 0. -1.
        -14    1    6    6    0    0  0.18886992977E+03  0.55671221917E+02  0.10959570359E+03  0.22534940329E+03  0.00000000000E+00 0.  1.
</event>
<event>
12    1  0.9656379E-001  0.2937162E+03  0.7818608E-02  0.1088425E+00
          2   -1    0    0  502    0  0.00000000000E+00  0.00000000000E+00  0.14189029552E+04  0.14189029552E+04  0.00000000000E+00 0. -1.
         -2   -1    0    0    0  501 -0.00000000000E+00 -0.00000000000E+00 -0.53831379017E+03  0.53831379017E+03  0.00000000000E+00 0.  1.
          6    2    1    2  502    0 -0.16118179935E+03 -0.17470594224E+03 -0.48142185019E+03  0.56386096839E+03  0.17225113972E+03 0.  0.
         24    2    3    3    0    0 -0.17888559251E+03 -0.10690690173E+03 -0.37200419323E+03  0.43384386244E+03  0.80026472787E+02 0.  0.
         -6    2    1    2    0  501  0.16118179935E+03  0.17470594224E+03  0.13620110152E+04  0.13933557769E+04  0.17281370603E+03 0.  0.
        -24    2    5    5    0    0  0.19874128186E+02  0.10956396004E+03  0.65764197005E+03  0.67198958873E+03  0.81717833272E+02 0.  0.
          5    1    3    3  502    0  0.17703793160E+02 -0.67799040503E+02 -0.10941765696E+03  0.13001710595E+03  0.47000000000E+01 0. -1.
        -13    1    4    4    0    0 -0.16972164283E+03 -0.11899066046E+03 -0.33621921777E+03  0.39497794333E+03  0.00000000000E+00 0.  1.
         14    1    4    4    0    0 -0.91639496750E+01  0.12083758732E+02 -0.35784975467E+02  0.38865919106E+02  0.00000000000E+00 0. -1.
         -5    1    5    5    0  501  0.14130767116E+03  0.65141982196E+02  0.70436904513E+03  0.72136618822E+03  0.47000000000E+01 0.  1.
         13    1    6    6    0    0  0.43191858611E+02  0.92325175629E+02  0.40252587071E+03  0.41523072056E+03  0.00000000000E+00 0. -1.
        -14    1    6    6    0    0 -0.23317730425E+02  0.17238784410E+02  0.25511609934E+03  0.25675886816E+03  0.00000000000E+00 0.  1.
</event>
<event>
12    1  0.9656379E-001  0.3234259E+03  0.7818608E-02  0.1074083E+00
         -1   -1    0    0    0  501 -0.00000000000E+00  0.00000000000E+00  0.15565512648E+04  0.15565512648E+04  0.00000000000E+00 0.  1.
          1   -1    0    0  502    0  0.00000000000E+00 -0.00000000000E+00 -0.13580379142E+04  0.13580379142E+04  0.00000000000E+00 0. -1.
          6    2    1    2  502    0  0.14531562554E+03  0.23127534912E+03  0.15200418643E+04  0.15541421523E+04  0.17385523359E+03 0.  0.
         24    2    3    3    0    0  0.83123679936E+02  0.49528811403E+02  0.47527755723E+03  0.49185490802E+03  0.81669117850E+02 0.  0.
         -6    2    1    2    0  501 -0.14531562554E+03 -0.23127534912E+03 -0.13215285136E+04  0.13604470267E+04  0.17255023050E+03 0.  0.
        -24    2    5    5    0    0 -0.47127580005E+02 -0.14083456890E+03 -0.48589545526E+03  0.51420526147E+03  0.79102925926E+02 0.  0.
          5    1    3    3  502    0  0.62191945601E+02  0.18174653772E+03  0.10447643071E+04  0.10622872443E+04  0.47000000000E+01 0. -1.
        -13    1    4    4    0    0  0.29277161761E+02  0.40398588820E+02  0.36907715755E+03  0.37243408330E+03  0.00000000000E+00 0.  1.
         14    1    4    4    0    0  0.53846518176E+02  0.91302225835E+01  0.10620039968E+03  0.11942082472E+03  0.00000000000E+00 0. -1.
         -5    1    5    5    0  501 -0.98188045533E+02 -0.90440780222E+02 -0.83563305838E+03  0.84624176526E+03  0.47000000000E+01 0.  1.
         11    1    6    6    0    0 -0.45118563717E+02 -0.95254276712E+02 -0.42637984239E+03  0.43921387958E+03  0.00000000000E+00 0. -1.
        -12    1    6    6    0    0 -0.20090162879E+01 -0.45580292185E+02 -0.59515612872E+02  0.74991381889E+02  0.00000000000E+00 0.  1.
</event>
<event>
12    1  0.9656379E-001  0.2749151E+03  0.7818608E-02  0.1098499E+00
          2   -1    0    0  502    0  0.00000000000E+00  0.00000000000E+00  0.24779710006E+04  0.24779710006E+04  0.00000000000E+00 0. -1.
         -2   -1    0    0    0  501 -0.00000000000E+00 -0.00000000000E+00 -0.21130326267E+03  0.21130326267E+03  0.00000000000E+00 0.  1.
          6    2    1    2  502    0  0.27220381590E+02 -0.21210607637E+03 -0.11042666018E+03  0.29634557024E+03  0.17290665955E+03 0.  0.
         24    2    3    3    0    0  0.28549951160E+02 -0.42681724110E+02  0.77688596525E+00  0.93627298817E+02  0.78285619674E+02 0.  0.
         -6    2    1    2    0  501 -0.27220381590E+02  0.21210607637E+03  0.23770943981E+04  0.23929286930E+04  0.17262681002E+03 0.  0.
        -24    2    5    5    0    0  0.31876206242E+02  0.17033913816E+03  0.20008391772E+04  0.20097486243E+04  0.75502352551E+02 0.  0.
          5    1    3    3  502    0 -0.13295695702E+01 -0.16942435226E+03 -0.11120354615E+03  0.20271827142E+03  0.47000000000E+01 0. -1.
        -11    1    4    4    0    0  0.28852372450E+02 -0.47652370826E+02 -0.29436906835E+02  0.63005867388E+02  0.00000000000E+00 0.  1.
         12    1    4    4    0    0 -0.30242128978E+00  0.49706467161E+01  0.30213792800E+02  0.30621431429E+02  0.00000000000E+00 0. -1.
         -5    1    5    5    0  501 -0.59096587832E+02  0.41766938206E+02  0.37625522091E+03  0.38318006874E+03  0.47000000000E+01 0.  1.
         13    1    6    6    0    0  0.38971537118E+02  0.32353124230E+02  0.49575661204E+03  0.49833735936E+03  0.00000000000E+00 0. -1.
        -14    1    6    6    0    0 -0.70953308761E+01  0.13798601393E+03  0.15050825652E+04  0.15114112649E+04  0.00000000000E+00 0.  1.
</event>
<event>
12    1  0.9656379E-001  0.3645947E+03  0.7818608E-02  0.1056779E+00
          1   -1    0    0  502    0  0.00000000000E+00  0.00000000000E+00  0.35683058984E+04  0.35683058984E+04  0.00000000000E+00 0. -1.
         -1   -1    0    0    0  501 -0.00000000000E+00 -0.00000000000E+00 -0.46735082354E+02  0.46735082354E+02  0.00000000000E+00 0.  1.
          6    2    1    2  502    0  0.25833084641E+03  0.18891577249E+03  0.25726828422E+04  0.25983064173E+04  0.17342213201E+03 0.  0.
         24    2    3    3    0    0  0.16293532292E+03  0.11662160166E+03  0.11111660528E+04  0.11318889566E+04  0.79587032795E+02 0.  0.
         -6    2    1    2    0  501 -0.25833084641E+03 -0.18891577249E+03  0.94888797383E+03  0.10167345635E+04  0.17588857408E+03 0.  0.
        -24    2    5    5    0    0 -0.56464418758E+02 -0.18022916861E+02  0.21691982749E+03  0.23843264269E+03  0.79264477706E+02 0.  0.
          5    1    3    3  502    0  0.95395523492E+02  0.72294170827E+02  0.14615167894E+04  0.14664174606E+04  0.47000000000E+01 0. -1.
        -11    1    4    4    0    0  0.41083086746E+02  0.70769423025E+02  0.53303463849E+03  0.53927920142E+03  0.00000000000E+00 0.  1.
         12    1    4    4    0    0  0.12185223617E+03  0.45852178634E+02  0.57813141432E+03  0.59260975521E+03  0.00000000000E+00 0. -1.
         -5    1    5    5    0  501 -0.20186642765E+03 -0.17089285562E+03  0.73196814634E+03  0.77830192084E+03  0.47000000000E+01 0.  1.
         13    1    6    6    0    0 -0.50926089969E+02 -0.42745775159E+02  0.10983559203E+03  0.12839207612E+03  0.00000000000E+00 0. -1.
        -14    1    6    6    0    0 -0.55383287898E+01  0.24722858298E+02  0.10708423546E+03  0.11004056658E+03  0.00000000000E+00 0.  1.
</event>
<event>
12    1  0.9656379E-001  0.2599309E+03  0.7818608E-02  0.1107185E+00
          2   -1    0    0  502    0  0.00000000000E+00  0.00000000000E+00  0.56274783909E+03  0.56274783909E+03  0.00000000000E+00 0. -1.
         -2   -1    0    0    0  501 -0.00000000000E+00 -0.00000000000E+00 -0.15563044062E+03  0.15563044062E+03  0.00000000000E+00 0.  1.
          6    2    1    2  502    0 -0.71018847421E+02  0.18156499437E+03  0.31786925345E+02  0.26177788095E+03  0.17177813149E+03 0.  0.
         24    2    3    3    0    0 -0.97201014271E+02  0.12820068504E+03 -0.22236182994E+02  0.18131769448E+03  0.80611448798E+02 0.  0.
         -6    2    1    2    0  501  0.71018847421E+02 -0.18156499437E+03  0.37533047313E+03  0.45660039877E+03  0.17205067924E+03 0.  0.
        -24    2    5    5    0    0  0.10700274654E+03 -0.14091299003E+03  0.33994646160E+03  0.39162698325E+03  0.80635220141E+02 0.  0.
          5    1    3    3  502    0  0.26182166850E+02  0.53364309332E+02  0.54023108339E+02  0.80460186466E+02  0.47000000000E+01 0. -1.
        -13    1    4    4    0    0 -0.60789338097E+02  0.10278532820E+03  0.18762105237E+02  0.12088086661E+03  0.00000000000E+00 0.  1.
         14    1    4    4    0    0 -0.36411676174E+02  0.25415356840E+02 -0.40998288231E+02  0.60436827870E+02  0.00000000000E+00 0. -1.
         -5    1    5    5    0  501 -0.35983899117E+02 -0.40652004339E+02  0.35384011525E+02  0.64973415518E+02  0.47000000000E+01 0.  1.
         13    1    6    6    0    0  0.40716004699E+02 -0.96046912965E+02  0.25183482075E+03  0.27258682923E+03  0.00000000000E+00 0. -1.
        -14    1    6    6    0    0  0.66286741839E+02 -0.44866077068E+02  0.88111640854E+02  0.11904015402E+03  0.00000000000E+00 0.  1.
</event>
<event>
12    1  0.9656379E-001  0.4505281E+03  0.7818608E-02  0.1027565E+00
         -1   -1    0    0    0  501 -0.00000000000E+00  0.00000000000E+00  0.40942007160E+03  0.40942007160E+03  0.00000000000E+00 0.  1.
          1   -1    0    0  502    0  0.00000000000E+00 -0.00000000000E+00 -0.50618711550E+03  0.50618711550E+03  0.00000000000E+00 0. -1.
          6    2    1    2  502    0  0.34752996073E+03 -0.22924444766E+03  0.17318861915E+02  0.45078788474E+03  0.17198745203E+03 0.  0.
         24    2    3    3    0    0  0.33648043042E+03 -0.24997199984E+03  0.15923569659E+02  0.42679287734E+03  0.78698915585E+02 0.  0.
         -6    2    1    2    0  501 -0.34752996073E+03  0.22924444766E+03 -0.11408590582E+03  0.46481930236E+03  0.17236965959E+03 0.  0.
        -24    2    5    5    0    0 -0.11637406137E+03  0.30556046116E+02 -0.57538580380E+02  0.15477120813E+03  0.78529259004E+02 0.  0.
          5    1    3    3  502    0  0.11049530313E+02  0.20727552180E+02  0.13952922556E+01  0.23995007397E+02  0.47000000000E+01 0. -1.
        -13    1    4    4    0    0  0.12507605216E+03 -0.10046724291E+03 -0.31674782602E+02  0.16352668765E+03  0.00000000000E+00 0.  1.
         14    1    4    4    0    0  0.21140437826E+03 -0.14950475694E+03  0.47598352261E+02  0.26326618969E+03  0.00000000000E+00 0. -1.
         -5    1    5    5    0  501 -0.23115589936E+03  0.19868840155E+03 -0.56547325435E+02  0.31004809423E+03  0.47000000000E+01 0.  1.
         11    1    6    6    0    0 -0.10267341867E+03  0.37099838194E+02 -0.15738815771E+02  0.11029931648E+03  0.00000000000E+00 0. -1.
        -12    1    6    6    0    0 -0.13700642703E+02 -0.65437920783E+01 -0.41799764609E+02  0.44471891646E+02  0.00000000000E+00 0.  1.
</event>
<event>
12    1  0.9656379E-001  0.3387277E+03  0.7818608E-02  0.1067339E+00
         -2   -1    0    0    0  501 -0.00000000000E+00  0.00000000000E+00  0.56185003559E+03  0.56185003559E+03  0.00000000000E+00 0.  1.
          2   -1    0    0  502    0  0.00000000000E+00 -0.00000000000E+00 -0.53620898251E+03  0.53620898251E+03  0.00000000000E+00 0. -1.
          6    2    1    2  502    0  0.24839364613E+03 -0.15287065392E+03  0.44483102197E+03  0.55905341310E+03  0.17203848502E+03 0.  0.
         24    2    3    3    0    0  0.26386777037E+03 -0.14683230778E+03  0.37963687730E+03  0.49161250086E+03  0.79829603199E+02 0.  0.
         -6    2    1    2    0  501 -0.24839364613E+03  0.15287065392E+03 -0.41918996889E+03  0.53900560500E+03  0.17244701199E+03 0.  0.
        -24    2    5    5    0    0 -0.11786071051E+03  0.64696727262E+02 -0.31018522882E+03  0.34738720302E+03  0.79913572318E+02 0.  0.
          5    1    3    3  502    0 -0.15474124242E+02 -0.60383461397E+01  0.65194144664E+02  0.67440912239E+02  0.47000000000E+01 0. -1.
        -13    1    4    4    0    0  0.18892113776E+03 -0.89426948614E+02  0.31174011231E+03  0.37532688826E+03  0.00000000000E+00 0.  1.
         14    1    4    4    0    0  0.74946632612E+02 -0.57405359167E+02  0.67896764994E+02  0.11628561260E+03  0.00000000000E+00 0. -1.
         -5    1    5    5    0  501 -0.13053293561E+03  0.88173926658E+02 -0.10900474007E+03  0.19161840198E+03  0.47000000000E+01 0.  1.
         13    1    6    6    0    0 -0.39598312943E+00  0.30682895661E+02 -0.95575574181E+02  0.10038071164E+03  0.00000000000E+00 0. -1.
        -14    1    6    6    0    0 -0.11746472738E+03  0.34013831602E+02 -0.21460965464E+03  0.24700649138E+03  0.00000000000E+00 0.  1.
</event>
<event>
12    1  0.9656379E-001  0.2439989E+03  0.7818608E-02  0.1117157E+00
         -2   -1    0    0    0  501 -0.00000000000E+00  0.00000000000E+00  0.60465745945E+02  0.60465745945E+02  0.00000000000E+00 0.  1.
          2   -1    0    0  502    0  0.00000000000E+00 -0.00000000000E+00 -0.98463826159E+03  0.98463826159E+03  0.00000000000E+00 0. -1.
          6    2    1    2  502    0  0.19566587655E+02  0.17155751958E+03 -0.46497038512E+03  0.52519227392E+03  0.17266913932E+03 0.  0.
         24    2    3    3    0    0 -0.47187276828E+02  0.13317009113E+03 -0.26185228635E+03  0.30791658469E+03  0.79278565776E+02 0.  0.
         -6    2    1    2    0  501 -0.19566587655E+02 -0.17155751958E+03 -0.45920213053E+03  0.51991173361E+03  0.17212431609E+03 0.  0.
        -24    2    5    5    0    0 -0.37147064066E+02 -0.18701000723E+03 -0.44865323470E+03  0.49381150893E+03  0.78787271637E+02 0.  0.
          5    1    3    3  502    0  0.66753864482E+02  0.38387428454E+02 -0.20311809876E+03  0.21727568923E+03  0.47000000000E+01 0. -1.
        -13    1    4    4    0    0 -0.22871432526E+02  0.84673311424E+02 -0.22720313877E+03  0.24354453055E+03  0.00000000000E+00 0.  1.
         14    1    4    4    0    0 -0.24315844302E+02  0.48496779702E+02 -0.34649147582E+02  0.64372054137E+02  0.00000000000E+00 0. -1.
         -5    1    5    5    0  501  0.17580476411E+02  0.15452487644E+02 -0.10548895821E+02  0.26100224679E+02  0.47000000000E+01 0.  1.
         13    1    6    6    0    0 -0.38086212259E+02 -0.67379542607E+02 -0.25208821056E+03  0.26370253740E+03  0.00000000000E+00 0. -1.
        -14    1    6    6    0    0  0.93914819259E+00 -0.11963046462E+03 -0.19656502414E+03  0.23010897153E+03  0.00000000000E+00 0.  1.
</event>
<event>
12    1  0.9656379E-001  0.9076173E+03  0.7818608E-02  0.9416109E-01
         -1   -1    0    0    0  501 -0.00000000000E+00  0.00000000000E+00  0.45046018352E+03  0.45046018352E+03  0.00000000000E+00 0.  1.
          1   -1    0    0  502    0  0.00000000000E+00 -0.00000000000E+00 -0.18966901914E+04  0.18966901914E+04  0.00000000000E+00 0. -1.
          6    2    1    2  502    0 -0.58615074245E+02 -0.88854235945E+03 -0.50054243056E+03  0.10360075798E+04  0.17270127143E+03 0.  0.
         24    2    3    3    0    0 -0.67217793622E+02 -0.88188236192E+03 -0.50689859385E+03  0.10225594141E+04  0.80292209888E+02 0.  0.
         -6    2    1    2    0  501  0.58615074245E+02  0.88854235945E+03 -0.94568757734E+03  0.13111427952E+04  0.17840174852E+03 0.  0.
        -24    2    5    5    0    0  0.10545269279E+03  0.53493277756E+03 -0.59394201965E+03  0.81016322843E+03  0.79523500114E+02 0.  0.
          5    1    3    3  502    0  0.86027193768E+01 -0.66599975248E+01  0.63561632872E+01  0.13448165653E+02  0.47000000000E+01 0. -1.
        -13    1    4    4    0    0  0.11081531796E+02 -0.31444953645E+03 -0.16150002659E+03  0.35367155655E+03  0.00000000000E+00 0.  1.
         14    1    4    4    0    0 -0.78299325418E+02 -0.56743282547E+03 -0.34539856726E+03  0.66888785760E+03  0.00000000000E+00 0. -1.
         -5    1    5    5    0  501 -0.46837618548E+02  0.35360958189E+03 -0.35174555769E+03  0.50097956672E+03  0.47000000000E+01 0.  1.
         11    1    6    6    0    0  0.87608501337E+02  0.51986302485E+03 -0.57490850902E+03  0.78003372226E+03  0.00000000000E+00 0. -1.
        -12    1    6    6    0    0  0.17844191456E+02  0.15069752709E+02 -0.19033510634E+02  0.30129506177E+02  0.00000000000E+00 0.  1.
</event>
<event>
12    1  0.9656379E-001  0.3093667E+03  0.7818608E-02  0.1080650E+00
          2   -1    0    0  502    0  0.00000000000E+00  0.00000000000E+00  0.11960035472E+03  0.11960035472E+03  0.00000000000E+00 0. -1.
         -2   -1    0    0    0  501 -0.00000000000E+00 -0.00000000000E+00 -0.16333496249E+04  0.16333496249E+04  0.00000000000E+00 0.  1.
          6    2    1    2  502    0 -0.71900294207E+02 -0.24772385882E+03 -0.13817570547E+04  0.14157692171E+04  0.16915423516E+03 0.  0.
         24    2    3    3    0    0 -0.93475989698E+02 -0.99449885290E+02 -0.68215248036E+03  0.70028383477E+03  0.80233424705E+02 0.  0.
         -6    2    1    2    0  501  0.71900294207E+02  0.24772385882E+03 -0.13199221551E+03  0.33718076256E+03  0.17243015731E+03 0.  0.
        -24    2    5    5    0    0  0.11227914486E+03  0.22355508055E+03 -0.11262438703E+03  0.28607514445E+03  0.81063279624E+02 0.  0.
          5    1    3    3  502    0  0.21575695492E+02 -0.14827397353E+03 -0.69960457434E+03  0.71548538231E+03  0.47000000000E+01 0. -1.
        -13    1    4    4    0    0 -0.71033029384E+02 -0.93897547362E+02 -0.65059954823E+03  0.66116731077E+03  0.00000000000E+00 0.  1.
         14    1    4    4    0    0 -0.22442960314E+02 -0.55523379277E+01 -0.31552932129E+02  0.39116524003E+02  0.00000000000E+00 0. -1.
         -5    1    5    5    0  501 -0.40378850653E+02  0.24168778269E+02 -0.19367828474E+02  0.51105618115E+02  0.47000000000E+01 0.  1.
         13    1    6    6    0    0  0.69474115133E+02  0.97611260865E+02 -0.14299968828E+02  0.12066109576E+03  0.00000000000E+00 0. -1.
        -14    1    6    6    0    0  0.42805029727E+02  0.12594381969E+03 -0.98324418207E+02  0.16541404869E+03  0.00000000000E+00 0.  1.
</event>
<event>
12    1  0.9656379E-001  0.4132668E+03  0.7818608E-02  0.1039280E+00
          2   -1    0    0  502    0  0.00000000000E+00  0.00000000000E+00  0.63445443061E+03  0.63445443061E+03  0.00000000000E+00 0. -1.
         -2   -1    0    0    0  501 -0.00000000000E+00 -0.00000000000E+00 -0.38107085457E+03  0.38107085457E+03  0.00000000000E+00 0.  1.
          6    2    1    2  502    0  0.29240339219E+03 -0.23660064223E+03 -0.14858758422E+03  0.43850148334E+03  0.16948649810E+03 0.  0.
         24    2    3    3    0    0  0.28186880841E+03 -0.25606844766E+03 -0.14672644186E+03  0.41579626908E+03  0.79604105418E+02 0.  0.
         -6    2    1    2    0  501 -0.29240339219E+03  0.23660064223E+03  0.40197116025E+03  0.57702380184E+03  0.17290473256E+03 0.  0.
        -24    2    5    5    0    0 -0.20058146202E+03  0.20372077869E+03  0.36926606084E+03  0.47404775697E+03  0.81417280909E+02 0.  0.
          5    1    3    3  502    0  0.10534583788E+02  0.19467805429E+02 -0.18611423546E+01  0.22705214262E+02  0.47000000000E+01 0. -1.
        -11    1    4    4    0    0  0.13839840467E+03 -0.76907084413E+02 -0.44009977658E+02  0.16433409926E+03  0.00000000000E+00 0.  1.
         12    1    4    4    0    0  0.14347040374E+03 -0.17916136325E+03 -0.10271646421E+03  0.25146216982E+03  0.00000000000E+00 0. -1.
         -5    1    5    5    0  501 -0.91821930180E+02  0.32879863544E+02  0.32705099414E+02  0.10297604487E+03  0.47000000000E+01 0.  1.
         13    1    6    6    0    0 -0.91686845496E+02  0.14272107424E+03  0.18006291117E+03  0.24738317373E+03  0.00000000000E+00 0. -1.
        -14    1    6    6    0    0 -0.10889461652E+03  0.60999704454E+02  0.18920314967E+03  0.22666458324E+03  0.00000000000E+00 0.  1.
</event>
<event>
12    1  0.9656379E-001  0.7170875E+03  0.7818608E-02  0.9688448E-01
          2   -1    0    0  502    0  0.00000000000E+00  0.00000000000E+00  0.55372722647E+03  0.55372722647E+03  0.00000000000E+00 0. -1.
         -2   -1    0    0    0  501 -0.00000000000E+00 -0.00000000000E+00 -0.10554991917E+04  0.10554991917E+04  0.00000000000E+00 0.  1.
          6    2    1    2  502    0  0.17360615916E+03 -0.67405292824E+03 -0.52989669980E+03  0.89180768708E+03  0.17333202163E+03 0.  0.
         24    2    3    3    0    0  0.84141802471E+02 -0.21148562922E+03 -0.22847570849E+03  0.33247855210E+03  0.80838257953E+02 0.  0.
         -6    2    1    2    0  501 -0.17360615916E+03  0.67405292824E+03  0.28124734607E+02  0.71741873105E+03  0.17149981457E+03 0.  0.
        -24    2    5    5    0    0 -0.57986169658E+02  0.41549370364E+03  0.62674125322E+02  0.43204773569E+03  0.82096201424E+02 0.  0.
          5    1    3    3  502    0  0.89464356690E+02 -0.46256729902E+03 -0.30142099131E+03  0.55932913498E+03  0.47000000000E+01 0. -1.
        -13    1    4    4    0    0  0.45005952478E+02 -0.18911416076E+03 -0.20130088811E+03  0.27984236475E+03  0.00000000000E+00 0.  1.
         14    1    4    4    0    0  0.39135849994E+02 -0.22371468459E+02 -0.27174820383E+02  0.52636187348E+02  0.00000000000E+00 0. -1.
         -5    1    5    5    0  501 -0.11561998950E+03  0.25855922459E+03 -0.34549390715E+02  0.28537099536E+03  0.47000000000E+01 0.  1.
         11    1    6    6    0    0 -0.36058848921E+01  0.15762159062E+01  0.10638256348E+02  0.11342810964E+02  0.00000000000E+00 0. -1.
        -12    1    6    6    0    0 -0.54380284766E+02  0.41391748774E+03  0.52035868973E+02  0.42070492472E+03  0.00000000000E+00 0.  1.
</event>
<event>
12    1  0.9656379E-001  0.2084168E+03  0.7818608E-02  0.1142826E+00
         -1   -1    0    0    0  501 -0.00000000000E+00  0.00000000000E+00  0.37513201289E+02  0.37513201289E+02  0.00000000000E+00 0.  1.
          1   -1    0    0  502    0  0.00000000000E+00 -0.00000000000E+00 -0.12913832807E+04  0.12913832807E+04  0.00000000000E+00 0. -1.
          6    2    1    2  502    0 -0.55605258919E+01 -0.11674234310E+03 -0.41281632004E+03  0.46235776707E+03  0.17233019628E+03 0.  0.
         24    2    3    3    0    0 -0.46557265148E+02 -0.10063314215E+02 -0.21477016647E+03  0.23365377327E+03  0.78733805480E+02 0.  0.
         -6    2    1    2    0  501  0.55605258919E+01  0.11674234310E+03 -0.84105375938E+03  0.86653871494E+03  0.17279532458E+03 0.  0.
        -24    2    5    5    0    0  0.23066617209E+02  0.37578222144E+02 -0.68129132431E+03  0.68731944437E+03  0.79410065049E+02 0.  0.
          5    1    3    3  502    0  0.40996739256E+02 -0.10667902889E+03 -0.19804615358E+03  0.22870399380E+03  0.47000000000E+01 0. -1.
        -13    1    4    4    0    0 -0.37391718718E+02  0.15382724298E+02 -0.40253031771E+02  0.57053268112E+02  0.00000000000E+00 0.  1.
         14    1    4    4    0    0 -0.91655464301E+01 -0.25446038513E+02 -0.17451713470E+03  0.17660050515E+03  0.00000000000E+00 0. -1.
         -5    1    5    5    0  501 -0.17506091317E+02  0.79164120957E+02 -0.15976243507E+03  0.17921927056E+03  0.47000000000E+01 0.  1.
         13    1    6    6    0    0  0.37517962310E+02  0.54703319064E+02 -0.43743899604E+03  0.44243974265E+03  0.00000000000E+00 0. -1.
        -14    1    6    6    0    0 -0.14451345102E+02 -0.17125096919E+02 -0.24385232826E+03  0.24487970173E+03  0.00000000000E+00 0.  1.
</event>
<event>
12    1  0.9656379E-001  0.4355608E+03  0.7818608E-02  0.1032118E+00
          1   -1    0    0  502    0  0.00000000000E+00  0.00000000000E+00  0.70589368720E+03  0.70589368720E+03  0.00000000000E+00 0. -1.
         -1   -1    0    0    0  501 -0.00000000000E+00 -0.00000000000E+00 -0.58169159080E+03  0.58169159080E+03  0.00000000000E+00 0.  1.
          6    2    1    2  502    0 -0.30627758980E+03 -0.25743237950E+03 -0.41010066999E+03  0.59823805637E+03  0.17213024293E+03 0.  0.
         24    2    3    3    0    0 -0.24004681010E+03 -0.12664174847E+03 -0.22263505303E+03  0.36020832527E+03  0.80765507854E+02 0.  0.
         -6    2    1    2    0  501  0.30627758980E+03  0.25743237950E+03  0.53430276640E+03  0.68934722164E+03  0.17217071111E+03 0.  0.
        -24    2    5    5    0    0  0.97891506905E+02  0.73976442789E+02  0.26446054332E+03  0.30215507862E+03  0.79391758696E+02 0.  0.
          5    1    3    3  502    0 -0.66230779696E+02 -0.13079063103E+03 -0.18746561696E+03  0.23802973110E+03  0.47000000000E+01 0. -1.
        -13    1    4    4    0    0 -0.24286232536E+03 -0.13250162628E+03 -0.21796040177E+03  0.35220097499E+03  0.00000000000E+00 0.  1.
         14    1    4    4    0    0  0.28155152557E+01  0.58598778073E+01 -0.46746512648E+01  0.80073502807E+01  0.00000000000E+00 0. -1.
         -5    1    5    5    0  501  0.20838608289E+03  0.18345593671E+03  0.26984222308E+03  0.38719214302E+03  0.47000000000E+01 0.  1.
         11    1    6    6    0    0  0.80261600251E+02  0.78578109987E+02  0.26024963478E+03  0.28345425777E+03  0.00000000000E+00 0. -1.
        -12    1    6    6    0    0  0.17629906653E+02 -0.46016671988E+01  0.42109085389E+01  0.18700820847E+02  0.00000000000E+00 0.  1.
</event>
<event>
12    1  0.9656379E-001  0.4457824E+03  0.7818608E-02  0.1028987E+00
          2   -1    0    0  502    0  0.00000000000E+00  0.00000000000E+00  0.17716389565E+04  0.17716389565E+04  0.00000000000E+00 0. -1.
         -2   -1    0    0    0  501 -0.00000000000E+00 -0.00000000000E+00 -0.36882471245E+03  0.36882471245E+03  0.00000000000E+00 0.  1.
          6    2    1    2  502    0 -0.26680762305E+01 -0.41254583743E+03 -0.19085545084E+03  0.48590958274E+03  0.17170070726E+03 0.  0.
         24    2    3    3    0    0  0.25456194968E+02 -0.38788286517E+03 -0.20375445148E+03  0.44606349072E+03  0.79722182007E+02 0.  0.
         -6    2    1    2    0  501  0.26680762305E+01  0.41254583743E+03  0.15936696949E+04  0.16545540862E+04  0.16602692913E+03 0.  0.
        -24    2    5    5    0    0 -0.34609863295E+02  0.33876752512E+03  0.11046189402E+04  0.11585443940E+04  0.77979683470E+02 0.  0.
          5    1    3    3  502    0 -0.28124271199E+02 -0.24662972258E+02  0.12899000645E+02  0.39846092013E+02  0.47000000000E+01 0. -1.
        -13    1    4    4    0    0 -0.26036138534E+02 -0.15515954134E+03 -0.64686913417E+02  0.17010808489E+03  0.00000000000E+00 0.  1.
         14    1    4    4    0    0  0.51492333503E+02 -0.23272332383E+03 -0.13906753807E+03  0.27595540583E+03  0.00000000000E+00 0. -1.
         -5    1    5    5    0  501  0.37277939525E+02  0.73778312305E+02  0.48905075466E+03  0.49600969222E+03  0.47000000000E+01 0.  1.
         13    1    6    6    0    0 -0.49972261662E+02  0.23083873330E+03  0.83382101258E+03  0.86662634898E+03  0.00000000000E+00 0. -1.
        -14    1    6    6    0    0  0.15362398367E+02  0.10792879182E+03  0.27079792767E+03  0.29191804503E+03  0.00000000000E+00 0.  1.
</event>
<event>
12    1  0.9656379E-001  0.4417335E+03  0.7818608E-02  0.1030216E+00
         -2   -1    0    0    0  501 -0.00000000000E+00  0.00000000000E+00  0.74726675463E+02  0.74726675463E+02  0.00000000000E+00 0.  1.
          2   -1    0    0  502    0  0.00000000000E+00 -0.00000000000E+00 -0.28123641333E+04  0.28123641333E+04  0.00000000000E+00 0. -1.
          6    2    1    2  502    0  0.18568816938E+03  0.36268661021E+03 -0.98394632889E+03  0.10787208280E+04  0.17165830377E+03 0.  0.
         24    2    3    3    0    0  0.17639042482E+03  0.22278265905E+03 -0.57122237945E+03  0.64280488197E+03  0.78469193694E+02 0.  0.
         -6    2    1    2    0  501 -0.18568816938E+03 -0.36268661021E+03 -0.17536911290E+04  0.18083699807E+04  0.16955157895E+03 0.  0.
        -24    2    5    5    0    0 -0.17201010749E+03 -0.37282307170E+03 -0.16018423616E+04  0.16554975654E+04  0.78668403191E+02 0.  0.
          5    1    3    3  502    0  0.92977445622E+01  0.13990395116E+03 -0.41272394943E+03  0.43591594607E+03  0.47000000000E+01 0. -1.
        -13    1    4    4    0    0  0.82972836194E+02  0.12984041730E+03 -0.22829395889E+03  0.27542904200E+03  0.00000000000E+00 0.  1.
         14    1    4    4    0    0  0.93417588623E+02  0.92942241745E+02 -0.34292842057E+03  0.36737583997E+03  0.00000000000E+00 0. -1.
         -5    1    5    5    0  501 -0.13678061886E+02  0.10136461486E+02 -0.15184876733E+03  0.15287241532E+03  0.47000000000E+01 0.  1.
         13    1    6    6    0    0  0.30398050659E+01 -0.53605032814E+02 -0.18560432258E+03  0.19321414161E+03  0.00000000000E+00 0. -1.
        -14    1    6    6    0    0 -0.17504991256E+03 -0.31921803888E+03 -0.14162380390E+04  0.14622834238E+04  0.00000000000E+00 0.  1.
</event>
<event>
12    1  0.9656379E-001  0.4245808E+03  0.7818608E-02  0.1035586E+00
         -2   -1    0    0    0  501 -0.00000000000E+00  0.00000000000E+00  0.31353582084E+03  0.31353582084E+03  0.00000000000E+00 0.  1.
          2   -1    0    0  502    0  0.00000000000E+00 -0.00000000000E+00 -0.16074485963E+04  0.16074485963E+04  0.00000000000E+00 0. -1.
          6    2    1    2  502    0  0.35680393726E+03  0.15583137034E+03  0.12194099481E+03  0.44330307368E+03  0.17336534629E+03 0.  0.
         24    2    3    3    0    0  0.32430646450E+03  0.14792416723E+03  0.15405572571E+03  0.39669775706E+03  0.81115360227E+02 0.  0.
         -6    2    1    2    0  501 -0.35680393726E+03 -0.15583137034E+03 -0.14158537703E+04  0.14776813434E+04  0.16525068349E+03 0.  0.
        -24    2    5    5    0    0 -0.12319709424E+03 -0.92068035454E+02 -0.45968972449E+03  0.49131949686E+03  0.80163320873E+02 0.  0.
          5    1    3    3  502    0  0.32497472759E+02  0.79072031087E+01 -0.32114730897E+02  0.46605316621E+02  0.47000000000E+01 0. -1.
        -11    1    4    4    0    0  0.11594234437E+03  0.75356127230E+02  0.23313410343E+02  0.14023083909E+03  0.00000000000E+00 0.  1.
         12    1    4    4    0    0  0.20836412012E+03  0.72568040001E+02  0.13074231537E+03  0.25646691797E+03  0.00000000000E+00 0. -1.
         -5    1    5    5    0  501 -0.23360684302E+03 -0.63763334886E+02 -0.95616404577E+03  0.98636184659E+03  0.47000000000E+01 0.  1.
         13    1    6    6    0    0 -0.46630184985E+02 -0.47765679345E+02 -0.31285488044E+03  0.31989703107E+03  0.00000000000E+00 0. -1.
        -14    1    6    6    0    0 -0.76566909256E+02 -0.44302356108E+02 -0.14683484405E+03  0.17142246579E+03  0.00000000000E+00 0.  1.
</event>
<event>
12    1  0.9656379E-001  0.1019808E+04  0.7818608E-02  0.9287083E-01
         -2   -1    0    0    0  501 -0.00000000000E+00  0.00000000000E+00  0.65766722807E+03  0.65766722807E+03  0.00000000000E+00 0.  1.
          2   -1    0    0  502    0  0.00000000000E+00 -0.00000000000E+00 -0.29165475413E+04  0.29165475413E+04  0.00000000000E+00 0. -1.
          6    2    1    2  502    0 -0.61109722141E+03 -0.79780539420E+03  0.79910882398E+02  0.10226333162E+04  0.17163883388E+03 0.  0.
         24    2    3    3    0    0 -0.53547910651E+03 -0.72680531767E+03  0.11090666196E+03  0.91427309050E+03  0.92796298662E+02 0.  0.
         -6    2    1    2    0  501  0.61109722141E+03  0.79780539420E+03 -0.23387911957E+04  0.25515814532E+04  0.17518674110E+03 0.  0.
        -24    2    5    5    0    0  0.35661782562E+03  0.41723487191E+03 -0.14367200558E+04  0.15399747525E+04  0.78080138108E+02 0.  0.
          5    1    3    3  502    0 -0.75618114901E+02 -0.71000076531E+02 -0.30995779557E+02  0.10836022572E+03  0.47000000000E+01 0. -1.
        -13    1    4    4    0    0 -0.26417111327E+03 -0.35349325318E+03  0.75925375745E+01  0.44136323336E+03  0.00000000000E+00 0.  1.
         14    1    4    4    0    0 -0.27130799325E+03 -0.37331206448E+03  0.10331412438E+03  0.47290985715E+03  0.00000000000E+00 0. -1.
         -5    1    5    5    0  501  0.25447939579E+03  0.38057052229E+03 -0.90207113991E+03  0.10116067006E+04  0.47000000000E+01 0.  1.
         13    1    6    6    0    0  0.33997653944E+03  0.41577401714E+03 -0.13793654593E+04  0.14802368564E+04  0.00000000000E+00 0. -1.
        -14    1    6    6    0    0  0.16641286186E+02  0.14608547681E+01 -0.57354596403E+02  0.59737896106E+02  0.00000000000E+00 0.  1.
</event>
<event>
12    1  0.9656379E-001  0.5752278E+03  0.7818608E-02  0.9958177E-01
         -2   -1    0    0    0  501 -0.00000000000E+00  0.00000000000E+00  0.19258665803E+03  0.19258665803E+03  0.00000000000E+00 0.  1.
          2   -1    0    0  502    0  0.00000000000E+00 -0.00000000000E+00 -0.19235142901E+04  0.19235142901E+04  0.00000000000E+00 0. -1.
          6    2    1    2  502    0 -0.28845079752E+03  0.46840826908E+03 -0.51882171054E+03  0.77413942217E+03  0.16584845040E+03 0.  0.
         24    2    3    3    0    0 -0.23568962553E+03  0.45707389272E+03 -0.47395856378E+03  0.70380449987E+03  0.78980446117E+02 0.  0.
         -6    2    1    2    0  501  0.28845079752E+03 -0.46840826908E+03 -0.12121059215E+04  0.13419615259E+04  0.17044002754E+03 0.  0.
        -24    2    5    5    0    0  0.22589765858E+03 -0.44008697245E+03 -0.11196265993E+04  0.12266814059E+04  0.80481390834E+02 0.  0.
          5    1    3    3  502    0 -0.52761171995E+02  0.11334376355E+02 -0.44863146763E+02  0.70334922302E+02  0.47000000000E+01 0. -1.
        -13    1    4    4    0    0 -0.20974559587E+03  0.35621636466E+03 -0.34791076100E+03  0.54030103744E+03  0.00000000000E+00 0.  1.
         14    1    4    4    0    0 -0.25944029658E+02  0.10085752806E+03 -0.12604780277E+03  0.16350346242E+03  0.00000000000E+00 0. -1.
         -5    1    5    5    0  501  0.62553138944E+02 -0.28321296629E+02 -0.92479322151E+02  0.11528011997E+03  0.47000000000E+01 0.  1.
         11    1    6    6    0    0  0.65939130503E+02 -0.17434442814E+03 -0.34236917369E+03  0.38982124063E+03  0.00000000000E+00 0. -1.
        -12    1    6    6    0    0  0.15995852808E+03 -0.26574254431E+03 -0.77725742565E+03  0.83686016532E+03  0.00000000000E+00 0.  1.
</event>
<event>
12    1  0.9656379E-001  0.5734256E+03  0.7818608E-02  0.9962127E-01
         -1   -1    0    0    0  501 -0.00000000000E+00  0.00000000000E+00  0.15279455599E+03  0.15279455599E+03  0.00000000000E+00 0.  1.
          1   -1    0    0  502    0  0.00000000000E+00 -0.00000000000E+00 -0.21532753648E+04  0.21532753648E+04  0.00000000000E+00 0. -1.
          6    2    1    2  502    0  0.54702721323E+03 -0.41556822975E+02 -0.97036829104E+03  0.11265106742E+04  0.16262206876E+03 0.  0.
         24    2    3    3    0    0  0.29573134383E+03 -0.45535702548E+02 -0.64305179632E+03  0.71380784747E+03  0.80470506601E+02 0.  0.
         -6    2    1    2    0  501 -0.54702721323E+03  0.41556822975E+02 -0.10301125178E+04  0.11795592467E+04  0.17106278219E+03 0.  0.
        -24    2    5    5    0    0 -0.38902193899E+03  0.12117875763E+02 -0.84798629960E+03  0.93660993576E+03  0.81685344622E+02 0.  0.
          5    1    3    3  502    0  0.25129586941E+03  0.39788795728E+01 -0.32731649472E+03  0.41270282671E+03  0.47000000000E+01 0. -1.
        -11    1    4    4    0    0  0.29687642182E+03 -0.53085511797E+02 -0.61876016365E+03  0.68834426090E+03  0.00000000000E+00 0.  1.
         12    1    4    4    0    0 -0.11450779892E+01  0.75498092487E+01 -0.24291632676E+02  0.25463586577E+02  0.00000000000E+00 0. -1.
         -5    1    5    5    0  501 -0.15800527424E+03  0.29438947213E+02 -0.18212621821E+03  0.24294931089E+03  0.47000000000E+01 0.  1.
         11    1    6    6    0    0 -0.23635302502E+03  0.17755069800E+02 -0.42126679015E+03  0.48336704834E+03  0.00000000000E+00 0. -1.
        -12    1    6    6    0    0 -0.15266891397E+03 -0.56371940374E+01 -0.42671950946E+03  0.45324288742E+03  0.00000000000E+00 0.  1.
</event>
<event>
12    1  0.9656379E-001  0.2922102E+03  0.7818608E-02  0.1089201E+00
         -1   -1    0    0    0  501 -0.00000000000E+00  0.00000000000E+00  0.12785458426E+04  0.12785458426E+04  0.00000000000E+00 0.  1.
          1   -1    0    0  502    0  0.00000000000E+00 -0.00000000000E+00 -0.35408096700E+03  0.35408096700E+03  0.00000000000E+00 0. -1.
          6    2    1    2  502    0  0.21445449630E+03  0.97902477897E+02  0.11975622573E+04  0.12327122433E+04  0.17276715098E+03 0.  0.
         24    2    3    3    0    0  0.63782648878E+02  0.35918552538E+02  0.71909902289E+03  0.72724892187E+03  0.80182422791E+02 0.  0.
         -6    2    1    2    0  501 -0.21445449630E+03 -0.97902477897E+02 -0.27309738169E+03  0.39991456633E+03  0.17255101946E+03 0.  0.
        -24    2    5    5    0    0 -0.21342674478E+03 -0.45713594529E+02 -0.18357012854E+03  0.29617472405E+03  0.79879703049E+02 0.  0.
          5    1    3    3  502    0  0.15067184742E+03  0.61983925359E+02  0.47846323443E+03  0.50546332143E+03  0.47000000000E+01 0. -1.
        -13    1    4    4    0    0  0.49349554800E+02  0.61692974444E+02  0.51599441246E+03  0.52200731349E+03  0.00000000000E+00 0.  1.
         14    1    4    4    0    0  0.14433094078E+02 -0.25774421906E+02  0.20310461044E+03  0.20524160838E+03  0.00000000000E+00 0. -1.
         -5    1    5    5    0  501 -0.10277515158E+01 -0.52188883368E+02 -0.89527253149E+02  0.10373984228E+03  0.47000000000E+01 0.  1.
         11    1    6    6    0    0 -0.12094427135E+03 -0.65940990827E+02 -0.10966454938E+03  0.17607397432E+03  0.00000000000E+00 0. -1.
        -12    1    6    6    0    0 -0.92482473429E+02  0.20227396298E+02 -0.73905579164E+02  0.12010074972E+03  0.00000000000E+00 0.  1.
</event>
<event>
12    1  0.9656379E-001  0.1822416E+03  0.7818608E-02  0.1165651E+00
         -2   -1    0    0    0  501 -0.00000000000E+00  0.00000000000E+00  0.54586338004E+02  0.54586338004E+02  0.00000000000E+00 0.  1.
          2   -1    0    0  502    0  0.00000000000E+00 -0.00000000000E+00 -0.15381076978E+04  0.15381076978E+04  0.00000000000E+00 0. -1.
          6    2    1    2  502    0 -0.13522143107E+01 -0.60431934251E+02 -0.12241258590E+03  0.21942030291E+03  0.17177479728E+03 0.  0.
         24    2    3    3    0    0  0.18832842521E+02 -0.10262505924E+03 -0.10810358503E+03  0.17028239675E+03  0.80144437145E+02 0.  0.
         -6    2    1    2    0  501  0.13522143107E+01  0.60431934251E+02 -0.13611087739E+04  0.13732737329E+04  0.17207499505E+03 0.  0.
        -24    2    5    5    0    0  0.35080735569E+02  0.91812854007E+02 -0.58277079890E+03  0.59355938226E+03  0.55051594388E+02 0.  0.
          5    1    3    3  502    0 -0.20185056831E+02  0.42193124988E+02 -0.14309000864E+02  0.49137906154E+02  0.47000000000E+01 0. -1.
        -11    1    4    4    0    0 -0.24158985398E+02 -0.73189120897E+02 -0.48264352391E+02  0.90938175179E+02  0.00000000000E+00 0.  1.
         12    1    4    4    0    0  0.42991827918E+02 -0.29435938341E+02 -0.59839232641E+02  0.79344221572E+02  0.00000000000E+00 0. -1.
         -5    1    5    5    0  501 -0.33728521258E+02 -0.31380919756E+02 -0.77833797504E+03  0.77971435068E+03  0.47000000000E+01 0.  1.
         11    1    6    6    0    0 -0.99579635529E+00  0.50594755023E+02 -0.38612835346E+03  0.38943025845E+03  0.00000000000E+00 0. -1.
        -12    1    6    6    0    0  0.36076531924E+02  0.41218098984E+02 -0.19664244544E+03  0.20412912381E+03  0.00000000000E+00 0.  1.
</event>
<event>
12    1  0.9656379E-001  0.2822015E+03  0.7818608E-02  0.1094493E+00
          2   -1    0    0  502    0  0.00000000000E+00  0.00000000000E+00  0.12528908738E+04  0.12528908738E+04  0.00000000000E+00 0. -1.
         -2   -1    0    0    0  501 -0.00000000000E+00 -0.00000000000E+00 -0.18668730480E+03  0.18668730480E+03  0.00000000000E+00 0.  1.
          6    2    1    2  502    0  0.17856666214E+02  0.22160658874E+03 -0.51395136803E+02  0.28692012105E+03  0.17393491620E+03 0.  0.
         24    2    3    3    0    0  0.24473824776E+02  0.43898353278E+02  0.19087907066E+02  0.95572392526E+02  0.79017089906E+02 0.  0.
         -6    2    1    2    0  501 -0.17856666214E+02 -0.22160658874E+03  0.11175987058E+04  0.11526580575E+04  0.17368186349E+03 0.  0.
        -24    2    5    5    0    0  0.15322423855E+02 -0.10977690880E+03  0.33806124005E+03  0.36442745687E+03  0.78969759490E+02 0.  0.
          5    1    3    3  502    0 -0.66171585617E+01  0.17770823546E+03 -0.70483043869E+02  0.19134772852E+03  0.47000000000E+01 0. -1.
        -13    1    4    4    0    0 -0.23134307982E+02 -0.58681399105E+01 -0.82197363253E+00  0.23881099482E+02  0.00000000000E+00 0.  1.
         14    1    4    4    0    0  0.47608132757E+02  0.49766493188E+02  0.19909880698E+02  0.71691293044E+02  0.00000000000E+00 0. -1.
         -5    1    5    5    0  501 -0.33179090069E+02 -0.11182967994E+03  0.77953746576E+03  0.78823060068E+03  0.47000000000E+01 0.  1.
         13    1    6    6    0    0 -0.31917546409E+02 -0.33186154089E+02  0.10919478555E+03  0.11850549263E+03  0.00000000000E+00 0. -1.
        -14    1    6    6    0    0  0.47239970264E+02 -0.76590754711E+02  0.22886645450E+03  0.24592196424E+03  0.00000000000E+00 0.  1.
</event>
<event>
12    1  0.9656379E-001  0.3903373E+03  0.7818608E-02  0.1047178E+00
         -2   -1    0    0    0  501 -0.00000000000E+00  0.00000000000E+00  0.50151715309E+03  0.50151715309E+03  0.00000000000E+00 0.  1.
          2   -1    0    0  502    0  0.00000000000E+00 -0.00000000000E+00 -0.31983946280E+03  0.31983946280E+03  0.00000000000E+00 0. -1.
          6    2    1    2  502    0  0.11979487706E+03 -0.32961441147E+03  0.18280322447E+03  0.43106705820E+03  0.17147978588E+03 0.  0.
         24    2    3    3    0    0  0.12632364019E+03 -0.33698792872E+03  0.19229194950E+03  0.41660609670E+03  0.84059025624E+02 0.  0.
         -6    2    1    2    0  501 -0.11979487706E+03  0.32961441147E+03 -0.11255341740E+01  0.39028955770E+03  0.17125477861E+03 0.  0.
        -24    2    5    5    0    0 -0.26381135985E+02  0.25954627133E+03 -0.17072179392E+02  0.27234017542E+03  0.76272410105E+02 0.  0.
          5    1    3    3  502    0 -0.65287631318E+01  0.73735172464E+01 -0.94887250351E+01  0.14460961497E+02  0.47000000000E+01 0. -1.
        -11    1    4    4    0    0  0.10587431656E+02 -0.14483912389E+03  0.72756718165E+02  0.16243154114E+03  0.00000000000E+00 0.  1.
         12    1    4    4    0    0  0.11573620854E+03 -0.19214880483E+03  0.11953523134E+03  0.25417455556E+03  0.00000000000E+00 0. -1.
         -5    1    5    5    0  501 -0.93413741075E+02  0.70068140144E+02  0.15946645218E+02  0.11794938227E+03  0.47000000000E+01 0.  1.
         13    1    6    6    0    0 -0.52995046895E+02  0.16835054275E+03 -0.17295574966E+02  0.17734011716E+03  0.00000000000E+00 0. -1.
        -14    1    6    6    0    0  0.26613910909E+02  0.91195728579E+02  0.22339557443E+00  0.95000058266E+02  0.00000000000E+00 0.  1.
</event>
<event>
12    1  0.9656379E-001  0.2667921E+03  0.7818608E-02  0.1103130E+00
          2   -1    0    0  502    0  0.00000000000E+00  0.00000000000E+00  0.26712698973E+03  0.26712698973E+03  0.00000000000E+00 0. -1.
         -2   -1    0    0    0  501 -0.00000000000E+00 -0.00000000000E+00 -0.34477044649E+03  0.34477044649E+03  0.00000000000E+00 0.  1.
          6    2    1    2  502    0  0.20378646108E+03 -0.33035440400E+01 -0.18463007807E+03  0.32440453324E+03  0.17207614691E+03 0.  0.
         24    2    3    3    0    0  0.68802338804E+02  0.43700470181E+02 -0.12555178571E+03  0.16967113269E+03  0.79884600848E+02 0.  0.
         -6    2    1    2    0  501 -0.20378646108E+03  0.33035440400E+01  0.10698662131E+03  0.28749290298E+03  0.17223877902E+03 0.  0.
        -24    2    5    5    0    0 -0.63928570081E+02  0.52019155849E+02  0.67015036101E+02  0.13402219524E+03  0.81719514840E+02 0.  0.
          5    1    3    3  502    0  0.13498412228E+03 -0.47004014221E+02 -0.59078292363E+02  0.15473340056E+03  0.47000000000E+01 0. -1.
        -13    1    4    4    0    0  0.58303081305E+02  0.32475019565E+02 -0.30485928964E+02  0.73370757460E+02  0.00000000000E+00 0.  1.
         14    1    4    4    0    0  0.10499257499E+02  0.11225450616E+02 -0.95065856747E+02  0.96300375225E+02  0.00000000000E+00 0. -1.
         -5    1    5    5    0  501 -0.13985789100E+03 -0.48715611809E+02  0.39971585206E+02  0.15347070774E+03  0.47000000000E+01 0.  1.
         11    1    6    6    0    0 -0.92023376687E+00 -0.19483997218E+02  0.44184271196E+01  0.19999886899E+02  0.00000000000E+00 0. -1.
        -12    1    6    6    0    0 -0.63008336314E+02  0.71503153067E+02  0.62596608981E+02  0.11402230834E+03  0.00000000000E+00 0.  1.
</event>
<event>
12    1  0.9656379E-001  0.2299957E+04  0.7818608E-02  0.8477938E-01
         -2   -1    0    0    0  501 -0.00000000000E+00  0.00000000000E+00  0.34147839692E+04  0.34147839692E+04  0.00000000000E+00 0.  1.
          2   -1    0    0  502    0  0.00000000000E+00 -0.00000000000E+00 -0.23734781866E+04  0.23734781866E+04  0.00000000000E+00 0. -1.
          6    2    1    2  502    0  0.35364133718E+03  0.22659872750E+04  0.22263204876E+04  0.32010364043E+04  0.17427169090E+03 0.  0.
         24    2    3    3    0    0  0.18375768410E+03  0.11108931345E+04  0.11846086599E+04  0.16363356179E+04  0.80287822885E+02 0.  0.
         -6    2    1    2    0  501 -0.35364133718E+03 -0.22659872750E+04 -0.11850147050E+04  0.25872257514E+04  0.17238535916E+03 0.  0.
        -24    2    5    5    0    0 -0.33681356034E+03 -0.20517575911E+04 -0.11184110019E+04  0.23622020309E+04  0.77476954969E+02 0.  0.
          5    1    3    3  502    0  0.16988365308E+03  0.11550941405E+04  0.10417118277E+04  0.15647007864E+04  0.47000000000E+01 0. -1.
        -11    1    4    4    0    0  0.98040475982E+02  0.80628753968E+03  0.83910393949E+03  0.11678214559E+04  0.00000000000E+00 0.  1.
         12    1    4    4    0    0  0.85717208117E+02  0.30460559486E+03  0.34550472042E+03  0.46851416203E+03  0.00000000000E+00 0. -1.
         -5    1    5    5    0  501 -0.16827776843E+02 -0.21422968390E+03 -0.66603703038E+02  0.22502372052E+03  0.47000000000E+01 0.  1.
         13    1    6    6    0    0 -0.62007325192E+02 -0.51580226069E+03 -0.30795127836E+03  0.60392952433E+03  0.00000000000E+00 0. -1.
        -14    1    6    6    0    0 -0.27480623514E+03 -0.15359553304E+04 -0.81045972357E+03  0.17582725066E+04  0.00000000000E+00 0.  1.
</event>
<event>
12    1  0.9656379E-001  0.2057521E+03  0.7818608E-02  0.1144975E+00
         -2   -1    0    0    0  501 -0.00000000000E+00  0.00000000000E+00  0.95903715447E+02  0.95903715447E+02  0.00000000000E+00 0.  1.
          2   -1    0    0  502    0  0.00000000000E+00 -0.00000000000E+00 -0.10140358889E+04  0.10140358889E+04  0.00000000000E+00 0. -1.
          6    2    1    2  502    0 -0.64051545124E+02  0.92094434421E+02 -0.41352441090E+02  0.20918113757E+03  0.17164713411E+03 0.  0.
         24    2    3    3    0    0 -0.42601645202E+02  0.22949465190E+02 -0.85269163390E+02  0.12437610544E+03  0.76531086842E+02 0.  0.
         -6    2    1    2    0  501  0.64051545124E+02 -0.92094434421E+02 -0.87677973236E+03  0.90075846678E+03  0.17331800571E+03 0.  0.
        -24    2    5    5    0    0 -0.28790017402E+02 -0.32593246246E+02 -0.28777053731E+03  0.30149736426E+03  0.78724797311E+02 0.  0.
          5    1    3    3  502    0 -0.21449899922E+02  0.69144969231E+02  0.43916722300E+02  0.84805032128E+02  0.47000000000E+01 0. -1.
        -11    1    4    4    0    0 -0.26301405379E+02  0.46847648451E+02 -0.28871089881E+02  0.60991851269E+02  0.00000000000E+00 0.  1.
         12    1    4    4    0    0 -0.16300239823E+02 -0.23898183261E+02 -0.56398073509E+02  0.63384254173E+02  0.00000000000E+00 0. -1.
         -5    1    5    5    0  501  0.92841562526E+02 -0.59501188176E+02 -0.58900919506E+03  0.59926110252E+03  0.47000000000E+01 0.  1.
         13    1    6    6    0    0 -0.49273795935E+02 -0.42091129431E+02 -0.24101969036E+03  0.24957976938E+03  0.00000000000E+00 0. -1.
        -14    1    6    6    0    0  0.20483778532E+02  0.94978831853E+01 -0.46750846943E+02  0.51917594878E+02  0.00000000000E+00 0.  1.
</event>
<event>
12    1  0.9656379E-001  0.3898268E+03  0.7818608E-02  0.1047360E+00
         -2   -1    0    0    0  501 -0.00000000000E+00  0.00000000000E+00  0.52442808244E+03  0.52442808244E+03  0.00000000000E+00 0.  1.
          2   -1    0    0  502    0  0.00000000000E+00 -0.00000000000E+00 -0.43229940131E+04  0.43229940131E+04  0.00000000000E+00 0. -1.
          6    2    1    2  502    0  0.34735131202E+03  0.42195172827E+02  0.44180080343E+03  0.58917059570E+03  0.17175760351E+03 0.  0.
         24    2    3    3    0    0  0.17113503160E+03  0.85813091255E+01  0.32181884702E+03  0.37330065991E+03  0.80157186113E+02 0.  0.
         -6    2    1    2    0  501 -0.34735131202E+03 -0.42195172827E+02 -0.42403667340E+04  0.42582514998E+04  0.17193728447E+03 0.  0.
        -24    2    5    5    0    0 -0.26724761048E+03  0.31764879478E+02 -0.29035171985E+04  0.29169553121E+04  0.76064960276E+02 0.  0.
          5    1    3    3  502    0  0.17621628041E+03  0.33613863701E+02  0.11998195641E+03  0.21586993579E+03  0.47000000000E+01 0. -1.
        -13    1    4    4    0    0  0.10878470060E+03  0.29670440951E+02  0.13894161133E+03  0.17893914471E+03  0.00000000000E+00 0.  1.
         14    1    4    4    0    0  0.62350331000E+02 -0.21089131826E+02  0.18287723569E+03  0.19436151520E+03  0.00000000000E+00 0. -1.
         -5    1    5    5    0  501 -0.80103701534E+02 -0.73960052304E+02 -0.13368495355E+04  0.13412961876E+04  0.47000000000E+01 0.  1.
         13    1    6    6    0    0 -0.58211071467E+02 -0.22298235254E+02 -0.78131941830E+03  0.78380212653E+03  0.00000000000E+00 0. -1.
        -14    1    6    6    0    0 -0.20903653901E+03  0.54063114732E+02 -0.21221977802E+04  0.21331531856E+04  0.00000000000E+00 0.  1.
</event>
<event>
12    1  0.9656379E-001  0.2287285E+03  0.7818608E-02  0.1127538E+00
         -3   -1    0    0    0  501 -0.00000000000E+00  0.00000000000E+00  0.11190991102E+03  0.11190991102E+03  0.00000000000E+00 0.  1.
          3   -1    0    0  502    0  0.00000000000E+00 -0.00000000000E+00 -0.55929401554E+03  0.55929401554E+03  0.00000000000E+00 0. -1.
          6    2    1    2  502    0 -0.76601489797E+02 -0.12916417207E+03 -0.87261101319E+02  0.24427712528E+03  0.17177206567E+03 0.  0.
         24    2    3    3    0    0 -0.52042540479E+01 -0.13407422998E+03 -0.66574887602E+02  0.16963341570E+03  0.79625979808E+02 0.  0.
         -6    2    1    2    0  501  0.76601489797E+02  0.12916417207E+03 -0.36012300320E+03  0.42692680128E+03  0.17328226865E+03 0.  0.
        -24    2    5    5    0    0  0.28424544984E+02  0.10875007763E+03 -0.34820527425E+03  0.37305774219E+03  0.72736729743E+02 0.  0.
          5    1    3    3  502    0 -0.71397235749E+02  0.49100579068E+01 -0.20686213717E+02  0.74643709575E+02  0.47000000000E+01 0. -1.
        -11    1    4    4    0    0 -0.35977869078E+02 -0.10845008358E+03 -0.59982364440E+02  0.12904926089E+03  0.00000000000E+00 0.  1.
         12    1    4    4    0    0  0.30773615030E+02 -0.25624146399E+02 -0.65925231622E+01  0.40584154819E+02  0.00000000000E+00 0. -1.
         -5    1    5    5    0  501  0.48176944813E+02  0.20414094443E+02 -0.11917728957E+02  0.53869059087E+02  0.47000000000E+01 0.  1.
         11    1    6    6    0    0  0.42836374612E+02  0.69874483514E+02 -0.15374513899E+03  0.17422676660E+03  0.00000000000E+00 0. -1.
        -12    1    6    6    0    0 -0.14411829628E+02  0.38875594113E+02 -0.19446013526E+03  0.19883097559E+03  0.00000000000E+00 0.  1.
</event>
<event>
12    1  0.9656379E-001  0.4144575E+03  0.7818608E-02  0.1038885E+00
         -2   -1    0    0    0  501 -0.00000000000E+00  0.00000000000E+00  0.91684166180E+02  0.91684166180E+02  0.00000000000E+00 0.  1.
          2   -1    0    0  502    0  0.00000000000E+00 -0.00000000000E+00 -0.22127463968E+04  0.22127463968E+04  0.00000000000E+00 0. -1.
          6    2    1    2  502    0 -0.10934721259E+03 -0.36167675144E+03 -0.61162091554E+03  0.73939127412E+03  0.17277854753E+03 0.  0.
         24    2    3    3    0    0 -0.10322966833E+03 -0.30934259316E+03 -0.59628790850E+03  0.68431424102E+03  0.79859290411E+02 0.  0.
         -6    2    1    2    0  501  0.10934721259E+03  0.36167675144E+03 -0.15094413151E+04  0.15650392889E+04  0.16783327015E+03 0.  0.
        -24    2    5    5    0    0  0.43976622657E+02  0.24881327973E+03 -0.80219540098E+03  0.84585200429E+03  0.90034217371E+02 0.  0.
          5    1    3    3  502    0 -0.61175442642E+01 -0.52334158276E+02 -0.15333007034E+02  0.55077033099E+02  0.47000000000E+01 0. -1.
        -13    1    4    4    0    0 -0.63449644748E+02 -0.10935031184E+03 -0.17090892204E+03  0.21258694162E+03  0.00000000000E+00 0.  1.
         14    1    4    4    0    0 -0.39780023580E+02 -0.19999228133E+03 -0.42537898647E+03  0.47172729940E+03  0.00000000000E+00 0. -1.
         -5    1    5    5    0  501  0.65370589935E+02  0.11286347171E+03 -0.70724591410E+03  0.71918728457E+03  0.47000000000E+01 0.  1.
         11    1    6    6    0    0  0.52311774736E+02  0.85479833722E+02 -0.38268392023E+03  0.39558855716E+03  0.00000000000E+00 0. -1.
        -12    1    6    6    0    0 -0.83351520789E+01  0.16333344601E+03 -0.41951148075E+03  0.45026344713E+03  0.00000000000E+00 0.  1.
</event>
<event>
12    1  0.9656379E-001  0.3272945E+03  0.7818608E-02  0.1072340E+00
         -2   -1    0    0    0  501 -0.00000000000E+00  0.00000000000E+00  0.60478302077E+02  0.60478302077E+02  0.00000000000E+00 0.  1.
          2   -1    0    0  502    0  0.00000000000E+00 -0.00000000000E+00 -0.26507205890E+04  0.26507205890E+04  0.00000000000E+00 0. -1.
          6    2    1    2  502    0  0.40771346220E+02  0.27652182962E+03 -0.51753620709E+03  0.61300131913E+03  0.17262753741E+03 0.  0.
         24    2    3    3    0    0  0.88697786623E+02  0.23871721666E+03 -0.43845720258E+03  0.51299276247E+03  0.77869435386E+02 0.  0.
         -6    2    1    2    0  501 -0.40771346220E+02 -0.27652182962E+03 -0.20727060798E+04  0.20981975719E+04  0.16791644541E+03 0.  0.
        -24    2    5    5    0    0 -0.61291351760E+02 -0.11118265444E+03 -0.74218049366E+03  0.75727306292E+03  0.80699406427E+02 0.  0.
          5    1    3    3  502    0 -0.47926440403E+02  0.37804612958E+02 -0.79079004509E+02  0.10000855666E+03  0.47000000000E+01 0. -1.
        -13    1    4    4    0    0 -0.24271703146E+01  0.84114591638E+02 -0.17553520696E+03  0.19466320804E+03  0.00000000000E+00 0.  1.
         14    1    4    4    0    0  0.91124956937E+02  0.15460262502E+03 -0.26292199563E+03  0.31832955443E+03  0.00000000000E+00 0. -1.
         -5    1    5    5    0  501  0.20520005541E+02 -0.16533917518E+03 -0.13305255862E+04  0.13409245090E+04  0.47000000000E+01 0.  1.
         11    1    6    6    0    0  0.16865263208E+02 -0.44506502889E+02 -0.22192091796E+03  0.22696730983E+03  0.00000000000E+00 0. -1.
        -12    1    6    6    0    0 -0.78156614968E+02 -0.66676151554E+02 -0.52025957571E+03  0.53030575309E+03  0.00000000000E+00 0.  1.
</event>
<event>
12    1  0.9656379E-001  0.5655450E+03  0.7818608E-02  0.9979586E-01
         -2   -1    0    0    0  501 -0.00000000000E+00  0.00000000000E+00  0.12690705574E+04  0.12690705574E+04  0.00000000000E+00 0.  1.
          2   -1    0    0  502    0  0.00000000000E+00 -0.00000000000E+00 -0.15299663659E+04  0.15299663659E+04  0.00000000000E+00 0. -1.
          6    2    1    2  502    0 -0.53380926233E+03 -0.72363192654E+02  0.11486067738E+04  0.12804098798E+04  0.17309875527E+03 0.  0.
         24    2    3    3    0    0 -0.14853956006E+03 -0.57357326578E+02  0.31627686879E+03  0.36310236297E+03  0.80364198834E+02 0.  0.
         -6    2    1    2    0  501  0.53380926233E+03  0.72363192654E+02 -0.14095025822E+04  0.15186270435E+04  0.17129450611E+03 0.  0.
        -24    2    5    5    0    0  0.34886404801E+03 -0.27171165809E+01 -0.78025168933E+03  0.85845997274E+03  0.80295201500E+02 0.  0.
          5    1    3    3  502    0 -0.38526970228E+03 -0.15005866076E+02  0.83232990505E+03  0.91730751678E+03  0.47000000000E+01 0. -1.
        -11    1    4    4    0    0 -0.15178327119E+03 -0.35124956884E+02  0.27229366413E+03  0.31371286797E+03  0.00000000000E+00 0.  1.
         12    1    4    4    0    0  0.32437111344E+01 -0.22232369694E+02  0.43983204661E+02  0.49389495000E+02  0.00000000000E+00 0. -1.
         -5    1    5    5    0  501  0.18494521432E+03  0.75080309234E+02 -0.62925089291E+03  0.66016707080E+03  0.47000000000E+01 0.  1.
         13    1    6    6    0    0  0.11921685997E+03  0.58474506073E+01 -0.36284984028E+03  0.38197756344E+03  0.00000000000E+00 0. -1.
        -14    1    6    6    0    0  0.22964718804E+03 -0.85645671882E+01 -0.41740184905E+03  0.47648240930E+03  0.00000000000E+00 0.  1.
</event>
<event>
12    1  0.9656379E-001  0.1821361E+03  0.7818608E-02  0.1165752E+00
          2   -1    0    0  502    0  0.00000000000E+00  0.00000000000E+00  0.77080090070E+03  0.77080090070E+03  0.00000000000E+00 0. -1.
         -2   -1    0    0    0  501 -0.00000000000E+00 -0.00000000000E+00 -0.95221489417E+02  0.95221489417E+02  0.00000000000E+00 0.  1.
          6    2    1    2  502    0 -0.35327450682E+02  0.42268070736E+02  0.16697805769E+02  0.18225715896E+03  0.17292841495E+03 0.  0.
         24    2    3    3    0    0 -0.40378809644E+01 -0.16557436158E+02 -0.42356735362E+02  0.93099959232E+02  0.81136035173E+02 0.  0.
         -6    2    1    2    0  501  0.35327450682E+02 -0.42268070736E+02  0.65888160552E+03  0.68376523117E+03  0.17428511894E+03 0.  0.
        -24    2    5    5    0    0 -0.25966299315E+01 -0.15513277737E+02  0.13897475533E+03  0.16176975445E+03  0.81290015146E+02 0.  0.
          5    1    3    3  502    0 -0.31289569718E+02  0.58825506894E+02  0.59054541131E+02  0.89157199724E+02  0.47000000000E+01 0. -1.
        -13    1    4    4    0    0  0.51716003920E+01 -0.43702408185E+02 -0.25960055050E+01  0.44083842577E+02  0.00000000000E+00 0.  1.
         14    1    4    4    0    0 -0.92094813564E+01  0.27144972027E+02 -0.39760729857E+02  0.49016116655E+02  0.00000000000E+00 0. -1.
         -5    1    5    5    0  501  0.37924080614E+02 -0.26754792999E+02  0.51990685019E+03  0.52199547672E+03  0.47000000000E+01 0. -1.
         13    1    6    6    0    0  0.31271155753E+02  0.16097021631E+02  0.46128592625E+02  0.58007295620E+02  0.00000000000E+00 0. -1.
        -14    1    6    6    0    0 -0.33867785685E+02 -0.31610299368E+02  0.92846162706E+02  0.10376245883E+03  0.00000000000E+00 0.  1.
</event>
<event>
12    1  0.9656379E-001  0.5810881E+03  0.7818608E-02  0.9945438E-01
          2   -1    0    0  502    0  0.00000000000E+00  0.00000000000E+00  0.23123954794E+04  0.23123954794E+04  0.00000000000E+00 0. -1.
         -2   -1    0    0    0  501 -0.00000000000E+00 -0.00000000000E+00 -0.33024452834E+03  0.33024452834E+03  0.00000000000E+00 0.  1.
          6    2    1    2  502    0 -0.47264147206E+03 -0.29114853395E+03  0.42738246886E+01  0.58119505562E+03  0.17208136788E+03 0.  0.
         24    2    3    3    0    0 -0.20401910848E+03 -0.19629088291E+03  0.31148143042E+02  0.29501282843E+03  0.76866473731E+02 0.  0.
         -6    2    1    2    0  501  0.47264147206E+03  0.29114853395E+03  0.19778771264E+04  0.20614449521E+04  0.17146408861E+03 0.  0.
        -24    2    5    5    0    0  0.96173212113E+02  0.60690742865E+02  0.47593568567E+03  0.49597718640E+03  0.80906980780E+02 0.  0.
          5    1    3    3  502    0 -0.26862236358E+03 -0.94857651041E+02 -0.26874318354E+02  0.28618222719E+03  0.47000000000E+01 0. -1.
        -11    1    4    4    0    0 -0.18629323913E+03 -0.14004129237E+03  0.13490053338E+02  0.23344960067E+03  0.00000000000E+00 0.  1.
         12    1    4    4    0    0 -0.17725869350E+02 -0.56249590537E+02  0.17658089704E+02  0.61563227756E+02  0.00000000000E+00 0. -1.
         -5    1    5    5    0  501  0.37646825994E+03  0.23045779109E+03  0.15019414407E+04  0.15654677657E+04  0.47000000000E+01 0.  1.
         13    1    6    6    0    0  0.96704905357E+02  0.38734064236E+02  0.27888437525E+03  0.29770566204E+03  0.00000000000E+00 0. -1.
        -14    1    6    6    0    0 -0.53169324464E+00  0.21956678629E+02  0.19705131042E+03  0.19827152437E+03  0.00000000000E+00 0.  1.
</event>
<event>
12    1  0.9656379E-001  0.5096518E+03  0.7818608E-02  0.1011290E+00
         -4   -1    0    0    0  501 -0.00000000000E+00  0.00000000000E+00  0.44988815676E+03  0.44988815676E+03  0.00000000000E+00 0.  1.
          4   -1    0    0  502    0  0.00000000000E+00 -0.00000000000E+00 -0.85982100559E+03  0.85982100559E+03  0.00000000000E+00 0. -1.
          6    2    1    2  502    0 -0.23269038860E+03 -0.41898017851E+03  0.17025382524E+03  0.53775513283E+03  0.17465683767E+03 0.  0.
         24    2    3    3    0    0 -0.67740589475E+02 -0.26059269670E+03  0.92104045543E+02  0.29604350983E+03  0.81616563707E+02 0.  0.
         -6    2    1    2    0  501  0.23269038860E+03  0.41898017851E+03 -0.58018667407E+03  0.77195402953E+03  0.17206754490E+03 0.  0.
        -24    2    5    5    0    0  0.22467215947E+03  0.43086479316E+03 -0.54927461804E+03  0.73755662742E+03  0.78518299771E+02 0.  0.
          5    1    3    3  502    0 -0.16494979913E+03 -0.15838748181E+03  0.78149779696E+02  0.24171162300E+03  0.47000000000E+01 0. -1.
        -11    1    4    4    0    0 -0.37198995243E+02 -0.34120222179E+02  0.31940221576E+02  0.59733847716E+02  0.00000000000E+00 0.  1.
         12    1    4    4    0    0 -0.30541594231E+02 -0.22647247452E+03  0.60163823967E+02  0.23630966212E+03  0.00000000000E+00 0. -1.
         -5    1    5    5    0  501  0.80182291328E+01 -0.11884614656E+02 -0.30912056028E+02  0.34397402108E+02  0.47000000000E+01 0.  1.
         11    1    6    6    0    0  0.17686249758E+03  0.26582535131E+03 -0.33304704084E+03  0.46137164180E+03  0.00000000000E+00 0. -1.
        -12    1    6    6    0    0  0.47809661890E+02  0.16503944186E+03 -0.21622757720E+03  0.27618498562E+03  0.00000000000E+00 0.  1.
</event>
<event>
12    1  0.9656379E-001  0.2108427E+03  0.7818608E-02  0.1140900E+00
         -2   -1    0    0    0  501 -0.00000000000E+00  0.00000000000E+00  0.67402555974E+02  0.67402555974E+02  0.00000000000E+00 0. -1.
          2   -1    0    0  502    0  0.00000000000E+00 -0.00000000000E+00 -0.67775622469E+03  0.67775622469E+03  0.00000000000E+00 0.  1.
          6    2    1    2  502    0  0.70861120966E+02  0.98468091365E+02 -0.36643915706E+03  0.42283128490E+03  0.17260178499E+03 0.  0.
         24    2    3    3    0    0  0.65298644185E+02  0.13746771714E+02 -0.11015757806E+03  0.15281095069E+03  0.82241157471E+02 0.  0.
         -6    2    1    2    0  501 -0.70861120966E+02 -0.98468091365E+02 -0.24391451165E+03  0.32232749576E+03  0.17228889125E+03 0.  0.
        -24    2    5    5    0    0 -0.97197381515E+02 -0.89411803225E+02 -0.12073495948E+03  0.19595144167E+03  0.79863856169E+02 0.  0.
          5    1    3    3  502    0  0.55624767814E+01  0.84721319651E+02 -0.25628157900E+03  0.27002033421E+03  0.47000000000E+01 0. -1.
        -13    1    4    4    0    0  0.38132825022E+02  0.70986523742E+01 -0.11763195098E+03  0.12386193564E+03  0.00000000000E+00 0.  1.
         14    1    4    4    0    0  0.27165819163E+02  0.66481193395E+01  0.74743729230E+01  0.28949015047E+02  0.00000000000E+00 0. -1.
         -5    1    5    5    0  501  0.26336260548E+02 -0.90562881393E+01 -0.12317955217E+03  0.12637605409E+03  0.47000000000E+01 0.  1.
         13    1    6    6    0    0 -0.64640775610E+02 -0.92450560158E+02 -0.11783082673E+03  0.16312461394E+03  0.00000000000E+00 0. -1.
        -14    1    6    6    0    0 -0.32556605905E+02  0.30387569331E+01 -0.29041327500E+01  0.32826827730E+02  0.00000000000E+00 0.  1.
</event>
<event>
12    1  0.9656379E-001  0.4639010E+03  0.7818608E-02  0.1023656E+00
          2   -1    0    0  502    0  0.00000000000E+00  0.00000000000E+00  0.54503206059E+03  0.54503206059E+03  0.00000000000E+00 0. -1.
         -2   -1    0    0    0  501 -0.00000000000E+00 -0.00000000000E+00 -0.50176957906E+03  0.50176957906E+03  0.00000000000E+00 0.  1.
          6    2    1    2  502    0  0.13794724758E+03 -0.40791877970E+03 -0.21993416078E+03  0.51444633754E+03  0.17566110889E+03 0.  0.
         24    2    3    3    0    0  0.81055977692E+02 -0.26178582154E+03 -0.21436990534E+03  0.35746064076E+03  0.81986373883E+02 0.  0.
         -6    2    1    2    0  501 -0.13794724758E+03  0.40791877970E+03  0.26319664231E+03  0.53235530211E+03  0.16941818442E+03 0.  0.
        -24    2    5    5    0    0 -0.74136883973E+02  0.20253034933E+03  0.64583833827E+02  0.23956645750E+03  0.81891367078E+02 0.  0.
          5    1    3    3  502    0  0.56891269890E+02 -0.14613295817E+03 -0.55642554366E+01  0.15698569677E+03  0.47000000000E+01 0. -1.
        -11    1    4    4    0    0  0.65752432781E+02 -0.85750471736E+02 -0.65114099687E+02  0.12616010383E+03  0.00000000000E+00 0.  1.
         12    1    4    4    0    0  0.15303544911E+02 -0.17603534980E+03 -0.14925580565E+03  0.23130053694E+03  0.00000000000E+00 0. -1.
         -5    1    5    5    0  501 -0.63810363609E+02  0.20538843038E+03  0.19861280848E+03  0.29278884462E+03  0.47000000000E+01 0.  1.
         13    1    6    6    0    0 -0.77746002197E+02  0.20877694695E+03  0.65694629243E+02  0.23226717105E+03  0.00000000000E+00 0. -1.
        -14    1    6    6    0    0  0.36091182238E+01 -0.62465976222E+01 -0.11107954165E+01  0.72992864490E+01  0.00000000000E+00 0.  1.
</event>
<event>
12    1  0.9656379E-001  0.3341955E+03  0.7818608E-02  0.1069295E+00
         -1   -1    0    0    0  501 -0.00000000000E+00  0.00000000000E+00  0.22664630911E+04  0.22664630911E+04  0.00000000000E+00 0.  1.
          1   -1    0    0  502    0  0.00000000000E+00 -0.00000000000E+00 -0.23457904535E+03  0.23457904535E+03  0.00000000000E+00 0. -1.
          6    2    1    2  502    0 -0.96280882563E+02 -0.26958731819E+03  0.21274148533E+04  0.21535126245E+04  0.17255531135E+03 0.  0.
         24    2    3    3    0    0 -0.12736595373E+03 -0.24434238250E+03  0.19817847980E+04  0.20024040826E+04  0.78903982717E+02 0.  0.
         -6    2    1    2    0  501  0.96280882563E+02  0.26958731819E+03 -0.95530807468E+02  0.34752951201E+03  0.17234644199E+03 0.  0.
        -24    2    5    5    0    0  0.17845294426E+02  0.19973146336E+03 -0.10849321902E+03  0.24159511696E+03  0.79914391553E+02 0.  0.
          5    1    3    3  502    0  0.31085071168E+02 -0.25244935686E+02  0.14563005526E+03  0.15110854186E+03  0.47000000000E+01 0. -1.
        -11    1    4    4    0    0 -0.59109891447E+02 -0.13604559261E+03  0.79360481701E+03  0.80734812077E+03  0.00000000000E+00 0.  1.
         12    1    4    4    0    0 -0.68256062283E+02 -0.10829678989E+03  0.11881799810E+04  0.11950559619E+04  0.00000000000E+00 0. -1.
         -5    1    5    5    0  501  0.78435588137E+02  0.69855854828E+02  0.12962411553E+02  0.10593439504E+03  0.47000000000E+01 0.  1.
         11    1    6    6    0    0  0.21340667986E+02  0.23007158476E+02  0.46536124348E+01  0.31723958768E+02  0.00000000000E+00 0. -1.
        -12    1    6    6    0    0 -0.34953735599E+01  0.17672430489E+03 -0.11314683146E+03  0.20987115820E+03  0.00000000000E+00 0.  1.
</event>
<event>
12    1  0.9656379E-001  0.3552659E+03  0.7818608E-02  0.1060474E+00
          2   -1    0    0  502    0  0.00000000000E+00  0.00000000000E+00  0.78040336634E+03  0.78040336634E+03  0.00000000000E+00 0. -1.
         -2   -1    0    0    0  501 -0.00000000000E+00 -0.00000000000E+00 -0.27975381583E+03  0.27975381583E+03  0.00000000000E+00 0.  1.
          6    2    1    2  502    0 -0.30848482811E+03 -0.43871945469E+02 -0.94387354818E+02  0.36661136617E+03  0.16854460621E+03 0.  0.
         24    2    3    3    0    0 -0.31177798358E+03 -0.65071916520E+02 -0.73335961881E+02  0.33618876290E+03  0.78770905986E+02 0.  0.
         -6    2    1    2    0  501  0.30848482811E+03  0.43871945469E+02  0.59503690533E+03  0.69354581599E+03  0.17276933584E+03 0.  0.
        -24    2    5    5    0    0  0.32269593163E+03  0.42745088813E+02  0.58825853010E+03  0.67707579353E+03  0.80148144370E+02 0.  0.
          5    1    3    3  502    0  0.32931554635E+01  0.21199971050E+02 -0.21051392937E+02  0.30422603275E+02  0.47000000000E+01 0. -1.
        -11    1    4    4    0    0 -0.11044177672E+03  0.13082046114E+02 -0.36820579328E+02  0.11715067665E+03  0.00000000000E+00 0.  1.
         12    1    4    4    0    0 -0.20133620685E+03 -0.78153962634E+02 -0.36515382553E+02  0.21903808625E+03  0.00000000000E+00 0. -1.
         -5    1    5    5    0  501 -0.14211103518E+02  0.11268566561E+01  0.67783752280E+01  0.16470022461E+02  0.47000000000E+01 0.  1.
         11    1    6    6    0    0  0.19920879425E+03  0.64450209239E+02  0.38527233039E+03  0.43848915806E+03  0.00000000000E+00 0. -1.
        -12    1    6    6    0    0  0.12348713738E+03 -0.21705120426E+02  0.20298619971E+03  0.23858663547E+03  0.00000000000E+00 0.  1.
</event>
<event>
12    1  0.9656379E-001  0.2448949E+03  0.7818608E-02  0.1116574E+00
          1   -1    0    0  502    0  0.00000000000E+00  0.00000000000E+00  0.15002806952E+03  0.15002806952E+03  0.00000000000E+00 0. -1.
         -1   -1    0    0    0  501 -0.00000000000E+00 -0.00000000000E+00 -0.40536354052E+03  0.40536354052E+03  0.00000000000E+00 0.  1.
          6    2    1    2  502    0  0.68142901667E+02 -0.16102145323E+03 -0.16073565418E+03  0.29357958788E+03  0.17257363776E+03 0.  0.
         24    2    3    3    0    0  0.77473441250E+02 -0.60746263640E+02 -0.33924319318E+02  0.13157533712E+03  0.80429890291E+02 0.  0.
         -6    2    1    2    0  501 -0.68142901667E+02  0.16102145323E+03 -0.94599816817E+02  0.26181202216E+03  0.17036738584E+03 0.  0.
        -24    2    5    5    0    0 -0.16962767473E+02  0.16927282031E+03 -0.94205695119E+02  0.20975689247E+03  0.78627080388E+02 0.  0.
          5    1    3    3  502    0 -0.93305395824E+01 -0.10027518959E+03 -0.12681133486E+03  0.16200425076E+03  0.47000000000E+01 0. -1.
        -13    1    4    4    0    0  0.57089555374E+02 -0.54098233408E+02 -0.59193109298E+02  0.98436072549E+02  0.00000000000E+00 0.  1.
         14    1    4    4    0    0  0.20383885876E+02 -0.66480302326E+01  0.25268789979E+02  0.33139264573E+02  0.00000000000E+00 0. -1.
         -5    1    5    5    0  501 -0.51180134194E+02 -0.82513670834E+01 -0.39412169787E+00  0.52055129687E+02  0.47000000000E+01 0.  1.
         11    1    6    6    0    0  0.17892036240E+01  0.11752033879E+03 -0.23012497252E+02  0.11976563075E+03  0.00000000000E+00 0. -1.
        -12    1    6    6    0    0 -0.18751971097E+02  0.51752481516E+02 -0.71193197867E+02  0.89991261718E+02  0.00000000000E+00 0.  1.
</event>
<event>
12    1  0.9656379E-001  0.8187899E+03  0.7818608E-02  0.9533211E-01
         -2   -1    0    0    0  501 -0.00000000000E+00  0.00000000000E+00  0.80289496322E+03  0.80289496322E+03  0.00000000000E+00 0.  1.
          2   -1    0    0  502    0  0.00000000000E+00 -0.00000000000E+00 -0.85913435297E+03  0.85913435297E+03  0.00000000000E+00 0. -1.
          6    2    1    2  502    0 -0.42948351180E+03 -0.67545564384E+03  0.11116607968E+03  0.82623937003E+03  0.17209644275E+03 0.  0.
         24    2    3    3    0    0 -0.36488549863E+03 -0.53017869607E+03  0.33136746659E+02  0.64907006775E+03  0.77220670741E+02 0.  0.
         -6    2    1    2    0  501  0.42948351180E+03  0.67545564384E+03 -0.16740546943E+03  0.83578994617E+03  0.17269577069E+03 0.  0.
        -24    2    5    5    0    0  0.14846431107E+03  0.24564008023E+03 -0.12707691780E+03  0.32065725260E+03  0.65512059433E+02 0.  0.
          5    1    3    3  502    0 -0.64598013168E+02 -0.14527694777E+03  0.78029333018E+02  0.17716930228E+03  0.47000000000E+01 0. -1.
        -11    1    4    4    0    0 -0.25699600329E+03 -0.33095672031E+03  0.49416496188E+02  0.42192568839E+03  0.00000000000E+00 0.  1.
         12    1    4    4    0    0 -0.10788949534E+03 -0.19922197576E+03 -0.16279749528E+02  0.22714437936E+03  0.00000000000E+00 0. -1.
         -5    1    5    5    0  501  0.28101920073E+03  0.42981556362E+03 -0.40328551624E+02  0.51513269357E+03  0.47000000000E+01 0.  1.
         11    1    6    6    0    0  0.11383741748E+03  0.12618403174E+03 -0.69603508567E+02  0.18364644263E+03  0.00000000000E+00 0. -1.
        -12    1    6    6    0    0  0.34626893586E+02  0.11945604849E+03 -0.57473409237E+02  0.13701080997E+03  0.00000000000E+00 0.  1.
</event>
<event>
12    1  0.9656379E-001  0.3766475E+03  0.7818608E-02  0.1052180E+00
         -1   -1    0    0    0  501 -0.00000000000E+00  0.00000000000E+00  0.80689024855E+03  0.80689024855E+03  0.00000000000E+00 0.  1.
          1   -1    0    0  502    0  0.00000000000E+00 -0.00000000000E+00 -0.39661631090E+03  0.39661631090E+03  0.00000000000E+00 0. -1.
          6    2    1    2  502    0  0.89845482784E+02  0.32196852874E+03  0.65383721355E+03  0.75397749595E+03  0.17100590136E+03 0.  0.
         24    2    3    3    0    0  0.11388472468E+03  0.30234192214E+03  0.63622111190E+03  0.71798435945E+03  0.79648407358E+02 0.  0.
         -6    2    1    2    0  501 -0.89845482784E+02 -0.32196852874E+03 -0.24356327589E+03  0.44952906350E+03  0.17611747584E+03 0.  0.
        -24    2    5    5    0    0 -0.10745663922E+03 -0.31523814054E+03 -0.25504791942E+03  0.42695833039E+03  0.79510754753E+02 0.  0.
          5    1    3    3  502    0 -0.24039241895E+02  0.19626606593E+02  0.17616101650E+02  0.35993136492E+02  0.47000000000E+01 0. -1.
        -11    1    4    4    0    0  0.10157114999E+03  0.16066886692E+03  0.34507467317E+03  0.39396410162E+03  0.00000000000E+00 0.  1.
         12    1    4    4    0    0  0.12313574691E+02  0.14167305523E+03  0.29114643873E+03  0.32402025783E+03  0.00000000000E+00 0. -1.
         -5    1    5    5    0  501  0.17611156440E+02 -0.67303881965E+01  0.11484643527E+02  0.22570733116E+02  0.47000000000E+01 0.  1.
         13    1    6    6    0    0 -0.89047038345E+02 -0.15011269084E+03 -0.10924672714E+03  0.20590784924E+03  0.00000000000E+00 0. -1.
        -14    1    6    6    0    0 -0.18409600879E+02 -0.16512544970E+03 -0.14580119228E+03  0.22105048114E+03  0.00000000000E+00 0.  1.
</event>
<event>
12    1  0.9656379E-001  0.2178064E+03  0.7818608E-02  0.1135529E+00
          1   -1    0    0  502    0  0.00000000000E+00  0.00000000000E+00  0.39751314122E+03  0.39751314122E+03  0.00000000000E+00 0. -1.
         -1   -1    0    0    0  501 -0.00000000000E+00 -0.00000000000E+00 -0.31703191204E+03  0.31703191204E+03  0.00000000000E+00 0.  1.
          6    2    1    2  502    0  0.10536472539E+03  0.77309335683E+02 -0.24179955075E+03  0.32621380345E+03  0.17569850335E+03 0.  0.
         24    2    3    3    0    0 -0.84511913428E+01  0.64752707179E+02 -0.97447042013E+02  0.14190029717E+03  0.79846306220E+02 0.  0.
         -6    2    1    2    0  501 -0.10536472539E+03 -0.77309335683E+02  0.32228077993E+03  0.38833124981E+03  0.17279409633E+03 0.  0.
        -24    2    5    5    0    0  0.11510995928E+01 -0.66990567625E+02  0.20203435934E+03  0.22729277735E+03  0.79718649657E+02 0.  0.
          5    1    3    3  502    0  0.11381591673E+03  0.12556628504E+02 -0.14435250873E+03  0.18431350628E+03  0.47000000000E+01 0. -1.
        -11    1    4    4    0    0 -0.28162282564E+02  0.13837533624E+02 -0.77776220743E+02  0.83867347693E+02  0.00000000000E+00 0.  1.
         12    1    4    4    0    0  0.19711091221E+02  0.50915173555E+02 -0.19670821270E+02  0.58032949474E+02  0.00000000000E+00 0. -1.
         -5    1    5    5    0  501 -0.10651582498E+03 -0.10318768058E+02  0.12024642059E+03  0.16103847246E+03  0.47000000000E+01 0.  1.
         13    1    6    6    0    0 -0.27118247828E+02 -0.54255968938E+02  0.17803641816E+03  0.18808528842E+03  0.00000000000E+00 0. -1.
        -14    1    6    6    0    0  0.28269347421E+02 -0.12734598687E+02  0.23997941178E+02  0.39207488929E+02  0.00000000000E+00 0.  1.
</event>
<event>
12    1  0.9656379E-001  0.6496065E+03  0.7818608E-02  0.9807518E-01
         -2   -1    0    0    0  501 -0.00000000000E+00  0.00000000000E+00  0.28913000410E+03  0.28913000410E+03  0.00000000000E+00 0.  1.
          2   -1    0    0  502    0  0.00000000000E+00 -0.00000000000E+00 -0.19969801669E+04  0.19969801669E+04  0.00000000000E+00 0. -1.
          6    2    1    2  502    0 -0.44730480278E+03  0.43823238570E+03 -0.26104371887E+03  0.70021195447E+03  0.17327362048E+03 0.  0.
         24    2    3    3    0    0 -0.28139089531E+03  0.35017607348E+03 -0.14287556564E+03  0.47824992787E+03  0.80656356533E+02 0.  0.
         -6    2    1    2    0  501  0.44730480278E+03 -0.43823238570E+03 -0.14468064440E+04  0.15858982166E+04  0.17232253639E+03 0.  0.
        -24    2    5    5    0    0  0.45582874857E+03 -0.42490068654E+03 -0.14315941184E+04  0.15634505730E+04  0.81212885607E+02 0.  0.
          5    1    3    3  502    0 -0.16591390747E+03  0.88056312218E+02 -0.11816815323E+03  0.22196202660E+03  0.47000000000E+01 0. -1.
        -11    1    4    4    0    0 -0.17803879356E+03  0.16910081601E+03 -0.52955575618E+02  0.25119154241E+03  0.00000000000E+00 0.  1.
         12    1    4    4    0    0 -0.10335210175E+03  0.18107525747E+03 -0.89919990022E+02  0.22705838546E+03  0.00000000000E+00 0. -1.
         -5    1    5    5    0  501 -0.85239457902E+01 -0.13331699162E+02 -0.15212325532E+02  0.22447643584E+02  0.47000000000E+01 0.  1.
         11    1    6    6    0    0  0.16714529942E+03 -0.20573597830E+03 -0.64627532707E+03  0.69852461822E+03  0.00000000000E+00 0. -1.
        -12    1    6    6    0    0  0.28868344915E+03 -0.21916470824E+03 -0.78531879136E+03  0.86492595476E+03  0.00000000000E+00 0.  1.
</event>
<event>
12    1  0.9656379E-001  0.3313536E+03  0.7818608E-02  0.1070540E+00
         -1   -1    0    0    0  501 -0.00000000000E+00  0.00000000000E+00  0.82274340207E+02  0.82274340207E+02  0.00000000000E+00 0.  1.
          1   -1    0    0  502    0  0.00000000000E+00 -0.00000000000E+00 -0.13860974553E+04  0.13860974553E+04  0.00000000000E+00 0. -1.
          6    2    1    2  502    0 -0.23955393880E+03  0.14762494160E+03 -0.79041525791E+03  0.85642981695E+03  0.17186197497E+03 0.  0.
         24    2    3    3    0    0 -0.21084138408E+03  0.63188996200E+02 -0.48290367082E+03  0.53621222550E+03  0.76685441951E+02 0.  0.
         -6    2    1    2    0  501  0.23955393880E+03 -0.14762494160E+03 -0.51340785717E+03  0.61194197855E+03  0.17806219232E+03 0.  0.
        -24    2    5    5    0    0  0.25150760894E+03 -0.15649242007E+03 -0.43249020919E+03  0.52953276694E+03  0.74908045761E+02 0.  0.
          5    1    3    3  502    0 -0.28712554719E+02  0.84435945398E+02 -0.30751158710E+03  0.32021759145E+03  0.47000000000E+01 0. -1.
        -13    1    4    4    0    0 -0.10361356032E+03  0.33055900899E+02 -0.32697808085E+03  0.34459124746E+03  0.00000000000E+00 0.  1.
         14    1    4    4    0    0 -0.10722782376E+03  0.30133095301E+02 -0.15592558997E+03  0.19162097804E+03  0.00000000000E+00 0. -1.
         -5    1    5    5    0  501 -0.11953670146E+02  0.88674784677E+01 -0.80917647976E+02  0.82409211611E+02  0.47000000000E+01 0.  1.
         13    1    6    6    0    0  0.15804890839E+03 -0.10812952961E+03 -0.21496659974E+03  0.28789250012E+03  0.00000000000E+00 0. -1.
        -14    1    6    6    0    0  0.93458700550E+02 -0.48362890452E+02 -0.21752360945E+03  0.24164026682E+03  0.00000000000E+00 0.  1.
</event>
<event>
12    1  0.9656379E-001  0.8498403E+03  0.7818608E-02  0.9490551E-01
          2   -1    0    0  502    0  0.00000000000E+00  0.00000000000E+00  0.23106092861E+04  0.23106092861E+04  0.00000000000E+00 0. -1.
         -2   -1    0    0    0  501 -0.00000000000E+00 -0.00000000000E+00 -0.86106201227E+03  0.86106201227E+03  0.00000000000E+00 0.  1.
          6    2    1    2  502    0  0.49866095991E+03 -0.66661533400E+03 -0.54087121853E+03  0.10074693345E+04  0.17150518503E+03 0.  0.
         24    2    3    3    0    0  0.27427030960E+03 -0.26041254957E+03 -0.26285763185E+03  0.46648365042E+03  0.73986233714E+02 0.  0.
         -6    2    1    2    0  501 -0.49866095991E+03  0.66661533400E+03  0.19904184924E+04  0.21642019639E+04  0.17019285879E+03 0.  0.
        -24    2    5    5    0    0 -0.37816957966E+03  0.39742275644E+03  0.13303415061E+04  0.14412175004E+04  0.79638448388E+02 0.  0.
          5    1    3    3  502    0  0.22439065030E+03 -0.40620278443E+03 -0.27801358668E+03  0.54098568410E+03  0.47000000000E+01 0. -1.
        -11    1    4    4    0    0  0.17171170498E+03 -0.17268922619E+03 -0.20991306715E+03  0.32151201257E+03  0.00000000000E+00 0.  1.
         12    1    4    4    0    0  0.10255860462E+03 -0.87723323383E+02 -0.52944564702E+02  0.14497163784E+03  0.00000000000E+00 0. -1.
         -5    1    5    5    0  501 -0.12049138025E+03  0.26919257756E+03  0.66007698631E+03  0.72298446345E+03  0.47000000000E+01 0.  1.
         13    1    6    6    0    0 -0.24091338946E+03  0.26290080940E+03  0.95777561141E+03  0.10220030424E+04  0.00000000000E+00 0. -1.
        -14    1    6    6    0    0 -0.13725619020E+03  0.13452194704E+03  0.37256589468E+03  0.41921445808E+03  0.00000000000E+00 0.  1.
</event>
<event>
12    1  0.9656379E-001  0.8009926E+03  0.7818608E-02  0.9558581E-01
          1   -1    0    0  502    0  0.00000000000E+00  0.00000000000E+00  0.82337801052E+03  0.82337801052E+03  0.00000000000E+00 0. -1.
         -1   -1    0    0    0  501 -0.00000000000E+00 -0.00000000000E+00 -0.81213705045E+03  0.81213705045E+03  0.00000000000E+00 0.  1.
          6    2    1    2  502    0 -0.48022709818E+02  0.78076992663E+03 -0.15902316772E+03  0.81679710798E+03  0.17309329494E+03 0.  0.
         24    2    3    3    0    0 -0.38968796862E+01  0.70801581160E+03 -0.11739747426E+03  0.72195493122E+03  0.78327393648E+02 0.  0.
         -6    2    1    2    0  501  0.48022709818E+02 -0.78076992663E+03  0.17026412779E+03  0.81871795299E+03  0.17146823134E+03 0.  0.
        -24    2    5    5    0    0  0.75223909784E+02 -0.73530910512E+03  0.13751653782E+03  0.75625927689E+03  0.81726244472E+02 0.  0.
          5    1    3    3  502    0 -0.44125830132E+02  0.72754115026E+02 -0.41625693457E+02  0.94842176766E+02  0.47000000000E+01 0. -1.
        -13    1    4    4    0    0 -0.38027265476E+02  0.24183985688E+03 -0.34306668519E+02  0.24720343201E+03  0.00000000000E+00 0.  1.
         14    1    4    4    0    0  0.34130385790E+02  0.46617595473E+03 -0.83090805740E+02  0.47475149921E+03  0.00000000000E+00 0. -1.
         -5    1    5    5    0  501 -0.27201199966E+02 -0.45460821510E+02  0.32747589968E+02  0.62458676104E+02  0.47000000000E+01 0.  1.
         13    1    6    6    0    0  0.77999083131E+02 -0.36929585378E+03  0.78234613136E+02  0.38546587305E+03  0.00000000000E+00 0. -1.
        -14    1    6    6    0    0 -0.27751733472E+01 -0.36601325133E+03  0.59281924684E+02  0.37079340384E+03  0.00000000000E+00 0.  1.
</event>
<event>
12    1  0.9656379E-001  0.7582691E+03  0.7818608E-02  0.9622466E-01
          2   -1    0    0  502    0  0.00000000000E+00  0.00000000000E+00  0.14249767574E+04  0.14249767574E+04  0.00000000000E+00 0. -1.
         -2   -1    0    0    0  501 -0.00000000000E+00 -0.00000000000E+00 -0.40500437463E+03  0.40500437463E+03  0.00000000000E+00 0.  1.
          6    2    1    2  502    0 -0.46996708935E+03  0.56964157762E+03  0.56588468628E+03  0.94621305098E+03  0.17243279169E+03 0.  0.
         24    2    3    3    0    0 -0.18038206111E+03  0.17737215462E+03  0.25469035531E+03  0.36776790196E+03  0.79921733065E+02 0.  0.
         -6    2    1    2    0  501  0.46996708935E+03 -0.56964157762E+03  0.45408769645E+03  0.88376808102E+03  0.17172592391E+03 0.  0.
        -24    2    5    5    0    0  0.27616300349E+03 -0.24478949000E+03  0.19200610436E+03  0.42355318183E+03  0.79643297370E+02 0.  0.
          5    1    3    3  502    0 -0.28958502824E+03  0.39226942300E+03  0.31119433097E+03  0.57844514902E+03  0.47000000000E+01 0. -1.
        -11    1    4    4    0    0 -0.17675091785E+03  0.18149353050E+03  0.22900787376E+03  0.34150460439E+03  0.00000000000E+00 0.  1.
         12    1    4    4    0    0 -0.36311432583E+01 -0.41213758790E+01  0.25682481552E+02  0.26263297568E+02  0.00000000000E+00 0. -1.
         -5    1    5    5    0  501  0.19380408586E+03 -0.32485208762E+03  0.26208159209E+03  0.46021489920E+03  0.47000000000E+01 0.  1.
         13    1    6    6    0    0  0.11916167761E+03 -0.15576800775E+03  0.11480486933E+03  0.22725170114E+03  0.00000000000E+00 0. -1.
        -14    1    6    6    0    0  0.15700132588E+03 -0.89021482242E+02  0.77201235031E+02  0.19630148068E+03  0.00000000000E+00 0.  1.
</event>
<event>
12    1  0.9656379E-001  0.3121877E+03  0.7818608E-02  0.1079302E+00
         -1   -1    0    0    0  501 -0.00000000000E+00  0.00000000000E+00  0.10044687597E+04  0.10044687597E+04  0.00000000000E+00 0.  1.
          1   -1    0    0  502    0  0.00000000000E+00 -0.00000000000E+00 -0.14795983585E+03  0.14795983585E+03  0.00000000000E+00 0. -1.
          6    2    1    2  502    0 -0.24464349352E+03  0.90809282854E+02  0.76610422523E+03  0.82717781039E+03  0.17091132585E+03 0.  0.
         24    2    3    3    0    0 -0.12910406553E+03  0.15547101482E+02  0.24510115955E+03  0.28821580819E+03  0.78001292136E+02 0.  0.
         -6    2    1    2    0  501  0.24464349352E+03 -0.90809282854E+02  0.90404698631E+02  0.32525078518E+03  0.17180890243E+03 0.  0.
        -24    2    5    5    0    0  0.10888219865E+03 -0.32910627963E+02 -0.19830531046E+02  0.14097577525E+03  0.80885577399E+02 0.  0.
          5    1    3    3  502    0 -0.11553942799E+03  0.75262181372E+02  0.52100306569E+03  0.53896200220E+03  0.47000000000E+01 0. -1.
        -13    1    4    4    0    0 -0.12117754829E+03  0.18913179596E+02  0.24988845291E+03  0.27836297432E+03  0.00000000000E+00 0.  1.
         14    1    4    4    0    0 -0.79265172378E+01 -0.33660781136E+01 -0.47872933661E+01  0.98528338645E+01  0.00000000000E+00 0. -1.
         -5    1    5    5    0  501  0.13576129487E+03 -0.57898654891E+02  0.11023522968E+03  0.18427500993E+03  0.47000000000E+01 0.  1.
         11    1    6    6    0    0  0.32063244193E+02  0.67207636505E+01 -0.40508246517E+02  0.52097392719E+02  0.00000000000E+00 0. -1.
        -12    1    6    6    0    0  0.76818954454E+02 -0.39631391613E+02  0.20677715471E+02  0.88878382533E+02  0.00000000000E+00 0.  1.
</event>
<event>
12    1  0.9656379E-001  0.3354667E+03  0.7818608E-02  0.1068743E+00
          2   -1    0    0  502    0  0.00000000000E+00  0.00000000000E+00  0.22006912025E+04  0.22006912025E+04  0.00000000000E+00 0. -1.
         -2   -1    0    0    0  501 -0.00000000000E+00 -0.00000000000E+00 -0.51206333476E+02  0.51206333476E+02  0.00000000000E+00 0.  1.
          6    2    1    2  502    0  0.16505187113E+03 -0.23593388623E+03  0.10342389186E+04  0.10873584557E+04  0.17260171351E+03 0.  0.
         24    2    3    3    0    0  0.14838121280E+03 -0.94780904967E+02  0.60929633902E+03  0.63925092290E+03  0.79995683850E+02 0.  0.
         -6    2    1    2    0  501 -0.16505187113E+03  0.23593388623E+03  0.11152459504E+04  0.11645390803E+04  0.17167067549E+03 0.  0.
        -24    2    5    5    0    0 -0.12191115341E+03  0.21251229664E+03  0.69346670468E+03  0.73988685258E+03  0.80701168351E+02 0.  0.
          5    1    3    3  502    0  0.16670658332E+02 -0.14115298126E+03  0.42494257961E+03  0.44810753278E+03  0.47000000000E+01 0. -1.
        -11    1    4    4    0    0  0.10358337654E+03 -0.85355762216E+02  0.33039307895E+03  0.35661563153E+03  0.00000000000E+00 0.  1.
         12    1    4    4    0    0  0.44797836263E+02 -0.94251427515E+01  0.27890326007E+03  0.28263529137E+03  0.00000000000E+00 0. -1.
         -5    1    5    5    0  501 -0.43140717717E+02  0.23421589586E+02  0.42177924573E+03  0.42465222772E+03  0.47000000000E+01 0.  1.
         13    1    6    6    0    0 -0.11446874665E+03  0.12312887382E+03  0.46351963794E+03  0.49306619057E+03  0.00000000000E+00 0. -1.
        -14    1    6    6    0    0 -0.74424067657E+01  0.89383422817E+02  0.22994706674E+03  0.24682066201E+03  0.00000000000E+00 0.  1.
</event>
<event>
12    1  0.9656379E-001  0.3061290E+03  0.7818608E-02  0.1082216E+00
          1   -1    0    0  502    0  0.00000000000E+00  0.00000000000E+00  0.93960521615E+03  0.93960521615E+03  0.00000000000E+00 0. -1.
         -1   -1    0    0    0  501 -0.00000000000E+00 -0.00000000000E+00 -0.23536033598E+03  0.23536033598E+03  0.00000000000E+00 0.  1.
          6    2    1    2  502    0 -0.24551197040E+03  0.65850640972E+02 -0.92810295071E+02  0.32188360040E+03  0.17430681803E+03 0.  0.
         24    2    3    3    0    0 -0.90420719223E+02 -0.24864349266E+02 -0.64139520563E+02  0.13987643308E+03  0.81592867977E+02 0.  0.
         -6    2    1    2    0  501  0.24551197040E+03 -0.65850640972E+02  0.79705517524E+03  0.85308195172E+03  0.16685151916E+03 0.  0.
        -24    2    5    5    0    0  0.23291930903E+03 -0.10128207166E+03  0.72988911824E+03  0.77596301362E+03  0.69792628679E+02 0.  0.
          5    1    3    3  502    0 -0.15509125118E+03  0.90714990238E+02 -0.28670774508E+02  0.18200716732E+03  0.47000000000E+01 0. -1.
        -11    1    4    4    0    0  0.96481490595E+01  0.69491137704E+01 -0.25236598067E+02  0.27897362679E+02  0.00000000000E+00 0.  1.
         12    1    4    4    0    0 -0.10006886828E+03 -0.31813463037E+02 -0.38902922496E+02  0.11197907040E+03  0.00000000000E+00 0. -1.
         -5    1    5    5    0  501  0.12592661367E+02  0.35431430687E+02  0.67166057004E+02  0.77118938104E+02  0.47000000000E+01 0.  1.
         11    1    6    6    0    0  0.10621874414E+03 -0.14701136721E+02  0.35623370890E+03  0.37202284927E+03  0.00000000000E+00 0. -1.
        -12    1    6    6    0    0  0.12670056489E+03 -0.86580934938E+02  0.37365540934E+03  0.40394016434E+03  0.00000000000E+00 0.  1.
</event>
<event>
12    1  0.9656379E-001  0.2282921E+03  0.7818608E-02  0.1127848E+00
         -2   -1    0    0    0  501 -0.00000000000E+00  0.00000000000E+00  0.48073479965E+02  0.48073479965E+02  0.00000000000E+00 0.  1.
          2   -1    0    0  502    0  0.00000000000E+00 -0.00000000000E+00 -0.32719809013E+04  0.32719809013E+04  0.00000000000E+00 0. -1.
          6    2    1    2  502    0 -0.70279883543E+02 -0.12599962698E+03 -0.22796436614E+03  0.31446558796E+03  0.16157254021E+03 0.  0.
         24    2    3    3    0    0 -0.52567099038E+02 -0.28729412372E+02 -0.17842890458E+03  0.20378094884E+03  0.78109679839E+02 0.  0.
         -6    2    1    2    0  501  0.70279883543E+02  0.12599962698E+03 -0.29959430551E+04  0.30055887933E+04  0.19254619303E+03 0.  0.
        -24    2    5    5    0    0  0.10266626617E+03  0.11499732206E+03 -0.28660974320E+04  0.28712314177E+04  0.75436188221E+02 0.  0.
          5    1    3    3  502    0 -0.17712784504E+02 -0.97270214606E+02 -0.49535461560E+02  0.11068463912E+03  0.47000000000E+01 0. -1.
        -13    1    4    4    0    0 -0.47423989912E+02 -0.51949070509E+02 -0.15584682618E+03  0.17098530339E+03  0.00000000000E+00 0.  1.
         14    1    4    4    0    0 -0.51431091261E+01  0.23219658137E+02 -0.22582078397E+02  0.32795645446E+02  0.00000000000E+00 0. -1.
         -5    1    5    5    0  501 -0.32386382626E+02  0.11002304918E+02 -0.12984562319E+03  0.13435737552E+03  0.47000000000E+01 0.  1.
         11    1    6    6    0    0  0.48514563064E+01  0.56650162617E+02 -0.82282743792E+03  0.82478953082E+03  0.00000000000E+00 0. -1.
        -12    1    6    6    0    0  0.97814809862E+02  0.58347159443E+02 -0.20432699940E+04  0.20464418869E+04  0.00000000000E+00 0.  1.
</event>
<event>
12    1  0.9656379E-001  0.4617132E+03  0.7818608E-02  0.1024286E+00
         -2   -1    0    0    0  501 -0.00000000000E+00  0.00000000000E+00  0.41971459285E+03  0.41971459285E+03  0.00000000000E+00 0.  1.
          2   -1    0    0  502    0  0.00000000000E+00 -0.00000000000E+00 -0.50792324874E+03  0.50792324874E+03  0.00000000000E+00 0. -1.
          6    2    1    2  502    0 -0.37450303313E+03  0.20922561466E+03 -0.46024282556E+02  0.46450663517E+03  0.17210549053E+03 0.  0.
         24    2    3    3    0    0 -0.10981678691E+03  0.70703930394E+02  0.31451011026E+02  0.15584569324E+03  0.78993300647E+02 0.  0.
         -6    2    1    2    0  501  0.37450303313E+03 -0.20922561466E+03 -0.42184373329E+02  0.46313120642E+03  0.16936089675E+03 0.  0.
        -24    2    5    5    0    0  0.36134242313E+03 -0.21650603749E+03 -0.67438781884E+02  0.43336408759E+03  0.76244554436E+02 0.  0.
          5    1    3    3  502    0 -0.26468624623E+03  0.13852168427E+03 -0.77475293582E+02  0.30866094193E+03  0.47000000000E+01 0. -1.
        -13    1    4    4    0    0  0.26776127522E+01 -0.12412759607E+02  0.39512627353E+01  0.13298822817E+02  0.00000000000E+00 0.  1.
         14    1    4    4    0    0 -0.11249439966E+03  0.83116690000E+02  0.27499748291E+02  0.14254687042E+03  0.00000000000E+00 0. -1.
         -5    1    5    5    0  501  0.13160610000E+02  0.72804228295E+01  0.25254408555E+02  0.29767118833E+02  0.47000000000E+01 0.  1.
         13    1    6    6    0    0  0.48845503952E+02 -0.41133984002E+02 -0.36825847305E+02  0.73715879740E+02  0.00000000000E+00 0. -1.
        -14    1    6    6    0    0  0.31249691918E+03 -0.17537205349E+03 -0.30612934580E+02  0.35964820785E+03  0.00000000000E+00 0.  1.
</event>
<event>
12    1  0.9656379E-001  0.4778624E+03  0.7818608E-02  0.1019724E+00
         -2   -1    0    0    0  501 -0.00000000000E+00  0.00000000000E+00  0.41090465719E+03  0.41090465719E+03  0.00000000000E+00 0.  1.
          2   -1    0    0  502    0  0.00000000000E+00 -0.00000000000E+00 -0.24567413693E+04  0.24567413693E+04  0.00000000000E+00 0. -1.
          6    2    1    2  502    0 -0.15442745689E+03 -0.41813568827E+03  0.23834082040E+03  0.53402262419E+03  0.17230357869E+03 0.  0.
         24    2    3    3    0    0 -0.17117832118E+03 -0.41204430853E+03  0.24431254697E+03  0.51464614671E+03  0.78035286102E+02 0.  0.
         -6    2    1    2    0  501  0.15442745689E+03  0.41813568827E+03 -0.22841775325E+04  0.23336234023E+04  0.17217982021E+03 0.  0.
        -24    2    5    5    0    0  0.12612405864E+03  0.16792368726E+03 -0.11620029987E+04  0.11835343178E+04  0.79980433024E+02 0.  0.
          5    1    3    3  502    0  0.16750864286E+02 -0.60913797381E+01 -0.59717265696E+01  0.19376477483E+02  0.47000000000E+01 0. -1.
        -13    1    4    4    0    0 -0.15606303291E+03 -0.33214793842E+03  0.16983180574E+03  0.40437700909E+03  0.00000000000E+00 0.  1.
         14    1    4    4    0    0 -0.15115288266E+02 -0.79896370111E+02  0.74480741234E+02  0.11026913762E+03  0.00000000000E+00 0. -1.
         -5    1    5    5    0  501  0.28303398254E+02  0.25021200101E+03 -0.11221745338E+04  0.11500890845E+04  0.47000000000E+01 0.  1.
         11    1    6    6    0    0  0.66423814273E+02  0.12969460177E+03 -0.61880057971E+03  0.63572554635E+03  0.00000000000E+00 0. -1.
        -12    1    6    6    0    0  0.59700244362E+02  0.38229085490E+02 -0.54320241896E+03  0.54780877148E+03  0.00000000000E+00 0.  1.
</event>
<event>
12    1  0.9656379E-001  0.3016463E+03  0.7818608E-02  0.1084421E+00
          1   -1    0    0  502    0  0.00000000000E+00  0.00000000000E+00  0.17665190050E+04  0.17665190050E+04  0.00000000000E+00 0. -1.
         -1   -1    0    0    0  501 -0.00000000000E+00 -0.00000000000E+00 -0.10406305448E+03  0.10406305448E+03  0.00000000000E+00 0.  1.
          6    2    1    2  502    0 -0.12753114004E+03  0.21277425762E+03  0.16610980805E+03  0.34406898446E+03  0.17103777757E+03 0.  0.
         24    2    3    3    0    0 -0.20381784688E+02  0.16325218154E+03  0.86108680845E+02  0.20139561370E+03  0.77966636297E+02 0.  0.
         -6    2    1    2    0  501  0.12753114004E+03 -0.21277425762E+03  0.14963461425E+04  0.15265130750E+04  0.17220137544E+03 0.  0.
        -24    2    5    5    0    0  0.14086395215E+03 -0.21541154177E+03  0.14812945775E+04  0.15056958044E+04  0.81495060172E+02 0.  0.
          5    1    3    3  502    0 -0.10714935535E+03  0.49522076075E+02  0.80001127204E+02  0.14267337076E+03  0.47000000000E+01 0. -1.
        -13    1    4    4    0    0 -0.44828378059E+02  0.10279066296E+03  0.31895759719E+02  0.11658835002E+03  0.00000000000E+00 0.  1.
         14    1    4    4    0    0  0.24446593371E+02  0.60461518581E+02  0.54212921127E+02  0.84807263685E+02  0.00000000000E+00 0. -1.
         -5    1    5    5    0  501 -0.13332812112E+02  0.26372841482E+01  0.15051565019E+02  0.20817270618E+02  0.47000000000E+01 0.  1.
         13    1    6    6    0    0  0.84696113706E+02 -0.14497465178E+03  0.73225327351E+03  0.75125623985E+03  0.00000000000E+00 0. -1.
        -14    1    6    6    0    0  0.56167838441E+02 -0.70436889988E+02  0.74904130395E+03  0.75443956456E+03  0.00000000000E+00 0.  1.
</event>
<event>
12    1  0.9656379E-001  0.6505104E+03  0.7818608E-02  0.9805822E-01
         -2   -1    0    0    0  501 -0.00000000000E+00  0.00000000000E+00  0.15034823532E+03  0.15034823532E+03  0.00000000000E+00 0.  1.
          2   -1    0    0  502    0  0.00000000000E+00 -0.00000000000E+00 -0.34344450059E+04  0.34344450059E+04  0.00000000000E+00 0. -1.
          6    2    1    2  502    0  0.54652272247E+03  0.30860472233E+03 -0.88281290393E+03  0.10972405569E+04  0.17508356730E+03 0.  0.
         24    2    3    3    0    0  0.29064898732E+03  0.20822301514E+03 -0.40660199425E+03  0.54737986911E+03  0.80410705219E+02 0.  0.
         -6    2    1    2    0  501 -0.54652272247E+03 -0.30860472233E+03 -0.24012838666E+04  0.24875526843E+04  0.16682382382E+03 0.  0.
        -24    2    5    5    0    0 -0.27329361697E+03 -0.86842383919E+02 -0.11222820453E+04  0.11610156785E+04  0.78799846179E+02 0.  0.
          5    1    3    3  502    0  0.25587373516E+03  0.10038170719E+03 -0.47621090968E+03  0.54986068779E+03  0.47000000000E+01 0. -1.
        -11    1    4    4    0    0  0.23167029226E+03  0.12347515874E+03 -0.30668957324E+03  0.40370253093E+03  0.00000000000E+00 0.  1.
         12    1    4    4    0    0  0.58978695051E+02  0.84747856396E+02 -0.99912421012E+02  0.14367733818E+03  0.00000000000E+00 0. -1.
         -5    1    5    5    0  501 -0.27322910551E+03 -0.22176233841E+03 -0.12790018214E+04  0.13265370058E+04  0.47000000000E+01 0.  1.
         13    1    6    6    0    0 -0.20696445935E+03 -0.96525737872E+02 -0.91984581097E+03  0.94776992011E+03  0.00000000000E+00 0. -1.
        -14    1    6    6    0    0 -0.66329157611E+02  0.96833539531E+01 -0.20243623431E+03  0.21324575835E+03  0.00000000000E+00 0.  1.
</event>
<event>
12    1  0.9656379E-001  0.7647287E+03  0.7818608E-02  0.9612523E-01
          2   -1    0    0  502    0  0.00000000000E+00  0.00000000000E+00  0.19296399229E+04  0.19296399229E+04  0.00000000000E+00 0. -1.
         -2   -1    0    0    0  501 -0.00000000000E+00 -0.00000000000E+00 -0.33353773826E+03  0.33353773826E+03  0.00000000000E+00 0.  1.
          6    2    1    2  502    0 -0.52470140021E+03  0.52884575529E+03  0.45604886878E+03  0.89040883705E+03  0.17279448516E+03 0.  0.
         24    2    3    3    0    0 -0.28518925964E+03  0.36467924297E+03  0.23181617047E+03  0.52350407796E+03  0.77420402245E+02 0.  0.
         -6    2    1    2    0  501  0.52470140021E+03 -0.52884575529E+03  0.11400533159E+04  0.13727688242E+04  0.17257835667E+03 0.  0.
        -24    2    5    5    0    0  0.43704106540E+03 -0.38364880609E+03  0.79349786250E+03  0.98690711234E+03  0.78456939417E+02 0.  0.
          5    1    3    3  502    0 -0.23951214057E+03  0.16416651232E+03  0.22423269831E+03  0.36690475909E+03  0.47000000000E+01 0. -1.
        -13    1    4    4    0    0 -0.19267534902E+03  0.26370934496E+03  0.19980317041E+03  0.38286775216E+03  0.00000000000E+00 0.  1.
         14    1    4    4    0    0 -0.92513910615E+02  0.10096989801E+03  0.32013000066E+02  0.14063632580E+03  0.00000000000E+00 0. -1.
         -5    1    5    5    0  501  0.87660334810E+02 -0.14519694921E+03  0.34655545340E+03  0.38586171181E+03  0.47000000000E+01 0.  1.
         13    1    6    6    0    0  0.34407571985E+03 -0.33520060159E+03  0.67807555588E+03  0.83098375663E+03  0.00000000000E+00 0. -1.
        -14    1    6    6    0    0  0.92965345544E+02 -0.48448204492E+02  0.11542230662E+03  0.15592335571E+03  0.00000000000E+00 0.  1.
</event>
<event>
12    1  0.9656379E-001  0.2869663E+03  0.7818608E-02  0.1091944E+00
         -2   -1    0    0    0  501 -0.00000000000E+00  0.00000000000E+00  0.26845545873E+03  0.26845545873E+03  0.00000000000E+00 0.  1.
          2   -1    0    0  502    0  0.00000000000E+00 -0.00000000000E+00 -0.14001540706E+04  0.14001540706E+04  0.00000000000E+00 0. -1.
          6    2    1    2  502    0 -0.72678956073E+02  0.21813307790E+03  0.17157313680E+03  0.33404206398E+03  0.17112126959E+03 0.  0.
         24    2    3    3    0    0  0.16403882552E+00  0.88300755283E+02  0.18780059732E+02  0.12066364824E+03  0.80062319920E+02 0.  0.
         -6    2    1    2    0  501  0.72678956073E+02 -0.21813307790E+03 -0.13032717487E+04  0.13345674653E+04  0.17230437709E+03 0.  0.
        -24    2    5    5    0    0 -0.20365786167E+02 -0.12165358212E+03 -0.53848861939E+03  0.55811338300E+03  0.79411559529E+02 0.  0.
          5    1    3    3  502    0 -0.72842994898E+02  0.12983232261E+03  0.15279307707E+03  0.21337841574E+03  0.47000000000E+01 0. -1.
        -11    1    4    4    0    0  0.38816842485E+02  0.49671386351E+02  0.19582128903E+02  0.66011011619E+02  0.00000000000E+00 0.  1.
         12    1    4    4    0    0 -0.38652803660E+02  0.38629368932E+02 -0.80206917087E+00  0.54652636622E+02  0.00000000000E+00 0. -1.
         -5    1    5    5    0  501  0.93044742240E+02 -0.96479495779E+02 -0.76478312927E+03  0.77645408234E+03  0.47000000000E+01 0.  1.
         11    1    6    6    0    0  0.24894244964E+02 -0.34594487692E+02 -0.24438269321E+03  0.24807136625E+03  0.00000000000E+00 0. -1.
        -12    1    6    6    0    0 -0.45260031132E+02 -0.87059094425E+02 -0.29410592618E+03  0.31004201675E+03  0.00000000000E+00 0.  1.
</event>
<event>
12    1  0.9656379E-001  0.8118315E+03  0.7818608E-02  0.9543048E-01
         -2   -1    0    0    0  501 -0.00000000000E+00  0.00000000000E+00  0.15711249817E+04  0.15711249817E+04  0.00000000000E+00 0.  1.
          2   -1    0    0  502    0  0.00000000000E+00 -0.00000000000E+00 -0.79183896831E+03  0.79183896831E+03  0.00000000000E+00 0. -1.
          6    2    1    2  502    0 -0.56181007091E+03 -0.56027076182E+03  0.11998570258E+04  0.14487630934E+04  0.17240573054E+03 0.  0.
         24    2    3    3    0    0 -0.34853004905E+03 -0.43972653218E+03  0.82247561992E+03  0.99880965738E+03  0.79510805048E+02 0.  0.
         -6    2    1    2    0  501  0.56181007091E+03  0.56027076182E+03 -0.42057101242E+03  0.91420085666E+03  0.17131651265E+03 0.  0.
        -24    2    5    5    0    0  0.26469011525E+03  0.32040106539E+03 -0.27664792847E+03  0.50609096532E+03  0.82923392582E+02 0.  0.
          5    1    3    3  502    0 -0.21328002186E+03 -0.12054422964E+03  0.37738140590E+03  0.44995343597E+03  0.47000000000E+01 0. -1.
        -13    1    4    4    0    0 -0.28518210731E+03 -0.37250918318E+03  0.73256684602E+03  0.86991155284E+03  0.00000000000E+00 0.  1.
         14    1    4    4    0    0 -0.63347941733E+02 -0.67217349003E+02  0.89908773905E+02  0.12889810454E+03  0.00000000000E+00 0. -1.
         -5    1    5    5    0  501  0.29711995566E+03  0.23986969643E+03 -0.14392308395E+03  0.40810989134E+03  0.47000000000E+01 0.  1.
         13    1    6    6    0    0  0.12860642693E+03  0.17362133771E+03 -0.95864271943E+02  0.23637669215E+03  0.00000000000E+00 0. -1.
        -14    1    6    6    0    0  0.13608368832E+03  0.14677972767E+03 -0.18078365653E+03  0.26971427317E+03  0.00000000000E+00 0.  1.
</event>
<event>
12    1  0.9656379E-001  0.7130950E+03  0.7818608E-02  0.9695096E-01
          2   -1    0    0  502    0  0.00000000000E+00  0.00000000000E+00  0.15752047926E+04  0.15752047926E+04  0.00000000000E+00 0. -1.
         -2   -1    0    0    0  501 -0.00000000000E+00 -0.00000000000E+00 -0.34375865348E+03  0.34375865348E+03  0.00000000000E+00 0.  1.
          6    2    1    2  502    0 -0.38687326062E+02 -0.69050733329E+03  0.85260583785E+03  0.11115594624E+04  0.17415693266E+03 0.  0.
         24    2    3    3    0    0 -0.14749300242E+02 -0.16380896192E+03  0.26607195568E+03  0.32287176222E+03  0.80006070873E+02 0.  0.
         -6    2    1    2    0  501  0.38687326062E+02  0.69050733329E+03  0.37884030132E+03  0.80740398372E+03  0.17344778033E+03 0.  0.
        -24    2    5    5    0    0  0.40473815566E+02  0.55283250447E+03  0.36636826406E+03  0.66907397343E+03  0.78564427446E+02 0.  0.
          5    1    3    3  502    0 -0.23938025820E+02 -0.52669837138E+03  0.58653388216E+03  0.78868770018E+03  0.47000000000E+01 0. -1.
        -11    1    4    4    0    0  0.28651428498E+02 -0.95282394168E+02  0.17156308476E+03  0.19832682886E+03  0.00000000000E+00 0.  1.
         12    1    4    4    0    0 -0.43400728740E+02 -0.68526567748E+02  0.94508870920E+02  0.12454493336E+03  0.00000000000E+00 0. -1.
         -5    1    5    5    0  501 -0.17864895043E+01  0.13767482882E+03  0.12472037261E+02  0.13833001030E+03  0.47000000000E+01 0.  1.
         13    1    6    6    0    0  0.38084866984E+02  0.27255164184E+03  0.13985718141E+03  0.30869869737E+03  0.00000000000E+00 0. -1.
        -14    1    6    6    0    0  0.23889485819E+01  0.28028086263E+03  0.22651108265E+03  0.36037527606E+03  0.00000000000E+00 0.  1.
</event>
<event>
12    1  0.9656379E-001  0.8021560E+03  0.7818608E-02  0.9556902E-01
         -2   -1    0    0    0  501 -0.00000000000E+00  0.00000000000E+00  0.11791586273E+04  0.11791586273E+04  0.00000000000E+00 0.  1.
          2   -1    0    0  502    0  0.00000000000E+00 -0.00000000000E+00 -0.71393638424E+03  0.71393638424E+03  0.00000000000E+00 0. -1.
          6    2    1    2  502    0  0.78131118057E+03  0.53900233380E+02  0.69217423748E+03  0.10597214366E+04  0.17479116744E+03 0.  0.
         24    2    3    3    0    0  0.53929571973E+03  0.87780262305E+02  0.41917721877E+03  0.69329436086E+03  0.80014263071E+02 0.  0.
         -6    2    1    2    0  501 -0.78131118057E+03 -0.53900233380E+02 -0.22695199440E+03  0.83337357492E+03  0.17219730421E+03 0.  0.
        -24    2    5    5    0    0 -0.72023046813E+03 -0.80480988184E+02 -0.17823066604E+03  0.75071011386E+03  0.81181205050E+02 0.  0.
          5    1    3    3  502    0  0.24201546084E+03 -0.33880028925E+02  0.27299701871E+03  0.36642707579E+03  0.47000000000E+01 0. -1.
        -13    1    4    4    0    0  0.43507455962E+03  0.88982580349E+02  0.37012479336E+03  0.57810045381E+03  0.00000000000E+00 0.  1.
         14    1    4    4    0    0  0.10422116011E+03 -0.12023180440E+01  0.49052425416E+02  0.11519390705E+03  0.00000000000E+00 0. -1.
         -5    1    5    5    0  501 -0.61080712444E+02  0.26580754805E+02 -0.48721328354E+02  0.82663461065E+02  0.47000000000E+01 0.  1.
         13    1    6    6    0    0 -0.16685871428E+03 -0.52802512526E+02 -0.35918308967E+02  0.17866186156E+03  0.00000000000E+00 0. -1.
        -14    1    6    6    0    0 -0.55337175385E+03 -0.27678475658E+02 -0.14231235707E+03  0.57204825230E+03  0.00000000000E+00 0.  1.
</event>
<event>
12    1  0.9656379E-001  0.7536111E+03  0.7818608E-02  0.9629702E-01
         -2   -1    0    0    0  501 -0.00000000000E+00  0.00000000000E+00  0.91119000879E+03  0.91119000879E+03  0.00000000000E+00 0.  1.
          2   -1    0    0  502    0  0.00000000000E+00 -0.00000000000E+00 -0.20376045323E+04  0.20376045323E+04  0.00000000000E+00 0. -1.
          6    2    1    2  502    0  0.72842746502E+03 -0.88261937322E+02  0.66517672610E+03  0.10051297548E+04  0.17154884308E+03 0.  0.
         24    2    3    3    0    0  0.62605917744E+03 -0.12548792454E+03  0.54903720197E+03  0.84583280095E+03  0.79334514204E+02 0.  0.
         -6    2    1    2    0  501 -0.72842746502E+03  0.88261937322E+02 -0.17915912497E+04  0.19436647864E+04  0.17215357854E+03 0.  0.
        -24    2    5    5    0    0 -0.52157665552E+03  0.34235193277E+02 -0.11131298198E+04  0.12323012027E+04  0.79334748231E+02 0.  0.
          5    1    3    3  502    0  0.10236828758E+03  0.37225987218E+02  0.11613952413E+03  0.15929695381E+03  0.47000000000E+01 0. -1.
        -13    1    4    4    0    0  0.30836928516E+03 -0.31875998559E+02  0.23047536126E+03  0.38629857295E+03  0.00000000000E+00 0.  1.
         14    1    4    4    0    0  0.31768989228E+03 -0.93611925982E+02  0.31856184071E+03  0.45953422799E+03  0.00000000000E+00 0. -1.
         -5    1    5    5    0  501 -0.20685080950E+03  0.54026744045E+02 -0.67846142984E+03  0.71136358372E+03  0.47000000000E+01 0.  1.
         13    1    6    6    0    0 -0.78504644342E+02  0.31283922265E+02 -0.15073582018E+03  0.17280899994E+03  0.00000000000E+00 0. -1.
        -14    1    6    6    0    0 -0.44307201118E+03  0.29512710126E+01 -0.96239399964E+03  0.10594922027E+04  0.00000000000E+00 0.  1.
</event>
<event>
12    1  0.9656379E-001  0.2917359E+03  0.7818608E-02  0.1089446E+00
          1   -1    0    0  502    0  0.00000000000E+00  0.00000000000E+00  0.12221215262E+04  0.12221215262E+04  0.00000000000E+00 0. -1.
         -1   -1    0    0    0  501 -0.00000000000E+00 -0.00000000000E+00 -0.17913176061E+03  0.17913176061E+03  0.00000000000E+00 0.  1.
          6    2    1    2  502    0  0.89965310018E+02  0.21733794027E+03 -0.25746396952E+02  0.29360925180E+03  0.17382168593E+03 0.  0.
         24    2    3    3    0    0  0.35088850998E+02  0.36240742403E+02 -0.42717065029E+02  0.10356264066E+03  0.79723610193E+02 0.  0.
         -6    2    1    2    0  501 -0.89965310018E+02 -0.21733794027E+03  0.10687361625E+04  0.11076440350E+04  0.17131487345E+03 0.  0.
        -24    2    5    5    0    0 -0.31256673596E+02 -0.16337907965E+03  0.48866678439E+03  0.52210083754E+03  0.78258258856E+02 0.  0.
          5    1    3    3  502    0  0.54876459020E+02  0.18109719787E+03  0.16970668077E+02  0.19004661114E+03  0.47000000000E+01 0. -1.
        -13    1    4    4    0    0  0.51440374222E+02  0.45091355703E+02 -0.14748249211E+02  0.69977520062E+02  0.00000000000E+00 0.  1.
         14    1    4    4    0    0 -0.16351523224E+02 -0.88506133000E+01 -0.27968815818E+02  0.33585120601E+02  0.00000000000E+00 0. -1.
         -5    1    5    5    0  501 -0.58708636421E+02 -0.53958860622E+02  0.58006937811E+03  0.58554319743E+03  0.47000000000E+01 0.  1.
         11    1    6    6    0    0 -0.35258486397E+02 -0.10905343091E+03  0.41466139736E+03  0.43020911906E+03  0.00000000000E+00 0. -1.
        -12    1    6    6    0    0  0.40018128007E+01 -0.54325648735E+02  0.74005387032E+02  0.91891718484E+02  0.00000000000E+00 0.  1.
</event>
<event>
12    1  0.9656379E-001  0.3951820E+03  0.7818608E-02  0.1045461E+00
         -1   -1    0    0    0  501 -0.00000000000E+00  0.00000000000E+00  0.23751313232E+03  0.23751313232E+03  0.00000000000E+00 0.  1.
          1   -1    0    0  502    0  0.00000000000E+00 -0.00000000000E+00 -0.70580552688E+03  0.70580552688E+03  0.00000000000E+00 0. -1.
          6    2    1    2  502    0  0.22110855605E+03  0.27877664438E+03 -0.11071057496E+03  0.41028241079E+03  0.17166657855E+03 0.  0.
         24    2    3    3    0    0  0.58836031330E+02  0.13552696332E+03 -0.94925287873E+02  0.19320153027E+03  0.80540577661E+02 0.  0.
         -6    2    1    2    0  501 -0.22110855605E+03 -0.27877664438E+03 -0.35758181960E+03  0.53303624841E+03  0.17221345300E+03 0.  0.
        -24    2    5    5    0    0 -0.23393541241E+03 -0.25560935485E+03 -0.28543672420E+03  0.45604107752E+03  0.80233542873E+02 0.  0.
          5    1    3    3  502    0  0.16227252472E+03  0.14324968105E+03 -0.15785287082E+02  0.21708088052E+03  0.47000000000E+01 0. -1.
        -13    1    4    4    0    0  0.68322149959E+02  0.13403298860E+03 -0.68915104504E+02  0.16547522424E+03  0.00000000000E+00 0.  1.
         14    1    4    4    0    0 -0.94861186295E+01  0.14939747231E+01 -0.26010183370E+02  0.27726306030E+02  0.00000000000E+00 0. -1.
         -5    1    5    5    0  501  0.12826856358E+02 -0.23167289523E+02 -0.72145095406E+02  0.76995170881E+02  0.47000000000E+01 0.  1.
         13    1    6    6    0    0 -0.11798145849E+03 -0.72048517162E+02 -0.12036247744E+03  0.18329686126E+03  0.00000000000E+00 0. -1.
        -14    1    6    6    0    0 -0.11595395392E+03 -0.18356083769E+03 -0.16507424676E+03  0.27274421627E+03  0.00000000000E+00 0.  1.
</event>
<event>
12    1  0.9656379E-001  0.3468972E+03  0.7818608E-02  0.1063896E+00
         -1   -1    0    0    0  501 -0.00000000000E+00  0.00000000000E+00  0.48044426815E+03  0.48044426815E+03  0.00000000000E+00 0.  1.
          1   -1    0    0  502    0  0.00000000000E+00 -0.00000000000E+00 -0.56037354224E+03  0.56037354224E+03  0.00000000000E+00 0. -1.
          6    2    1    2  502    0 -0.25117796919E+03 -0.16681958276E+03  0.34704181298E+03  0.49068636187E+03  0.17151075876E+03 0.  0.
         24    2    3    3    0    0 -0.86476825529E+02 -0.13313862358E+03  0.19523649868E+03  0.26412992920E+03  0.80269512527E+02 0.  0.
         -6    2    1    2    0  501  0.25117796919E+03  0.16681958276E+03 -0.42697108707E+03  0.55013144851E+03  0.17152596321E+03 0.  0.
        -24    2    5    5    0    0  0.12066301782E+03  0.15967777836E+03 -0.28779582851E+03  0.35914191871E+03  0.78101998014E+02 0.  0.
          5    1    3    3  502    0 -0.16470114366E+03 -0.33680959183E+02  0.15180531430E+03  0.22655643267E+03  0.47000000000E+01 0. -1.
        -13    1    4    4    0    0 -0.63321536363E+01 -0.63773829986E+02  0.11325924254E+03  0.13013398319E+03  0.00000000000E+00 0.  1.
         14    1    4    4    0    0 -0.80144671892E+02 -0.69364793589E+02  0.81977256144E+02  0.13399594601E+03  0.00000000000E+00 0. -1.
         -5    1    5    5    0  501  0.13051495137E+03  0.71418043945E+01 -0.13917525855E+03  0.19098952980E+03  0.47000000000E+01 0.  1.
         11    1    6    6    0    0  0.92902871527E+02  0.12171463073E+03 -0.15334405140E+03  0.21670208345E+03  0.00000000000E+00 0. -1.
        -12    1    6    6    0    0  0.27760146297E+02  0.37963147633E+02 -0.13445177712E+03  0.14243983526E+03  0.00000000000E+00 0.  1.
</event>
<event>
12    1  0.9656379E-001  0.2300623E+03  0.7818608E-02  0.1126596E+00
         -2   -1    0    0    0  501 -0.00000000000E+00  0.00000000000E+00  0.23183494180E+03  0.23183494180E+03  0.00000000000E+00 0.  1.
          2   -1    0    0  502    0  0.00000000000E+00 -0.00000000000E+00 -0.48625511219E+03  0.48625511219E+03  0.00000000000E+00 0. -1.
          6    2    1    2  502    0  0.11226951702E+03 -0.10331548867E+03  0.13418023105E+03  0.26672478289E+03  0.17279826605E+03 0.  0.
         24    2    3    3    0    0  0.10032015365E+03 -0.13397096218E+03  0.76651258868E+02  0.20028520145E+03  0.78907505960E+02 0.  0.
         -6    2    1    2    0  501 -0.11226951702E+03  0.10331548867E+03 -0.38860040145E+03  0.45136527110E+03  0.17158613377E+03 0.  0.
        -24    2    5    5    0    0 -0.10685557241E+03  0.11320799988E+03 -0.39832829700E+03  0.43574814825E+03  0.83527551850E+02 0.  0.
          5    1    3    3  502    0  0.11949363371E+02  0.30655473510E+02  0.57528972187E+02  0.66439581440E+02  0.47000000000E+01 0. -1.
        -13    1    4    4    0    0  0.64854393551E+02 -0.59316019738E+02  0.78166898836E+02  0.11762034957E+03  0.00000000000E+00 0.  1.
         14    1    4    4    0    0  0.35465760101E+02 -0.74654942445E+02 -0.15156399685E+01  0.82664851875E+02  0.00000000000E+00 0. -1.
         -5    1    5    5    0  501 -0.54139446164E+01 -0.98925112098E+01  0.97278955552E+01  0.15617122855E+02  0.47000000000E+01 0.  1.
         11    1    6    6    0    0 -0.11279974274E+03  0.87401409905E+02 -0.27736684881E+03  0.31192171652E+03  0.00000000000E+00 0. -1.
        -12    1    6    6    0    0  0.59441703314E+01  0.25806589978E+02 -0.12096144819E+03  0.12382643173E+03  0.00000000000E+00 0.  1.
</event>
<event>
12    1  0.9656379E-001  0.4089881E+03  0.7818608E-02  0.1040711E+00
         -2   -1    0    0    0  501 -0.00000000000E+00  0.00000000000E+00  0.18179765061E+04  0.18179765061E+04  0.00000000000E+00 0.  1.
          2   -1    0    0  502    0  0.00000000000E+00 -0.00000000000E+00 -0.17666194715E+04  0.17666194715E+04  0.00000000000E+00 0. -1.
          6    2    1    2  502    0 -0.35274936340E+03  0.11600305556E+03  0.17706752055E+04  0.18170758101E+04  0.16907097314E+03 0.  0.
         24    2    3    3    0    0 -0.30445101991E+03  0.52864333135E+02  0.12392010965E+04  0.12796690304E+04  0.80301984465E+02 0.  0.
         -6    2    1    2    0  501  0.35274936340E+03 -0.11600305556E+03 -0.17193181709E+04  0.17675201675E+04  0.17373470440E+03 0.  0.
        -24    2    5    5    0    0  0.19659751046E+03 -0.11837113813E+03 -0.12313424590E+04  0.12551419924E+04  0.80714695912E+02 0.  0.
          5    1    3    3  502    0 -0.48298343491E+02  0.63138722429E+02  0.53147410904E+03  0.53740677967E+03  0.47000000000E+01 0. -1.
        -11    1    4    4    0    0 -0.14078388235E+03  0.30641072060E+02  0.73866029567E+03  0.75258089879E+03  0.00000000000E+00 0.  1.
         12    1    4    4    0    0 -0.16366713756E+03  0.22223261075E+02  0.50054080081E+03  0.52708813165E+03  0.00000000000E+00 0. -1.
         -5    1    5    5    0  501  0.15615185294E+03  0.23680825710E+01 -0.48797571183E+03  0.51237817511E+03  0.47000000000E+01 0.  1.
         11    1    6    6    0    0  0.19829804070E+03 -0.11836838896E+03 -0.12318942689E+04  0.12533541711E+04  0.00000000000E+00 0. -1.
        -12    1    6    6    0    0 -0.17005302391E+01 -0.27491702812E-02  0.55180989723E+00  0.17878212480E+01  0.00000000000E+00 0.  1.
</event>
<event>
12    1  0.9656379E-001  0.3276137E+03  0.7818608E-02  0.1072198E+00
          2   -1    0    0  502    0  0.00000000000E+00  0.00000000000E+00  0.26312130249E+03  0.26312130249E+03  0.00000000000E+00 0. -1.
         -2   -1    0    0    0  501 -0.00000000000E+00 -0.00000000000E+00 -0.51692003861E+03  0.51692003861E+03  0.00000000000E+00 0.  1.
          6    2    1    2  502    0  0.25817202696E+03  0.10483522507E+03 -0.30612205706E+03  0.44866487413E+03  0.17304980654E+03 0.  0.
         24    2    3    3    0    0  0.64946030860E+02  0.83579749471E+02 -0.10872673630E+03  0.17158170346E+03  0.80095045604E+02 0.  0.
         -6    2    1    2    0  501 -0.25817202696E+03 -0.10483522507E+03  0.52323320942E+02  0.33137646696E+03  0.17155003066E+03 0.  0.
        -24    2    5    5    0    0 -0.37741887351E+02 -0.34572796094E+02  0.37001015089E+02  0.99464590527E+02  0.76840102554E+02 0.  0.
          5    1    3    3  502    0  0.19322599610E+03  0.21255475598E+02 -0.19739532076E+03  0.27708317067E+03  0.47000000000E+01 0. -1.
        -13    1    4    4    0    0  0.72882851535E+02  0.72708779014E+02 -0.11695130457E+03  0.15580784394E+03  0.00000000000E+00 0.  1.
         14    1    4    4    0    0 -0.79368206751E+01  0.10870970457E+02  0.82245682643E+01  0.15773859523E+02  0.00000000000E+00 0. -1.
         -5    1    5    5    0  501 -0.22043013961E+03 -0.70262428975E+02  0.15322305853E+02  0.23191187643E+03  0.47000000000E+01 0.  1.
         11    1    6    6    0    0 -0.54763258688E+02 -0.19170106610E+02  0.46761973517E+02  0.74519726628E+02  0.00000000000E+00 0. -1.
        -12    1    6    6    0    0  0.17021371337E+02 -0.15402689484E+02 -0.97609584273E+01  0.24944863899E+02  0.00000000000E+00 0.  1.
</event>
<event>
12    1  0.9656379E-001  0.2339875E+03  0.7818608E-02  0.1123864E+00
          2   -1    0    0  502    0  0.00000000000E+00  0.00000000000E+00  0.53229615262E+03  0.53229615262E+03  0.00000000000E+00 0. -1.
         -2   -1    0    0    0  501 -0.00000000000E+00 -0.00000000000E+00 -0.37085799378E+03  0.37085799378E+03  0.00000000000E+00 0.  1.
          6    2    1    2  502    0  0.13765933026E+03 -0.93893596232E+02 -0.30275936664E+03  0.38502481080E+03  0.16974914499E+03 0.  0.
         24    2    3    3    0    0  0.80187741684E+02 -0.31285766019E+02 -0.66101543375E+02  0.13352582630E+03  0.77787268750E+02 0.  0.
         -6    2    1    2    0  501 -0.13765933026E+03  0.93893596232E+02  0.46419752548E+03  0.51812933560E+03  0.15878465645E+03 0.  0.
        -24    2    5    5    0    0 -0.11199878392E+03  0.42151261549E+02  0.18715348020E+03  0.23509007002E+03  0.76944521701E+02 0.  0.
          5    1    3    3  502    0  0.57471588580E+02 -0.62607830213E+02 -0.23665782326E+03  0.25149898451E+03  0.47000000000E+01 0. -1.
        -11    1    4    4    0    0  0.57178454533E+02  0.13098883472E+02 -0.58701497991E+02  0.82986880152E+02  0.00000000000E+00 0.  1.
         12    1    4    4    0    0  0.23009287151E+02 -0.44384649491E+02 -0.74000453843E+01  0.50538946144E+02  0.00000000000E+00 0. -1.
         -5    1    5    5    0  501 -0.25660546349E+02  0.51742334683E+02  0.27704404527E+03  0.28303926558E+03  0.47000000000E+01 0.  1.
         13    1    6    6    0    0 -0.27909070316E+02  0.45328148166E+02  0.10376114451E+03  0.11661874778E+03  0.00000000000E+00 0. -1.
        -14    1    6    6    0    0 -0.84089713599E+02 -0.31768866174E+01  0.83392335691E+02  0.11847132224E+03  0.00000000000E+00 0.  1.
</event>
<event>
12    1  0.9656379E-001  0.4725173E+03  0.7818608E-02  0.1021212E+00
         -4   -1    0    0    0  501 -0.00000000000E+00  0.00000000000E+00  0.88616958714E+03  0.88616958714E+03  0.00000000000E+00 0.  1.
          4   -1    0    0  502    0  0.00000000000E+00 -0.00000000000E+00 -0.26509211206E+03  0.26509211206E+03  0.00000000000E+00 0. -1.
          6    2    1    2  502    0  0.23602934290E+03 -0.37217795732E+03  0.43861833975E+03  0.64462702599E+03  0.17009312760E+03 0.  0.
         24    2    3    3    0    0  0.16681744312E+03 -0.22272269612E+03  0.35981915150E+03  0.46198375554E+03  0.80781866196E+02 0.  0.
         -6    2    1    2    0  501 -0.23602934290E+03  0.37217795732E+03  0.18245913533E+03  0.50663467320E+03  0.17076613659E+03 0.  0.
        -24    2    5    5    0    0 -0.88284705862E+02  0.25436406700E+03  0.12135650030E+03  0.30797865761E+03  0.87339484238E+02 0.  0.
          5    1    3    3  502    0  0.69211899781E+02 -0.14945526120E+03  0.78799188247E+02  0.18264327045E+03  0.47000000000E+01 0. -1.
        -11    1    4    4    0    0  0.12265789442E+03 -0.20835174795E+03  0.28296733979E+03  0.37219071096E+03  0.00000000000E+00 0.  1.
         12    1    4    4    0    0  0.44159548692E+02 -0.14370948165E+02  0.76851811712E+02  0.89793044582E+02  0.00000000000E+00 0. -1.
         -5    1    5    5    0  501 -0.14774463703E+03  0.11781389031E+03  0.61102635032E+02  0.19865601559E+03  0.47000000000E+01 0.  1.
         13    1    6    6    0    0 -0.78069347445E+02  0.18635511447E+03  0.48491987393E+02  0.20778480344E+03  0.00000000000E+00 0. -1.
        -14    1    6    6    0    0 -0.10215358417E+02  0.68008952533E+02  0.72864512906E+02  0.10019385417E+03  0.00000000000E+00 0.  1.
</event>
<event>
12    1  0.9656379E-001  0.8077623E+03  0.7818608E-02  0.9548849E-01
         -2   -1    0    0    0  501 -0.00000000000E+00  0.00000000000E+00  0.84331278081E+03  0.84331278081E+03  0.00000000000E+00 0.  1.
          2   -1    0    0  502    0  0.00000000000E+00 -0.00000000000E+00 -0.17228544044E+04  0.17228544044E+04  0.00000000000E+00 0. -1.
          6    2    1    2  502    0  0.74565629804E+03 -0.25749958034E+03  0.51256566885E+03  0.95671023949E+03  0.17395852601E+03 0.  0.
         24    2    3    3    0    0  0.50267226652E+03 -0.11483624277E+03  0.38099425904E+03  0.64570028251E+03  0.76846985802E+02 0.  0.
         -6    2    1    2    0  501 -0.74565629804E+03  0.25749958034E+03 -0.13921072925E+04  0.16094569458E+04  0.17343470758E+03 0.  0.
        -24    2    5    5    0    0 -0.32010947265E+03  0.58614324087E+02 -0.64312909390E+03  0.72535521083E+03  0.81359922512E+02 0.  0.
          5    1    3    3  502    0  0.24298403152E+03 -0.14266333757E+03  0.13157140981E+03  0.31100995698E+03  0.47000000000E+01 0. -1.
        -13    1    4    4    0    0  0.13635325892E+03 -0.46606676130E+02  0.69264739531E+02  0.15988119846E+03  0.00000000000E+00 0.  1.
         14    1    4    4    0    0  0.36631900760E+03 -0.68229566637E+02  0.31172951951E+03  0.48581908405E+03  0.00000000000E+00 0. -1.
         -5    1    5    5    0  501 -0.42554682539E+03  0.19888525625E+03 -0.74897819858E+03  0.88410173493E+03  0.47000000000E+01 0.  1.
         11    1    6    6    0    0 -0.15284824681E+03  0.64794180302E+02 -0.28015939678E+03  0.32565343536E+03  0.00000000000E+00 0. -1.
        -12    1    6    6    0    0 -0.16726122584E+03 -0.61798562147E+01 -0.36296969711E+03  0.39970177547E+03  0.00000000000E+00 0.  1.
</event>
<event>
12    1  0.9656379E-001  0.4686389E+03  0.7818608E-02  0.1022305E+00
          3   -1    0    0  502    0  0.00000000000E+00  0.00000000000E+00  0.34054904915E+03  0.34054904915E+03  0.00000000000E+00 0. -1.
         -3   -1    0    0    0  501 -0.00000000000E+00 -0.00000000000E+00 -0.66297530660E+03  0.66297530660E+03  0.00000000000E+00 0.  1.
          6    2    1    2  502    0 -0.28196201021E+02  0.43481023695E+03 -0.24408219109E+03  0.52848430786E+03  0.17281371399E+03 0.  0.
         24    2    3    3    0    0 -0.36345206995E+02  0.34017801194E+03 -0.25301407945E+03  0.43296712126E+03  0.80014684954E+02 0.  0.
         -6    2    1    2    0  501  0.28196201021E+02 -0.43481023695E+03 -0.78344066356E+02  0.47504004789E+03  0.17225065010E+03 0.  0.
        -24    2    5    5    0    0 -0.32576390849E+02 -0.13995709163E+03 -0.48820809208E+02  0.17250840006E+03  0.82015047038E+02 0.  0.
          5    1    3    3  502    0  0.81490059738E+01  0.94632225004E+02  0.89318883571E+01  0.95517186606E+02  0.47000000000E+01 0. -1.
        -13    1    4    4    0    0 -0.51759959128E+02  0.30289827483E+03 -0.20118966844E+03  0.36729244608E+03  0.00000000000E+00 0.  1.
         14    1    4    4    0    0  0.15414752132E+02  0.37279737118E+02 -0.51824411011E+02  0.65674675176E+02  0.00000000000E+00 0. -1.
         -5    1    5    5    0  501  0.60772591870E+02 -0.29485314532E+03 -0.29523257148E+02  0.30253164783E+03  0.47000000000E+01 0.  1.
         13    1    6    6    0    0  0.70590063229E+01 -0.11708507602E+03 -0.21620677395E+02  0.11927362780E+03  0.00000000000E+00 0. -1.
        -14    1    6    6    0    0 -0.39635397172E+02 -0.22872015610E+02 -0.27200131814E+02  0.53234772261E+02  0.00000000000E+00 0.  1.
</event>
<event>
12    1  0.9656379E-001  0.8028221E+03  0.7818608E-02  0.9555941E-01
         -1   -1    0    0    0  501 -0.00000000000E+00  0.00000000000E+00  0.13476164256E+04  0.13476164256E+04  0.00000000000E+00 0.  1.
          1   -1    0    0  502    0  0.00000000000E+00 -0.00000000000E+00 -0.47893976778E+03  0.47893976778E+03  0.00000000000E+00 0. -1.
          6    2    1    2  502    0 -0.52680270245E+03 -0.58064949256E+03  0.46856097804E+03  0.92963314210E+03  0.17318622416E+03 0.  0.
         24    2    3    3    0    0 -0.28834549106E+03 -0.38302881695E+03  0.34372043566E+03  0.59568251085E+03  0.82702593776E+02 0.  0.
         -6    2    1    2    0  501  0.52680270245E+03  0.58064949256E+03  0.40011567980E+03  0.89692305130E+03  0.17234698205E+03 0.  0.
        -24    2    5    5    0    0  0.12294981538E+03  0.11643213392E+03  0.95922133581E+02  0.21051885987E+03  0.80274751570E+02 0.  0.
          5    1    3    3  502    0 -0.23845721139E+03 -0.19762067561E+03  0.12484054239E+03  0.33395063125E+03  0.47000000000E+01 0. -1.
        -11    1    4    4    0    0 -0.15975120681E+03 -0.25650440305E+03  0.17797178839E+03  0.35069775352E+03  0.00000000000E+00 0.  1.
         12    1    4    4    0    0 -0.12859428425E+03 -0.12652441391E+03  0.16574864727E+03  0.24498475734E+03  0.00000000000E+00 0. -1.
         -5    1    5    5    0  501  0.40385288707E+03  0.46421735863E+03  0.30419354622E+03  0.68640419143E+03  0.47000000000E+01 0.  1.
         11    1    6    6    0    0  0.11470593441E+03  0.80594139016E+02  0.44074310139E+02  0.14695377316E+03  0.00000000000E+00 0. -1.
        -12    1    6    6    0    0  0.82438809651E+01  0.35837994909E+02  0.51847823442E+02  0.63565086708E+02  0.00000000000E+00 0.  1.
</event>
<event>
12    1  0.9656379E-001  0.1004636E+04  0.7818608E-02  0.9303475E-01
          2   -1    0    0  502    0  0.00000000000E+00  0.00000000000E+00  0.21349403999E+04  0.21349403999E+04  0.00000000000E+00 0. -1.
         -2   -1    0    0    0  501 -0.00000000000E+00 -0.00000000000E+00 -0.87764913229E+03  0.87764913229E+03  0.00000000000E+00 0.  1.
          6    2    1    2  502    0 -0.51761139873E+03 -0.84368163504E+03 -0.39445097693E+03  0.10793383174E+04  0.17221895601E+03 0.  0.
         24    2    3    3    0    0 -0.50969745070E+03 -0.81879407708E+03 -0.35320952016E+03  0.10302978354E+04  0.80879123809E+02 0.  0.
         -6    2    1    2    0  501  0.51761139873E+03  0.84368163504E+03  0.16517422446E+04  0.19332512148E+04  0.17171940974E+03 0.  0.
        -24    2    5    5    0    0  0.28856702160E+03  0.59732901740E+03  0.11090137816E+04  0.12947160055E+04  0.79404573810E+02 0.  0.
          5    1    3    3  502    0 -0.79139480326E+01 -0.24887557958E+02 -0.41241456768E+02  0.49040481960E+02  0.47000000000E+01 0. -1.
        -13    1    4    4    0    0 -0.28065540419E+03 -0.50748197435E+03 -0.23948646950E+03  0.62742264804E+03  0.00000000000E+00 0.  1.
         14    1    4    4    0    0 -0.22904204651E+03 -0.31131210273E+03 -0.11372305066E+03  0.40287518740E+03  0.00000000000E+00 0. -1.
         -5    1    5    5    0  501  0.22904437714E+03  0.24635261764E+03  0.54272846302E+03  0.63853520928E+03  0.47000000000E+01 0.  1.
         11    1    6    6    0    0  0.25595561268E+03  0.46046439394E+03  0.89702819957E+03  0.10402885775E+04  0.00000000000E+00 0. -1.
        -12    1    6    6    0    0  0.32611408920E+02  0.13686462346E+03  0.21198558199E+03  0.25442742800E+03  0.00000000000E+00 0.  1.
</event>
<event>
12    1  0.9656379E-001  0.7124036E+03  0.7818608E-02  0.9696252E-01
         -2   -1    0    0    0  501 -0.00000000000E+00  0.00000000000E+00  0.32559500934E+03  0.32559500934E+03  0.00000000000E+00 0.  1.
          2   -1    0    0  502    0  0.00000000000E+00 -0.00000000000E+00 -0.24676354845E+04  0.24676354845E+04  0.00000000000E+00 0. -1.
          6    2    1    2  502    0  0.24023228357E+02 -0.69115699871E+03 -0.22347314836E+03  0.74668816945E+03  0.17125379406E+03 0.  0.
         24    2    3    3    0    0 -0.15524844582E+02 -0.43654231880E+03 -0.20184948699E+03  0.48807193246E+03  0.81613595420E+02 0.  0.
         -6    2    1    2    0  501 -0.24023228357E+02  0.69115699871E+03 -0.19185673268E+04  0.20465423244E+04  0.17076236612E+03 0.  0.
        -24    2    5    5    0    0  0.41504562516E+02  0.53473855125E+03 -0.14313068112E+04  0.15305912394E+04  0.80015044263E+02 0.  0.
          5    1    3    3  502    0  0.39548072939E+02 -0.25461467991E+03 -0.21623661372E+02  0.25861623698E+03  0.47000000000E+01 0. -1.
        -13    1    4    4    0    0  0.20790454199E+02 -0.26465960560E+03 -0.92429432944E+02  0.28110522922E+03  0.00000000000E+00 0.  1.
         14    1    4    4    0    0 -0.36315298782E+02 -0.17188271320E+03 -0.10942005405E+03  0.20696670324E+03  0.00000000000E+00 0. -1.
         -5    1    5    5    0  501 -0.65527790873E+02  0.15641844747E+03 -0.48726051558E+03  0.51595108501E+03  0.47000000000E+01 0.  1.
         11    1    6    6    0    0 -0.19502275341E+02  0.25875412777E+03 -0.66725649687E+03  0.71593663826E+03  0.00000000000E+00 0. -1.
        -12    1    6    6    0    0  0.61006837857E+02  0.27598442347E+03 -0.76405031433E+03  0.81465460110E+03  0.00000000000E+00 0.  1.
</event>
<event>
12    1  0.9656379E-001  0.2631117E+03  0.7818608E-02  0.1105288E+00
          2   -1    0    0  502    0  0.00000000000E+00  0.00000000000E+00  0.95351567638E+03  0.95351567638E+03  0.00000000000E+00 0. -1.
         -2   -1    0    0    0  501 -0.00000000000E+00 -0.00000000000E+00 -0.22730626524E+03  0.22730626524E+03  0.00000000000E+00 0.  1.
          6    2    1    2  502    0  0.71224463325E+02 -0.18433356874E+03 -0.12314167794E+03  0.29219934882E+03  0.17653554279E+03 0.  0.
         24    2    3    3    0    0  0.10629140134E+02 -0.62758606818E+02 -0.11898458954E+03  0.15621539410E+03  0.78703846522E+02 0.  0.
         -6    2    1    2    0  501 -0.71224463325E+02  0.18433356874E+03  0.84935108908E+03  0.88862259279E+03  0.17088315056E+03 0.  0.
        -24    2    5    5    0    0 -0.37684924961E+02  0.20086550072E+03  0.77335993238E+03  0.80379953398E+03  0.79000018135E+02 0.  0.
          5    1    3    3  502    0  0.60595323191E+02 -0.12157496192E+03 -0.41570884033E+01  0.13598395472E+03  0.47000000000E+01 0. -1.
        -13    1    4    4    0    0 -0.29987870549E+02 -0.35959224841E+02 -0.32552267509E+02  0.57026207582E+02  0.00000000000E+00 0.  1.
         14    1    4    4    0    0  0.40617010684E+02 -0.26799381977E+02 -0.86432322029E+02  0.99189186521E+02  0.00000000000E+00 0. -1.
         -5    1    5    5    0  501 -0.33539538364E+02 -0.16531931980E+02  0.75991156703E+02  0.84823058809E+02  0.47000000000E+01 0.  1.
         11    1    6    6    0    0 -0.41909948717E+02  0.52994192352E+02  0.17957277884E+03  0.19186247972E+03  0.00000000000E+00 0. -1.
        -12    1    6    6    0    0  0.42250237559E+01  0.14787130836E+03  0.59378715355E+03  0.61193705426E+03  0.00000000000E+00 0.  1.
</event>
<event>
12    1  0.9656379E-001  0.1852850E+03  0.7818608E-02  0.1162784E+00
         -1   -1    0    0    0  501 -0.00000000000E+00  0.00000000000E+00  0.49262645450E+03  0.49262645450E+03  0.00000000000E+00 0.  1.
          1   -1    0    0  502    0  0.00000000000E+00 -0.00000000000E+00 -0.59806581542E+03  0.59806581542E+03  0.00000000000E+00 0. -1.
          6    2    1    2  502    0 -0.19280290599E+01  0.70481571074E+02  0.45986799437E+03  0.49581196929E+03  0.17140468922E+03 0.  0.
         24    2    3    3    0    0  0.25890819799E+02  0.70115959448E+02  0.45428174924E+03  0.46704883040E+03  0.78588294126E+02 0.  0.
         -6    2    1    2    0  501  0.19280290599E+01 -0.70481571074E+02 -0.56530735529E+03  0.59488030064E+03  0.17128571741E+03 0.  0.
        -24    2    5    5    0    0 -0.16902210560E+01 -0.40036139993E+00 -0.12675050646E+03  0.15071966828E+03  0.81533492395E+02 0.  0.
          5    1    3    3  502    0 -0.27818848859E+02  0.36561162619E+00  0.55862451335E+01  0.28763138883E+02  0.47000000000E+01 0. -1.
        -13    1    4    4    0    0 -0.25339051554E+02  0.63173473529E+01  0.13062548880E+03  0.13321034020E+03  0.00000000000E+00 0.  1.
         14    1    4    4    0    0  0.51229871353E+02  0.63798612095E+02  0.32365626044E+03  0.33383849021E+03  0.00000000000E+00 0. -1.
         -5    1    5    5    0  501  0.36182501159E+01 -0.70081209674E+02 -0.43855684883E+03  0.44416063236E+03  0.47000000000E+01 0.  1.
         13    1    6    6    0    0 -0.21445298265E+02 -0.40715596226E+01 -0.12869447512E+03  0.13053254897E+03  0.00000000000E+00 0. -1.
        -14    1    6    6    0    0  0.19755077209E+02  0.36711982227E+01  0.19439686544E+01  0.20187119311E+02  0.00000000000E+00 0.  1.
</event>
<event>
12    1  0.9656379E-001  0.2653034E+03  0.7818608E-02  0.1103998E+00
          2   -1    0    0  502    0  0.00000000000E+00  0.00000000000E+00  0.24002990689E+04  0.24002990689E+04  0.00000000000E+00 0. -1.
         -2   -1    0    0    0  501 -0.00000000000E+00 -0.00000000000E+00 -0.38197054184E+02  0.38197054184E+02  0.00000000000E+00 0.  1.
          6    2    1    2  502    0  0.14794822147E+03 -0.13583244510E+03  0.17705677048E+04  0.17904153461E+04  0.17417802668E+03 0.  0.
         24    2    3    3    0    0  0.43252442140E+02 -0.53412723934E+02  0.36282589997E+03  0.37637387017E+03  0.72739010376E+02 0.  0.
         -6    2    1    2    0  501 -0.14794822147E+03  0.13583244510E+03  0.59153430995E+03  0.64808077699E+03  0.17250137472E+03 0.  0.
        -24    2    5    5    0    0 -0.14319214363E+03  0.74173066326E+02  0.53421450549E+03  0.56362872402E+03  0.79287873626E+02 0.  0.
          5    1    3    3  502    0  0.10469577933E+03 -0.82419721167E+02  0.14077418048E+04  0.14140414760E+04  0.47000000000E+01 0. -1.
        -11    1    4    4    0    0  0.24437334513E+02  0.15172047878E+02  0.94266631262E+02  0.98557455956E+02  0.00000000000E+00 0.  1.
         12    1    4    4    0    0  0.18815107627E+02 -0.68584771812E+02  0.26855926870E+03  0.27781641421E+03  0.00000000000E+00 0. -1.
         -5    1    5    5    0  501 -0.47560778464E+01  0.61659378775E+02  0.57319804461E+02  0.84452052970E+02  0.47000000000E+01 0.  1.
         11    1    6    6    0    0 -0.33033524162E+02  0.32039753311E+02  0.63866466823E+02  0.78719026260E+02  0.00000000000E+00 0. -1.
        -12    1    6    6    0    0 -0.11015861946E+03  0.42133313015E+02  0.47034803866E+03  0.48490969776E+03  0.00000000000E+00 0.  1.
</event>
<event>
12    1  0.9656379E-001  0.5701920E+03  0.7818608E-02  0.9969254E-01
         -2   -1    0    0    0  501 -0.00000000000E+00  0.00000000000E+00  0.17631417350E+03  0.17631417350E+03  0.00000000000E+00 0.  1.
          2   -1    0    0  502    0  0.00000000000E+00 -0.00000000000E+00 -0.22987919564E+04  0.22987919564E+04  0.00000000000E+00 0. -1.
          6    2    1    2  502    0  0.41652366192E+03 -0.34951323796E+03 -0.51087161074E+03  0.76562783967E+03  0.17188578118E+03 0.  0.
         24    2    3    3    0    0  0.42886526621E+03 -0.33752278297E+03 -0.50015330381E+03  0.74481778656E+03  0.82177626361E+02 0.  0.
         -6    2    1    2    0  501 -0.41652366192E+03  0.34951323796E+03 -0.16116061722E+04  0.17094782903E+04  0.17143542868E+03 0.  0.
        -24    2    5    5    0    0 -0.33195755352E+03  0.25027258823E+03 -0.10315296804E+04  0.11149104139E+04  0.78355368528E+02 0.  0.
          5    1    3    3  502    0 -0.12341604288E+02 -0.11990454986E+02 -0.10718306937E+02  0.20810053118E+02  0.47000000000E+01 0. -1.
        -11    1    4    4    0    0  0.24574067616E+03 -0.16460168792E+03 -0.22374877139E+03  0.37087155227E+03  0.00000000000E+00 0.  1.
         12    1    4    4    0    0  0.18312459005E+03 -0.17292109505E+03 -0.27640453242E+03  0.37394623429E+03  0.00000000000E+00 0. -1.
         -5    1    5    5    0  501 -0.84566108402E+02  0.99240649732E+02 -0.58007649180E+03  0.59456787635E+03  0.47000000000E+01 0.  1.
         13    1    6    6    0    0 -0.77962080243E+02  0.85651789727E+02 -0.21723198049E+03  0.24617889509E+03  0.00000000000E+00 0. -1.
        -14    1    6    6    0    0 -0.25399547328E+03  0.16462079850E+03 -0.81429769989E+03  0.86873151882E+03  0.00000000000E+00 0.  1.
</event>
<event>
12    1  0.9656379E-001  0.2688386E+03  0.7818608E-02  0.1101946E+00
          2   -1    0    0  502    0  0.00000000000E+00  0.00000000000E+00  0.21470203167E+04  0.21470203167E+04  0.00000000000E+00 0. -1.
         -2   -1    0    0    0  501 -0.00000000000E+00 -0.00000000000E+00 -0.36355998368E+02  0.36355998368E+02  0.00000000000E+00 0.  1.
          6    2    1    2  502    0 -0.14527126595E+03 -0.14353943480E+03  0.76145638391E+03  0.80781903317E+03  0.17620571986E+03 0.  0.
         24    2    3    3    0    0 -0.16802582486E+02 -0.10693715418E+03  0.31907639026E+03  0.34568693262E+03  0.77277621882E+02 0.  0.
         -6    2    1    2    0  501  0.14527126595E+03  0.14353943480E+03  0.13492079344E+04  0.13755572818E+04  0.17346029921E+03 0.  0.
        -24    2    5    5    0    0  0.89463174203E+02  0.67246408195E+02  0.11117837065E+04  0.11199647879E+04  0.75712462567E+02 0.  0.
          5    1    3    3  502    0 -0.12846868347E+03 -0.36602280617E+02  0.44237999365E+03  0.46213210055E+03  0.47000000000E+01 0. -1.
        -11    1    4    4    0    0  0.29303748567E+02 -0.28371868548E+02  0.78986019864E+02  0.88895803832E+02  0.00000000000E+00 0.  1.
         12    1    4    4    0    0 -0.46106331054E+02 -0.78565285636E+02  0.24009037039E+03  0.25679112879E+03  0.00000000000E+00 0. -1.
         -5    1    5    5    0  501  0.55808091749E+02  0.76293026606E+02  0.23742422785E+03  0.25559249399E+03  0.47000000000E+01 0.  1.
         11    1    6    6    0    0  0.64836073262E+02  0.14336355108E+01  0.53136103832E+03  0.53530395548E+03  0.00000000000E+00 0. -1.
        -12    1    6    6    0    0  0.24627100942E+02  0.65812772684E+02  0.58042266821E+03  0.58466083238E+03  0.00000000000E+00 0.  1.
</event>
<event>
12    1  0.9656379E-001  0.2173804E+03  0.7818608E-02  0.1135851E+00
          1   -1    0    0  502    0  0.00000000000E+00  0.00000000000E+00  0.84844239079E+03  0.84844239079E+03  0.00000000000E+00 0. -1.
         -1   -1    0    0    0  501 -0.00000000000E+00 -0.00000000000E+00 -0.59024468693E+03  0.59024468693E+03  0.00000000000E+00 0.  1.
          6    2    1    2  502    0 -0.81823135640E+02  0.10437150865E+03 -0.55551147350E+03  0.59622439919E+03  0.17117856076E+03 0.  0.
         24    2    3    3    0    0 -0.11580836504E+03  0.10755891990E+03 -0.41010980522E+03  0.44679585257E+03  0.80349131133E+02 0.  0.
         -6    2    1    2    0  501  0.81823135640E+02 -0.10437150865E+03  0.81370917735E+03  0.84246267852E+03  0.17329830365E+03 0.  0.
        -24    2    5    5    0    0 -0.25271870092E+02 -0.53459547548E+02  0.40287418853E+03  0.41483100748E+03  0.79249999000E+02 0.  0.
          5    1    3    3  502    0  0.33985229403E+02 -0.31874112453E+01 -0.14540166827E+03  0.14942854662E+03  0.47000000000E+01 0. -1.
        -13    1    4    4    0    0 -0.14290117353E+02  0.54333227335E+02 -0.19651243017E+03  0.20438552361E+03  0.00000000000E+00 0.  1.
         14    1    4    4    0    0 -0.10151824769E+03  0.53225692564E+02 -0.21359737505E+03  0.24241032897E+03  0.00000000000E+00 0. -1.
         -5    1    5    5    0  501  0.10709500573E+03 -0.50911961106E+02  0.41083498883E+03  0.42763167104E+03  0.47000000000E+01 0.  1.
         13    1    6    6    0    0  0.20910428006E+02 -0.44295729742E+02  0.25431650071E+03  0.25899081104E+03  0.00000000000E+00 0. -1.
        -14    1    6    6    0    0 -0.46182298098E+02 -0.91638178062E+01  0.14855768782E+03  0.15584019644E+03  0.00000000000E+00 0.  1.
</event>
<event>
12    1  0.9656379E-001  0.1816570E+03  0.7818608E-02  0.1166209E+00
          1   -1    0    0  502    0  0.00000000000E+00  0.00000000000E+00  0.81859216035E+02  0.81859216035E+02  0.00000000000E+00 0. -1.
         -1   -1    0    0    0  501 -0.00000000000E+00 -0.00000000000E+00 -0.47190133695E+03  0.47190133695E+03  0.00000000000E+00 0.  1.
          6    2    1    2  502    0  0.52709322367E+02  0.24801520094E+02 -0.30222199583E+03  0.35347912408E+03  0.17382740962E+03 0.  0.
         24    2    3    3    0    0  0.62486792713E+00 -0.93049578427E+01 -0.55046951027E+02  0.98540631488E+02  0.81198008205E+02 0.  0.
         -6    2    1    2    0  501 -0.52709322367E+02 -0.24801520094E+02 -0.87820125086E+02  0.20028142891E+03  0.17031408730E+03 0.  0.
        -24    2    5    5    0    0 -0.32713597109E+02 -0.66832587385E+02 -0.97842499149E+01  0.10929721346E+03  0.79456750196E+02 0.  0.
          5    1    3    3  502    0  0.52084454440E+02  0.34106477936E+02 -0.24717504480E+03  0.25493849259E+03  0.47000000000E+01 0. -1.
        -13    1    4    4    0    0 -0.54208528893E+01  0.58352754955E+01 -0.73492742909E+02  0.73923063698E+02  0.00000000000E+00 0.  1.
         14    1    4    4    0    0  0.60457208164E+01 -0.15140233338E+02  0.18445791883E+02  0.24617567790E+02  0.00000000000E+00 0. -1.
         -5    1    5    5    0  501 -0.19995725258E+02  0.42031067292E+02 -0.78035875171E+02  0.90984215444E+02  0.47000000000E+01 0.  1.
         11    1    6    6    0    0 -0.55614394465E+02 -0.64355208907E+02 -0.23350087656E+01  0.85088225103E+02  0.00000000000E+00 0. -1.
        -12    1    6    6    0    0  0.22900797357E+02 -0.24773784786E+01 -0.74492411493E+01  0.24208988360E+02  0.00000000000E+00 0.  1.
</event>
<event>
12    1  0.9656379E-001  0.2945399E+03  0.7818608E-02  0.1088002E+00
          2   -1    0    0  502    0  0.00000000000E+00  0.00000000000E+00  0.20365489411E+03  0.20365489411E+03  0.00000000000E+00 0. -1.
         -2   -1    0    0    0  501 -0.00000000000E+00 -0.00000000000E+00 -0.62817259737E+03  0.62817259737E+03  0.00000000000E+00 0.  1.
          6    2    1    2  502    0 -0.11862186731E+03  0.20817496982E+03 -0.44886055796E+03  0.53759868049E+03  0.17357584886E+03 0.  0.
         24    2    3    3    0    0 -0.15047107872E+03  0.19329397938E+03 -0.36470273916E+03  0.44627264581E+03  0.78403306395E+02 0.  0.
         -6    2    1    2    0  501  0.11862186731E+03 -0.20817496982E+03  0.24342854703E+02  0.29422881098E+03  0.16902678241E+03 0.  0.
        -24    2    5    5    0    0  0.13018992720E+03 -0.11260295119E+03 -0.14381436671E+02  0.19035633389E+03  0.79999164805E+02 0.  0.
          5    1    3    3  502    0  0.31849211413E+02  0.14880990438E+02 -0.84157818805E+02  0.91326034678E+02  0.47000000000E+01 0. -1.
        -13    1    4    4    0    0 -0.65456143878E+02  0.13507680098E+03 -0.25401650240E+03  0.29505022017E+03  0.00000000000E+00 0.  1.
         14    1    4    4    0    0 -0.85014934845E+02  0.58217178401E+02 -0.11068623676E+03  0.15122242564E+03  0.00000000000E+00 0. -1.
         -5    1    5    5    0  501 -0.11568059891E+02 -0.95572018633E+02  0.38724291373E+02  0.10387247709E+03  0.47000000000E+01 0.  1.
         11    1    6    6    0    0  0.12927555579E+03 -0.84333998725E+02  0.75950048602E+01  0.15453826958E+03  0.00000000000E+00 0. -1.
        -12    1    6    6    0    0  0.91437141124E+00 -0.28268952462E+02 -0.21976441531E+02  0.35818064307E+02  0.00000000000E+00 0.  1.
</event>
<event>
12    1  0.9656379E-001  0.2325045E+03  0.7818608E-02  0.1124889E+00
         -2   -1    0    0    0  501 -0.00000000000E+00  0.00000000000E+00  0.22323996652E+02  0.22323996652E+02  0.00000000000E+00 0.  1.
          2   -1    0    0  502    0  0.00000000000E+00 -0.00000000000E+00 -0.24215791486E+04  0.24215791486E+04  0.00000000000E+00 0. -1.
          6    2    1    2  502    0 -0.10251209995E+03  0.11829111721E+03 -0.12033576124E+04  0.12257972573E+04  0.17322775091E+03 0.  0.
         24    2    3    3    0    0 -0.22021496910E+02  0.12171769860E+03 -0.89463716231E+03  0.90670340758E+03  0.80220151171E+02 0.  0.
         -6    2    1    2    0  501  0.10251209995E+03 -0.11829111721E+03 -0.11958975396E+04  0.12181058880E+04  0.17061509332E+03 0.  0.
        -24    2    5    5    0    0  0.12986559379E+03 -0.65734447665E+02 -0.99342474756E+03  0.10070899202E+04  0.78430148923E+02 0.  0.
          5    1    3    3  502    0 -0.80490603038E+02 -0.34265813841E+01 -0.30872045006E+03  0.31909384971E+03  0.47000000000E+01 0. -1.
        -11    1    4    4    0    0 -0.43497690984E+02  0.38104667357E+02 -0.26953780855E+03  0.27567126261E+03  0.00000000000E+00 0.  1.
         12    1    4    4    0    0  0.21476194074E+02  0.83613031241E+02 -0.62509935376E+03  0.63103214497E+03  0.00000000000E+00 0. -1.
         -5    1    5    5    0  501 -0.27353493840E+02 -0.52556669549E+02 -0.20247279202E+03  0.21101596776E+03  0.47000000000E+01 0.  1.
         13    1    6    6    0    0  0.63743721828E+02  0.97210606537E+01 -0.42876397942E+03  0.43358541389E+03  0.00000000000E+00 0. -1.
        -14    1    6    6    0    0  0.66121871961E+02 -0.75455508319E+02 -0.56466076814E+03  0.57350450632E+03  0.00000000000E+00 0.  1.
</event>
<event>
12    1  0.9656379E-001  0.3274495E+03  0.7818608E-02  0.1072271E+00
         -1   -1    0    0    0  501 -0.00000000000E+00  0.00000000000E+00  0.55535067634E+02  0.55535067634E+02  0.00000000000E+00 0.  1.
          1   -1    0    0  502    0  0.00000000000E+00 -0.00000000000E+00 -0.30805937215E+04  0.30805937215E+04  0.00000000000E+00 0. -1.
          6    2    1    2  502    0  0.26022873464E+03  0.96499496567E+02 -0.55336735648E+03  0.64278918002E+03  0.17300679631E+03 0.  0.
         24    2    3    3    0    0  0.15766177784E+03  0.57323791965E+01 -0.39761940963E+03  0.43533276733E+03  0.80767116006E+02 0.  0.
         -6    2    1    2    0  501 -0.26022873464E+03 -0.96499496567E+02 -0.24716912974E+04  0.24933396091E+04  0.17450899577E+03 0.  0.
        -24    2    5    5    0    0 -0.11404805046E+03 -0.78599699956E+01 -0.73723099481E+03  0.75046830310E+03  0.81390400580E+02 0.  0.
          5    1    3    3  502    0  0.10256695680E+03  0.90767117370E+02 -0.15574794684E+03  0.20745641270E+03  0.47000000000E+01 0. -1.
        -11    1    4    4    0    0  0.16507799811E+03  0.10298454944E+02 -0.35243089773E+03  0.38931265238E+03  0.00000000000E+00 0.  1.
         12    1    4    4    0    0 -0.74162202716E+01 -0.45660757477E+01 -0.45188511908E+02  0.46020114942E+02  0.00000000000E+00 0. -1.
         -5    1    5    5    0  501 -0.14618068418E+03 -0.88639526571E+02 -0.17344603026E+04  0.17428713060E+04  0.47000000000E+01 0.  1.
         11    1    6    6    0    0 -0.40358518229E+01  0.24702131430E+02 -0.15999893917E+03  0.16194487930E+03  0.00000000000E+00 0. -1.
        -12    1    6    6    0    0 -0.11001219863E+03 -0.32562101426E+02 -0.57723205564E+03  0.58852342380E+03  0.00000000000E+00 0.  1.
</event>
<event>
12    1  0.9656379E-001  0.2461107E+03  0.7818608E-02  0.1115788E+00
         -2   -1    0    0    0  501 -0.00000000000E+00  0.00000000000E+00  0.94590799812E+02  0.94590799812E+02  0.00000000000E+00 0.  1.
          2   -1    0    0  502    0  0.00000000000E+00 -0.00000000000E+00 -0.70318260479E+03  0.70318260479E+03  0.00000000000E+00 0. -1.
          6    2    1    2  502    0 -0.15718269268E+03 -0.70968599756E+02 -0.18315593398E+03  0.30541684119E+03  0.17317739374E+03 0.  0.
         24    2    3    3    0    0 -0.78269374550E+02 -0.41298008392E+00 -0.19028766967E+02  0.11005762283E+03  0.74995472042E+02 0.  0.
         -6    2    1    2    0  501  0.15718269268E+03  0.70968599756E+02 -0.42543587100E+03  0.49235656341E+03  0.17797854975E+03 0.  0.
        -24    2    5    5    0    0  0.13858628365E+03  0.30531992412E+02 -0.41591478281E+03  0.44659974137E+03  0.79547858908E+02 0.  0.
          5    1    3    3  502    0 -0.78913318130E+02 -0.70555619672E+02 -0.16412716701E+03  0.19535921836E+03  0.47000000000E+01 0. -1.
        -13    1    4    4    0    0 -0.19238006756E+02 -0.35028153005E+02 -0.75218634873E+01  0.40665105892E+02  0.00000000000E+00 0.  1.
         14    1    4    4    0    0 -0.59031367794E+02  0.34615172921E+02 -0.11506903479E+02  0.69392516943E+02  0.00000000000E+00 0. -1.
         -5    1    5    5    0  501  0.18596409034E+02  0.40436607344E+02 -0.95210881829E+01  0.45756822034E+02  0.47000000000E+01 0.  1.
         13    1    6    6    0    0  0.12482490956E+03 -0.36616698916E+01 -0.29958501986E+03  0.32457025433E+03  0.00000000000E+00 0. -1.
        -14    1    6    6    0    0  0.13761374083E+02  0.34193662304E+02 -0.11632976296E+03  0.12202948704E+03  0.00000000000E+00 0.  1.
</event>
<event>
12    1  0.9656379E-001  0.4607292E+03  0.7818608E-02  0.1024570E+00
         -2   -1    0    0    0  501 -0.00000000000E+00  0.00000000000E+00  0.11817260359E+03  0.11817260359E+03  0.00000000000E+00 0.  1.
          2   -1    0    0  502    0  0.00000000000E+00 -0.00000000000E+00 -0.23400677623E+04  0.23400677623E+04  0.00000000000E+00 0. -1.
          6    2    1    2  502    0  0.30187971448E+03  0.30256226998E+03 -0.51854155214E+03  0.69369104373E+03  0.17218197825E+03 0.  0.
         24    2    3    3    0    0  0.31605206372E+03  0.29957284986E+03 -0.51290236285E+03  0.67745273805E+03  0.78997336158E+02 0.  0.
         -6    2    1    2    0  501 -0.30187971448E+03 -0.30256226998E+03 -0.17033536065E+04  0.17645493221E+04  0.17188808001E+03 0.  0.
        -24    2    5    5    0    0 -0.29572029401E+03 -0.31771575372E+03 -0.16680656060E+04  0.17253715285E+04  0.77911828348E+02 0.  0.
          5    1    3    3  502    0 -0.14172349242E+02  0.29894201167E+01 -0.56391892906E+01  0.16238305685E+02  0.47000000000E+01 0. -1.
        -13    1    4    4    0    0  0.11293474134E+03  0.13408056267E+03 -0.15570550058E+03  0.23446973365E+03  0.00000000000E+00 0.  1.
         14    1    4    4    0    0  0.20311732237E+03  0.16549228719E+03 -0.35719686227E+03  0.44298300439E+03  0.00000000000E+00 0. -1.
         -5    1    5    5    0  501 -0.61594204695E+01  0.15153483747E+02 -0.35288000487E+02  0.39177793564E+02  0.47000000000E+01 0.  1.
         11    1    6    6    0    0 -0.28718742140E+03 -0.31890286989E+03 -0.15923622027E+04  0.16491795051E+04  0.00000000000E+00 0. -1.
        -12    1    6    6    0    0 -0.85328726027E+01  0.11871161676E+01 -0.75703403334E+02  0.76192023441E+02  0.00000000000E+00 0.  1.
</event>
<event>
12    1  0.9656379E-001  0.1164423E+04  0.7818608E-02  0.9144580E-01
          1   -1    0    0  502    0  0.00000000000E+00  0.00000000000E+00  0.21373666773E+04  0.21373666773E+04  0.00000000000E+00 0. -1.
         -1   -1    0    0    0  501 -0.00000000000E+00 -0.00000000000E+00 -0.63444686062E+03  0.63444686062E+03  0.00000000000E+00 0.  1.
          6    2    1    2  502    0 -0.60073638695E+03 -0.98262373086E+03  0.73627980966E+03  0.13777842937E+04  0.17247608180E+03 0.  0.
         24    2    3    3    0    0 -0.18324526777E+03 -0.32060653688E+03  0.22676269969E+03  0.44387028530E+03  0.96083966176E+02 0.  0.
         -6    2    1    2    0  501  0.60073638695E+03  0.98262373086E+03  0.76664000701E+03  0.13940292442E+04  0.17072501380E+03 0.  0.
        -24    2    5    5    0    0  0.43859326059E+03  0.70701442724E+03  0.47486777544E+03  0.96112739994E+03  0.77672557555E+02 0.  0.
          5    1    3    3  502    0 -0.41749111918E+03 -0.66201719398E+03  0.50951710997E+03  0.93391400839E+03  0.47000000000E+01 0. -1.
        -11    1    4    4    0    0 -0.15531213984E+03 -0.18025160364E+03  0.13015290959E+03  0.27120523829E+03  0.00000000000E+00 0.  1.
         12    1    4    4    0    0 -0.27933127928E+02 -0.14035493323E+03  0.96609790098E+02  0.17266504702E+03  0.00000000000E+00 0. -1.
         -5    1    5    5    0  501  0.16214312636E+03  0.27560930361E+03  0.29177223157E+03  0.43290184428E+03  0.47000000000E+01 0.  1.
         11    1    6    6    0    0  0.21438431231E+03  0.28742147575E+03  0.17750941599E+03  0.40010165065E+03  0.00000000000E+00 0. -1.
        -12    1    6    6    0    0  0.22420894828E+03  0.41959295150E+03  0.29735835945E+03  0.56102574929E+03  0.00000000000E+00 0.  1.
</event>
<event>
12    1  0.1020000E+000  0.9488982E+03  0.7818608E-02  0.9366439E-01
          2   -1    0    0  502    0  0.00000000000E+00  0.00000000000E+00  0.16704369068E+04  0.16704369068E+04  0.00000000000E+00 0. -1.
         -2   -1    0    0    0  501 -0.00000000000E+00 -0.00000000000E+00 -0.84520819241E+03  0.84520819241E+03  0.00000000000E+00 0.  1.
          6    2    1    2  502    0  0.15261716095E+03  0.92055296872E+03 -0.34443225679E+03  0.10095074885E+04  0.17251673489E+03 0.  0.
         24    2    3    3    0    0  0.18151819521E+03  0.83185195066E+03 -0.31332307530E+03  0.91105439532E+03  0.83199992248E+02 0.  0.
         -6    2    1    2    0  501 -0.15261716095E+03 -0.92055296872E+03  0.11696609712E+04  0.15061376107E+04  0.17214513882E+03 0.  0.
        -24    2    5    5    0    0 -0.58692219620E+02 -0.64309807071E+03  0.73062274223E+03  0.97833104432E+03  0.79385991311E+02 0.  0.
          5    1    3    3  502    0 -0.28901034266E+02  0.88701018064E+02 -0.31109181492E+02  0.98453093198E+02  0.47000000000E+01 0. -1.
        -11    1    4    4    0    0  0.82682086277E+02  0.55600528119E+03 -0.19366878720E+03  0.59454671745E+03  0.00000000000E+00 0.  1.
         12    1    4    4    0    0  0.98836108936E+02  0.27584666947E+03 -0.11965428810E+03  0.31650767786E+03  0.00000000000E+00 0. -1.
         -5    1    5    5    0  501 -0.93924941328E+02 -0.27745489801E+03  0.43903822897E+03  0.52780656640E+03  0.47000000000E+01 0.  1.
         11    1    6    6    0    0 -0.75846321638E+02 -0.54204320866E+03  0.63253827869E+03  0.83646170179E+03  0.00000000000E+00 0. -1.
        -12    1    6    6    0    0  0.17154102018E+02 -0.10105486205E+03  0.98084463540E+02  0.14186934252E+03  0.00000000000E+00 0.  1.
</event>
<event>
12    1  0.9656379E-001  0.6013205E+03  0.7818608E-02  0.9902670E-01
          2   -1    0    0  502    0  0.00000000000E+00  0.00000000000E+00  0.69045545532E+03  0.69045545532E+03  0.00000000000E+00 0. -1.
         -2   -1    0    0    0  501 -0.00000000000E+00 -0.00000000000E+00 -0.11535822615E+04  0.11535822615E+04  0.00000000000E+00 0.  1.
          6    2    1    2  502    0  0.55271275312E+02  0.57335837588E+03 -0.91290870767E+03  0.10932515330E+04  0.17321046366E+03 0.  0.
         24    2    3    3    0    0  0.85459632969E+02  0.54821458356E+03 -0.83246379686E+03  0.10036020996E+04  0.79866280187E+02 0.  0.
         -6    2    1    2    0  501 -0.55271275312E+02 -0.57335837588E+03  0.44978190149E+03  0.75078618386E+03  0.17199242393E+03 0.  0.
        -24    2    5    5    0    0 -0.66021194098E+02 -0.20055747439E+03  0.20286762403E+03  0.30347776305E+03  0.79758267176E+02 0.  0.
          5    1    3    3  502    0 -0.30188357657E+02  0.25143792325E+02 -0.80444910814E+02  0.89649433386E+02  0.47000000000E+01 0. -1.
        -13    1    4    4    0    0  0.45745198604E+02  0.12461391273E+03 -0.16063961403E+03  0.20838986548E+03  0.00000000000E+00 0.  1.
         14    1    4    4    0    0  0.39714434365E+02  0.42360067083E+03 -0.67182418283E+03  0.79521223410E+03  0.00000000000E+00 0. -1.
         -5    1    5    5    0  501  0.10749918786E+02 -0.37280090150E+03  0.24691427747E+03  0.44730842081E+03  0.47000000000E+01 0.  1.
         11    1    6    6    0    0 -0.77178300776E+02 -0.15620439233E+03  0.12975408582E+03  0.21723817593E+03  0.00000000000E+00 0. -1.
        -12    1    6    6    0    0  0.11157106678E+02 -0.44353082059E+02  0.73113538203E+02  0.86239587117E+02  0.00000000000E+00 0.  1.
</event>
<event>
12    1  0.9656379E-001  0.3417021E+03  0.7818608E-02  0.1066073E+00
          1   -1    0    0  502    0  0.00000000000E+00  0.00000000000E+00  0.10718914546E+04  0.10718914546E+04  0.00000000000E+00 0. -1.
         -1   -1    0    0    0  501 -0.00000000000E+00 -0.00000000000E+00 -0.22868062501E+03  0.22868062501E+03  0.00000000000E+00 0.  1.
          6    2    1    2  502    0 -0.25168955952E+03  0.15342446921E+03 -0.49333358575E+02  0.34463322615E+03  0.17161462111E+03 0.  0.
         24    2    3    3    0    0 -0.15530889757E+03  0.14043792692E+03 -0.86624291409E+02  0.24037112398E+03  0.80192545776E+02 0.  0.
         -6    2    1    2    0  501  0.25168955952E+03 -0.15342446921E+03  0.89254418820E+03  0.95593885350E+03  0.17406108589E+03 0.  0.
        -24    2    5    5    0    0  0.48609317932E+02 -0.49943305484E+02  0.38898693650E+03  0.40318037866E+03  0.79914838531E+02 0.  0.
          5    1    3    3  502    0 -0.96380661946E+02  0.12986542281E+02  0.37290932835E+02  0.10426210217E+03  0.47000000000E+01 0. -1.
        -13    1    4    4    0    0 -0.27495827236E+02  0.74883509682E+02 -0.21271027400E+02  0.82559173593E+02  0.00000000000E+00 0.  1.
         14    1    4    4    0    0 -0.12781307034E+03  0.65554417242E+02 -0.65353264010E+02  0.15781195039E+03  0.00000000000E+00 0. -1.
         -5    1    5    5    0  501  0.20308024159E+03 -0.10348116372E+03  0.50355725170E+03  0.55275847484E+03  0.47000000000E+01 0.  1.
         13    1    6    6    0    0  0.69672878483E+02 -0.26807994816E+02  0.28177768211E+03  0.29149895491E+03  0.00000000000E+00 0. -1.
        -14    1    6    6    0    0 -0.21063560551E+02 -0.23135310668E+02  0.10720925439E+03  0.11168142375E+03  0.00000000000E+00 0.  1.
</event>
<event>
12    1  0.9656379E-001  0.3027885E+03  0.7818608E-02  0.1083855E+00
         -1   -1    0    0    0  501 -0.00000000000E+00  0.00000000000E+00  0.21873275536E+03  0.21873275536E+03  0.00000000000E+00 0.  1.
          1   -1    0    0  502    0  0.00000000000E+00 -0.00000000000E+00 -0.15764721224E+04  0.15764721224E+04  0.00000000000E+00 0. -1.
          6    2    1    2  502    0 -0.44450027276E+02  0.24510498823E+03  0.90254019722E+02  0.31587561573E+03  0.17198650050E+03 0.  0.
         24    2    3    3    0    0  0.11033404811E+01  0.10416994148E+03  0.10446119706E+03  0.16700745054E+03  0.78273576497E+02 0.  0.
         -6    2    1    2    0  501  0.44450027276E+02 -0.24510498823E+03 -0.14479933867E+04  0.14793292620E+04  0.17227291492E+03 0.  0.
        -24    2    5    5    0    0  0.62116880290E+02 -0.84478234252E+02 -0.82682300621E+03  0.83746650141E+03  0.81968155505E+02 0.  0.
          5    1    3    3  502    0 -0.45553367757E+02  0.14093504675E+03 -0.14207177341E+02  0.14886816518E+03  0.47000000000E+01 0. -1.
        -13    1    4    4    0    0 -0.38222518646E+02  0.54143657919E+02  0.46783270109E+02  0.81124416710E+02  0.00000000000E+00 0.  1.
         14    1    4    4    0    0  0.39325859127E+02  0.50026283560E+02  0.57677926954E+02  0.85883033834E+02  0.00000000000E+00 0. -1.
         -5    1    5    5    0  501 -0.17666853014E+02 -0.16062675398E+03 -0.62117038053E+03  0.64186276060E+03  0.47000000000E+01 0.  1.
         11    1    6    6    0    0  0.11564807731E+02 -0.70113992942E+02 -0.62049363882E+03  0.62454949572E+03  0.00000000000E+00 0. -1.
        -12    1    6    6    0    0  0.50552072558E+02 -0.14364241310E+02 -0.20632936738E+03  0.21291700569E+03  0.00000000000E+00 0.  1.
</event>
<event>
12    1  0.9656379E-001  0.3287588E+03  0.7818608E-02  0.1071687E+00
          2   -1    0    0  502    0  0.00000000000E+00  0.00000000000E+00  0.18231718919E+04  0.18231718919E+04  0.00000000000E+00 0. -1.
         -2   -1    0    0    0  501 -0.00000000000E+00 -0.00000000000E+00 -0.61198553204E+02  0.61198553204E+02  0.00000000000E+00 0.  1.
          6    2    1    2  502    0 -0.20867721235E+03 -0.18859519975E+03  0.10506186424E+04  0.11011960153E+04  0.17239142719E+03 0.  0.
         24    2    3    3    0    0 -0.50389143504E+02 -0.13153812603E+03  0.54354695509E+03  0.56691667974E+03  0.78165753365E+02 0.  0.
         -6    2    1    2    0  501  0.20867721235E+03  0.18859519975E+03  0.71135469634E+03  0.78317442978E+03  0.16799510450E+03 0.  0.
        -24    2    5    5    0    0  0.21648976735E+03  0.12410455483E+03  0.58619751036E+03  0.64208406689E+03  0.79841517457E+02 0.  0.
          5    1    3    3  502    0 -0.15828806884E+03 -0.57057073720E+02  0.50707168727E+03  0.53427933559E+03  0.47000000000E+01 0. -1.
        -13    1    4    4    0    0  0.19257562559E+02 -0.51049198046E+02  0.19350603355E+03  0.20105088748E+03  0.00000000000E+00 0.  1.
         14    1    4    4    0    0 -0.69646706064E+02 -0.80488927985E+02  0.35004092154E+03  0.36586579226E+03  0.00000000000E+00 0. -1.
         -5    1    5    5    0  501 -0.78125549984E+01  0.64490644920E+02  0.12515718598E+03  0.14109036289E+03  0.47000000000E+01 0.  1.
         13    1    6    6    0    0  0.44177482467E+02  0.65492754259E+02  0.20398013935E+03  0.21874379550E+03  0.00000000000E+00 0. -1.
        -14    1    6    6    0    0  0.17231228488E+03  0.58611800572E+02  0.38221737100E+03  0.42334027139E+03  0.00000000000E+00 0.  1.
</event>
<event>
12    1  0.9656379E-001  0.4009081E+03  0.7818608E-02  0.1043466E+00
          2   -1    0    0  502    0  0.00000000000E+00  0.00000000000E+00  0.12934742858E+04  0.12934742858E+04  0.00000000000E+00 0. -1.
         -2   -1    0    0    0  501 -0.00000000000E+00 -0.00000000000E+00 -0.12929770143E+03  0.12929770143E+03  0.00000000000E+00 0.  1.
          6    2    1    2  502    0  0.33803688781E+03 -0.12693670231E+03  0.44140097451E+03  0.59616002861E+03  0.17375297264E+03 0.  0.
         24    2    3    3    0    0  0.31872315022E+03 -0.15743467776E+03  0.39292780420E+03  0.53553919716E+03  0.77716459876E+02 0.  0.
         -6    2    1    2    0  501 -0.33803688781E+03  0.12693670231E+03  0.72277560984E+03  0.82661195861E+03  0.17464502288E+03 0.  0.
        -24    2    5    5    0    0 -0.31446141624E+03  0.14207535744E+03  0.56824837294E+03  0.66949500000E+03  0.79031336653E+02 0.  0.
          5    1    3    3  502    0  0.19313737593E+02  0.30497975444E+02  0.48473170309E+02  0.60620831451E+02  0.47000000000E+01 0. -1.
        -11    1    4    4    0    0  0.23907818152E+03 -0.15147421538E+03  0.32222572850E+03  0.42887321542E+03  0.00000000000E+00 0.  1.
         12    1    4    4    0    0  0.79644968700E+02 -0.59604623799E+01  0.70702075699E+02  0.10666598173E+03  0.00000000000E+00 0. -1.
         -5    1    5    5    0  501 -0.23575471567E+02 -0.15138655130E+02  0.15452723690E+03  0.15711695861E+03  0.47000000000E+01 0.  1.
         11    1    6    6    0    0 -0.18845614563E+03  0.10207641432E+03  0.41520658495E+03  0.46725990773E+03  0.00000000000E+00 0. -1.
        -12    1    6    6    0    0 -0.12600527061E+03  0.39998943119E+02  0.15304178799E+03  0.20223509227E+03  0.00000000000E+00 0.  1.
</event>
<event>
12    1  0.9656379E-001  0.9813628E+03  0.7818608E-02  0.9329225E-01
          1   -1    0    0  502    0  0.00000000000E+00  0.00000000000E+00  0.15226309777E+04  0.15226309777E+04  0.00000000000E+00 0. -1.
         -1   -1    0    0    0  501 -0.00000000000E+00 -0.00000000000E+00 -0.63355675430E+03  0.63355675430E+03  0.00000000000E+00 0.  1.
          6    2    1    2  502    0  0.96427086028E+03  0.61579331205E+02  0.40067294346E+03  0.10600979885E+04  0.17221681587E+03 0.  0.
         24    2    3    3    0    0  0.80437326351E+03  0.97029287333E+02  0.30071021652E+03  0.86816420407E+03  0.82773312522E+02 0.  0.
         -6    2    1    2    0  501 -0.96427086028E+03 -0.61579331205E+02  0.48840127994E+03  0.10960897435E+04  0.17107486514E+03 0.  0.
        -24    2    5    5    0    0 -0.40404387068E+03 -0.60942936506E+02  0.26072831018E+03  0.49134867820E+03  0.80490874576E+02 0.  0.
          5    1    3    3  502    0  0.15989759677E+03 -0.35449956129E+02  0.99962726940E+02  0.19193378447E+03  0.47000000000E+01 0. -1.
        -13    1    4    4    0    0  0.51930056439E+03  0.33286127116E+02  0.16362870165E+03  0.54548638337E+03  0.00000000000E+00 0.  1.
         14    1    4    4    0    0  0.28507269912E+03  0.63743160217E+02  0.13708151486E+03  0.32267782070E+03  0.00000000000E+00 0. -1.
         -5    1    5    5    0  501 -0.56022698960E+03 -0.63639469821E+00  0.22767296976E+03  0.60474106528E+03  0.47000000000E+01 0.  1.
         13    1    6    6    0    0 -0.11541534627E+03 -0.43403035075E+02  0.11009966751E+03  0.16530717587E+03  0.00000000000E+00 0. -1.
        -14    1    6    6    0    0 -0.28862852441E+03 -0.17539901431E+02  0.15062864267E+03  0.32604150233E+03  0.00000000000E+00 0.  1.
</event>
<event>
12    1  0.9656379E-001  0.3036609E+03  0.7818608E-02  0.1083425E+00
          2   -1    0    0  502    0  0.00000000000E+00  0.00000000000E+00  0.16440531367E+04  0.16440531367E+04  0.00000000000E+00 0. -1.
         -2   -1    0    0    0  501 -0.00000000000E+00 -0.00000000000E+00 -0.76136673511E+03  0.76136673511E+03  0.00000000000E+00 0.  1.
          6    2    1    2  502    0 -0.12087664941E+03 -0.21902628394E+03 -0.71623863625E+03  0.77788253395E+03  0.17181319841E+03 0.  0.
         24    2    3    3    0    0 -0.57823754768E+01 -0.10414266892E+03 -0.23010027515E+03  0.26524471539E+03  0.80805266302E+02 0.  0.
         -6    2    1    2    0  501  0.12087664941E+03  0.21902628394E+03  0.15989250379E+04  0.16275373379E+04  0.17243210866E+03 0.  0.
        -24    2    5    5    0    0  0.13924869927E+03  0.12751966289E+03  0.12238532911E+04  0.12409989839E+04  0.81302737646E+02 0.  0.
          5    1    3    3  502    0 -0.11509427393E+03 -0.11488361502E+03 -0.48613836109E+03  0.51263781856E+03  0.47000000000E+01 0. -1.
        -11    1    4    4    0    0 -0.42629581940E+02 -0.64038293983E+02 -0.14648329699E+03  0.16545555491E+03  0.00000000000E+00 0.  1.
         12    1    4    4    0    0  0.36847206463E+02 -0.40104374936E+02 -0.83616978165E+02  0.99789160486E+02  0.00000000000E+00 0. -1.
         -5    1    5    5    0  501 -0.18372049864E+02  0.91506621049E+02  0.37507174675E+03  0.38653835401E+03  0.47000000000E+01 0.  1.
         11    1    6    6    0    0  0.33148231098E+02  0.61125738862E+02  0.26335994654E+03  0.27238506313E+03  0.00000000000E+00 0. -1.
        -12    1    6    6    0    0  0.10610046817E+03  0.66393924030E+02  0.96049334458E+03  0.96861392075E+03  0.00000000000E+00 0.  1.
</event>
<event>
12    1  0.9656379E-001  0.3068977E+03  0.7818608E-02  0.1081842E+00
         -3   -1    0    0    0  501 -0.00000000000E+00  0.00000000000E+00  0.75968113258E+03  0.75968113258E+03  0.00000000000E+00 0.  1.
          3   -1    0    0  502    0  0.00000000000E+00 -0.00000000000E+00 -0.71670231983E+03  0.71670231983E+03  0.00000000000E+00 0. -1.
          6    2    1    2  502    0  0.15219554880E+03  0.20164456945E+03  0.69281024872E+03  0.75803346110E+03  0.17551259199E+03 0.  0.
         24    2    3    3    0    0  0.12079367388E+03  0.15015603059E+03  0.65284889912E+03  0.68553417252E+03  0.81286354574E+02 0.  0.
         -6    2    1    2    0  501 -0.15219554880E+03 -0.20164456945E+03 -0.64983143597E+03  0.71834999130E+03  0.17297918188E+03 0.  0.
        -24    2    5    5    0    0 -0.12446135124E+03 -0.65244566176E+02 -0.26347060191E+03  0.30765432454E+03  0.74073908808E+02 0.  0.
          5    1    3    3  502    0  0.31401874918E+02  0.51488538857E+02  0.39961349602E+02  0.72499288576E+02  0.47000000000E+01 0. -1.
        -11    1    4    4    0    0  0.74972592580E+02  0.59886708632E+02  0.20441734024E+03  0.22581797204E+03  0.00000000000E+00 0.  1.
         12    1    4    4    0    0  0.45821081304E+02  0.90269321957E+02  0.44843155888E+03  0.45971620048E+03  0.00000000000E+00 0. -1.
         -5    1    5    5    0  501 -0.27734197566E+02 -0.13640000327E+03 -0.38636083406E+03  0.41069566677E+03  0.47000000000E+01 0.  1.
         11    1    6    6    0    0 -0.10274007963E+03 -0.66490148987E+02 -0.15740918301E+03  0.19938433933E+03  0.00000000000E+00 0. -1.
        -12    1    6    6    0    0 -0.21721271609E+02  0.12455828110E+01 -0.10606141890E+03  0.10826998521E+03  0.00000000000E+00 0.  1.
</event>
<event>
12    1  0.9656379E-001  0.1335995E+04  0.7818608E-02  0.9001498E-01
         -2   -1    0    0    0  501 -0.00000000000E+00  0.00000000000E+00  0.21434661794E+04  0.21434661794E+04  0.00000000000E+00 0.  1.
          2   -1    0    0  502    0  0.00000000000E+00 -0.00000000000E+00 -0.17769302895E+04  0.17769302895E+04  0.00000000000E+00 0. -1.
          6    2    1    2  502    0 -0.93517106577E+03 -0.93879204242E+03  0.16121631373E+04  0.20937398953E+04  0.16970959457E+03 0.  0.
         24    2    3    3    0    0 -0.28519598473E+03 -0.34912719210E+03  0.57906853408E+03  0.73820354720E+03  0.79984773288E+02 0.  0.
         -6    2    1    2    0  501  0.93517106577E+03  0.93879204242E+03 -0.12456272475E+04  0.18266565736E+04  0.17091394641E+03 0.  0.
        -24    2    5    5    0    0  0.88213697340E+03  0.84483376946E+03 -0.11024856241E+04  0.16473457085E+04  0.79772138127E+02 0.  0.
          5    1    3    3  502    0 -0.64997508104E+03 -0.58966485032E+03  0.10330946033E+04  0.13555363481E+04  0.47000000000E+01 0. -1.
        -13    1    4    4    0    0 -0.10648346912E+03 -0.12638616195E+03  0.27670137869E+03  0.32229775688E+03  0.00000000000E+00 0.  1.
         14    1    4    4    0    0 -0.17871251561E+03 -0.22274103016E+03  0.30236715540E+03  0.41590579031E+03  0.00000000000E+00 0. -1.
         -5    1    5    5    0  501  0.53034092374E+02  0.93958272958E+02 -0.14314162339E+03  0.17931086514E+03  0.47000000000E+01 0.  1.
         13    1    6    6    0    0  0.36448624989E+03  0.39573559651E+03 -0.51292108345E+03  0.74333365762E+03  0.00000000000E+00 0. -1.
        -14    1    6    6    0    0  0.51765072350E+03  0.44909817296E+03 -0.58956454066E+03  0.90401205086E+03  0.00000000000E+00 0.  1.
</event>
<event>
12    1  0.9656379E-001  0.1001957E+04  0.7818608E-02  0.9306401E-01
          1   -1    0    0  502    0  0.00000000000E+00  0.00000000000E+00  0.15559336960E+04  0.15559336960E+04  0.00000000000E+00 0. -1.
         -1   -1    0    0    0  501 -0.00000000000E+00 -0.00000000000E+00 -0.93829025312E+03  0.93829025312E+03  0.00000000000E+00 0.  1.
          6    2    1    2  502    0  0.95772931636E+03  0.23951788580E+03 -0.38816908039E+03  0.10744969629E+04  0.17103867202E+03 0.  0.
         24    2    3    3    0    0  0.20742013110E+03  0.46622541120E+02 -0.96302498817E+02  0.24661975045E+03  0.79689132945E+02 0.  0.
         -6    2    1    2    0  501 -0.95772931636E+03 -0.23951788580E+03  0.10058125233E+04  0.14197269862E+04  0.17132315185E+03 0.  0.
        -24    2    5    5    0    0 -0.43642543776E+03 -0.13578074360E+03  0.40442051957E+03  0.61709783110E+03  0.91379447579E+02 0.  0.
          5    1    3    3  502    0  0.75030918527E+03  0.19289534468E+03 -0.29186658157E+03  0.82787721247E+03  0.47000000000E+01 0. -1.
        -13    1    4    4    0    0  0.19334298387E+03  0.38440609801E+02 -0.10964534810E+03  0.22556881933E+03  0.00000000000E+00 0.  1.
         14    1    4    4    0    0  0.14077147226E+02  0.81819313196E+01  0.13342849282E+02  0.21050931122E+02  0.00000000000E+00 0. -1.
         -5    1    5    5    0  501 -0.52130387860E+03 -0.10373714220E+03  0.60139200371E+03  0.80262915512E+03  0.47000000000E+01 0.  1.
         13    1    6    6    0    0 -0.14651379604E+03 -0.27605057065E+01  0.14195558026E+03  0.20402279183E+03  0.00000000000E+00 0. -1.
        -14    1    6    6    0    0 -0.28991164172E+03 -0.13302023789E+03  0.26246493932E+03  0.41307503927E+03  0.00000000000E+00 0.  1.
</event>
<event>
12    1  0.9656379E-001  0.3411499E+03  0.7818608E-02  0.1066307E+00
          4   -1    0    0  502    0  0.00000000000E+00  0.00000000000E+00  0.16033037723E+03  0.16033037723E+03  0.00000000000E+00 0. -1.
         -4   -1    0    0    0  501 -0.00000000000E+00 -0.00000000000E+00 -0.12829324422E+04  0.12829324422E+04  0.00000000000E+00 0.  1.
          6    2    1    2  502    0  0.23570062635E+03  0.17713937989E+03 -0.10368843886E+04  0.10915905628E+04  0.17177769477E+03 0.  0.
         24    2    3    3    0    0  0.16658844491E+03  0.15349022938E+03 -0.55431109468E+03  0.60349748777E+03  0.75083071104E+02 0.  0.
         -6    2    1    2    0  501 -0.23570062635E+03 -0.17713937989E+03 -0.85717676442E+02  0.35167225664E+03  0.17144302514E+03 0.  0.
        -24    2    5    5    0    0 -0.90399354641E+02 -0.12604053766E+03 -0.92243995484E+02  0.19743790873E+03  0.80090652670E+02 0.  0.
          5    1    3    3  502    0  0.69112181445E+02  0.23649150515E+02 -0.48257329388E+03  0.48809307505E+03  0.47000000000E+01 0. -1.
        -11    1    4    4    0    0  0.26928424321E+02  0.20450962248E+01 -0.11721454745E+03  0.12028537978E+03  0.00000000000E+00 0.  1.
         12    1    4    4    0    0  0.13966002059E+03  0.15144513315E+03 -0.43709654723E+03  0.48321210798E+03  0.00000000000E+00 0. -1.
         -5    1    5    5    0  501 -0.14530127171E+03 -0.51098842230E+02  0.65263190421E+01  0.15423434792E+03  0.47000000000E+01 0.  1.
         13    1    6    6    0    0 -0.22838994602E+02 -0.70957348797E+02 -0.80111908457E+02  0.10942798042E+03  0.00000000000E+00 0. -1.
        -14    1    6    6    0    0 -0.67560360040E+02 -0.55083188866E+02 -0.12132087027E+02  0.88009928304E+02  0.00000000000E+00 0.  1.
</event>
<event>
12    1  0.9656379E-001  0.1025095E+04  0.7818608E-02  0.9281441E-01
         -1   -1    0    0    0  501 -0.00000000000E+00  0.00000000000E+00  0.14616881083E+04  0.14616881083E+04  0.00000000000E+00 0.  1.
          1   -1    0    0  502    0  0.00000000000E+00 -0.00000000000E+00 -0.15028677834E+04  0.15028677834E+04  0.00000000000E+00 0. -1.
          6    2    1    2  502    0  0.13650206108E+03 -0.10011718340E+04  0.10499805527E+04  0.14675579722E+04  0.17403846306E+03 0.  0.
         24    2    3    3    0    0  0.91156637744E+02 -0.33258617653E+03  0.39395176455E+03  0.52976329860E+03  0.80796425275E+02 0.  0.
         -6    2    1    2    0  501 -0.13650206108E+03  0.10011718340E+04 -0.10911602278E+04  0.14969979195E+04  0.17144758453E+03 0.  0.
        -24    2    5    5    0    0 -0.13914691204E+03  0.78691275237E+03 -0.93022708371E+03  0.12289764349E+04  0.80418327451E+02 0.  0.
          5    1    3    3  502    0  0.45345423337E+02 -0.66858565750E+03  0.65602878818E+03  0.93779467356E+03  0.47000000000E+01 0. -1.
        -13    1    4    4    0    0 -0.85272148731E+01 -0.90550614522E+02  0.12357220432E+03  0.15343473161E+03  0.00000000000E+00 0.  1.
         14    1    4    4    0    0  0.99683852617E+02 -0.24203556200E+03  0.27037956023E+03  0.37632856699E+03  0.00000000000E+00 0. -1.
         -5    1    5    5    0  501  0.26448509567E+01  0.21425908165E+03 -0.16093314413E+03  0.26802148457E+03  0.47000000000E+01 0.  1.
         11    1    6    6    0    0 -0.72988450459E+02  0.48223249177E+03 -0.50943382085E+03  0.70526470764E+03  0.00000000000E+00 0. -1.
        -12    1    6    6    0    0 -0.66158461578E+02  0.30468026060E+03 -0.42079326286E+03  0.52371172730E+03  0.00000000000E+00 0.  1.
</event>
<event>
12    1  0.9656379E-001  0.2513450E+03  0.7818608E-02  0.1112458E+00
         -1   -1    0    0    0  501 -0.00000000000E+00  0.00000000000E+00  0.44184314492E+02  0.44184314492E+02  0.00000000000E+00 0.  1.
          1   -1    0    0  502    0  0.00000000000E+00 -0.00000000000E+00 -0.26598208679E+04  0.26598208679E+04  0.00000000000E+00 0. -1.
          6    2    1    2  502    0 -0.30926657770E+02  0.17992462248E+03 -0.38666641490E+03  0.46083847386E+03  0.17184834782E+03 0.  0.
         24    2    3    3    0    0 -0.22376958438E+02  0.12453034546E+03 -0.12973141032E+03  0.19781887409E+03  0.79331790066E+02 0.  0.
         -6    2    1    2    0  501  0.30926657770E+02 -0.17992462248E+03 -0.22289701385E+04  0.22431667085E+04  0.17366541379E+03 0.  0.
        -24    2    5    5    0    0  0.37522874743E+02  0.50020009015E+01 -0.55446386407E+03  0.55846058601E+03  0.54909593199E+02 0.  0.
          5    1    3    3  502    0 -0.85496993320E+01  0.55394277021E+02 -0.25693500458E+03  0.26301959977E+03  0.47000000000E+01 0. -1.
        -13    1    4    4    0    0 -0.46082890083E+02  0.88533001041E+02 -0.61878914881E+02  0.11743391818E+03  0.00000000000E+00 0.  1.
         14    1    4    4    0    0  0.23705931645E+02  0.35997344415E+02 -0.67852495435E+02  0.80384955912E+02  0.00000000000E+00 0. -1.
         -5    1    5    5    0  501 -0.65962169738E+01 -0.18492662338E+03 -0.16745062744E+04  0.16847061225E+04  0.47000000000E+01 0.  1.
         13    1    6    6    0    0 -0.15201856676E+01 -0.11598954087E+02 -0.31838465388E+03  0.31859948922E+03  0.00000000000E+00 0. -1.
        -14    1    6    6    0    0  0.39043060411E+02  0.16600954989E+02 -0.23607921019E+03  0.23986109679E+03  0.00000000000E+00 0.  1.
</event>
<event>
12    1  0.9656379E-001  0.4229481E+03  0.7818608E-02  0.1036111E+00
          1   -1    0    0  502    0  0.00000000000E+00  0.00000000000E+00  0.90122703970E+03  0.90122703970E+03  0.00000000000E+00 0. -1.
         -1   -1    0    0    0  501 -0.00000000000E+00 -0.00000000000E+00 -0.21987524155E+03  0.21987524155E+03  0.00000000000E+00 0.  1.
          6    2    1    2  502    0  0.38092101038E+03 -0.67505158306E+02  0.16547417235E+03  0.45366890711E+03  0.16963494043E+03 0.  0.
         24    2    3    3    0    0  0.39196905404E+03 -0.75826288829E+02  0.16402420776E+03  0.43898923140E+03  0.80113913570E+02 0.  0.
         -6    2    1    2    0  501 -0.38092101038E+03  0.67505158306E+02  0.51587762580E+03  0.66743337413E+03  0.17227832584E+03 0.  0.
        -24    2    5    5    0    0 -0.12487391101E+03 -0.21085411563E+02  0.23356194399E+03  0.27611171569E+03  0.75155902167E+02 0.  0.
          5    1    3    3  502    0 -0.11048043656E+02  0.83211305234E+01  0.14499645883E+01  0.14679675716E+02  0.47000000000E+01 0. -1.
        -13    1    4    4    0    0  0.23014919857E+03 -0.66211368596E+01  0.78036558052E+02  0.24310943513E+03  0.00000000000E+00 0.  1.
         14    1    4    4    0    0  0.16181985547E+03 -0.69205151970E+02  0.85987649713E+02  0.19587979627E+03  0.00000000000E+00 0. -1.
         -5    1    5    5    0  501 -0.25604709938E+03  0.88590569869E+02  0.28231568181E+03  0.39132165844E+03  0.47000000000E+01 0.  1.
         13    1    6    6    0    0 -0.86705130110E+02  0.93894321919E+01  0.93887240248E+02  0.12814349342E+03  0.00000000000E+00 0. -1.
        -14    1    6    6    0    0 -0.38168780898E+02 -0.30474843755E+02  0.13967470374E+03  0.14796822227E+03  0.00000000000E+00 0.  1.
</event>
<event>
12    1  0.9656379E-001  0.2378981E+03  0.7818608E-02  0.1121201E+00
         -1   -1    0    0    0  501 -0.00000000000E+00  0.00000000000E+00  0.46540917817E+03  0.46540917817E+03  0.00000000000E+00 0.  1.
          1   -1    0    0  502    0  0.00000000000E+00 -0.00000000000E+00 -0.18264499677E+04  0.18264499677E+04  0.00000000000E+00 0. -1.
          6    2    1    2  502    0 -0.13234653829E+03  0.77886371787E+02  0.42530407338E+03  0.49058095436E+03  0.19027407822E+03 0.  0.
         24    2    3    3    0    0  0.10366017620E+02  0.34314447586E+02  0.21912425429E+03  0.23602723903E+03  0.80053001871E+02 0.  0.
         -6    2    1    2    0  501  0.13234653829E+03 -0.77886371787E+02 -0.17863448629E+04  0.18012781915E+04  0.17318562553E+03 0.  0.
        -24    2    5    5    0    0  0.24663257141E+02  0.67912728968E+01 -0.44586818237E+03  0.45381174903E+03  0.80574623005E+02 0.  0.
          5    1    3    3  502    0 -0.14271255591E+03  0.43571924201E+02  0.20617981909E+03  0.25455371534E+03  0.47000000000E+01 0. -1.
        -11    1    4    4    0    0 -0.17854772044E+02  0.45171598945E+02  0.18079998040E+03  0.18721084143E+03  0.00000000000E+00 0.  1.
         12    1    4    4    0    0  0.28220789664E+02 -0.10857151359E+02  0.38324273889E+02  0.48816397593E+02  0.00000000000E+00 0. -1.
         -5    1    5    5    0  501  0.10768328115E+03 -0.84677644684E+02 -0.13404766806E+04  0.13474664425E+04  0.47000000000E+01 0.  1.
         13    1    6    6    0    0  0.13093237927E+02  0.23283247765E+02 -0.42082186459E+03  0.42166880869E+03  0.00000000000E+00 0. -1.
        -14    1    6    6    0    0  0.11570019214E+02 -0.16491974868E+02 -0.25046317779E+02  0.32142940344E+02  0.00000000000E+00 0.  1.
</event>
<event>
12    1  0.9656379E-001  0.2123405E+03  0.7818608E-02  0.1139726E+00
          1   -1    0    0  502    0  0.00000000000E+00  0.00000000000E+00  0.29119397219E+03  0.29119397219E+03  0.00000000000E+00 0. -1.
         -1   -1    0    0    0  501 -0.00000000000E+00 -0.00000000000E+00 -0.97490341049E+03  0.97490341049E+03  0.00000000000E+00 0.  1.
          6    2    1    2  502    0 -0.63545981216E+02 -0.10691332267E+03 -0.92247826990E+03  0.94661877573E+03  0.17219871611E+03 0.  0.
         24    2    3    3    0    0 -0.62908238281E+02 -0.91535865902E+02 -0.37835781751E+03  0.40226041068E+03  0.79514393263E+02 0.  0.
         -6    2    1    2    0  501  0.63545981216E+02  0.10691332267E+03  0.23876883160E+03  0.31947860696E+03  0.17201010164E+03 0.  0.
        -24    2    5    5    0    0 -0.15227865884E+02  0.93526798375E+02  0.18595855117E+03  0.22358526131E+03  0.80191248953E+02 0.  0.
          5    1    3    3  502    0 -0.63774293423E+00 -0.15377456768E+02 -0.54412045239E+03  0.54435836505E+03  0.47000000000E+01 0. -1.
        -13    1    4    4    0    0 -0.59298575488E+02 -0.16614498385E+02 -0.17258023581E+03  0.18323837044E+03  0.00000000000E+00 0.  1.
         14    1    4    4    0    0 -0.36096627929E+01 -0.74921367516E+02 -0.20577758170E+03  0.21902204023E+03  0.00000000000E+00 0. -1.
         -5    1    5    5    0  501  0.78773847100E+02  0.13386524294E+02  0.52810280432E+02  0.95893345645E+02  0.47000000000E+01 0.  1.
         11    1    6    6    0    0 -0.20511742768E+01  0.70745822492E+02  0.53987907282E+02  0.89016138136E+02  0.00000000000E+00 0. -1.
        -12    1    6    6    0    0 -0.13176691608E+02  0.22780975883E+02  0.13197064389E+03  0.13456912318E+03  0.00000000000E+00 0.  1.
</event>
<event>
12    1  0.9656379E-001  0.2722651E+03  0.7818608E-02  0.1099990E+00
          2   -1    0    0  502    0  0.00000000000E+00  0.00000000000E+00  0.20994963324E+04  0.20994963324E+04  0.00000000000E+00 0. -1.
         -2   -1    0    0    0  501 -0.00000000000E+00 -0.00000000000E+00 -0.40169962338E+03  0.40169962338E+03  0.00000000000E+00 0.  1.
          6    2    1    2  502    0  0.17904218390E+03  0.11230529706E+03 -0.34550864685E+03  0.43981469806E+03  0.17144141920E+03 0.  0.
         24    2    3    3    0    0  0.22908937660E+02  0.76985228656E+02 -0.14402578468E+03  0.18243845292E+03  0.78030875916E+02 0.  0.
         -6    2    1    2    0  501 -0.17904218390E+03 -0.11230529706E+03  0.20433053558E+04  0.20613812577E+04  0.17183517974E+03 0.  0.
        -24    2    5    5    0    0 -0.69099191738E+02 -0.95081947235E+02  0.75085526493E+03  0.76414055805E+03  0.79447395178E+02 0.  0.
          5    1    3    3  502    0  0.15613324624E+03  0.35320068408E+02 -0.20148286217E+03  0.25737624514E+03  0.47000000000E+01 0. -1.
        -13    1    4    4    0    0  0.43007757891E+02  0.18268951583E+02 -0.41000972114E+02  0.62165115178E+02  0.00000000000E+00 0.  1.
         14    1    4    4    0    0 -0.20098820231E+02  0.58716277073E+02 -0.10302481257E+03  0.12027333775E+03  0.00000000000E+00 0. -1.
         -5    1    5    5    0  501 -0.10994299216E+03 -0.17223349829E+02  0.12924500909E+04  0.12972406996E+04  0.47000000000E+01 0.  1.
         13    1    6    6    0    0  0.10218724021E+02 -0.18919886876E+02  0.27077891307E+03  0.27163137559E+03  0.00000000000E+00 0. -1.
        -14    1    6    6    0    0 -0.79317915759E+02 -0.76162060358E+02  0.48007635185E+03  0.49250918246E+03  0.00000000000E+00 0.  1.
</event>
<event>
12    1  0.9656379E-001  0.1044126E+04  0.7818608E-02  0.9261430E-01
         -2   -1    0    0    0  501 -0.00000000000E+00  0.00000000000E+00  0.74119966592E+03  0.74119966592E+03  0.00000000000E+00 0.  1.
          2   -1    0    0  502    0  0.00000000000E+00 -0.00000000000E+00 -0.20859505819E+04  0.20859505819E+04  0.00000000000E+00 0. -1.
          6    2    1    2  502    0  0.31781741838E+03  0.97908024480E+03  0.95225843787E+02  0.10484659955E+04  0.17494840699E+03 0.  0.
         24    2    3    3    0    0  0.28567719825E+03  0.70305943466E+03  0.33878822233E+02  0.76385041535E+03  0.80097766358E+02 0.  0.
         -6    2    1    2    0  501 -0.31781741838E+03 -0.97908024480E+03 -0.14399767597E+04  0.17786842524E+04  0.17486727474E+03 0.  0.
        -24    2    5    5    0    0 -0.11104302594E+03 -0.46257418250E+03 -0.57491241136E+03  0.75014520175E+03  0.76734054048E+02 0.  0.
          5    1    3    3  502    0  0.32140220130E+02  0.27602081014E+03  0.61347021554E+02  0.28461558010E+03  0.47000000000E+01 0. -1.
        -13    1    4    4    0    0  0.27043818530E+03  0.64859817428E+03  0.51527753544E+02  0.70460734678E+03  0.00000000000E+00 0.  1.
         14    1    4    4    0    0  0.15239012947E+02  0.54461260376E+02 -0.17648931310E+02  0.59243068571E+02  0.00000000000E+00 0. -1.
         -5    1    5    5    0  501 -0.20677439244E+03 -0.51650606230E+03 -0.86506434838E+03  0.10285390506E+04  0.47000000000E+01 0.  1.
         11    1    6    6    0    0  0.10719023096E+02 -0.51996298997E+02 -0.52937140081E+02  0.74972350674E+02  0.00000000000E+00 0. -1.
        -12    1    6    6    0    0 -0.12176204904E+03 -0.41057788350E+03 -0.52197527128E+03  0.67517285108E+03  0.00000000000E+00 0.  1.
</event>
<event>
12    1  0.9656379E-001  0.4044819E+03  0.7818608E-02  0.1042239E+00
         -1   -1    0    0    0  501 -0.00000000000E+00  0.00000000000E+00  0.11267396227E+03  0.11267396227E+03  0.00000000000E+00 0.  1.
          1   -1    0    0  502    0  0.00000000000E+00 -0.00000000000E+00 -0.23236106902E+04  0.23236106902E+04  0.00000000000E+00 0. -1.
          6    2    1    2  502    0  0.45144194619E+02 -0.36336376780E+03 -0.35961481988E+03  0.54131686051E+03  0.17213337484E+03 0.  0.
         24    2    3    3    0    0 -0.65042903761E+01 -0.10241515891E+03 -0.54390712898E+02  0.13641491192E+03  0.71550737085E+02 0.  0.
         -6    2    1    2    0  501 -0.45144194619E+02  0.36336376780E+03 -0.18513219081E+04  0.18949677920E+04  0.17157767714E+03 0.  0.
        -24    2    5    5    0    0 -0.86282232975E+02  0.32655595246E+03 -0.16170786052E+04  0.16542622282E+04  0.86930378014E+02 0.  0.
          5    1    3    3  502    0  0.51648484996E+02 -0.26094860890E+03 -0.30522410698E+03  0.40490194858E+03  0.47000000000E+01 0. -1.
        -13    1    4    4    0    0  0.56071564424E+01 -0.98879497546E+02 -0.66205943641E+02  0.11912943470E+03  0.00000000000E+00 0.  1.
         14    1    4    4    0    0 -0.12111446819E+02 -0.35356613615E+01  0.11815230742E+02  0.17285477222E+02  0.00000000000E+00 0. -1.
         -5    1    5    5    0  501  0.41138038356E+02  0.36807815340E+02 -0.23424330287E+03  0.24070556373E+03  0.47000000000E+01 0.  1.
         13    1    6    6    0    0 -0.46118686057E+01  0.11659725665E+03 -0.71612330358E+03  0.72556789863E+03  0.00000000000E+00 0. -1.
        -14    1    6    6    0    0 -0.81670364370E+02  0.20995869581E+03 -0.90095530160E+03  0.92869432960E+03  0.00000000000E+00 0.  1.
</event>
<event>
12    1  0.9656379E-001  0.1168315E+04  0.7818608E-02  0.9141051E-01
          2   -1    0    0  502    0  0.00000000000E+00  0.00000000000E+00  0.17236656595E+04  0.17236656595E+04  0.00000000000E+00 0. -1.
         -2   -1    0    0    0  501 -0.00000000000E+00 -0.00000000000E+00 -0.79300179867E+03  0.79300179867E+03  0.00000000000E+00 0.  1.
          6    2    1    2  502    0 -0.34327554720E+03 -0.11035613945E+04  0.41825596109E+03  0.12408316219E+04  0.17040895579E+03 0.  0.
         24    2    3    3    0    0 -0.17758589020E+03 -0.49548186897E+03  0.13106045945E+03  0.54821548150E+03  0.79525714345E+02 0.  0.
         -6    2    1    2    0  501  0.34327554720E+03  0.11035613945E+04  0.51240789969E+03  0.12758358362E+04  0.17178292287E+03 0.  0.
        -24    2    5    5    0    0  0.91294064670E+02  0.44820171364E+03  0.24041436384E+03  0.52284609368E+03  0.79684308237E+02 0.  0.
          5    1    3    3  502    0 -0.16568965700E+03 -0.60807952552E+03  0.28719550164E+03  0.69261614041E+03  0.47000000000E+01 0. -1.
        -11    1    4    4    0    0 -0.12751775695E+03 -0.31182607398E+03  0.11967523176E+03  0.35751704833E+03  0.00000000000E+00 0.  1.
         12    1    4    4    0    0 -0.50068133255E+02 -0.18365579500E+03  0.11385227690E+02  0.19069843317E+03  0.00000000000E+00 0. -1.
         -5    1    5    5    0  501  0.25198148253E+03  0.65535968086E+03  0.27199353585E+03  0.75298974254E+03  0.47000000000E+01 0.  1.
         13    1    6    6    0    0  0.45478116859E+02  0.95121107663E+02  0.31501944217E+02  0.11003934172E+03  0.00000000000E+00 0. -1.
        -14    1    6    6    0    0  0.45815947811E+02  0.35308060597E+03  0.20891241963E+03  0.41280675196E+03  0.00000000000E+00 0.  1.
</event>
<event>
12    1  0.9656379E-001  0.2844934E+03  0.7818608E-02  0.1093260E+00
         -2   -1    0    0    0  501 -0.00000000000E+00  0.00000000000E+00  0.55547656688E+02  0.55547656688E+02  0.00000000000E+00 0.  1.
          2   -1    0    0  502    0  0.00000000000E+00 -0.00000000000E+00 -0.21849951610E+04  0.21849951610E+04  0.00000000000E+00 0. -1.
          6    2    1    2  502    0 -0.19250835141E+03 -0.11968020972E+03 -0.41715957355E+03  0.50471898584E+03  0.17127850681E+03 0.  0.
         24    2    3    3    0    0 -0.19394889669E+03 -0.59312778959E+02 -0.35934336869E+03  0.42098664196E+03  0.83474042727E+02 0.  0.
         -6    2    1    2    0  501  0.19250835141E+03  0.11968020972E+03 -0.17122879308E+04  0.17358238319E+04  0.17254448539E+03 0.  0.
        -24    2    5    5    0    0  0.17532418288E+03  0.12628190066E+03 -0.16932447152E+04  0.17089237941E+04  0.81591550043E+02 0.  0.
          5    1    3    3  502    0  0.14405452755E+01 -0.60367430758E+02 -0.57816204862E+02  0.83732343880E+02  0.47000000000E+01 0. -1.
        -11    1    4    4    0    0 -0.11072048612E+03 -0.69837127477E+02 -0.25894130798E+03  0.29014970515E+03  0.00000000000E+00 0.  1.
         12    1    4    4    0    0 -0.83228410573E+02  0.10524348517E+02 -0.10040206071E+03  0.13083693681E+03  0.00000000000E+00 0. -1.
         -5    1    5    5    0  501  0.17184168537E+02 -0.66016909388E+01 -0.19043215603E+02  0.26900037771E+02  0.47000000000E+01 0.  1.
         11    1    6    6    0    0  0.44448071078E+02  0.27034093258E+01 -0.52601761634E+03  0.52789911171E+03  0.00000000000E+00 0. -1.
        -12    1    6    6    0    0  0.13087611180E+03  0.12357849133E+03 -0.11672270988E+04  0.11810246824E+04  0.00000000000E+00 0.  1.
</event>
<event>
12    1  0.9656379E-001  0.2511689E+03  0.7818608E-02  0.1112568E+00
          2   -1    0    0  502    0  0.00000000000E+00  0.00000000000E+00  0.31523576246E+04  0.31523576246E+04  0.00000000000E+00 0. -1.
         -2   -1    0    0    0  501 -0.00000000000E+00 -0.00000000000E+00 -0.48293928783E+02  0.48293928783E+02  0.00000000000E+00 0.  1.
          6    2    1    2  502    0  0.17874042862E+03 -0.45426619845E+02  0.32850992061E+03  0.41379621455E+03  0.17116314037E+03 0.  0.
         24    2    3    3    0    0  0.85256939607E+02  0.31210390305E+02  0.12285337645E+03  0.17519802051E+03  0.85782049820E+02 0.  0.
         -6    2    1    2    0  501 -0.17874042862E+03  0.45426619845E+02  0.27755537752E+04  0.27868553388E+04  0.16985935918E+03 0.  0.
        -24    2    5    5    0    0 -0.12621728773E+02 -0.12934036255E+02  0.85257984291E+03  0.85583171833E+03  0.72311439232E+02 0.  0.
          5    1    3    3  502    0  0.93483489015E+02 -0.76637010150E+02  0.20565654416E+03  0.23859819404E+03  0.47000000000E+01 0. -1.
        -11    1    4    4    0    0  0.90899962099E+02  0.30877388362E+02  0.13273528368E+03  0.16381352739E+03  0.00000000000E+00 0.  1.
         12    1    4    4    0    0 -0.56430224913E+01  0.33300194363E+00 -0.98819072309E+01  0.11384493122E+02  0.00000000000E+00 0. -1.
         -5    1    5    5    0  501 -0.16611869985E+03  0.58360656100E+02  0.19229739323E+04  0.19310236205E+04  0.47000000000E+01 0.  1.
         11    1    6    6    0    0  0.27238146441E+02 -0.29565717302E+01  0.52031211213E+03  0.52103296630E+03  0.00000000000E+00 0. -1.
        -12    1    6    6    0    0 -0.39859875214E+02 -0.99774645245E+01  0.33226773077E+03  0.33479875203E+03  0.00000000000E+00 0.  1.
</event>
<event>
12    1  0.9656379E-001  0.3224877E+03  0.7818608E-02  0.1074510E+00
         -3   -1    0    0    0  501 -0.00000000000E+00  0.00000000000E+00  0.89410154985E+03  0.89410154985E+03  0.00000000000E+00 0.  1.
          3   -1    0    0  502    0  0.00000000000E+00 -0.00000000000E+00 -0.41241129998E+03  0.41241129998E+03  0.00000000000E+00 0. -1.
          6    2    1    2  502    0  0.12736193789E+03 -0.24132815339E+03  0.79441569587E+03  0.85746522517E+03  0.17230778767E+03 0.  0.
         24    2    3    3    0    0  0.12076713551E+03 -0.15954985687E+03  0.69892345494E+03  0.73148094331E+03  0.80805424964E+02 0.  0.
         -6    2    1    2    0  501 -0.12736193789E+03  0.24132815339E+03 -0.31272544600E+03  0.44904762466E+03  0.17142410506E+03 0.  0.
        -24    2    5    5    0    0 -0.42440590109E+02  0.85907770392E+02 -0.57482792551E+02  0.13834192323E+03  0.81565112525E+02 0.  0.
          5    1    3    3  502    0  0.65948023806E+01 -0.81778296516E+02  0.95492240923E+02  0.12598428186E+03  0.47000000000E+01 0. -1.
        -13    1    4    4    0    0  0.68432328375E+02 -0.42750297336E+02  0.36633265354E+03  0.37511356219E+03  0.00000000000E+00 0.  1.
         14    1    4    4    0    0  0.52334807135E+02 -0.11679955954E+03  0.33259080140E+03  0.35636738112E+03  0.00000000000E+00 0. -1.
         -5    1    5    5    0  501 -0.84921347782E+02  0.15542038300E+03 -0.25524265345E+03  0.31070570143E+03  0.47000000000E+01 0.  1.
         13    1    6    6    0    0 -0.61941129654E+02  0.54163475821E+02 -0.18335638681E+02  0.84300541526E+02  0.00000000000E+00 0. -1.
        -14    1    6    6    0    0  0.19500539545E+02  0.31744294571E+02 -0.39147153870E+02  0.54041381704E+02  0.00000000000E+00 0.  1.
</event>
<event>
12    1  0.9656379E-001  0.2215340E+03  0.7818608E-02  0.1132745E+00
          2   -1    0    0  502    0  0.00000000000E+00  0.00000000000E+00  0.14982199473E+04  0.14982199473E+04  0.00000000000E+00 0. -1.
         -2   -1    0    0    0  501 -0.00000000000E+00 -0.00000000000E+00 -0.52388585000E+02  0.52388585000E+02  0.00000000000E+00 0.  1.
          6    2    1    2  502    0 -0.92471292803E+02  0.10181340611E+03  0.24871163549E+03  0.33319877746E+03  0.17391675599E+03 0.  0.
         24    2    3    3    0    0 -0.67479507870E+02 -0.15338951086E+01  0.15512097423E+03  0.19147173043E+03  0.89683165046E+02 0.  0.
         -6    2    1    2    0  501  0.92471292803E+02 -0.10181340611E+03  0.11971197268E+04  0.12174097549E+04  0.17341845695E+03 0.  0.
        -24    2    5    5    0    0  0.45256507516E+02  0.16532672727E+02  0.56525766207E+03  0.57281159382E+03  0.79217528075E+02 0.  0.
          5    1    3    3  502    0 -0.24991784934E+02  0.10334730122E+03  0.93590661262E+02  0.14172704703E+03  0.47000000000E+01 0. -1.
        -11    1    4    4    0    0 -0.18891252135E+02 -0.42972891856E+02  0.50891113635E+02  0.69234776585E+02  0.00000000000E+00 0.  1.
         12    1    4    4    0    0 -0.48588255734E+02  0.41438996747E+02  0.10422986060E+03  0.12223695385E+03  0.00000000000E+00 0. -1.
         -5    1    5    5    0  501  0.47214785288E+02 -0.11834607884E+03  0.63186206476E+03  0.64459816104E+03  0.47000000000E+01 0.  1.
         13    1    6    6    0    0 -0.12459223215E+02 -0.14319707786E+01  0.31890314570E+03  0.31914965004E+03  0.00000000000E+00 0. -1.
        -14    1    6    6    0    0  0.57715730731E+02  0.17964643506E+02  0.24635451637E+03  0.25366194379E+03  0.00000000000E+00 0.  1.
</event>
<event>
12    1  0.9656379E-001  0.5079160E+03  0.7818608E-02  0.1011733E+00
          2   -1    0    0  502    0  0.00000000000E+00  0.00000000000E+00  0.77406875012E+03  0.77406875012E+03  0.00000000000E+00 0. -1.
         -2   -1    0    0    0  501 -0.00000000000E+00 -0.00000000000E+00 -0.68312210247E+03  0.68312210247E+03  0.00000000000E+00 0.  1.
          6    2    1    2  502    0 -0.29168154818E+01 -0.47730292285E+03 -0.47595908243E+03  0.69561396709E+03  0.17179975289E+03 0.  0.
         24    2    3    3    0    0 -0.28324454181E+02 -0.34268953799E+03 -0.25443343808E+03  0.43511058402E+03  0.79664620506E+02 0.  0.
         -6    2    1    2    0  501  0.29168154818E+01  0.47730292285E+03  0.56690573009E+03  0.76157688550E+03  0.17547266952E+03 0.  0.
        -24    2    5    5    0    0 -0.49974648234E+02  0.16296632862E+03  0.18030556751E+03  0.26049128691E+03  0.79310296637E+02 0.  0.
          5    1    3    3  502    0  0.25407638699E+02 -0.13461338485E+03 -0.22152564435E+03  0.26050338307E+03  0.47000000000E+01 0. -1.
        -11    1    4    4    0    0 -0.13653549800E+02 -0.23408739472E+03 -0.12571279606E+03  0.26605832984E+03  0.00000000000E+00 0.  1.
         12    1    4    4    0    0 -0.14670904381E+02 -0.10860214328E+03 -0.12872064203E+03  0.16905225418E+03  0.00000000000E+00 0. -1.
         -5    1    5    5    0  501  0.52891463716E+02  0.31433659423E+03  0.38660016258E+03  0.50108559859E+03  0.47000000000E+01 0.  1.
         11    1    6    6    0    0 -0.63662741803E+02  0.15338245374E+03  0.14126496185E+03  0.21802502438E+03  0.00000000000E+00 0. -1.
        -12    1    6    6    0    0  0.13688093569E+02  0.95838748799E+01  0.39040605661E+02  0.42466262534E+02  0.00000000000E+00 0.  1.
</event>
<event>
12    1  0.9656379E-001  0.2755912E+03  0.7818608E-02  0.1098122E+00
         -2   -1    0    0    0  501 -0.00000000000E+00  0.00000000000E+00  0.26169347272E+03  0.26169347272E+03  0.00000000000E+00 0.  1.
          2   -1    0    0  502    0  0.00000000000E+00 -0.00000000000E+00 -0.12907998175E+04  0.12907998175E+04  0.00000000000E+00 0. -1.
          6    2    1    2  502    0 -0.18029350114E+03 -0.11814986294E+03  0.16878784016E+03  0.32335410686E+03  0.17205640578E+03 0.  0.
         24    2    3    3    0    0 -0.60732270655E+02  0.55413141203E+01  0.51279483567E+02  0.11496816927E+03  0.82879307722E+02 0.  0.
         -6    2    1    2    0  501  0.18029350114E+03  0.11814986294E+03 -0.11978941849E+04  0.12291391833E+04  0.17136953369E+03 0.  0.
        -24    2    5    5    0    0  0.14120376880E+03  0.19063527354E+02 -0.83942615007E+03  0.85515050559E+03  0.79650507743E+02 0.  0.
          5    1    3    3  502    0 -0.11956123048E+03 -0.12369117706E+03  0.11750835659E+03  0.20838593759E+03  0.47000000000E+01 0. -1.
        -11    1    4    4    0    0 -0.70130664583E+02  0.30314032305E+02  0.38291532509E+02  0.85460471163E+02  0.00000000000E+00 0.  1.
         12    1    4    4    0    0  0.93983939285E+01 -0.24772718184E+02  0.12987951059E+02  0.29507698104E+02  0.00000000000E+00 0. -1.
         -5    1    5    5    0  501  0.39089732334E+02  0.99086335588E+02 -0.35846803485E+03  0.37398867775E+03  0.47000000000E+01 0.  1.
         13    1    6    6    0    0  0.60416264302E+02  0.30573345545E+02 -0.21488503340E+03  0.22530075906E+03  0.00000000000E+00 0. -1.
        -14    1    6    6    0    0  0.80787504503E+02 -0.11509818191E+02 -0.62454111667E+03  0.62984974653E+03  0.00000000000E+00 0.  1.
</event>
<event>
12    1  0.9656379E-001  0.6221536E+03  0.7818608E-02  0.9860481E-01
         -2   -1    0    0    0  501 -0.00000000000E+00  0.00000000000E+00  0.58783830710E+03  0.58783830710E+03  0.00000000000E+00 0.  1.
          2   -1    0    0  502    0  0.00000000000E+00 -0.00000000000E+00 -0.99367430190E+03  0.99367430190E+03  0.00000000000E+00 0. -1.
          6    2    1    2  502    0 -0.54170385296E+03 -0.25274006828E+03  0.25632846444E+03  0.67301669717E+03  0.17299302462E+03 0.  0.
         24    2    3    3    0    0 -0.19545856631E+03 -0.37064651911E+02  0.99027666621E+02  0.23578985131E+03  0.78819640048E+02 0.  0.
         -6    2    1    2    0  501  0.54170385296E+03  0.25274006828E+03 -0.66216445923E+03  0.90849591183E+03  0.17199547760E+03 0.  0.
        -24    2    5    5    0    0  0.53707832097E+03  0.26409605581E+03 -0.62420819548E+03  0.86833222230E+03  0.78518325415E+02 0.  0.
          5    1    3    3  502    0 -0.34624528664E+03 -0.21567541637E+03  0.15730079782E+03  0.43722684586E+03  0.47000000000E+01 0. -1.
        -13    1    4    4    0    0 -0.10260310742E+03 -0.38096242008E+02  0.91441484131E+02  0.14261930559E+03  0.00000000000E+00 0.  1.
         14    1    4    4    0    0 -0.92855458895E+02  0.10315900969E+01  0.75861824904E+01  0.93170545719E+02  0.00000000000E+00 0. -1.
         -5    1    5    5    0  501  0.46255319916E+01 -0.11355987528E+02 -0.37956263750E+02  0.40163689531E+02  0.47000000000E+01 0.  1.
         11    1    6    6    0    0  0.38784518605E+03  0.17835431285E+03 -0.49146575747E+03  0.65097829459E+03  0.00000000000E+00 0. -1.
        -12    1    6    6    0    0  0.14923313491E+03  0.85741742962E+02 -0.13274243801E+03  0.21735392771E+03  0.00000000000E+00 0.  1.
</event>
<event>
12    1  0.9656379E-001  0.1783997E+03  0.7818608E-02  0.1169361E+00
         -2   -1    0    0    0  501 -0.00000000000E+00  0.00000000000E+00  0.11643781683E+02  0.11643781683E+02  0.00000000000E+00 0.  1.
          2   -1    0    0  502    0  0.00000000000E+00 -0.00000000000E+00 -0.34521334510E+04  0.34521334510E+04  0.00000000000E+00 0. -1.
          6    2    1    2  502    0 -0.94960314987E+01 -0.46069832017E+02 -0.92156865221E+03  0.93846775718E+03  0.17093959895E+03 0.  0.
         24    2    3    3    0    0 -0.39666188947E+01 -0.18684503147E+02 -0.20535805176E+03  0.22169705127E+03  0.81319176079E+02 0.  0.
         -6    2    1    2    0  501  0.94960314987E+01  0.46069832017E+02 -0.25189210171E+04  0.25253094755E+04  0.17324044743E+03 0.  0.
        -24    2    5    5    0    0  0.10032623992E+02  0.47617510893E+02 -0.25185728667E+04  0.25203200417E+04  0.80223105708E+02 0.  0.
          5    1    3    3  502    0 -0.55294126040E+01 -0.27385328870E+02 -0.71621060046E+03  0.71677070591E+03  0.47000000000E+01 0. -1.
        -11    1    4    4    0    0 -0.25756876811E+02 -0.13639566482E+02 -0.20843061913E+02  0.35831378801E+02  0.00000000000E+00 0.  1.
         12    1    4    4    0    0  0.21790257917E+02 -0.50449366648E+01 -0.18451498984E+03  0.18586567247E+03  0.00000000000E+00 0. -1.
         -5    1    5    5    0  501 -0.53659249309E+00 -0.15476788759E+01 -0.34815042015E+00  0.49894338478E+01  0.47000000000E+01 0.  1.
         13    1    6    6    0    0  0.13538050740E+02  0.69712099966E+02 -0.20136777908E+04  0.20149296019E+04  0.00000000000E+00 0. -1.
        -14    1    6    6    0    0 -0.35054267482E+01 -0.22094589073E+02 -0.50489507595E+03  0.50539043976E+03  0.00000000000E+00 0.  1.
</event>
<event>
12    1  0.9656379E-001  0.4424316E+03  0.7818608E-02  0.1030003E+00
          2   -1    0    0  502    0  0.00000000000E+00  0.00000000000E+00  0.18114193987E+04  0.18114193987E+04  0.00000000000E+00 0. -1.
         -2   -1    0    0    0  501 -0.00000000000E+00 -0.00000000000E+00 -0.50815079357E+03  0.50815079357E+03  0.00000000000E+00 0.  1.
          6    2    1    2  502    0 -0.40706687205E+03 -0.51489710012E+01 -0.37764144298E+03  0.58126919094E+03  0.17184546156E+03 0.  0.
         24    2    3    3    0    0 -0.41562139318E+03 -0.15309788749E+02 -0.37712360541E+03  0.56717024754E+03  0.80525423581E+02 0.  0.
         -6    2    1    2    0  501  0.40706687205E+03  0.51489710012E+01  0.16809100481E+04  0.17383010013E+04  0.17464773441E+03 0.  0.
        -24    2    5    5    0    0  0.21959205792E+03 -0.20144122771E+02  0.11765491783E+04  0.11996095093E+04  0.78540106874E+02 0.  0.
          5    1    3    3  502    0  0.85545211339E+01  0.10160817748E+02 -0.51783757532E+00  0.14098943396E+02  0.47000000000E+01 0. -1.
        -13    1    4    4    0    0 -0.26031697565E+03 -0.34788728941E+02 -0.27509193724E+03  0.38032980085E+03  0.00000000000E+00 0.  1.
         14    1    4    4    0    0 -0.15530441753E+03  0.19478940192E+02 -0.10203166816E+03  0.18684044670E+03  0.00000000000E+00 0. -1.
         -5    1    5    5    0  501  0.18747481412E+03  0.25293093772E+02  0.50436086985E+03  0.53869149201E+03  0.47000000000E+01 0.  1.
         11    1    6    6    0    0  0.20754468214E+03  0.27007392896E+01  0.10145457120E+04  0.10355602787E+04  0.00000000000E+00 0. -1.
        -12    1    6    6    0    0  0.12047375782E+02 -0.22844862060E+02  0.16200346627E+03  0.16404923063E+03  0.00000000000E+00 0.  1.
</event>
<event>
12    1  0.9656379E-001  0.4261825E+03  0.7818608E-02  0.1035073E+00
         -1   -1    0    0    0  501 -0.00000000000E+00  0.00000000000E+00  0.52686704599E+03  0.52686704599E+03  0.00000000000E+00 0.  1.
          1   -1    0    0  502    0  0.00000000000E+00 -0.00000000000E+00 -0.16627940026E+04  0.16627940026E+04  0.00000000000E+00 0. -1.
          6    2    1    2  502    0  0.25436538788E+03  0.29604094726E+03  0.40673090967E+03  0.58927204750E+03  0.17166688696E+03 0.  0.
         24    2    3    3    0    0  0.11092447690E+03  0.17934166782E+03  0.14206593653E+03  0.26637321695E+03  0.79399540255E+02 0.  0.
         -6    2    1    2    0  501 -0.25436538788E+03 -0.29604094726E+03 -0.15426578663E+04  0.16003890011E+04  0.17061556034E+03 0.  0.
        -24    2    5    5    0    0 -0.12099282830E+03 -0.16787353146E+03 -0.10621725598E+04  0.10855071254E+04  0.85407175114E+02 0.  0.
          5    1    3    3  502    0  0.14344091098E+03  0.11669927943E+03  0.26466497313E+03  0.32289883054E+03  0.47000000000E+01 0. -1.
        -11    1    4    4    0    0  0.57557955546E+02  0.14707317969E+03  0.12582568633E+03  0.20192954655E+03  0.00000000000E+00 0.  1.
         12    1    4    4    0    0  0.53366521359E+02  0.32268488137E+02  0.16240250209E+02  0.64443670406E+02  0.00000000000E+00 0. -1.
         -5    1    5    5    0  501 -0.13337255958E+03 -0.12816741580E+03 -0.48048530654E+03  0.51488187570E+03  0.47000000000E+01 0.  1.
         13    1    6    6    0    0 -0.10516085499E+03 -0.74181709002E+02 -0.59116154766E+03  0.60500719567E+03  0.00000000000E+00 0. -1.
        -14    1    6    6    0    0 -0.15831973307E+02 -0.93691822455E+02 -0.47101101211E+03  0.48049992976E+03  0.00000000000E+00 0.  1.
</event>
<event>
12    1  0.9656379E-001  0.6181779E+03  0.7818608E-02  0.9868394E-01
         -1   -1    0    0    0  501 -0.00000000000E+00  0.00000000000E+00  0.11842764209E+04  0.11842764209E+04  0.00000000000E+00 0.  1.
          1   -1    0    0  502    0  0.00000000000E+00 -0.00000000000E+00 -0.10499522417E+04  0.10499522417E+04  0.00000000000E+00 0. -1.
          6    2    1    2  502    0 -0.10633934138E+03  0.58461241244E+03  0.99688762884E+03  0.11727930393E+04  0.16905277309E+03 0.  0.
         24    2    3    3    0    0 -0.12450304776E+03  0.55818851458E+03  0.88821576590E+03  0.10593919528E+04  0.79426923777E+02 0.  0.
         -6    2    1    2    0  501  0.10633934138E+03 -0.58461241244E+03 -0.86256344965E+03  0.10614356234E+04  0.17190156983E+03 0.  0.
        -24    2    5    5    0    0  0.59677292951E+02 -0.55000572502E+03 -0.77244204347E+03  0.95410935717E+03  0.87122201951E+02 0.  0.
          5    1    3    3  502    0  0.18163706380E+02  0.26423897861E+02  0.10867186293E+03  0.11340108642E+03  0.47000000000E+01 0. -1.
        -13    1    4    4    0    0 -0.10578007812E+03  0.50118920632E+03  0.83279904183E+03  0.97771892153E+03  0.00000000000E+00 0.  1.
         14    1    4    4    0    0 -0.18722969641E+02  0.56999308264E+02  0.55416724077E+02  0.81673031303E+02  0.00000000000E+00 0. -1.
         -5    1    5    5    0  501  0.46662048427E+02 -0.34606687425E+02 -0.90121406177E+02  0.10732626626E+03  0.47000000000E+01 0.  1.
         13    1    6    6    0    0 -0.15428950496E+02 -0.17740847146E+03 -0.28382268495E+03  0.33506288179E+03  0.00000000000E+00 0. -1.
        -14    1    6    6    0    0  0.75106243447E+02 -0.37259725356E+03 -0.48861935852E+03  0.61904647538E+03  0.00000000000E+00 0.  1.
</event>
<event>
12    1  0.9656379E-001  0.4541010E+03  0.7818608E-02  0.1026506E+00
          3   -1    0    0  502    0  0.00000000000E+00  0.00000000000E+00  0.37117639383E+03  0.37117639383E+03  0.00000000000E+00 0. -1.
         -3   -1    0    0    0  501 -0.00000000000E+00 -0.00000000000E+00 -0.56200652761E+03  0.56200652761E+03  0.00000000000E+00 0.  1.
          6    2    1    2  502    0 -0.41686755969E+03 -0.52923953143E+02 -0.45420724624E+02  0.45641453112E+03  0.17225468020E+03 0.  0.
         24    2    3    3    0    0 -0.32778596875E+03 -0.40457197484E+00  0.12745353088E+02  0.33767448800E+03  0.80111240369E+02 0.  0.
         -6    2    1    2    0  501  0.41686755969E+03  0.52923953143E+02 -0.14540940915E+03  0.47676839032E+03  0.17200201917E+03 0.  0.
        -24    2    5    5    0    0  0.29756614517E+03  0.73873256075E+02 -0.46214895549E+02  0.32013715994E+03  0.79681339667E+02 0.  0.
          5    1    3    3  502    0 -0.89081590944E+02 -0.52519381168E+02 -0.58166077712E+02  0.11874004312E+03  0.47000000000E+01 0. -1.
        -11    1    4    4    0    0 -0.18968309041E+03 -0.30707276394E+02 -0.17961116522E+02  0.19299018969E+03  0.00000000000E+00 0.  1.
         12    1    4    4    0    0 -0.13810287834E+03  0.30302704419E+02  0.30706469610E+02  0.14468429831E+03  0.00000000000E+00 0. -1.
         -5    1    5    5    0  501  0.11930141452E+03 -0.20949302931E+02 -0.99194513604E+02  0.15663123038E+03  0.47000000000E+01 0.  1.
         11    1    6    6    0    0  0.17703257544E+03  0.79993852066E+02 -0.11740797984E+02  0.19462115885E+03  0.00000000000E+00 0. -1.
        -12    1    6    6    0    0  0.12053356973E+03 -0.61205959910E+01 -0.34474097565E+02  0.12551600109E+03  0.00000000000E+00 0.  1.
</event>
<event>
12    1  0.9656379E-001  0.2204733E+03  0.7818608E-02  0.1133531E+00
          2   -1    0    0  502    0  0.00000000000E+00  0.00000000000E+00  0.18361388673E+04  0.18361388673E+04  0.00000000000E+00 0. -1.
         -2   -1    0    0    0  501 -0.00000000000E+00 -0.00000000000E+00 -0.10731384530E+03  0.10731384530E+03  0.00000000000E+00 0.  1.
          6    2    1    2  502    0  0.11850035111E+03 -0.71810234546E+02  0.21163878942E+02  0.22163726911E+03  0.17168612725E+03 0.  0.
         24    2    3    3    0    0  0.55557652815E+02 -0.21863759764E+02  0.73902253366E+02  0.12540910406E+03  0.81861001413E+02 0.  0.
         -6    2    1    2    0  501 -0.11850035111E+03  0.71810234546E+02  0.17076611431E+04  0.17218154435E+04  0.17129739899E+03 0.  0.
        -24    2    5    5    0    0 -0.34203378066E+02  0.22299784001E+02  0.12765507191E+04  0.12797345097E+04  0.80445791773E+02 0.  0.
          5    1    3    3  502    0  0.62942698294E+02 -0.49946474782E+02 -0.52738374424E+02  0.96228165048E+02  0.47000000000E+01 0. -1.
        -11    1    4    4    0    0  0.50211097189E+02 -0.12116545816E+02  0.99790777486E+00  0.51661985863E+02  0.00000000000E+00 0.  1.
         12    1    4    4    0    0  0.53465556257E+01 -0.97472139476E+01  0.72904345591E+02  0.73747118201E+02  0.00000000000E+00 0. -1.
         -5    1    5    5    0  501 -0.84296973043E+02  0.49510450545E+02  0.43111042393E+03  0.44208093376E+03  0.47000000000E+01 0.  1.
         11    1    6    6    0    0 -0.51601831265E+02  0.20987386187E+01  0.10970250667E+04  0.10982400242E+04  0.00000000000E+00 0. -1.
        -12    1    6    6    0    0  0.17398453200E+02  0.20201045382E+02  0.17952565241E+03  0.18149448554E+03  0.00000000000E+00 0.  1.
</event>
<event>
12    1  0.9656379E-001  0.3346884E+03  0.7818608E-02  0.1069081E+00
         -2   -1    0    0    0  501 -0.00000000000E+00  0.00000000000E+00  0.27082624640E+03  0.27082624640E+03  0.00000000000E+00 0.  1.
          2   -1    0    0  502    0  0.00000000000E+00 -0.00000000000E+00 -0.10354264843E+04  0.10354264843E+04  0.00000000000E+00 0. -1.
          6    2    1    2  502    0  0.72316865688E+02  0.27752888484E+03  0.12394800233E+03  0.35667580666E+03  0.17205380784E+03 0.  0.
         24    2    3    3    0    0  0.84868576529E+02  0.22717715277E+03  0.15315673647E+03  0.29694237785E+03  0.76848264874E+02 0.  0.
         -6    2    1    2    0  501 -0.72316865688E+02 -0.27752888484E+03 -0.88854824020E+03  0.94957692402E+03  0.17299233652E+03 0.  0.
        -24    2    5    5    0    0 -0.25928667177E+02 -0.23290290543E+03 -0.81498799049E+03  0.85171710930E+03  0.79376007076E+02 0.  0.
          5    1    3    3  502    0 -0.12551710841E+02  0.50351732067E+02 -0.29208734141E+02  0.59733428809E+02  0.47000000000E+01 0. -1.
        -11    1    4    4    0    0  0.78901074061E+02  0.19419148983E+03  0.95699226287E+02  0.23042147496E+03  0.00000000000E+00 0.  1.
         12    1    4    4    0    0  0.59675024687E+01  0.32985662944E+02  0.57457510179E+02  0.66520902892E+02  0.00000000000E+00 0. -1.
         -5    1    5    5    0  501 -0.46388198511E+02 -0.44625979413E+02 -0.73560249708E+02  0.97859814719E+02  0.47000000000E+01 0.  1.
         13    1    6    6    0    0  0.17268864666E+02 -0.22681789186E+02 -0.54224433612E+02  0.61261459729E+02  0.00000000000E+00 0. -1.
        -14    1    6    6    0    0 -0.43197531844E+02 -0.21022111624E+03 -0.76076355688E+03  0.79045564957E+03  0.00000000000E+00 0.  1.
</event>
<event>
12    1  0.9656379E-001  0.2253168E+03  0.7818608E-02  0.1129980E+00
         -2   -1    0    0    0  501 -0.00000000000E+00  0.00000000000E+00  0.90147905795E+02  0.90147905795E+02  0.00000000000E+00 0.  1.
          2   -1    0    0  502    0  0.00000000000E+00 -0.00000000000E+00 -0.91123324642E+03  0.91123324642E+03  0.00000000000E+00 0. -1.
          6    2    1    2  502    0 -0.14381539020E+03 -0.21131422394E+02 -0.10122972824E+03  0.24712321563E+03  0.17231663400E+03 0.  0.
         24    2    3    3    0    0 -0.10663715066E+03 -0.30680649601E+02 -0.13725753381E+03  0.19426962531E+03  0.81168174625E+02 0.  0.
         -6    2    1    2    0  501  0.14381539020E+03  0.21131422394E+02 -0.71985561238E+03  0.75425793658E+03  0.17199863008E+03 0.  0.
        -24    2    5    5    0    0  0.61405922933E+01 -0.20659733889E+01 -0.34811814929E+03  0.35713918782E+03  0.79499550280E+02 0.  0.
          5    1    3    3  502    0 -0.37178239542E+02  0.95492272072E+01  0.36027805566E+02  0.52853590318E+02  0.47000000000E+01 0. -1.
        -13    1    4    4    0    0 -0.29429170043E+02  0.23724306085E+02 -0.65602913796E+02  0.75714338452E+02  0.00000000000E+00 0.  1.
         14    1    4    4    0    0 -0.77207980615E+02 -0.54404955686E+02 -0.71654620013E+02  0.11855528686E+03  0.00000000000E+00 0. -1.
         -5    1    5    5    0  501  0.13767479791E+03  0.23197395783E+02 -0.37173746309E+03  0.39711874876E+03  0.47000000000E+01 0.  1.
         11    1    6    6    0    0  0.97617421656E+01  0.22399903611E+02 -0.33049484984E+02  0.41101286471E+02  0.00000000000E+00 0. -1.
        -12    1    6    6    0    0 -0.36211498723E+01 -0.24465877000E+02 -0.31506866431E+03  0.31603790135E+03  0.00000000000E+00 0.  1.
</event>
<event>
12    1  0.9656379E-001  0.6767739E+03  0.7818608E-02  0.9757798E-01
          1   -1    0    0  502    0  0.00000000000E+00  0.00000000000E+00  0.15973575916E+04  0.15973575916E+04  0.00000000000E+00 0. -1.
         -1   -1    0    0    0  501 -0.00000000000E+00 -0.00000000000E+00 -0.11786367987E+04  0.11786367987E+04  0.00000000000E+00 0.  1.
          6    2    1    2  502    0  0.61369254452E+03  0.22842895666E+03 -0.99808079028E+03  0.12056980604E+04  0.16954120850E+03 0.  0.
         24    2    3    3    0    0  0.46267333097E+03  0.20236046535E+03 -0.66383530082E+03  0.83796377269E+03  0.80558106982E+02 0.  0.
         -6    2    1    2    0  501 -0.61369254452E+03 -0.22842895666E+03  0.14168015832E+04  0.15702963299E+04  0.17235286553E+03 0.  0.
        -24    2    5    5    0    0 -0.44203123247E+03 -0.20768781529E+03  0.92728704216E+03  0.10511196963E+04  0.80408447175E+02 0.  0.
          5    1    3    3  502    0  0.15101921355E+03  0.26068491307E+02 -0.33424548945E+03  0.36773428766E+03  0.47000000000E+01 0. -1.
        -11    1    4    4    0    0  0.24419764564E+02  0.52481548385E+00 -0.12660012132E+02  0.27511383822E+02  0.00000000000E+00 0.  1.
         12    1    4    4    0    0  0.43825356640E+03  0.20183564987E+03 -0.65117528869E+03  0.81045238887E+03  0.00000000000E+00 0. -1.
         -5    1    5    5    0  501 -0.17166131205E+03 -0.20741141375E+02  0.48951454099E+03  0.51917663357E+03  0.47000000000E+01 0.  1.
         13    1    6    6    0    0 -0.18411532329E+03 -0.61986768252E+02  0.43797028964E+03  0.47912293445E+03  0.00000000000E+00 0. -1.
        -14    1    6    6    0    0 -0.25791590918E+03 -0.14570104703E+03  0.48931675252E+03  0.57199676189E+03  0.00000000000E+00 0.  1.
</event>
<event>
12    1  0.9656379E-001  0.7151806E+03  0.7818608E-02  0.9691618E-01
          2   -1    0    0  502    0  0.00000000000E+00  0.00000000000E+00  0.20718352423E+04  0.20718352423E+04  0.00000000000E+00 0. -1.
         -2   -1    0    0    0  501 -0.00000000000E+00 -0.00000000000E+00 -0.27204933194E+03  0.27204933194E+03  0.00000000000E+00 0.  1.
          6    2    1    2  502    0 -0.20947891599E+03 -0.66142631943E+03  0.12564573777E+04  0.14457671488E+04  0.17375647952E+03 0.  0.
         24    2    3    3    0    0 -0.74419032237E+02 -0.34957700130E+03  0.53796280140E+03  0.65094156060E+03  0.81108984885E+02 0.  0.
         -6    2    1    2    0  501  0.20947891599E+03  0.66142631943E+03  0.54332853269E+03  0.89811742550E+03  0.17332865685E+03 0.  0.
        -24    2    5    5    0    0  0.11231432788E+03  0.21700241153E+03  0.23955720646E+03  0.35107750399E+03  0.78506074816E+02 0.  0.
          5    1    3    3  502    0 -0.13505988375E+03 -0.31184931813E+03  0.71849457633E+03  0.79482558818E+03  0.47000000000E+01 0. -1.
        -11    1    4    4    0    0 -0.74085350608E+02 -0.31875053678E+03  0.44072920300E+03  0.54893786010E+03  0.00000000000E+00 0.  1.
         12    1    4    4    0    0 -0.33368162945E+00 -0.30826464518E+02  0.97233598395E+02  0.10200370050E+03  0.00000000000E+00 0. -1.
         -5    1    5    5    0  501  0.97164588110E+02  0.44442390790E+03  0.30377132623E+03  0.54703992152E+03  0.47000000000E+01 0.  1.
         13    1    6    6    0    0  0.65816642636E+01  0.77812608225E+02  0.47569526948E+02  0.91438395641E+02  0.00000000000E+00 0. -1.
        -14    1    6    6    0    0  0.10573266361E+03  0.13918980330E+03  0.19198767951E+03  0.25963910835E+03  0.00000000000E+00 0.  1.
</event>
<event>
12    1  0.9656379E-001  0.6287034E+03  0.7818608E-02  0.9847582E-01
          2   -1    0    0  502    0  0.00000000000E+00  0.00000000000E+00  0.15039990049E+04  0.15039990049E+04  0.00000000000E+00 0. -1.
         -2   -1    0    0    0  501 -0.00000000000E+00 -0.00000000000E+00 -0.38213192208E+03  0.38213192208E+03  0.00000000000E+00 0.  1.
          6    2    1    2  502    0  0.22944490807E+03 -0.55974112486E+03  0.33918864632E+02  0.62955874982E+03  0.17099309167E+03 0.  0.
         24    2    3    3    0    0  0.55911340561E+02 -0.21343434944E+03  0.57681815612E+02  0.24144916530E+03  0.79310831854E+02 0.  0.
         -6    2    1    2    0  501 -0.22944490807E+03  0.55974112486E+03  0.10879482182E+04  0.12565721772E+04  0.17142700560E+03 0.  0.
        -24    2    5    5    0    0 -0.19126112130E+03  0.30581679308E+03  0.69771597823E+03  0.78941175616E+03  0.79111358471E+02 0.  0.
          5    1    3    3  502    0  0.17353356750E+03 -0.34630677543E+03 -0.23762950979E+02  0.38810958452E+03  0.47000000000E+01 0. -1.
        -13    1    4    4    0    0  0.54271875794E+02 -0.66551977291E+02  0.74153725007E+01  0.86195069075E+02  0.00000000000E+00 0.  1.
         14    1    4    4    0    0  0.16394647675E+01 -0.14688237214E+03  0.50266443111E+02  0.15525409622E+03  0.00000000000E+00 0. -1.
         -5    1    5    5    0  501 -0.38183786765E+02  0.25392433178E+03  0.39023223999E+03  0.46716042102E+03  0.47000000000E+01 0.  1.
         13    1    6    6    0    0 -0.13912686029E+02  0.83004176043E+02  0.17361844276E+03  0.19294201134E+03  0.00000000000E+00 0. -1.
        -14    1    6    6    0    0 -0.17734843527E+03  0.22281261704E+03  0.52409753547E+03  0.59646974483E+03  0.00000000000E+00 0.  1.
</event>
<event>
12    1  0.9656379E-001  0.2520062E+03  0.7818608E-02  0.1112044E+00
          1   -1    0    0  502    0  0.00000000000E+00  0.00000000000E+00  0.79915794827E+03  0.79915794827E+03  0.00000000000E+00 0. -1.
         -1   -1    0    0    0  501 -0.00000000000E+00 -0.00000000000E+00 -0.12625147931E+03  0.12625147931E+03  0.00000000000E+00 0.  1.
          6    2    1    2  502    0 -0.18273674449E+03 -0.25610545771E+02  0.54737424768E+02  0.25782418174E+03  0.17154738464E+03 0.  0.
         24    2    3    3    0    0 -0.19075968748E+03  0.75817090930E+01  0.71982038280E+02  0.21928121750E+03  0.80349846502E+02 0.  0.
         -6    2    1    2    0  501  0.18273674449E+03  0.25610545771E+02  0.61816904418E+03  0.66758524584E+03  0.17172208780E+03 0.  0.
        -24    2    5    5    0    0  0.20165440958E+03  0.46420023292E+02  0.51492665405E+03  0.56047785335E+03  0.78527992305E+02 0.  0.
          5    1    3    3  502    0  0.80229429907E+01 -0.33192254864E+02 -0.17244613512E+02  0.38542964239E+02  0.47000000000E+01 0. -1.
        -11    1    4    4    0    0 -0.18191348439E+03  0.54606673437E+01  0.40414025634E+02  0.18642861411E+03  0.00000000000E+00 0.  1.
         12    1    4    4    0    0 -0.88462030920E+01  0.21210417493E+01  0.31568012646E+02  0.32852603392E+02  0.00000000000E+00 0. -1.
         -5    1    5    5    0  501 -0.18917665086E+02 -0.20809477521E+02  0.10324239013E+03  0.10710739249E+03  0.47000000000E+01 0.  1.
         11    1    6    6    0    0  0.10119405526E+03  0.38967316906E+02  0.35746191695E+03  0.37354746777E+03  0.00000000000E+00 0. -1.
        -12    1    6    6    0    0  0.10046035432E+03  0.74527063861E+01  0.15746473710E+03  0.18693038558E+03  0.00000000000E+00 0.  1.
</event>
<event>
12    1  0.9656379E-001  0.1953820E+03  0.7818608E-02  0.1153695E+00
          2   -1    0    0  502    0  0.00000000000E+00  0.00000000000E+00  0.48916473390E+03  0.48916473390E+03  0.00000000000E+00 0. -1.
         -2   -1    0    0    0  501 -0.00000000000E+00 -0.00000000000E+00 -0.10020078459E+03  0.10020078459E+03  0.00000000000E+00 0.  1.
          6    2    1    2  502    0  0.89313178400E+02 -0.23562970278E+02  0.55895142496E+02  0.20321839525E+03  0.17216675582E+03 0.  0.
         24    2    3    3    0    0 -0.75228656450E+01 -0.38640876278E+02  0.55811022405E+02  0.10510285238E+03  0.79887599350E+02 0.  0.
         -6    2    1    2    0  501 -0.89313178400E+02  0.23562970278E+02  0.33306880681E+03  0.38614712325E+03  0.17217059365E+03 0.  0.
        -24    2    5    5    0    0 -0.49634938485E+01  0.53309633317E+02  0.23465047348E+03  0.25307574548E+03  0.78230013221E+02 0.  0.
          5    1    3    3  502    0  0.96836044044E+02  0.15077905999E+02  0.84120090948E-01  0.98115542865E+02  0.47000000000E+01 0. -1.
        -11    1    4    4    0    0 -0.37338727231E+01  0.16773718105E+02 -0.92835533505E+01  0.19531609954E+02  0.00000000000E+00 0.  1.
         12    1    4    4    0    0 -0.37889929219E+01 -0.55414594383E+02  0.65094575755E+02  0.85571242428E+02  0.00000000000E+00 0. -1.
         -5    1    5    5    0  501 -0.84349684551E+02 -0.29746663039E+02  0.98418333331E+02  0.13307137777E+03  0.47000000000E+01 0.  1.
         13    1    6    6    0    0  0.10907538134E+02  0.34348823493E+02  0.29871748357E+02  0.46809586769E+02  0.00000000000E+00 0. -1.
        -14    1    6    6    0    0 -0.15871031982E+02  0.18960809824E+02  0.20477872512E+03  0.20626615871E+03  0.00000000000E+00 0.  1.
</event>
<event>
12    1  0.9656379E-001  0.3259381E+03  0.7818608E-02  0.1072948E+00
         -2   -1    0    0    0  501 -0.00000000000E+00  0.00000000000E+00  0.16406487848E+04  0.16406487848E+04  0.00000000000E+00 0.  1.
          2   -1    0    0  502    0  0.00000000000E+00 -0.00000000000E+00 -0.22677438120E+03  0.22677438120E+03  0.00000000000E+00 0. -1.
          6    2    1    2  502    0 -0.12740110028E+03  0.24348736177E+03  0.14976519344E+04  0.15332281270E+04  0.17974992948E+03 0.  0.
         24    2    3    3    0    0  0.47771168001E+01  0.11696227803E+03  0.59541408226E+03  0.61261153487E+03  0.84094993776E+02 0.  0.
         -6    2    1    2    0  501  0.12740110028E+03 -0.24348736177E+03 -0.83777530825E+02  0.33419503897E+03  0.17073521519E+03 0.  0.
        -24    2    5    5    0    0  0.14963971570E+03 -0.19696524415E+03 -0.10221575492E+03  0.27923212828E+03  0.79593774835E+02 0.  0.
          5    1    3    3  502    0 -0.13217821708E+03  0.12652508373E+03  0.90223785215E+03  0.92061659215E+03  0.47000000000E+01 0. -1.
        -11    1    4    4    0    0  0.26757073328E+02  0.10723595778E+03  0.55229981454E+03  0.56325001266E+03  0.00000000000E+00 0.  1.
         12    1    4    4    0    0 -0.21979956528E+02  0.97263202583E+01  0.43114267713E+02  0.49361522213E+02  0.00000000000E+00 0. -1.
         -5    1    5    5    0  501 -0.22238615422E+02 -0.46522117614E+02  0.18438224095E+02  0.54962910685E+02  0.47000000000E+01 0.  1.
         13    1    6    6    0    0  0.70247475537E+02 -0.77870716513E+02 -0.27072636382E+01  0.10490893950E+03  0.00000000000E+00 0. -1.
        -14    1    6    6    0    0  0.79392240161E+02 -0.11909452764E+03 -0.99508491282E+02  0.17432318879E+03  0.00000000000E+00 0.  1.
</event>
<event>
12    1  0.9656379E-001  0.1119604E+04  0.7818608E-02  0.9186293E-01
         -1   -1    0    0    0  501 -0.00000000000E+00  0.00000000000E+00  0.23761883166E+04  0.23761883166E+04  0.00000000000E+00 0.  1.
          1   -1    0    0  502    0  0.00000000000E+00 -0.00000000000E+00 -0.82313128458E+03  0.82313128458E+03  0.00000000000E+00 0. -1.
          6    2    1    2  502    0  0.40260388688E+03 -0.10304778087E+04  0.17351522967E+04  0.20650168315E+04  0.17194946248E+03 0.  0.
         24    2    3    3    0    0  0.17877305740E+03 -0.39651447886E+03  0.59266026395E+03  0.73937740891E+03  0.79052048311E+02 0.  0.
         -6    2    1    2    0  501 -0.40260388688E+03  0.10304778087E+04 -0.18209526473E+03  0.11343027696E+04  0.17178382867E+03 0.  0.
        -24    2    5    5    0    0 -0.38239865112E+03  0.87700407093E+03 -0.19067361962E+03  0.97919597445E+03  0.84282016783E+02 0.  0.
          5    1    3    3  502    0  0.22383082949E+03 -0.63396332985E+03  0.11424920328E+04  0.13256394226E+04  0.47000000000E+01 0. -1.
        -13    1    4    4    0    0  0.16143355086E+03 -0.38902228615E+03  0.55020931003E+03  0.69291371419E+03  0.00000000000E+00 0.  1.
         14    1    4    4    0    0  0.17339506533E+02 -0.74921927111E+01  0.42450953918E+02  0.46463694720E+02  0.00000000000E+00 0. -1.
         -5    1    5    5    0  501 -0.20205235757E+02  0.15347373778E+03  0.85783548870E+01  0.15510679519E+03  0.47000000000E+01 0.  1.
         13    1    6    6    0    0 -0.88437038144E+02  0.18898192034E+03 -0.77074030571E+02  0.22243129753E+03  0.00000000000E+00 0. -1.
        -14    1    6    6    0    0 -0.29396161298E+03  0.68802215058E+03 -0.11359958905E+03  0.75676467692E+03  0.00000000000E+00 0.  1.
</event>
<event>
12    1  0.9656379E-001  0.3280479E+03  0.7818608E-02  0.1072004E+00
         -1   -1    0    0    0  501 -0.00000000000E+00  0.00000000000E+00  0.43287461634E+03  0.43287461634E+03  0.00000000000E+00 0.  1.
          1   -1    0    0  502    0  0.00000000000E+00 -0.00000000000E+00 -0.98677362257E+03  0.98677362257E+03  0.00000000000E+00 0. -1.
          6    2    1    2  502    0 -0.22307701777E+03  0.16653388224E+03  0.33696829059E+03  0.47032201889E+03  0.17366140273E+03 0.  0.
         24    2    3    3    0    0 -0.21563076208E+03  0.83946703179E+02  0.23569541777E+03  0.33934731279E+03  0.77849818294E+02 0.  0.
         -6    2    1    2    0  501  0.22307701777E+03 -0.16653388224E+03 -0.89086729683E+03  0.94932622002E+03  0.17343252771E+03 0.  0.
        -24    2    5    5    0    0  0.11155917984E+03 -0.11570503864E+03 -0.69832454518E+03  0.72103999457E+03  0.80052462738E+02 0.  0.
          5    1    3    3  502    0 -0.74462556871E+01  0.82587179064E+02  0.10127287282E+03  0.13097470611E+03  0.47000000000E+01 0. -1.
        -11    1    4    4    0    0 -0.77266617869E+02  0.69458852045E+02  0.84845728657E+02  0.13413970343E+03  0.00000000000E+00 0.  1.
         12    1    4    4    0    0 -0.13836414421E+03  0.14487851135E+02  0.15084968911E+03  0.20520760936E+03  0.00000000000E+00 0. -1.
         -5    1    5    5    0  501  0.11151783793E+03 -0.50828843603E+02 -0.19254275164E+03  0.22828622545E+03  0.47000000000E+01 0.  1.
         13    1    6    6    0    0  0.51405584764E+01 -0.33390875097E+02 -0.26940916641E+03  0.27151919790E+03  0.00000000000E+00 0. -1.
        -14    1    6    6    0    0  0.10641862136E+03 -0.82314163543E+02 -0.42891537877E+03  0.44952079667E+03  0.00000000000E+00 0.  1.
</event>
<event>
12    1  0.9656379E-001  0.3558965E+03  0.7818608E-02  0.1060221E+00
          1   -1    0    0  502    0  0.00000000000E+00  0.00000000000E+00  0.13556248135E+04  0.13556248135E+04  0.00000000000E+00 0. -1.
         -1   -1    0    0    0  501 -0.00000000000E+00 -0.00000000000E+00 -0.96000715196E+02  0.96000715196E+02  0.00000000000E+00 0.  1.
          6    2    1    2  502    0 -0.30909706609E+03  0.30077297612E-01  0.74381576055E+03  0.82344537594E+03  0.17105380540E+03 0.  0.
         24    2    3    3    0    0 -0.10320341901E+03 -0.19277552756E+02  0.41826959590E+03  0.43774163755E+03  0.75137984120E+02 0.  0.
         -6    2    1    2    0  501  0.30909706609E+03 -0.30077297612E-01  0.51580833780E+03  0.62818015280E+03  0.18168947646E+03 0.  0.
        -24    2    5    5    0    0  0.13754270875E+03  0.67674037952E+02  0.24583911305E+03  0.30119358266E+03  0.82358561081E+02 0.  0.
          5    1    3    3  502    0 -0.20589364708E+03  0.19307630054E+02  0.32554616465E+03  0.38570373839E+03  0.47000000000E+01 0. -1.
        -11    1    4    4    0    0 -0.92457819773E+02 -0.39845185160E+02  0.28026255613E+03  0.29779722562E+03  0.00000000000E+00 0.  1.
         12    1    4    4    0    0 -0.10745599239E+02  0.20567632404E+02  0.13800703977E+03  0.13994441193E+03  0.00000000000E+00 0. -1.
         -5    1    5    5    0  501  0.17155435735E+03 -0.67704115250E+02  0.26996922475E+03  0.32698657015E+03  0.47000000000E+01 0.  1.
         11    1    6    6    0    0  0.57027561493E+02  0.14132647041E+02  0.32918139758E+02  0.67345960586E+02  0.00000000000E+00 0. -1.
        -12    1    6    6    0    0  0.80515147257E+02  0.53541390911E+02  0.21292097330E+03  0.23384762207E+03  0.00000000000E+00 0.  1.
</event>
<event>
12    1  0.9656379E-001  0.3328598E+03  0.7818608E-02  0.1069878E+00
         -2   -1    0    0    0  501 -0.00000000000E+00  0.00000000000E+00  0.17671092104E+03  0.17671092104E+03  0.00000000000E+00 0.  1.
          2   -1    0    0  502    0  0.00000000000E+00 -0.00000000000E+00 -0.81934016304E+03  0.81934016304E+03  0.00000000000E+00 0. -1.
          6    2    1    2  502    0 -0.28536509723E+03  0.54213932428E+01 -0.79889596177E+02  0.34215567875E+03  0.17095476216E+03 0.  0.
         24    2    3    3    0    0 -0.10590690150E+03  0.42917749611E+00  0.23004807173E+02  0.13517859192E+03  0.80793406799E+02 0.  0.
         -6    2    1    2    0  501  0.28536509723E+03 -0.54213932428E+01 -0.56273964582E+03  0.65389540532E+03  0.17158281354E+03 0.  0.
        -24    2    5    5    0    0  0.16102987587E+03 -0.39090719239E+02 -0.43420202628E+03  0.47186002299E+03  0.81619706058E+02 0.  0.
          5    1    3    3  502    0 -0.17945819573E+03  0.49922157467E+01 -0.10289440335E+03  0.20697708684E+03  0.47000000000E+01 0. -1.
        -13    1    4    4    0    0 -0.11609164019E+03 -0.13922068451E+01  0.33096875209E+02  0.12072535074E+03  0.00000000000E+00 0.  1.
         14    1    4    4    0    0  0.10184738699E+02  0.18213843412E+01 -0.10092068036E+02  0.14453241177E+02  0.00000000000E+00 0. -1.
         -5    1    5    5    0  501  0.12433522136E+03  0.33669325996E+02 -0.12853761953E+03  0.18203538233E+03  0.47000000000E+01 0.  1.
         11    1    6    6    0    0  0.13140478835E+03 -0.13850525568E+02 -0.24166492649E+03  0.27542874243E+03  0.00000000000E+00 0. -1.
        -12    1    6    6    0    0  0.29625087513E+02 -0.25240193670E+02 -0.19253709979E+03  0.19643128056E+03  0.00000000000E+00 0.  1.
</event>
<event>
12    1  0.1014046E+000  0.1040478E+04  0.7818608E-02  0.9265231E-01
         -2   -1    0    0    0  501 -0.00000000000E+00  0.00000000000E+00  0.10005121556E+04  0.10005121556E+04  0.00000000000E+00 0.  1.
          2   -1    0    0  502    0  0.00000000000E+00 -0.00000000000E+00 -0.16284666628E+04  0.16284666628E+04  0.00000000000E+00 0. -1.
          6    2    1    2  502    0  0.10257698711E+04 -0.19827984176E+02  0.44751444205E+03  0.11323815105E+04  0.17152764188E+03 0.  0.
         24    2    3    3    0    0  0.89765743198E+03  0.28511850833E+02  0.36813252053E+03  0.97403658261E+03  0.81387473020E+02 0.  0.
         -6    2    1    2    0  501 -0.10257698711E+04  0.19827984176E+02 -0.10754689492E+04  0.14965973079E+04  0.17485154766E+03 0.  0.
        -24    2    5    5    0    0 -0.61480992366E+03  0.65754181986E+01 -0.74398811890E+03  0.96842561250E+03  0.79343352082E+02 0.  0.
          5    1    3    3  502    0  0.12811243915E+03 -0.48339835008E+02  0.79381921522E+02  0.15834492786E+03  0.47000000000E+01 0. -1.
        -11    1    4    4    0    0  0.36494795776E+03 -0.24451480091E+02  0.16816583285E+03  0.40257252029E+03  0.00000000000E+00 0.  1.
         12    1    4    4    0    0  0.53270947421E+03  0.52963330924E+02  0.19996668769E+03  0.57146406232E+03  0.00000000000E+00 0. -1.
         -5    1    5    5    0  501 -0.41095994747E+03  0.13252565977E+02 -0.33148083034E+03  0.52817169539E+03  0.47000000000E+01 0.  1.
         13    1    6    6    0    0 -0.42323076736E+03 -0.31289688381E+02 -0.49606967768E+03  0.65283110538E+03  0.00000000000E+00 0. -1.
        -14    1    6    6    0    0 -0.19157915631E+03  0.37865106579E+02 -0.24791844122E+03  0.31559450712E+03  0.00000000000E+00 0.  1.
</event>
<event>
12    1  0.9656379E-001  0.6014387E+03  0.7818608E-02  0.9902426E-01
         -2   -1    0    0    0  501 -0.00000000000E+00  0.00000000000E+00  0.20366156565E+03  0.20366156565E+03  0.00000000000E+00 0.  1.
          2   -1    0    0  502    0  0.00000000000E+00 -0.00000000000E+00 -0.24404513310E+04  0.24404513310E+04  0.00000000000E+00 0. -1.
          6    2    1    2  502    0  0.34936075919E+03 -0.45856100108E+03 -0.42859241819E+03  0.73850710991E+03  0.17137724085E+03 0.  0.
         24    2    3    3    0    0  0.33449350424E+03 -0.36673694473E+03 -0.32381632151E+03  0.59831861884E+03  0.82135671644E+02 0.  0.
         -6    2    1    2    0  501 -0.34936075919E+03  0.45856100108E+03 -0.18081973472E+04  0.19056057867E+04  0.17153610811E+03 0.  0.
        -24    2    5    5    0    0 -0.22160906608E+03  0.21242487092E+03 -0.81945742015E+03  0.87870159309E+03  0.79819310347E+02 0.  0.
          5    1    3    3  502    0  0.14867254947E+02 -0.91824056346E+02 -0.10477609668E+03  0.14018849107E+03  0.47000000000E+01 0. -1.
        -11    1    4    4    0    0  0.18257087554E+03 -0.22700714135E+03 -0.14587633420E+03  0.32579790008E+03  0.00000000000E+00 0.  1.
         12    1    4    4    0    0  0.15192262871E+03 -0.13972980339E+03 -0.17793998731E+03  0.27252071876E+03  0.00000000000E+00 0. -1.
         -5    1    5    5    0  501 -0.12775169311E+03  0.24613613016E+03 -0.98873992702E+03  0.10269041937E+04  0.47000000000E+01 0.  1.
         13    1    6    6    0    0 -0.95341347280E+02  0.92913429560E+02 -0.46841093538E+03  0.48696168461E+03  0.00000000000E+00 0. -1.
        -14    1    6    6    0    0 -0.12626771880E+03  0.11951144136E+03 -0.35104648477E+03  0.39173990848E+03  0.00000000000E+00 0.  1.
</event>
<event>
12    1  0.9656379E-001  0.2538201E+03  0.7818608E-02  0.1110914E+00
          2   -1    0    0  502    0  0.00000000000E+00  0.00000000000E+00  0.22277865924E+04  0.22277865924E+04  0.00000000000E+00 0. -1.
         -2   -1    0    0    0  501 -0.00000000000E+00 -0.00000000000E+00 -0.64066209426E+02  0.64066209426E+02  0.00000000000E+00 0.  1.
          6    2    1    2  502    0  0.91263614847E+02  0.16196770560E+03  0.23413266199E+03  0.34571308633E+03  0.17359968203E+03 0.  0.
         24    2    3    3    0    0  0.12689349284E+03  0.15531104734E+03  0.18455999813E+03  0.28412300347E+03  0.80249661942E+02 0.  0.
         -6    2    1    2    0  501 -0.91263614847E+02 -0.16196770560E+03  0.19295877210E+04  0.19461397155E+04  0.17201288959E+03 0.  0.
        -24    2    5    5    0    0 -0.71976911341E+02 -0.13596977700E+03  0.18713663449E+04  0.18793588211E+04  0.79430004075E+02 0.  0.
          5    1    3    3  502    0 -0.35629877991E+02  0.66566582576E+01  0.49572663856E+02  0.61590082859E+02  0.47000000000E+01 0. -1.
        -11    1    4    4    0    0  0.46243915323E+02  0.98182703277E+02  0.56483848104E+02  0.12234691669E+03  0.00000000000E+00 0.  1.
         12    1    4    4    0    0  0.80649577516E+02  0.57128344064E+02  0.12807615003E+03  0.16177608678E+03  0.00000000000E+00 0. -1.
         -5    1    5    5    0  501 -0.19286703507E+02 -0.25997928603E+02  0.58221376050E+02  0.66780894371E+02  0.47000000000E+01 0.  1.
         13    1    6    6    0    0 -0.20770708868E+02 -0.65727778491E+02  0.12551861256E+04  0.12570774730E+04  0.00000000000E+00 0. -1.
        -14    1    6    6    0    0 -0.51206202473E+02 -0.70241998504E+02  0.61618021930E+03  0.62228134809E+03  0.00000000000E+00 0.  1.
</event>
<event>
12    1  0.9656379E-001  0.3383982E+03  0.7818608E-02  0.1067480E+00
          1   -1    0    0  502    0  0.00000000000E+00  0.00000000000E+00  0.16266093966E+04  0.16266093966E+04  0.00000000000E+00 0. -1.
         -1   -1    0    0    0  501 -0.00000000000E+00 -0.00000000000E+00 -0.47537713928E+03  0.47537713928E+03  0.00000000000E+00 0.  1.
          6    2    1    2  502    0  0.14339243344E+03 -0.25393359544E+03 -0.39435202229E+03  0.51986347700E+03  0.17233936396E+03 0.  0.
         24    2    3    3    0    0  0.75884207011E+01 -0.13602670673E+03 -0.21583106336E+03  0.26641409929E+03  0.76371299046E+02 0.  0.
         -6    2    1    2    0  501 -0.14339243344E+03  0.25393359544E+03  0.15455842796E+04  0.15821230588E+04  0.17099399756E+03 0.  0.
        -24    2    5    5    0    0 -0.87170874906E+02  0.62240919205E+02  0.49648459450E+03  0.51416276699E+03  0.79960646093E+02 0.  0.
          5    1    3    3  502    0  0.13580401274E+03 -0.11790688871E+03 -0.17852095893E+03  0.25344937771E+03  0.47000000000E+01 0. -1.
        -11    1    4    4    0    0  0.18264587074E+02 -0.13937185344E+03 -0.17711905257E+03  0.22611781764E+03  0.00000000000E+00 0.  1.
         12    1    4    4    0    0 -0.10676166373E+02  0.33451467169E+01 -0.38712010794E+02  0.40296281648E+02  0.00000000000E+00 0. -1.
         -5    1    5    5    0  501 -0.56221558537E+02  0.19169267624E+03  0.10490996851E+04  0.10679602919E+04  0.47000000000E+01 0.  1.
         13    1    6    6    0    0 -0.84157365719E+02  0.77139550303E+02  0.46961094715E+03  0.48328812742E+03  0.00000000000E+00 0. -1.
        -14    1    6    6    0    0 -0.30135091863E+01 -0.14898631098E+02  0.26873647349E+02  0.30874639561E+02  0.00000000000E+00 0.  1.
</event>
<event>
12    1  0.9656379E-001  0.1321546E+04  0.7818608E-02  0.9012652E-01
         -2   -1    0    0    0  501 -0.00000000000E+00  0.00000000000E+00  0.15163632312E+04  0.15163632312E+04  0.00000000000E+00 0.  1.
          2   -1    0    0  502    0  0.00000000000E+00 -0.00000000000E+00 -0.14312095222E+04  0.14312095222E+04  0.00000000000E+00 0. -1.
          6    2    1    2  502    0  0.44595200424E+03 -0.12320506670E+04  0.69380994779E+03  0.14926008534E+04  0.17222957888E+03 0.  0.
         24    2    3    3    0    0  0.39675011548E+03 -0.11296945910E+04  0.58397736404E+03  0.13345411223E+04  0.79686399881E+02 0.  0.
         -6    2    1    2    0  501 -0.44595200424E+03  0.12320506670E+04 -0.60865623881E+03  0.14549719000E+04  0.17221723643E+03 0.  0.
        -24    2    5    5    0    0 -0.12370613788E+03  0.33811294110E+03 -0.12560933996E+03  0.38898716619E+03  0.76874831280E+02 0.  0.
          5    1    3    3  502    0  0.49201888768E+02 -0.10235607604E+03  0.10983258375E+03  0.15805973116E+03  0.47000000000E+01 0. -1.
        -11    1    4    4    0    0  0.17814074863E+03 -0.59864821304E+03  0.33294334456E+03  0.70778886681E+03  0.00000000000E+00 0.  1.
         12    1    4    4    0    0  0.21860936685E+03 -0.53104637796E+03  0.25103401948E+03  0.62675225548E+03  0.00000000000E+00 0. -1.
         -5    1    5    5    0  501 -0.32224586637E+03  0.89393772593E+03 -0.48304689885E+03  0.10659847338E+04  0.47000000000E+01 0.  1.
         11    1    6    6    0    0 -0.11206508131E+03  0.30204633248E+03 -0.13599214404E+03  0.34969191105E+03  0.00000000000E+00 0. -1.
        -12    1    6    6    0    0 -0.11641056569E+02  0.36066608621E+02  0.10382804085E+02  0.39295255135E+02  0.00000000000E+00 0.  1.
</event>
<event>
12    1  0.9656379E-001  0.3915070E+03  0.7818608E-02  0.1046761E+00
         -2   -1    0    0    0  501 -0.00000000000E+00  0.00000000000E+00  0.15095554891E+03  0.15095554891E+03  0.00000000000E+00 0.  1.
          2   -1    0    0  502    0  0.00000000000E+00 -0.00000000000E+00 -0.10188001402E+04  0.10188001402E+04  0.00000000000E+00 0. -1.
          6    2    1    2  502    0  0.31314270067E+03  0.16064525887E+03 -0.46808457013E+03  0.61039983414E+03  0.17210329034E+03 0.  0.
         24    2    3    3    0    0  0.99130625772E+02  0.72598580673E+02 -0.26080381553E+03  0.29968970079E+03  0.81840403704E+02 0.  0.
         -6    2    1    2    0  501 -0.31314270067E+03 -0.16064525887E+03 -0.39976002115E+03  0.55935585496E+03  0.17089659969E+03 0.  0.
        -24    2    5    5    0    0 -0.47556259589E+02 -0.35747658506E+02 -0.12107696328E+03  0.15460666718E+03  0.75525476394E+02 0.  0.
          5    1    3    3  502    0  0.21401207490E+03  0.88046678195E+02 -0.20728075459E+03  0.31071013336E+03  0.47000000000E+01 0. -1.
        -11    1    4    4    0    0  0.10252253312E+03  0.37619699456E+02 -0.22154952503E+03  0.24700263890E+03  0.00000000000E+00 0.  1.
         12    1    4    4    0    0 -0.33919073510E+01  0.34978881217E+02 -0.39254290506E+02  0.52687061883E+02  0.00000000000E+00 0. -1.
         -5    1    5    5    0  501 -0.26558644108E+03 -0.12489760036E+03 -0.27868305788E+03  0.40474918778E+03  0.47000000000E+01 0.  1.
         13    1    6    6    0    0 -0.43889261432E+02 -0.36573499630E+02 -0.13158203475E+03  0.14344936393E+03  0.00000000000E+00 0. -1.
        -14    1    6    6    0    0 -0.36669981577E+01  0.82584112376E+00  0.10505071472E+02  0.11157303244E+02  0.00000000000E+00 0.  1.
</event>
<event>
12    1  0.9656379E-001  0.9719541E+03  0.7818608E-02  0.9339851E-01
         -2   -1    0    0    0  501 -0.00000000000E+00  0.00000000000E+00  0.66987564814E+03  0.66987564814E+03  0.00000000000E+00 0.  1.
          2   -1    0    0  502    0  0.00000000000E+00 -0.00000000000E+00 -0.18943291434E+04  0.18943291434E+04  0.00000000000E+00 0. -1.
          6    2    1    2  502    0 -0.88540262055E+03  0.36228471229E+03  0.35844777654E+02  0.97270539927E+03  0.17228735432E+03 0.  0.
         24    2    3    3    0    0 -0.72404816797E+03  0.35464180216E+03  0.35318085220E+02  0.81110081751E+03  0.81367141050E+02 0.  0.
         -6    2    1    2    0  501  0.88540262055E+03 -0.36228471229E+03 -0.12602982729E+04  0.15914993922E+04  0.17126168762E+03 0.  0.
        -24    2    5    5    0    0  0.83091634664E+03 -0.35450777206E+03 -0.11256130308E+04  0.14459265951E+04  0.87185363821E+02 0.  0.
          5    1    3    3  502    0 -0.16135445257E+03  0.76429101279E+01  0.52669243421E+00  0.16160458176E+03  0.47000000000E+01 0. -1.
        -11    1    4    4    0    0 -0.40375404470E+03  0.17523137236E+03  0.54382161883E+02  0.44348707084E+03  0.00000000000E+00 0.  1.
         12    1    4    4    0    0 -0.32029412327E+03  0.17941042980E+03 -0.19064076663E+02  0.36761374667E+03  0.00000000000E+00 0. -1.
         -5    1    5    5    0  501  0.54486273908E+02 -0.77769402269E+01 -0.13468524202E+03  0.14557279712E+03  0.47000000000E+01 0.  1.
         13    1    6    6    0    0  0.30203924702E+03 -0.86046181038E+02 -0.36917976109E+03  0.48469098198E+03  0.00000000000E+00 0. -1.
        -14    1    6    6    0    0  0.52887709962E+03 -0.26846159102E+03 -0.75643326975E+03  0.96123561313E+03  0.00000000000E+00 0.  1.
</event>
<event>
12    1  0.9656379E-001  0.1316710E+04  0.7818608E-02  0.9016418E-01
         -1   -1    0    0    0  501 -0.00000000000E+00  0.00000000000E+00  0.11348228346E+04  0.11348228346E+04  0.00000000000E+00 0.  1.
          1   -1    0    0  502    0  0.00000000000E+00 -0.00000000000E+00 -0.17363260509E+04  0.17363260509E+04  0.00000000000E+00 0. -1.
          6    2    1    2  502    0 -0.13047068666E+04  0.40856320881E+02  0.19692233482E+03  0.13307703928E+04  0.16805411517E+03 0.  0.
         24    2    3    3    0    0 -0.38643603069E+03  0.24875242121E+02  0.21170746913E+02  0.39568353391E+03  0.78521812261E+02 0.  0.
         -6    2    1    2    0  501  0.13047068666E+04 -0.40856320881E+02 -0.79842555111E+03  0.15403784927E+04  0.17706861258E+03 0.  0.
        -24    2    5    5    0    0  0.12108199592E+04 -0.76279578405E+02 -0.72333275166E+03  0.14149568954E+04  0.83601426511E+02 0.  0.
          5    1    3    3  502    0 -0.91827083589E+03  0.15981078760E+02  0.17575158790E+03  0.93508685884E+03  0.47000000000E+01 0. -1.
        -13    1    4    4    0    0 -0.29439568260E+03 -0.13888338666E+02  0.24655844344E+02  0.29575262390E+03  0.00000000000E+00 0.  1.
         14    1    4    4    0    0 -0.92040348087E+02  0.38763580787E+02 -0.34850974314E+01  0.99930910010E+02  0.00000000000E+00 0. -1.
         -5    1    5    5    0  501  0.93886907371E+02  0.35423257524E+02 -0.75092799446E+02  0.12542159733E+03  0.47000000000E+01 0.  1.
         11    1    6    6    0    0  0.21102592410E+03  0.18419641934E+02 -0.12625098731E+03  0.24659792304E+03  0.00000000000E+00 0. -1.
        -12    1    6    6    0    0  0.99979403510E+03 -0.94699220339E+02 -0.59708176435E+03  0.11683589724E+04  0.00000000000E+00 0.  1.
</event>
<event>
12    1  0.9656379E-001  0.5248782E+03  0.7818608E-02  0.1007482E+00
          2   -1    0    0  502    0  0.00000000000E+00  0.00000000000E+00  0.22150488853E+04  0.22150488853E+04  0.00000000000E+00 0. -1.
         -2   -1    0    0    0  501 -0.00000000000E+00 -0.00000000000E+00 -0.16005433826E+03  0.16005433826E+03  0.00000000000E+00 0.  1.
          6    2    1    2  502    0 -0.37417112513E+03 -0.32555257004E+03  0.46681444276E+03  0.70243907071E+03  0.17180342650E+03 0.  0.
         24    2    3    3    0    0 -0.32947713101E+03 -0.24747752945E+03  0.44172274680E+03  0.60892464252E+03  0.76615453985E+02 0.  0.
         -6    2    1    2    0  501  0.37417112513E+03  0.32555257004E+03  0.15881801043E+04  0.16726641529E+04  0.17175802114E+03 0.  0.
        -24    2    5    5    0    0  0.32252433632E+03  0.22577744553E+03  0.10813394662E+04  0.11534994500E+04  0.79174096522E+02 0.  0.
          5    1    3    3  502    0 -0.44693994122E+02 -0.78075040590E+02  0.25091695956E+02  0.93514428190E+02  0.47000000000E+01 0. -1.
        -11    1    4    4    0    0 -0.32805558950E+03 -0.22809713912E+03  0.41782424516E+03  0.57812271580E+03  0.00000000000E+00 0.  1.
         12    1    4    4    0    0 -0.14215415167E+01 -0.19380390329E+02  0.23898501637E+02  0.30801926727E+02  0.00000000000E+00 0. -1.
         -5    1    5    5    0  501  0.51646788810E+02  0.99775124502E+02  0.50684063811E+03  0.51916470287E+03  0.47000000000E+01 0.  1.
         11    1    6    6    0    0  0.11296639357E+03  0.11406396863E+03  0.51328971800E+03  0.53780882256E+03  0.00000000000E+00 0. -1.
        -12    1    6    6    0    0  0.20955794276E+03  0.11171347690E+03  0.56804974822E+03  0.61569062746E+03  0.00000000000E+00 0.  1.
</event>
<event>
12    1  0.9656379E-001  0.5714467E+03  0.7818608E-02  0.9966482E-01
          2   -1    0    0  502    0  0.00000000000E+00  0.00000000000E+00  0.52569200904E+03  0.52569200904E+03  0.00000000000E+00 0. -1.
         -2   -1    0    0    0  501 -0.00000000000E+00 -0.00000000000E+00 -0.62118653289E+03  0.62118653289E+03  0.00000000000E+00 0.  1.
          6    2    1    2  502    0 -0.54193444819E+03 -0.58963802610E+02 -0.46620288738E+02  0.57285022208E+03  0.16974760518E+03 0.  0.
         24    2    3    3    0    0 -0.46559823938E+03 -0.73610797083E+02 -0.84534290738E+02  0.48624010275E+03  0.84161281211E+02 0.  0.
         -6    2    1    2    0  501  0.54193444819E+03  0.58963802610E+02 -0.48874235111E+02  0.57402831985E+03  0.17306110188E+03 0.  0.
        -24    2    5    5    0    0  0.44083660656E+03 -0.74752898206E+01 -0.14087231792E+02  0.44806343513E+03  0.78546789575E+02 0.  0.
          5    1    3    3  502    0 -0.76336208814E+02  0.14646994472E+02  0.37914002000E+02  0.86610119333E+02  0.47000000000E+01 0. -1.
        -13    1    4    4    0    0 -0.90251906072E+02  0.17589495509E+02 -0.65789191344E+01  0.92185026326E+02  0.00000000000E+00 0.  1.
         14    1    4    4    0    0 -0.37534633330E+03 -0.91200292591E+02 -0.77955371603E+02  0.39405507642E+03  0.00000000000E+00 0. -1.
         -5    1    5    5    0  501  0.10109784163E+03  0.66439092431E+02 -0.34787003319E+02  0.12596488473E+03  0.47000000000E+01 0.  1.
         13    1    6    6    0    0  0.16341869956E+03  0.28848525476E+02 -0.26272583496E+02  0.16801237285E+03  0.00000000000E+00 0. -1.
        -14    1    6    6    0    0  0.27741790700E+03 -0.36323815297E+02  0.12185351704E+02  0.28005106227E+03  0.00000000000E+00 0.  1.
</event>
<event>
12    1  0.9656379E-001  0.5228935E+03  0.7818608E-02  0.1007970E+00
          2   -1    0    0  502    0  0.00000000000E+00  0.00000000000E+00  0.14759461762E+04  0.14759461762E+04  0.00000000000E+00 0. -1.
         -2   -1    0    0    0  501 -0.00000000000E+00 -0.00000000000E+00 -0.28695858097E+03  0.28695858097E+03  0.00000000000E+00 0.  1.
          6    2    1    2  502    0 -0.49006331556E+03  0.61232513941E+02  0.69612795719E+02  0.52735872346E+03  0.17131785623E+03 0.  0.
         24    2    3    3    0    0 -0.19373128258E+03 -0.18249223701E+02  0.77464037249E+02  0.22041613538E+03  0.68685891210E+02 0.  0.
         -6    2    1    2    0  501  0.49006331556E+03 -0.61232513941E+02  0.11193747995E+04  0.12355460337E+04  0.17222829501E+03 0.  0.
        -24    2    5    5    0    0  0.30046032492E+03 -0.76851608994E+02  0.56107853622E+03  0.64570702364E+03  0.77109402243E+02 0.  0.
          5    1    3    3  502    0 -0.29633203297E+03  0.79481737642E+02 -0.78512415300E+01  0.30694258808E+03  0.47000000000E+01 0. -1.
        -11    1    4    4    0    0 -0.14316792868E+03  0.48559165429E+01  0.27909713738E+02  0.14594378318E+03  0.00000000000E+00 0.  1.
         12    1    4    4    0    0 -0.50563353909E+02 -0.23105140244E+02  0.49554323510E+02  0.74472352204E+02  0.00000000000E+00 0. -1.
         -5    1    5    5    0  501  0.18960299064E+03  0.15619095053E+02  0.55829626330E+03  0.58983901007E+03  0.47000000000E+01 0.  1.
         13    1    6    6    0    0  0.28594178642E+03 -0.59532644050E+02  0.54375122866E+03  0.61722948698E+03  0.00000000000E+00 0. -1.
        -14    1    6    6    0    0  0.14518538496E+02 -0.17318964944E+02  0.17327307561E+02  0.28477536658E+02  0.00000000000E+00 0.  1.
</event>
<event>
12    1  0.9656379E-001  0.1410458E+04  0.7818608E-02  0.8946283E-01
         -2   -1    0    0    0  501 -0.00000000000E+00  0.00000000000E+00  0.12664982766E+04  0.12664982766E+04  0.00000000000E+00 0.  1.
          2   -1    0    0  502    0  0.00000000000E+00 -0.00000000000E+00 -0.23312110647E+04  0.23312110647E+04  0.00000000000E+00 0. -1.
          6    2    1    2  502    0  0.13746833925E+04 -0.26429534002E+03  0.49505640225E+03  0.14947273452E+04  0.17182124078E+03 0.  0.
         24    2    3    3    0    0  0.12785097410E+04 -0.28176815675E+03  0.47413480338E+03  0.13946550021E+04  0.79235793732E+02 0.  0.
         -6    2    1    2    0  501 -0.13746833925E+04  0.26429534002E+03 -0.15597691904E+04  0.21029819960E+04  0.17334039321E+03 0.  0.
        -24    2    5    5    0    0 -0.99071779422E+03  0.24678348148E+03 -0.10832240712E+04  0.14907291182E+04  0.80467886294E+02 0.  0.
          5    1    3    3  502    0  0.96173651510E+02  0.17472816723E+02  0.20921598864E+02  0.10007234317E+03  0.47000000000E+01 0. -1.
        -11    1    4    4    0    0  0.29787736272E+03 -0.54406358877E+02  0.14362955185E+03  0.33514239253E+03  0.00000000000E+00 0.  1.
         12    1    4    4    0    0  0.98063237830E+03 -0.22736179787E+03  0.33050525153E+03  0.10595126095E+04  0.00000000000E+00 0. -1.
         -5    1    5    5    0  501 -0.38396559831E+03  0.17511858540E+02 -0.47654511915E+03  0.61225287787E+03  0.47000000000E+01 0.  1.
         13    1    6    6    0    0 -0.96461866669E+03  0.23055462912E+03 -0.10344889458E+04  0.14331126921E+04  0.00000000000E+00 0. -1.
        -14    1    6    6    0    0 -0.26099127525E+02  0.16228852360E+02 -0.48735125436E+02  0.57616426111E+02  0.00000000000E+00 0.  1.
</event>
<event>
12    1  0.9656379E-001  0.7430294E+03  0.7818608E-02  0.9646350E-01
          2   -1    0    0  502    0  0.00000000000E+00  0.00000000000E+00  0.19372408743E+04  0.19372408743E+04  0.00000000000E+00 0. -1.
         -2   -1    0    0    0  501 -0.00000000000E+00 -0.00000000000E+00 -0.31404919855E+03  0.31404919855E+03  0.00000000000E+00 0.  1.
          6    2    1    2  502    0 -0.33156076430E+03  0.64224278655E+03  0.46931461368E+03  0.87894630147E+03  0.17286427323E+03 0.  0.
         24    2    3    3    0    0 -0.24982932570E+03  0.33536379634E+03  0.27511631991E+03  0.50666977792E+03  0.78369040424E+02 0.  0.
         -6    2    1    2    0  501  0.33156076430E+03 -0.64224278655E+03  0.11538770620E+04  0.13723437713E+04  0.17171725348E+03 0.  0.
        -24    2    5    5    0    0  0.31423707969E+03 -0.59222464743E+03  0.11242841016E+04  0.13115181386E+04  0.81179501956E+02 0.  0.
          5    1    3    3  502    0 -0.81731438601E+02  0.30687899021E+03  0.19419829377E+03  0.37227652356E+03  0.47000000000E+01 0. -1.
        -13    1    4    4    0    0 -0.65122556703E+02  0.14285980832E+03  0.80459096439E+02  0.17641864534E+03  0.00000000000E+00 0.  1.
         14    1    4    4    0    0 -0.18470676900E+03  0.19250398803E+03  0.19465722347E+03  0.33025113257E+03  0.00000000000E+00 0. -1.
         -5    1    5    5    0  501  0.17323684613E+02 -0.50018139127E+02  0.29592960463E+02  0.60825632748E+02  0.47000000000E+01 0.  1.
         11    1    6    6    0    0  0.83510894445E+02 -0.13687840883E+03  0.20789498665E+03  0.26254541278E+03  0.00000000000E+00 0. -1.
        -12    1    6    6    0    0  0.23072618524E+03 -0.45534623860E+03  0.91638911491E+03  0.10489727258E+04  0.00000000000E+00 0.  1.
</event>
<event>
12    1  0.9656379E-001  0.1671605E+04  0.7818608E-02  0.8777727E-01
         -2   -1    0    0    0  501 -0.00000000000E+00  0.00000000000E+00  0.17958789839E+04  0.17958789839E+04  0.00000000000E+00 0.  1.
          2   -1    0    0  502    0  0.00000000000E+00 -0.00000000000E+00 -0.26460633191E+04  0.26460633191E+04  0.00000000000E+00 0. -1.
          6    2    1    2  502    0 -0.28473821857E+03 -0.16382128588E+04  0.10004634407E+04  0.19480951293E+04  0.17126094958E+03 0.  0.
         24    2    3    3    0    0 -0.21695867396E+03 -0.13746763139E+04  0.89446883885E+03  0.16560291731E+04  0.74512309370E+02 0.  0.
         -6    2    1    2    0  501  0.28473821857E+03  0.16382128588E+04 -0.18506477758E+04  0.24938471737E+04  0.17192821719E+03 0.  0.
        -24    2    5    5    0    0  0.28246055617E+03  0.15686018516E+04 -0.18098110102E+04  0.24129731266E+04  0.82022450850E+02 0.  0.
          5    1    3    3  502    0 -0.67779544612E+02 -0.26353654492E+03  0.10599460184E+03  0.29206595624E+03  0.47000000000E+01 0. -1.
        -13    1    4    4    0    0 -0.57840097557E+02 -0.55451067803E+03  0.38394421471E+03  0.67693480406E+03  0.00000000000E+00 0.  1.
         14    1    4    4    0    0 -0.15911857640E+03 -0.82016563585E+03  0.51052462414E+03  0.97909436901E+03  0.00000000000E+00 0. -1.
         -5    1    5    5    0  501  0.22776624024E+01  0.69611007210E+02 -0.40836765608E+02  0.80874047112E+02  0.47000000000E+01 0.  1.
         13    1    6    6    0    0  0.23211318360E+03  0.10748587949E+04 -0.12481779207E+04  0.16634740998E+04  0.00000000000E+00 0. -1.
        -14    1    6    6    0    0  0.50347372574E+02  0.49374305672E+03 -0.56163308951E+03  0.74949902683E+03  0.00000000000E+00 0.  1.
</event>
<event>
12    1  0.9656379E-001  0.4409934E+03  0.7818608E-02  0.1030442E+00
         -1   -1    0    0    0  501 -0.00000000000E+00  0.00000000000E+00  0.74654738683E+03  0.74654738683E+03  0.00000000000E+00 0.  1.
          1   -1    0    0  502    0  0.00000000000E+00 -0.00000000000E+00 -0.30720353137E+03  0.30720353137E+03  0.00000000000E+00 0. -1.
          6    2    1    2  502    0  0.10346630695E+03 -0.39251930029E+03  0.42517529997E+03  0.61269442955E+03  0.17275343852E+03 0.  0.
         24    2    3    3    0    0  0.79797924283E+02 -0.17370314418E+03  0.28315367458E+03  0.35071554760E+03  0.79277366738E+02 0.  0.
         -6    2    1    2    0  501 -0.10346630695E+03  0.39251930029E+03  0.14168555494E+02  0.44105648865E+03  0.17191102479E+03 0.  0.
        -24    2    5    5    0    0 -0.13382683333E+03  0.27848450688E+03 -0.14584860043E+02  0.31950590422E+03  0.80050376641E+02 0.  0.
          5    1    3    3  502    0  0.23668382669E+02 -0.21881615610E+03  0.14202162539E+03  0.26197888195E+03  0.47000000000E+01 0. -1.
        -11    1    4    4    0    0  0.29352802903E+01 -0.87294579239E+02  0.15636825247E+03  0.17910887699E+03  0.00000000000E+00 0.  1.
         12    1    4    4    0    0  0.76862643993E+02 -0.86408564945E+02  0.12678542211E+03  0.17160667061E+03  0.00000000000E+00 0. -1.
         -5    1    5    5    0  501  0.30360526378E+02  0.11403479341E+03  0.28753415537E+02  0.12155058443E+03  0.47000000000E+01 0.  1.
         11    1    6    6    0    0 -0.17268619531E+02  0.12339455635E+03 -0.15014582591E+02  0.12549844400E+03  0.00000000000E+00 0. -1.
        -12    1    6    6    0    0 -0.11655821380E+03  0.15508995053E+03  0.42972254782E+00  0.19400746022E+03  0.00000000000E+00 0.  1.
</event>
<event>
12    1  0.9656379E-001  0.3007651E+03  0.7818608E-02  0.1084859E+00
          2   -1    0    0  502    0  0.00000000000E+00  0.00000000000E+00  0.63171139515E+03  0.63171139515E+03  0.00000000000E+00 0. -1.
         -2   -1    0    0    0  501 -0.00000000000E+00 -0.00000000000E+00 -0.17786120111E+03  0.17786120111E+03  0.00000000000E+00 0.  1.
          6    2    1    2  502    0  0.24129526291E+03 -0.52090446041E+02  0.48052425289E+02  0.30429600269E+03  0.17131901005E+03 0.  0.
         24    2    3    3    0    0  0.17494771473E+03 -0.20307477818E+02 -0.31651721354E+02  0.19572807367E+03  0.79300383452E+02 0.  0.
         -6    2    1    2    0  501 -0.24129526291E+03  0.52090446041E+02  0.40579776874E+03  0.50527659357E+03  0.17232465992E+03 0.  0.
        -24    2    5    5    0    0 -0.66904797534E+02  0.90200090186E+01  0.23207292083E+03  0.25533758152E+03  0.82351851574E+02 0.  0.
          5    1    3    3  502    0  0.66347548186E+02 -0.31782968223E+02  0.79704146643E+02  0.10856792902E+03  0.47000000000E+01 0. -1.
        -13    1    4    4    0    0  0.58427582584E+02 -0.45165627949E+02 -0.82418685651E+01  0.74307770469E+02  0.00000000000E+00 0.  1.
         14    1    4    4    0    0  0.11652013214E+03  0.24858150131E+02 -0.23409852789E+02  0.12142030320E+03  0.00000000000E+00 0. -1.
         -5    1    5    5    0  501 -0.17439046538E+03  0.43070437022E+02  0.17372484791E+03  0.24993901205E+03  0.47000000000E+01 0.  1.
         11    1    6    6    0    0 -0.39476837592E+02  0.42802468924E+02  0.16867547405E+03  0.17844295335E+03  0.00000000000E+00 0. -1.
        -12    1    6    6    0    0 -0.27427959941E+02 -0.33782459906E+02  0.63397446778E+02  0.76894628172E+02  0.00000000000E+00 0.  1.
</event>
<event>
12    1  0.9656379E-001  0.2111892E+03  0.7818608E-02  0.1140628E+00
          3   -1    0    0  502    0  0.00000000000E+00  0.00000000000E+00  0.89086738706E+02  0.89086738706E+02  0.00000000000E+00 0. -1.
         -3   -1    0    0    0  501 -0.00000000000E+00 -0.00000000000E+00 -0.77278609265E+03  0.77278609265E+03  0.00000000000E+00 0.  1.
          6    2    1    2  502    0 -0.62096459525E+02  0.10436664033E+03 -0.59879608841E+03  0.63533817505E+03  0.17421100793E+03 0.  0.
         24    2    3    3    0    0 -0.10029132686E+03  0.11353532823E+03 -0.45533934568E+03  0.48652675156E+03  0.80160708922E+02 0.  0.
         -6    2    1    2    0  501  0.62096459525E+02 -0.10436664033E+03 -0.84903265535E+02  0.22653465631E+03  0.17135057662E+03 0.  0.
        -24    2    5    5    0    0  0.33942722476E+02 -0.10600695867E+03  0.28897870156E+00  0.13667291788E+03  0.79308380879E+02 0.  0.
          5    1    3    3  502    0  0.38194867337E+02 -0.91686878951E+01 -0.14345674273E+03  0.14881142350E+03  0.47000000000E+01 0. -1.
        -11    1    4    4    0    0 -0.25364035373E+02  0.74393200291E+01 -0.18185428920E+03  0.18376523141E+03  0.00000000000E+00 0.  1.
         12    1    4    4    0    0 -0.74927291488E+02  0.10609600820E+03 -0.27348505648E+03  0.30276152015E+03  0.00000000000E+00 0. -1.
         -5    1    5    5    0  501  0.28153737049E+02  0.16403183419E+01 -0.85192244237E+02  0.89861738422E+02  0.47000000000E+01 0.  1.
         11    1    6    6    0    0  0.32776446325E+02 -0.10071677251E+03 -0.26631626126E+02  0.10921266963E+03  0.00000000000E+00 0. -1.
        -12    1    6    6    0    0  0.11662761508E+01 -0.52901861656E+01  0.26920604827E+02  0.27460248251E+02  0.00000000000E+00 0.  1.
</event>
<event>
12    1  0.9656379E-001  0.9731552E+03  0.7818608E-02  0.9338488E-01
          2   -1    0    0  502    0  0.00000000000E+00  0.00000000000E+00  0.99630099640E+03  0.99630099640E+03  0.00000000000E+00 0. -1.
         -2   -1    0    0    0  501 -0.00000000000E+00 -0.00000000000E+00 -0.13522500485E+04  0.13522500485E+04  0.00000000000E+00 0.  1.
          6    2    1    2  502    0  0.49265599366E+03 -0.82145485427E+03 -0.81799868955E+03  0.12713006682E+04  0.17200443918E+03 0.  0.
         24    2    3    3    0    0  0.39617932042E+03 -0.53632647711E+03 -0.54385781630E+03  0.86413823335E+03  0.79683235485E+02 0.  0.
         -6    2    1    2    0  501 -0.49265599366E+03  0.82145485427E+03  0.46204963745E+03  0.10772503767E+04  0.17169886716E+03 0.  0.
        -24    2    5    5    0    0 -0.15226757742E+03  0.25238511725E+03  0.19352435018E+03  0.36182563616E+03  0.81132326033E+02 0.  0.
          5    1    3    3  502    0  0.96476673244E+02 -0.28512837716E+03 -0.27414087325E+03  0.40716243482E+03  0.47000000000E+01 0. -1.
        -11    1    4    4    0    0  0.11248676442E+03 -0.16372663104E+03 -0.20960464748E+03  0.28877982985E+03  0.00000000000E+00 0.  1.
         12    1    4    4    0    0  0.28369255599E+03 -0.37259984607E+03 -0.33425316882E+03  0.57535840351E+03  0.00000000000E+00 0. -1.
         -5    1    5    5    0  501 -0.34038841624E+03  0.56906973702E+03  0.26852528727E+03  0.71542474056E+03  0.47000000000E+01 0.  1.
         13    1    6    6    0    0 -0.13532316589E+03  0.25445859053E+03  0.17793014631E+03  0.33870439986E+03  0.00000000000E+00 0. -1.
        -14    1    6    6    0    0 -0.16944411534E+02 -0.20734732793E+01  0.15594203866E+02  0.23121236297E+02  0.00000000000E+00 0.  1.
</event>
<event>
12    1  0.9656379E-001  0.2513487E+03  0.7818608E-02  0.1112455E+00
          1   -1    0    0  502    0  0.00000000000E+00  0.00000000000E+00  0.99156412961E+03  0.99156412961E+03  0.00000000000E+00 0. -1.
         -1   -1    0    0    0  501 -0.00000000000E+00 -0.00000000000E+00 -0.31271269936E+03  0.31271269936E+03  0.00000000000E+00 0.  1.
          6    2    1    2  502    0 -0.36677555087E+01 -0.18390883480E+03 -0.24243187546E+03  0.34938467721E+03  0.17164069006E+03 0.  0.
         24    2    3    3    0    0  0.75177597437E+01 -0.10336732694E+03 -0.49871554638E+02  0.14030665973E+03  0.80358358696E+02 0.  0.
         -6    2    1    2    0  501  0.36677555087E+01  0.18390883480E+03  0.92128330571E+03  0.95489215175E+03  0.17093911242E+03 0.  0.
        -24    2    5    5    0    0  0.26823442431E+02  0.26222093020E+02  0.25332304788E+03  0.26816492031E+03  0.79578657130E+02 0.  0.
          5    1    3    3  502    0 -0.11185515252E+02 -0.80541507856E+02 -0.19256032082E+03  0.20907801748E+03  0.47000000000E+01 0. -1.
        -11    1    4    4    0    0  0.17113374861E+02 -0.87488906643E+01 -0.40391921983E+02  0.44731622466E+02  0.00000000000E+00 0.  1.
         12    1    4    4    0    0 -0.95956151175E+01 -0.94618436277E+02 -0.94796326555E+01  0.95575037265E+02  0.00000000000E+00 0. -1.
         -5    1    5    5    0  501 -0.23155686922E+02  0.15768674178E+03  0.66796025783E+03  0.68672723144E+03  0.47000000000E+01 0.  1.
         13    1    6    6    0    0  0.78126729267E+01  0.44563223194E+02  0.22472284746E+03  0.22923192817E+03  0.00000000000E+00 0. -1.
        -14    1    6    6    0    0  0.19010769504E+02 -0.18341130175E+02  0.28600200423E+02  0.38932992146E+02  0.00000000000E+00 0.  1.
</event>
<event>
12    1  0.9656379E-001  0.2113728E+03  0.7818608E-02  0.1140483E+00
         -2   -1    0    0    0  501 -0.00000000000E+00  0.00000000000E+00  0.34825156808E+02  0.34825156808E+02  0.00000000000E+00 0.  1.
          2   -1    0    0  502    0  0.00000000000E+00 -0.00000000000E+00 -0.12840036441E+04  0.12840036441E+04  0.00000000000E+00 0. -1.
          6    2    1    2  502    0  0.39307523170E+02  0.11148085298E+03 -0.60086590196E+03  0.63632710456E+03  0.17291411134E+03 0.  0.
         24    2    3    3    0    0  0.66420505614E+02  0.72189317843E+02 -0.22592326451E+03  0.25832841418E+03  0.77905500125E+02 0.  0.
         -6    2    1    2    0  501 -0.39307523170E+02 -0.11148085298E+03 -0.64831258535E+03  0.68250169636E+03  0.17755645654E+03 0.  0.
        -24    2    5    5    0    0  0.22976375058E+02 -0.11363526622E+03 -0.52606554162E+03  0.54520510072E+03  0.84040229842E+02 0.  0.
          5    1    3    3  502    0 -0.27112982444E+02  0.39291535138E+02 -0.37494263745E+03  0.37799869038E+03  0.47000000000E+01 0. -1.
        -11    1    4    4    0    0  0.70194022250E+02  0.48889208549E+02 -0.21672481164E+03  0.23299570694E+03  0.00000000000E+00 0.  1.
         12    1    4    4    0    0 -0.37735166359E+01  0.23300109294E+02 -0.91984528689E+01  0.25332707240E+02  0.00000000000E+00 0. -1.
         -5    1    5    5    0  501 -0.62283898228E+02  0.21544132414E+01 -0.12224704373E+03  0.13729659565E+03  0.47000000000E+01 0.  1.
         13    1    6    6    0    0  0.17239640123E+02 -0.79956513163E+01 -0.23038596205E+03  0.23116839564E+03  0.00000000000E+00 0. -1.
        -14    1    6    6    0    0  0.57367349347E+01 -0.10563961491E+03 -0.29567957956E+03  0.31403670508E+03  0.00000000000E+00 0.  1.
</event>
<event>
12    1  0.9656379E-001  0.5480558E+03  0.7818608E-02  0.1001945E+00
         -2   -1    0    0    0  501 -0.00000000000E+00  0.00000000000E+00  0.27874453375E+03  0.27874453375E+03  0.00000000000E+00 0.  1.
          2   -1    0    0  502    0  0.00000000000E+00 -0.00000000000E+00 -0.10921561562E+04  0.10921561562E+04  0.00000000000E+00 0. -1.
          6    2    1    2  502    0  0.21859489965E+03  0.47235165056E+03 -0.32739517631E+03  0.63830350459E+03  0.17130076054E+03 0.  0.
         24    2    3    3    0    0  0.20319640530E+03  0.38259719437E+03 -0.32481023698E+03  0.54707988952E+03  0.78264444090E+02 0.  0.
         -6    2    1    2    0  501 -0.21859489965E+03 -0.47235165056E+03 -0.48601644617E+03  0.73259718539E+03  0.17200825023E+03 0.  0.
        -24    2    5    5    0    0 -0.51691604202E+02 -0.23530237736E+03 -0.18193992978E+03  0.31243806579E+03  0.80474692745E+02 0.  0.
          5    1    3    3  502    0  0.15398494357E+02  0.89754456195E+02 -0.25849393262E+01  0.91223615072E+02  0.47000000000E+01 0. -1.
        -13    1    4    4    0    0  0.14008368664E+03  0.22559725316E+03 -0.15560174536E+03  0.30778151838E+03  0.00000000000E+00 0.  1.
         14    1    4    4    0    0  0.63112718655E+02  0.15699994121E+03 -0.16920849162E+03  0.23929837114E+03  0.00000000000E+00 0. -1.
         -5    1    5    5    0  501 -0.16690329545E+03 -0.23704927321E+03 -0.30407651640E+03  0.42015911960E+03  0.47000000000E+01 0.  1.
         11    1    6    6    0    0 -0.35265117741E+02 -0.65808946611E+02 -0.96227974943E+02  0.12179601449E+03  0.00000000000E+00 0. -1.
        -12    1    6    6    0    0 -0.16426486461E+02 -0.16949343075E+03 -0.85711954836E+02  0.19064205130E+03  0.00000000000E+00 0.  1.
</event>
<event>
12    1  0.9656379E-001  0.5111368E+03  0.7818608E-02  0.1010912E+00
         -2   -1    0    0    0  501 -0.00000000000E+00  0.00000000000E+00  0.12056416350E+04  0.12056416350E+04  0.00000000000E+00 0.  1.
          2   -1    0    0  502    0  0.00000000000E+00 -0.00000000000E+00 -0.23573219167E+03  0.23573219167E+03  0.00000000000E+00 0. -1.
          6    2    1    2  502    0  0.93494967664E+01 -0.48091987854E+03  0.68977970786E+03  0.85854762904E+03  0.17302208902E+03 0.  0.
         24    2    3    3    0    0  0.64172771127E+02 -0.25203504596E+03  0.41803213104E+03  0.49901641551E+03  0.81404615450E+02 0.  0.
         -6    2    1    2    0  501 -0.93494967664E+01  0.48091987854E+03  0.28012973543E+03  0.58282619760E+03  0.17274942914E+03 0.  0.
        -24    2    5    5    0    0 -0.53105411823E+02  0.29700521747E+03  0.22760454343E+03  0.38656064165E+03  0.81197398409E+02 0.  0.
          5    1    3    3  502    0 -0.54823274360E+02 -0.22888483258E+03  0.27174757682E+03  0.35953121353E+03  0.47000000000E+01 0. -1.
        -11    1    4    4    0    0  0.37900540531E+02 -0.13833357180E+03  0.30260748451E+03  0.33487895983E+03  0.00000000000E+00 0.  1.
         12    1    4    4    0    0  0.26272230596E+02 -0.11370147417E+03  0.11542464653E+03  0.16413745567E+03  0.00000000000E+00 0. -1.
         -5    1    5    5    0  501  0.43755915057E+02  0.18391466107E+03  0.52525191997E+02  0.19626555595E+03  0.47000000000E+01 0.  1.
         13    1    6    6    0    0  0.53876049359E+01  0.19267659206E+03  0.13589269134E+03  0.23583918032E+03  0.00000000000E+00 0. -1.
        -14    1    6    6    0    0 -0.58493016759E+02  0.10432862542E+03  0.91711852097E+02  0.15072146133E+03  0.00000000000E+00 0.  1.
</event>
<event>
12    1  0.9656379E-001  0.3366721E+03  0.7818608E-02  0.1068222E+00
          1   -1    0    0  502    0  0.00000000000E+00  0.00000000000E+00  0.78325217963E+03  0.78325217963E+03  0.00000000000E+00 0. -1.
         -1   -1    0    0    0  501 -0.00000000000E+00 -0.00000000000E+00 -0.14472586458E+03  0.14472586458E+03  0.00000000000E+00 0.  1.
          6    2    1    2  502    0  0.11298784313E+03  0.26932785864E+03  0.31432933896E+03  0.45925963001E+03  0.16374591994E+03 0.  0.
         24    2    3    3    0    0  0.10025761480E+03  0.27979948003E+03  0.31767757844E+03  0.44179497211E+03  0.76970222692E+02 0.  0.
         -6    2    1    2    0  501 -0.11298784313E+03 -0.26932785864E+03  0.32419697609E+03  0.46871841420E+03  0.17114182530E+03 0.  0.
        -24    2    5    5    0    0 -0.13002057800E+03 -0.15685018617E+03  0.25316378922E+03  0.33452026034E+03  0.79401314888E+02 0.  0.
          5    1    3    3  502    0  0.12730228331E+02 -0.10471621397E+02 -0.33482394882E+01  0.17464657904E+02  0.47000000000E+01 0. -1.
        -11    1    4    4    0    0  0.11025213908E+03  0.24879515177E+03  0.26488686265E+03  0.37976257283E+03  0.00000000000E+00 0.  1.
         12    1    4    4    0    0 -0.99945242767E+01  0.31004328262E+02  0.52790715791E+02  0.62032399278E+02  0.00000000000E+00 0. -1.
         -5    1    5    5    0  501  0.17032734866E+02 -0.11247767246E+03  0.71033186877E+02  0.13419815385E+03  0.47000000000E+01 0.  1.
         13    1    6    6    0    0 -0.10286822654E+03 -0.15687303029E+03  0.23920425844E+03  0.30398963292E+03  0.00000000000E+00 0. -1.
        -14    1    6    6    0    0 -0.27152351459E+02  0.22844122734E-01  0.13959530773E+02  0.30530627426E+02  0.00000000000E+00 0.  1.
</event>
<event>
12    1  0.9656379E-001  0.8399317E+03  0.7818608E-02  0.9503951E-01
         -1   -1    0    0    0  501 -0.00000000000E+00  0.00000000000E+00  0.39573732496E+03  0.39573732496E+03  0.00000000000E+00 0.  1.
          1   -1    0    0  502    0  0.00000000000E+00 -0.00000000000E+00 -0.18648897191E+04  0.18648897191E+04  0.00000000000E+00 0. -1.
          6    2    1    2  502    0 -0.76126769261E+03  0.31044691003E+03 -0.49744918170E+03  0.97633917927E+03  0.17284883814E+03 0.  0.
         24    2    3    3    0    0 -0.27615467037E+03  0.62996591225E+02 -0.14753936436E+03  0.32901756300E+03  0.79086789367E+02 0.  0.
         -6    2    1    2    0  501  0.76126769261E+03 -0.31044691003E+03 -0.97170321244E+03  0.12842878648E+04  0.17112101804E+03 0.  0.
        -24    2    5    5    0    0  0.59036520537E+03 -0.17301361544E+03 -0.72756340590E+03  0.95607770995E+03  0.79191483156E+02 0.  0.
          5    1    3    3  502    0 -0.48511302224E+03  0.24745031880E+03 -0.34990981734E+03  0.64732161627E+03  0.47000000000E+01 0. -1.
        -13    1    4    4    0    0 -0.23899969315E+03  0.50362822108E+02 -0.91974764045E+02  0.26099161749E+03  0.00000000000E+00 0.  1.
         14    1    4    4    0    0 -0.37154977215E+02  0.12633769116E+02 -0.55564600319E+02  0.68025945510E+02  0.00000000000E+00 0. -1.
         -5    1    5    5    0  501  0.17090248724E+03 -0.13743329458E+03 -0.24413980653E+03  0.32821015484E+03  0.47000000000E+01 0.  1.
         11    1    6    6    0    0  0.36162253955E+03 -0.14005988170E+03 -0.42477242104E+03  0.57516888063E+03  0.00000000000E+00 0. -1.
        -12    1    6    6    0    0  0.22874266583E+03 -0.32953733743E+02 -0.30279098486E+03  0.38090882931E+03  0.00000000000E+00 0.  1.
</event>
<event>
12    1  0.9656379E-001  0.5132446E+03  0.7818608E-02  0.1010379E+00
         -2   -1    0    0    0  501 -0.00000000000E+00  0.00000000000E+00  0.72294810233E+03  0.72294810233E+03  0.00000000000E+00 0.  1.
          2   -1    0    0  502    0  0.00000000000E+00 -0.00000000000E+00 -0.41411395253E+03  0.41411395253E+03  0.00000000000E+00 0. -1.
          6    2    1    2  502    0 -0.47892815459E+03 -0.57381985227E+02 -0.42295343585E+02  0.51622410734E+03  0.17897922624E+03 0.  0.
         24    2    3    3    0    0 -0.30983027587E+03 -0.74005316287E+02 -0.89541462968E+02  0.33980213161E+03  0.77306069452E+02 0.  0.
         -6    2    1    2    0  501  0.47892815459E+03  0.57381985227E+02  0.35112949338E+03  0.62083794752E+03  0.17170604667E+03 0.  0.
        -24    2    5    5    0    0  0.33795366233E+03 -0.19099668038E+02  0.21293637751E+03  0.40907704927E+03  0.86166444548E+02 0.  0.
          5    1    3    3  502    0 -0.16909787873E+03  0.16623331060E+02  0.47246119382E+02  0.17642197574E+03  0.47000000000E+01 0. -1.
        -11    1    4    4    0    0 -0.52063258520E+02 -0.41302073625E+02 -0.53588890700E+01  0.66672047108E+02  0.00000000000E+00 0.  1.
         12    1    4    4    0    0 -0.25776701734E+03 -0.32703242662E+02 -0.84182573898E+02  0.27313008450E+03  0.00000000000E+00 0. -1.
         -5    1    5    5    0  501  0.14097449226E+03  0.76481653264E+02  0.13819311587E+03  0.21176089825E+03  0.47000000000E+01 0.  1.
         13    1    6    6    0    0  0.15790584495E+03  0.33215144376E+02  0.10865922534E+03  0.19453618927E+03  0.00000000000E+00 0. -1.
        -14    1    6    6    0    0  0.18004781738E+03 -0.52314812413E+02  0.10427715218E+03  0.21454086000E+03  0.00000000000E+00 0.  1.
</event>
<event>
12    1  0.9656379E-001  0.1984327E+03  0.7818608E-02  0.1151068E+00
         -2   -1    0    0    0  501 -0.00000000000E+00  0.00000000000E+00  0.50256810251E+03  0.50256810251E+03  0.00000000000E+00 0.  1.
          2   -1    0    0  502    0  0.00000000000E+00 -0.00000000000E+00 -0.10941710121E+04  0.10941710121E+04  0.00000000000E+00 0. -1.
          6    2    1    2  502    0  0.90531219300E+02 -0.38762674302E+02  0.47331756567E+03  0.51371666431E+03  0.17371484286E+03 0.  0.
         24    2    3    3    0    0  0.75132697267E+02  0.22517936829E+02  0.17823859239E+03  0.21191189587E+03  0.83580357233E+02 0.  0.
         -6    2    1    2    0  501 -0.90531219300E+02  0.38762674302E+02 -0.10649204753E+04  0.10830224503E+04  0.17083197198E+03 0.  0.
        -24    2    5    5    0    0 -0.53546673326E+02  0.39557499018E+01 -0.33566655935E+03  0.35198705958E+03  0.91323364275E+02 0.  0.
          5    1    3    3  502    0  0.15398522033E+02 -0.61280611131E+02  0.29507897328E+03  0.30180476845E+03  0.47000000000E+01 0. -1.
        -11    1    4    4    0    0  0.96330258637E+01  0.34861320383E+02  0.11299372003E+03  0.11864100308E+03  0.00000000000E+00 0.  1.
         12    1    4    4    0    0  0.65499671403E+02 -0.12343383554E+02  0.65244872357E+02  0.93270892782E+02  0.00000000000E+00 0. -1.
         -5    1    5    5    0  501 -0.36984545974E+02  0.34806924400E+02 -0.72925391593E+03  0.73103539075E+03  0.47000000000E+01 0.  1.
         13    1    6    6    0    0 -0.66585922507E+01 -0.26906804189E+02 -0.23581701255E+03  0.23744046911E+03  0.00000000000E+00 0. -1.
        -14    1    6    6    0    0 -0.46888081075E+02  0.30862554091E+02 -0.99849546802E+02  0.11454659047E+03  0.00000000000E+00 0.  1.
</event>
<event>
12    1  0.9656379E-001  0.1765033E+03  0.7818608E-02  0.1171231E+00
         -2   -1    0    0    0  501 -0.00000000000E+00  0.00000000000E+00  0.43275243931E+02  0.43275243931E+02  0.00000000000E+00 0.  1.
          2   -1    0    0  502    0  0.00000000000E+00 -0.00000000000E+00 -0.13423434952E+04  0.13423434952E+04  0.00000000000E+00 0. -1.
          6    2    1    2  502    0  0.25315335597E+02  0.10640247253E+02 -0.16923422386E+03  0.24137753171E+03  0.16990823762E+03 0.  0.
         24    2    3    3    0    0  0.20783579545E+02  0.28715337221E+02 -0.18314018093E+02  0.89238633989E+02  0.79822319981E+02 0.  0.
         -6    2    1    2    0  501 -0.25315335597E+02 -0.10640247253E+02 -0.11298340274E+04  0.11442412074E+04  0.17891039712E+03 0.  0.
        -24    2    5    5    0    0 -0.34700143256E+02 -0.61852631987E+02 -0.97432063454E+03  0.98017631683E+03  0.80094101867E+02 0.  0.
          5    1    3    3  502    0  0.45317560519E+01 -0.18075089968E+02 -0.15092020577E+03  0.15213889772E+03  0.47000000000E+01 0. -1.
        -11    1    4    4    0    0  0.48179010131E+02  0.74797017995E+01 -0.23614041913E+02  0.54173664558E+02  0.00000000000E+00 0.  1.
         12    1    4    4    0    0 -0.27395430586E+02  0.21235635422E+02  0.53000238197E+01  0.35064969431E+02  0.00000000000E+00 0. -1.
         -5    1    5    5    0  501  0.93848076590E+01  0.51212384734E+02 -0.15551339288E+03  0.16406489060E+03  0.47000000000E+01 0.  1.
         13    1    6    6    0    0 -0.12215374482E+02 -0.38866662629E+02 -0.87135129099E+03  0.87230321859E+03  0.00000000000E+00 0. -1.
        -14    1    6    6    0    0 -0.22484768773E+02 -0.22985969358E+02 -0.10296934355E+03  0.10787309824E+03  0.00000000000E+00 0.  1.
</event>
<event>
12    1  0.9656379E-001  0.8032324E+03  0.7818608E-02  0.9555350E-01
         -2   -1    0    0    0  501 -0.00000000000E+00  0.00000000000E+00  0.43178847862E+03  0.43178847862E+03  0.00000000000E+00 0.  1.
          2   -1    0    0  502    0  0.00000000000E+00 -0.00000000000E+00 -0.15303505600E+04  0.15303505600E+04  0.00000000000E+00 0. -1.
          6    2    1    2  502    0  0.58151192047E+03 -0.52675982009E+03 -0.70009496057E+03  0.10655648687E+04  0.17223099005E+03 0.  0.
         24    2    3    3    0    0  0.22687099515E+03 -0.24336645849E+03 -0.36989972847E+03  0.50419781892E+03  0.81804339230E+02 0.  0.
         -6    2    1    2    0  501 -0.58151192047E+03  0.52675982009E+03 -0.39846712076E+03  0.89657416984E+03  0.17157264930E+03 0.  0.
        -24    2    5    5    0    0 -0.54522015320E+03  0.50854072101E+03 -0.33535268597E+03  0.82137742908E+03  0.79503312054E+02 0.  0.
          5    1    3    3  502    0  0.35464092532E+03 -0.28339336160E+03 -0.33019523210E+03  0.56136704981E+03  0.47000000000E+01 0. -1.
        -13    1    4    4    0    0  0.20766507553E+03 -0.17669666144E+03 -0.28274704401E+03  0.39280069330E+03  0.00000000000E+00 0.  1.
         14    1    4    4    0    0  0.19205919623E+02 -0.66669797047E+02 -0.87152684463E+02  0.11139712562E+03  0.00000000000E+00 0. -1.
         -5    1    5    5    0  501 -0.36291767264E+02  0.18219099081E+02 -0.63114434787E+02  0.75196740760E+02  0.47000000000E+01 0.  1.
         11    1    6    6    0    0 -0.53710675310E+03  0.48194039942E+03 -0.31794053504E+03  0.78856603822E+03  0.00000000000E+00 0. -1.
        -12    1    6    6    0    0 -0.81134001084E+01  0.26600321589E+02 -0.17412150931E+02  0.32811390858E+02  0.00000000000E+00 0.  1.
</event>
<event>
12    1  0.9656379E-001  0.2201476E+03  0.7818608E-02  0.1133773E+00
         -1   -1    0    0    0  501 -0.00000000000E+00  0.00000000000E+00  0.14739991528E+03  0.14739991528E+03  0.00000000000E+00 0.  1.
          1   -1    0    0  502    0  0.00000000000E+00 -0.00000000000E+00 -0.76841446454E+03  0.76841446454E+03  0.00000000000E+00 0. -1.
          6    2    1    2  502    0 -0.10678542740E+03  0.88975387184E+02  0.36204427816E+02  0.22251288284E+03  0.16994550716E+03 0.  0.
         24    2    3    3    0    0 -0.11049023264E+03  0.68805212067E+01  0.31287991942E+02  0.14005347498E+03  0.79878685100E+02 0.  0.
         -6    2    1    2    0  501  0.10678542740E+03 -0.88975387184E+02 -0.65721897707E+03  0.69330149699E+03  0.17149470801E+03 0.  0.
        -24    2    5    5    0    0 -0.94374898094E+01 -0.53094481978E+02 -0.34463699416E+03  0.35785434485E+03  0.79856021361E+02 0.  0.
          5    1    3    3  502    0  0.37048052463E+01  0.82094865977E+02  0.49164358741E+01  0.82459407852E+02  0.47000000000E+01 0. -1.
        -13    1    4    4    0    0 -0.38094465665E+02  0.41287121585E+02  0.16452208487E+02  0.58536227135E+02  0.00000000000E+00 0.  1.
         14    1    4    4    0    0 -0.72395766978E+02 -0.34406600378E+02  0.14835783455E+02  0.81517247848E+02  0.00000000000E+00 0. -1.
         -5    1    5    5    0  501  0.11622291721E+03 -0.35880905206E+02 -0.31258198291E+03  0.33544715214E+03  0.47000000000E+01 0.  1.
         13    1    6    6    0    0  0.24163363341E+02 -0.52016817399E+02 -0.15523109792E+03  0.16548809982E+03  0.00000000000E+00 0. -1.
        -14    1    6    6    0    0 -0.33600853151E+02 -0.10776645784E+01 -0.18940589624E+03  0.19236624502E+03  0.00000000000E+00 0.  1.
</event>
<event>
12    1  0.1469969E+000  0.4865812E+03  0.7818608E-02  0.1017342E+00
          2   -1    0    0  502    0  0.00000000000E+00  0.00000000000E+00  0.21804947287E+04  0.21804947287E+04  0.00000000000E+00 0. -1.
         -2   -1    0    0    0  501 -0.00000000000E+00 -0.00000000000E+00 -0.79400725068E+03  0.79400725068E+03  0.00000000000E+00 0.  1.
          6    2    1    2  502    0  0.45423192555E+03  0.23836104499E+02 -0.68855362780E+03  0.84320390563E+03  0.17318177173E+03 0.  0.
         24    2    3    3    0    0  0.29642179103E+03  0.66899735982E+02 -0.37848794146E+03  0.49260251551E+03  0.84039654841E+02 0.  0.
         -6    2    1    2    0  501 -0.45423192555E+03 -0.23836104499E+02  0.20750411058E+04  0.21312980737E+04  0.17245604159E+03 0.  0.
        -24    2    5    5    0    0 -0.26295862734E+03 -0.19247271446E+02  0.91146791975E+03  0.95209021195E+03  0.78640357385E+02 0.  0.
          5    1    3    3  502    0  0.15781013451E+03 -0.43063631482E+02 -0.31006568633E+03  0.35060139012E+03  0.47000000000E+01 0. -1.
        -13    1    4    4    0    0  0.23549558565E+03  0.31765159879E+02 -0.33206784776E+03  0.40833350556E+03  0.00000000000E+00 0.  1.
         14    1    4    4    0    0  0.60926205377E+02  0.35134576103E+02 -0.46420093698E+02  0.84269009953E+02  0.00000000000E+00 0. -1.
         -5    1    5    5    0  501 -0.19127329820E+03 -0.45888330530E+01  0.11635731861E+04  0.11792078618E+04  0.47000000000E+01 0.  1.
         11    1    6    6    0    0 -0.15196509078E+03  0.15496857248E+02  0.61343712214E+03  0.63216979066E+03  0.00000000000E+00 0. -1.
        -12    1    6    6    0    0 -0.11099353656E+03 -0.34744128694E+02  0.29803079761E+03  0.31992042129E+03  0.00000000000E+00 0.  1.
</event>
<event>
12    1  0.9656379E-001  0.2011498E+03  0.7818608E-02  0.1148772E+00
          2   -1    0    0  502    0  0.00000000000E+00  0.00000000000E+00  0.58033338427E+03  0.58033338427E+03  0.00000000000E+00 0. -1.
         -2   -1    0    0    0  501 -0.00000000000E+00 -0.00000000000E+00 -0.14870183273E+03  0.14870183273E+03  0.00000000000E+00 0.  1.
          6    2    1    2  502    0 -0.10350800552E+03 -0.13002696990E+02 -0.49743507901E+02  0.20739844089E+03  0.17221126377E+03 0.  0.
         24    2    3    3    0    0 -0.30409809682E+02 -0.36469451219E+02 -0.81739230516E+02  0.12409267245E+03  0.80392239388E+02 0.  0.
         -6    2    1    2    0  501  0.10350800552E+03  0.13002696990E+02  0.48137505944E+03  0.52163677610E+03  0.17175564327E+03 0.  0.
        -24    2    5    5    0    0  0.75975357314E+02  0.33285017026E+02  0.15472567336E+03  0.19316861836E+03  0.80584948008E+02 0.  0.
          5    1    3    3  502    0 -0.73098195843E+02  0.23466754229E+02  0.31995722615E+02  0.83305768439E+02  0.47000000000E+01 0. -1.
        -11    1    4    4    0    0 -0.39037926507E+02  0.10726066271E+02 -0.57546268099E+02  0.70360366513E+02  0.00000000000E+00 0.  1.
         12    1    4    4    0    0  0.86281168259E+01 -0.47195517490E+02 -0.24192962417E+02  0.53732305940E+02  0.00000000000E+00 0. -1.
         -5    1    5    5    0  501  0.27532648210E+02 -0.20282320036E+02  0.32664938608E+03  0.32846815774E+03  0.47000000000E+01 0.  1.
         11    1    6    6    0    0  0.40619918048E+02  0.53884129917E+02  0.12677349913E+03  0.14361405670E+03  0.00000000000E+00 0. -1.
        -12    1    6    6    0    0  0.35355439267E+02 -0.20599112891E+02  0.27952174230E+02  0.49554561665E+02  0.00000000000E+00 0.  1.
</event>
<event>
12    1  0.9656379E-001  0.6370367E+03  0.7818608E-02  0.9831413E-01
         -2   -1    0    0    0  501 -0.00000000000E+00  0.00000000000E+00  0.14311944908E+04  0.14311944908E+04  0.00000000000E+00 0.  1.
          2   -1    0    0  502    0  0.00000000000E+00 -0.00000000000E+00 -0.54832739808E+03  0.54832739808E+03  0.00000000000E+00 0. -1.
          6    2    1    2  502    0 -0.46600800442E+03 -0.39856408034E+03  0.11291843065E+04  0.12964426857E+04  0.17230685696E+03 0.  0.
         24    2    3    3    0    0 -0.21143159495E+03 -0.16120589486E+03  0.62032434242E+03  0.67991319775E+03  0.82395429454E+02 0.  0.
         -6    2    1    2    0  501  0.46600800442E+03  0.39856408034E+03 -0.24631721378E+03  0.68307920317E+03  0.17293999445E+03 0.  0.
        -24    2    5    5    0    0  0.12086647086E+03  0.16785316131E+03 -0.11029037810E+03  0.24618608538E+03  0.75234523943E+02 0.  0.
          5    1    3    3  502    0 -0.25457640947E+03 -0.23735818548E+03  0.50885996404E+03  0.61652948792E+03  0.47000000000E+01 0. -1.
        -13    1    4    4    0    0 -0.70412547065E+02 -0.93669788301E+01  0.15068606552E+03  0.16658918758E+03  0.00000000000E+00 0.  1.
         14    1    4    4    0    0 -0.14101904788E+03 -0.15183891603E+03  0.46963827690E+03  0.51332401017E+03  0.00000000000E+00 0. -1.
         -5    1    5    5    0  501  0.34514153356E+03  0.23071091903E+03 -0.13602683569E+03  0.43689311779E+03  0.47000000000E+01 0.  1.
         13    1    6    6    0    0  0.10962762365E+03  0.10494582677E+03 -0.99252469415E+02  0.18133641418E+03  0.00000000000E+00 0. -1.
        -14    1    6    6    0    0  0.11238847208E+02  0.62907334548E+02 -0.11037908680E+02  0.64849671198E+02  0.00000000000E+00 0.  1.
</event>
<event>
12    1  0.9656379E-001  0.3337768E+03  0.7818608E-02  0.1069478E+00
          2   -1    0    0  502    0  0.00000000000E+00  0.00000000000E+00  0.46592181053E+04  0.46592181053E+04  0.00000000000E+00 0. -1.
         -2   -1    0    0    0  501 -0.00000000000E+00 -0.00000000000E+00 -0.18236629538E+03  0.18236629538E+03  0.00000000000E+00 0.  1.
          6    2    1    2  502    0  0.28516083449E+03 -0.25259884657E+02 -0.17074213163E+02  0.33536513665E+03  0.17384902308E+03 0.  0.
         24    2    3    3    0    0  0.19178918821E+03 -0.42621020543E+02 -0.73764834975E+02  0.22466016852E+03  0.80195363535E+02 0.  0.
         -6    2    1    2    0  501 -0.28516083449E+03  0.25259884657E+02  0.44939260230E+04  0.45062192640E+04  0.16936998347E+03 0.  0.
        -24    2    5    5    0    0 -0.82704210233E+02  0.30199136367E+02  0.11464615091E+04  0.11526310599E+04  0.80202207186E+02 0.  0.
          5    1    3    3  502    0  0.93371646277E+02  0.17361135886E+02  0.56690621811E+02  0.11070496813E+03  0.47000000000E+01 0. -1.
        -13    1    4    4    0    0 -0.26851062439E+01  0.11232450883E+01 -0.17216684067E+02  0.17460976071E+02  0.00000000000E+00 0.  1.
         14    1    4    4    0    0  0.19447429446E+03 -0.43744265631E+02 -0.56548150907E+02  0.20719919245E+03  0.00000000000E+00 0. -1.
         -5    1    5    5    0  501 -0.20245662426E+03 -0.49392517106E+01  0.33474645139E+04  0.33535882041E+04  0.47000000000E+01 0.  1.
         11    1    6    6    0    0 -0.91794553113E+02  0.64569023324E+01  0.96867037419E+03  0.97303146167E+03  0.00000000000E+00 0. -1.
        -12    1    6    6    0    0  0.90903428793E+01  0.23742234035E+02  0.17779113495E+03  0.17959959821E+03  0.00000000000E+00 0.  1.
</event>
<event>
12    1  0.9656379E-001  0.4992988E+03  0.7818608E-02  0.1013962E+00
          2   -1    0    0  502    0  0.00000000000E+00  0.00000000000E+00  0.19003256648E+04  0.19003256648E+04  0.00000000000E+00 0. -1.
         -2   -1    0    0    0  501 -0.00000000000E+00 -0.00000000000E+00 -0.14873963178E+03  0.14873963178E+03  0.00000000000E+00 0.  1.
          6    2    1    2  502    0  0.38903751264E+03 -0.26232073345E+03  0.12282320140E+04  0.13259608387E+04  0.17162724792E+03 0.  0.
         24    2    3    3    0    0  0.35290598525E+03 -0.21097958896E+03  0.11593354703E+04  0.12326322573E+04  0.79174033140E+02 0.  0.
         -6    2    1    2    0  501 -0.38903751264E+03  0.26232073345E+03  0.52335401897E+03  0.72310445779E+03  0.16975946000E+03 0.  0.
        -24    2    5    5    0    0 -0.29198382177E+03  0.13840051757E+03  0.28819492370E+03  0.44008938945E+03  0.78823227688E+02 0.  0.
          5    1    3    3  502    0  0.36131527396E+02 -0.51341144489E+02  0.68896543655E+02  0.93328581458E+02  0.47000000000E+01 0. -1.
        -13    1    4    4    0    0  0.21038484177E+03 -0.14366276826E+03  0.60816909834E+03  0.65937123444E+03  0.00000000000E+00 0.  1.
         14    1    4    4    0    0  0.14252114347E+03 -0.67316820707E+02  0.55116637201E+03  0.57326102285E+03  0.00000000000E+00 0. -1.
         -5    1    5    5    0  501 -0.97053690871E+02  0.12392021589E+03  0.23515909527E+03  0.28301506834E+03  0.47000000000E+01 0.  1.
         11    1    6    6    0    0 -0.75581920017E+02  0.34292985143E+02  0.12387552668E+03  0.14910996470E+03  0.00000000000E+00 0. -1.
        -12    1    6    6    0    0 -0.21640190176E+03  0.10410753242E+03  0.16431939702E+03  0.29097942475E+03  0.00000000000E+00 0.  1.
</event>
<event>
12    1  0.9656379E-001  0.4161968E+03  0.7818608E-02  0.1038311E+00
         -2   -1    0    0    0  501 -0.00000000000E+00  0.00000000000E+00  0.16307757057E+03  0.16307757057E+03  0.00000000000E+00 0.  1.
          2   -1    0    0  502    0  0.00000000000E+00 -0.00000000000E+00 -0.11268316147E+04  0.11268316147E+04  0.00000000000E+00 0. -1.
          6    2    1    2  502    0  0.73174316682E+02 -0.37588328729E+03 -0.33071690810E+03  0.53393286646E+03  0.17049312683E+03 0.  0.
         24    2    3    3    0    0  0.29167575570E+02 -0.26244925767E+03 -0.14475022334E+03  0.31165023066E+03  0.80267545100E+02 0.  0.
         -6    2    1    2    0  501 -0.73174316682E+02  0.37588328729E+03 -0.63303713608E+03  0.75597631885E+03  0.15531082616E+03 0.  0.
        -24    2    5    5    0    0 -0.29228016132E+02  0.13281738143E+03 -0.32387849754E+03  0.36023212660E+03  0.79844662457E+02 0.  0.
          5    1    3    3  502    0  0.44006741112E+02 -0.11343402962E+03 -0.18596668475E+03  0.22228263580E+03  0.47000000000E+01 0. -1.
        -13    1    4    4    0    0  0.20816792697E+02 -0.92479042456E+02 -0.95344943038E+02  0.13444839276E+03  0.00000000000E+00 0.  1.
         14    1    4    4    0    0  0.83507828729E+01 -0.16997021521E+03 -0.49405280305E+02  0.17720183790E+03  0.00000000000E+00 0. -1.
         -5    1    5    5    0  501 -0.43946300550E+02  0.24306590586E+03 -0.30915863854E+03  0.39574419226E+03  0.47000000000E+01 0.  1.
         13    1    6    6    0    0 -0.32401295732E+02  0.13892211656E+03 -0.26502197677E+03  0.30097482720E+03  0.00000000000E+00 0. -1.
        -14    1    6    6    0    0  0.31732795996E+01 -0.61047351313E+01 -0.58856520769E+02  0.59257299394E+02  0.00000000000E+00 0.  1.
</event>
<event>
12    1  0.9656379E-001  0.4896208E+03  0.7818608E-02  0.1016524E+00
          2   -1    0    0  502    0  0.00000000000E+00  0.00000000000E+00  0.13137584544E+04  0.13137584544E+04  0.00000000000E+00 0. -1.
         -2   -1    0    0    0  501 -0.00000000000E+00 -0.00000000000E+00 -0.20061896285E+03  0.20061896285E+03  0.00000000000E+00 0.  1.
          6    2    1    2  502    0 -0.78273965244E+02  0.45146176553E+03  0.32751214000E+03  0.58797139667E+03  0.16882423428E+03 0.  0.
         24    2    3    3    0    0 -0.55581164126E+02  0.19122771046E+03  0.83214145075E+02  0.23028392559E+03  0.80304354744E+02 0.  0.
         -6    2    1    2    0  501  0.78273965244E+02 -0.45146176553E+03  0.78562735150E+03  0.92640602055E+03  0.17627603384E+03 0.  0.
        -24    2    5    5    0    0  0.65641156651E+02 -0.42247543912E+03  0.78100694022E+03  0.89410690025E+03  0.81615257695E+02 0.  0.
          5    1    3    3  502    0 -0.22692801118E+02  0.26023405507E+03  0.24429799493E+03  0.35768747108E+03  0.47000000000E+01 0. -1.
        -11    1    4    4    0    0  0.14229523345E+02  0.92150332337E+02  0.42014919872E+02  0.10227128911E+03  0.00000000000E+00 0.  1.
         12    1    4    4    0    0 -0.69810687471E+02  0.99077378123E+02  0.41199225203E+02  0.12801263648E+03  0.00000000000E+00 0. -1.
         -5    1    5    5    0  501  0.12632808593E+02 -0.28986326410E+02  0.46204112787E+01  0.32299120299E+02  0.47000000000E+01 0.  1.
         11    1    6    6    0    0  0.81404406344E+02 -0.37396131458E+03  0.66276239805E+03  0.76532851668E+03  0.00000000000E+00 0. -1.
        -12    1    6    6    0    0 -0.15763249694E+02 -0.48514124542E+02  0.11824454217E+03  0.12877838357E+03  0.00000000000E+00 0.  1.
</event>
<event>
12    1  0.9656379E-001  0.6004612E+03  0.7818608E-02  0.9904450E-01
         -1   -1    0    0    0  501 -0.00000000000E+00  0.00000000000E+00  0.43762309045E+03  0.43762309045E+03  0.00000000000E+00 0.  1.
          1   -1    0    0  502    0  0.00000000000E+00 -0.00000000000E+00 -0.22129942928E+04  0.22129942928E+04  0.00000000000E+00 0. -1.
          6    2    1    2  502    0  0.51750452892E+03  0.25092629313E+03  0.16256101128E+03  0.62166492576E+03  0.17107383054E+03 0.  0.
         24    2    3    3    0    0  0.48811769710E+03  0.26733417015E+03  0.13676940967E+03  0.57900228372E+03  0.82530772291E+02 0.  0.
         -6    2    1    2    0  501 -0.51750452892E+03 -0.25092629313E+03 -0.19379322136E+04  0.20289524575E+04  0.17404559190E+03 0.  0.
        -24    2    5    5    0    0 -0.17262426691E+03 -0.12610629308E+03 -0.57491663735E+03  0.61744405201E+03  0.70753676800E+02 0.  0.
          5    1    3    3  502    0  0.29386831817E+02 -0.16407877017E+02  0.25791601610E+02  0.42662642043E+02  0.47000000000E+01 0. -1.
        -13    1    4    4    0    0  0.23715278114E+03  0.14389844046E+03  0.27570696678E+02  0.27876216760E+03  0.00000000000E+00 0.  1.
         14    1    4    4    0    0  0.25096491596E+03  0.12343572969E+03  0.10919871299E+03  0.30024011612E+03  0.00000000000E+00 0. -1.
         -5    1    5    5    0  501 -0.34488026201E+03 -0.12482000006E+03 -0.13630155763E+04  0.14115084055E+04  0.47000000000E+01 0.  1.
         13    1    6    6    0    0 -0.10298677039E+03 -0.40026640519E+02 -0.22944209996E+03  0.25466072344E+03  0.00000000000E+00 0. -1.
        -14    1    6    6    0    0 -0.69637496515E+02 -0.86079652556E+02 -0.34547453739E+03  0.36278332857E+03  0.00000000000E+00 0.  1.
</event>
<event>
12    1  0.9656379E-001  0.2326232E+03  0.7818608E-02  0.1124807E+00
          1   -1    0    0  502    0  0.00000000000E+00  0.00000000000E+00  0.22528002825E+02  0.22528002825E+02  0.00000000000E+00 0. -1.
         -1   -1    0    0    0  501 -0.00000000000E+00 -0.00000000000E+00 -0.24280424855E+04  0.24280424855E+04  0.00000000000E+00 0.  1.
          6    2    1    2  502    0 -0.40082092030E+02  0.15111022914E+03 -0.13261246995E+04  0.13462603181E+04  0.17137459001E+03 0.  0.
         24    2    3    3    0    0  0.21005479822E+02  0.13838791082E+03 -0.77219321428E+03  0.78880563016E+03  0.79621089892E+02 0.  0.
         -6    2    1    2    0  501  0.40082092030E+02 -0.15111022914E+03 -0.10793897832E+04  0.11043101702E+04  0.17314090366E+03 0.  0.
        -24    2    5    5    0    0  0.40773375520E+02 -0.18204622209E+03 -0.93132642997E+03  0.95297491292E+03  0.77388438142E+02 0.  0.
          5    1    3    3  502    0 -0.61087571853E+02  0.12722318318E+02 -0.55393148523E+03  0.55745468797E+03  0.47000000000E+01 0. -1.
        -11    1    4    4    0    0  0.23810729544E+02  0.11215120616E+03 -0.73065323071E+03  0.73959379894E+03  0.00000000000E+00 0.  1.
         12    1    4    4    0    0 -0.28052497214E+01  0.26236704659E+02 -0.41539983567E+02  0.49211831221E+02  0.00000000000E+00 0. -1.
         -5    1    5    5    0  501 -0.69128348982E+00  0.30935992954E+02 -0.14806335323E+03  0.15133525730E+03  0.47000000000E+01 0.  1.
         13    1    6    6    0    0  0.97602075971E+01 -0.79698671914E+02 -0.58579422260E+03  0.59127152070E+03  0.00000000000E+00 0. -1.
        -14    1    6    6    0    0  0.31013167923E+02 -0.10234755018E+03 -0.34553220737E+03  0.36170339222E+03  0.00000000000E+00 0.  1.
</event>
<event>
12    1  0.9656379E-001  0.3053527E+03  0.7818608E-02  0.1082595E+00
          1   -1    0    0  502    0  0.00000000000E+00  0.00000000000E+00  0.47579958599E+03  0.47579958599E+03  0.00000000000E+00 0. -1.
         -1   -1    0    0    0  501 -0.00000000000E+00 -0.00000000000E+00 -0.55026322144E+03  0.55026322144E+03  0.00000000000E+00 0.  1.
          6    2    1    2  502    0  0.20417155615E+03 -0.14510957827E+03 -0.44883571280E+03  0.54212500971E+03  0.17234620687E+03 0.  0.
         24    2    3    3    0    0  0.18581793095E+03 -0.16664500957E+03 -0.33706320528E+03  0.42673084263E+03  0.78668577070E+02 0.  0.
         -6    2    1    2    0  501 -0.20417155615E+03  0.14510957827E+03  0.37437207735E+03  0.48393779772E+03  0.17691389350E+03 0.  0.
        -24    2    5    5    0    0 -0.68055033766E+02  0.10797320704E+03  0.26720921021E+03  0.30670126698E+03  0.79844875146E+02 0.  0.
          5    1    3    3  502    0  0.18353625201E+02  0.21535431301E+02 -0.11177250752E+03  0.11539416709E+03  0.47000000000E+01 0. -1.
        -13    1    4    4    0    0  0.15325731689E+03 -0.11480837351E+03 -0.29764483588E+03  0.35392261320E+03  0.00000000000E+00 0.  1.
         14    1    4    4    0    0  0.32560614065E+02 -0.51836636060E+02 -0.39418369397E+02  0.72808229426E+02  0.00000000000E+00 0. -1.
         -5    1    5    5    0  501 -0.13611652239E+03  0.37136371226E+02  0.10716286714E+03  0.17723653074E+03  0.47000000000E+01 0.  1.
         11    1    6    6    0    0 -0.60773371379E+02  0.28351201848E+02  0.89523974756E+02  0.11185586874E+03  0.00000000000E+00 0. -1.
        -12    1    6    6    0    0 -0.72816623872E+01  0.79622005195E+02  0.17768523546E+03  0.19484539824E+03  0.00000000000E+00 0.  1.
</event>
<event>
12    1  0.9656379E-001  0.1552872E+04  0.7818608E-02  0.8850035E-01
          2   -1    0    0  502    0  0.00000000000E+00  0.00000000000E+00  0.28855663923E+04  0.28855663923E+04  0.00000000000E+00 0. -1.
         -2   -1    0    0    0  501 -0.00000000000E+00 -0.00000000000E+00 -0.92476860319E+03  0.92476860319E+03  0.00000000000E+00 0.  1.
          6    2    1    2  502    0 -0.12390396654E+04  0.92008864076E+03  0.38911183225E+03  0.16009436732E+04  0.17271429412E+03 0.  0.
         24    2    3    3    0    0 -0.97470940187E+03  0.72670106644E+03  0.36771508994E+03  0.12726920126E+04  0.79860587192E+02 0.  0.
         -6    2    1    2    0  501  0.12390396654E+04 -0.92008864076E+03  0.15716859569E+04  0.22093913223E+04  0.17155427399E+03 0.  0.
        -24    2    5    5    0    0  0.38887428111E+03 -0.24867493117E+03  0.43704114848E+03  0.64062796183E+03  0.79603970467E+02 0.  0.
          5    1    3    3  502    0 -0.26433026352E+03  0.19338757432E+03  0.21396742305E+02  0.32825166062E+03  0.47000000000E+01 0. -1.
        -13    1    4    4    0    0 -0.54160678605E+03  0.35796090110E+03  0.21206698083E+03  0.68296875607E+03  0.00000000000E+00 0.  1.
         14    1    4    4    0    0 -0.43310261582E+03  0.36874016534E+03  0.15564810911E+03  0.58972325648E+03  0.00000000000E+00 0. -1.
         -5    1    5    5    0  501  0.85016538428E+03 -0.67141370959E+03  0.11346448084E+04  0.15687633605E+04  0.47000000000E+01 0.  1.
         11    1    6    6    0    0  0.13019453198E+03 -0.88094383313E+02  0.20217636016E+03  0.25609864727E+03  0.00000000000E+00 0. -1.
        -12    1    6    6    0    0  0.25867974914E+03 -0.16058054786E+03  0.23486478832E+03  0.38452931456E+03  0.00000000000E+00 0.  1.
</event>
<event>
12    1  0.9656379E-001  0.5410862E+03  0.7818608E-02  0.1003578E+00
          2   -1    0    0  502    0  0.00000000000E+00  0.00000000000E+00  0.59479984235E+03  0.59479984235E+03  0.00000000000E+00 0. -1.
         -2   -1    0    0    0  501 -0.00000000000E+00 -0.00000000000E+00 -0.70144098766E+03  0.70144098766E+03  0.00000000000E+00 0.  1.
          6    2    1    2  502    0 -0.41561987759E+03 -0.30116245924E+03 -0.40729760886E+03  0.67739687332E+03  0.17186178250E+03 0.  0.
         24    2    3    3    0    0 -0.30962890833E+03 -0.26400095548E+03 -0.37823622266E+03  0.56128607668E+03  0.80080299548E+02 0.  0.
         -6    2    1    2    0  501  0.41561987759E+03  0.30116245924E+03  0.30065646355E+03  0.61884395669E+03  0.17068926197E+03 0.  0.
        -24    2    5    5    0    0  0.34268159260E+03  0.17531911030E+03  0.19479942010E+03  0.43888744656E+03  0.80671632785E+02 0.  0.
          5    1    3    3  502    0 -0.10599096926E+03 -0.37161503762E+02 -0.29061386200E+02  0.11611079663E+03  0.47000000000E+01 0. -1.
        -11    1    4    4    0    0 -0.25476766119E+03 -0.24590460294E+03 -0.30033524127E+03  0.46430258678E+03  0.00000000000E+00 0.  1.
         12    1    4    4    0    0 -0.54861247138E+02 -0.18096352537E+02 -0.77900981391E+02  0.96983489906E+02  0.00000000000E+00 0. -1.
         -5    1    5    5    0  501  0.72938284996E+02  0.12584334894E+03  0.10585704345E+03  0.17995651013E+03  0.47000000000E+01 0.  1.
         11    1    6    6    0    0  0.21824360536E+03  0.12291003863E+03  0.83879981247E+02  0.26414579333E+03  0.00000000000E+00 0. -1.
        -12    1    6    6    0    0  0.12443798723E+03  0.52409071677E+02  0.11091943885E+03  0.17474165323E+03  0.00000000000E+00 0.  1.
</event>
<event>
12    1  0.9656379E-001  0.1752238E+03  0.7818608E-02  0.1172507E+00
          1   -1    0    0  502    0  0.00000000000E+00  0.00000000000E+00  0.77370641592E+03  0.77370641592E+03  0.00000000000E+00 0. -1.
         -1   -1    0    0    0  501 -0.00000000000E+00 -0.00000000000E+00 -0.75300339713E+02  0.75300339713E+02  0.00000000000E+00 0.  1.
          6    2    1    2  502    0 -0.20703350013E+02 -0.25136964582E+02  0.57626289049E+02  0.18479466893E+03  0.17253343092E+03 0.  0.
         24    2    3    3    0    0  0.36762734903E+02  0.28627264814E+02  0.53978285992E+02  0.10587482856E+03  0.78261133368E+02 0.  0.
         -6    2    1    2    0  501  0.20703350013E+02  0.25136964582E+02  0.64077978716E+03  0.66421208670E+03  0.17180938507E+03 0.  0.
        -24    2    5    5    0    0  0.73905634536E+02  0.46369303929E+02  0.42403031815E+03  0.43997177447E+03  0.78493926252E+02 0.  0.
          5    1    3    3  502    0 -0.57466084915E+02 -0.53764229396E+02  0.36480030572E+01  0.78919840372E+02  0.47000000000E+01 0. -1.
        -13    1    4    4    0    0  0.23063221332E+02 -0.23544996291E+01 -0.15972783432E+02  0.28152897849E+02  0.00000000000E+00 0.  1.
         14    1    4    4    0    0  0.13699513570E+02  0.30981764443E+02  0.69951069424E+02  0.77721930712E+02  0.00000000000E+00 0. -1.
         -5    1    5    5    0  501 -0.53202284523E+02 -0.21232339347E+02  0.21674946902E+03  0.22424031224E+03  0.47000000000E+01 0.  1.
         11    1    6    6    0    0  0.52490206690E+01 -0.12503662274E+02  0.16594604845E+03  0.16649920356E+03  0.00000000000E+00 0. -1.
        -12    1    6    6    0    0  0.68656613867E+02  0.58872966203E+02  0.25808426969E+03  0.27347257091E+03  0.00000000000E+00 0.  1.
</event>
<event>
12    1  0.9656379E-001  0.4383705E+03  0.7818608E-02  0.1031248E+00
         -2   -1    0    0    0  501 -0.00000000000E+00  0.00000000000E+00  0.51751951541E+03  0.51751951541E+03  0.00000000000E+00 0.  1.
          2   -1    0    0  502    0  0.00000000000E+00 -0.00000000000E+00 -0.37229071511E+03  0.37229071511E+03  0.00000000000E+00 0. -1.
          6    2    1    2  502    0  0.34335212282E+03 -0.21073308963E+03  0.49856887870E+02  0.44041789680E+03  0.17083061566E+03 0.  0.
         24    2    3    3    0    0  0.66640842801E+02 -0.67990379494E+02 -0.40013832878E+01  0.12439983219E+03  0.79972579981E+02 0.  0.
         -6    2    1    2    0  501 -0.34335212282E+03  0.21073308963E+03  0.95371912432E+02  0.44939233371E+03  0.17481004722E+03 0.  0.
        -24    2    5    5    0    0 -0.30615544028E+03  0.20542470665E+03  0.36062898734E+02  0.37902599782E+03  0.80185476496E+02 0.  0.
          5    1    3    3  502    0  0.27671128002E+03 -0.14274271014E+03  0.53858271158E+02  0.31601806461E+03  0.47000000000E+01 0. -1.
        -13    1    4    4    0    0  0.38921781643E+02 -0.28731778757E+02  0.37256428575E+02  0.61061130574E+02  0.00000000000E+00 0.  1.
         14    1    4    4    0    0  0.27719061158E+02 -0.39258600737E+02 -0.41257811863E+02  0.63338701621E+02  0.00000000000E+00 0. -1.
         -5    1    5    5    0  501 -0.37196682538E+02  0.53083829819E+01  0.59309013699E+02  0.70366335897E+02  0.47000000000E+01 0.  1.
         11    1    6    6    0    0 -0.11633161137E+03  0.73659551613E+02  0.52518837770E+02  0.14736689475E+03  0.00000000000E+00 0. -1.
        -12    1    6    6    0    0 -0.18982382891E+03  0.13176515503E+03 -0.16455939036E+02  0.23165910306E+03  0.00000000000E+00 0.  1.
</event>
<event>
12    1  0.9656379E-001  0.1005187E+04  0.7818608E-02  0.9302874E-01
          2   -1    0    0  502    0  0.00000000000E+00  0.00000000000E+00  0.12700124731E+04  0.12700124731E+04  0.00000000000E+00 0. -1.
         -2   -1    0    0    0  501 -0.00000000000E+00 -0.00000000000E+00 -0.91107372688E+03  0.91107372688E+03  0.00000000000E+00 0.  1.
          6    2    1    2  502    0  0.89642399292E+03 -0.42070078033E+03 -0.20882184759E+03  0.10265459700E+04  0.17211897869E+03 0.  0.
         24    2    3    3    0    0  0.83480259772E+03 -0.34391357052E+03 -0.19990271542E+03  0.92757570752E+03  0.72551198406E+02 0.  0.
         -6    2    1    2    0  501 -0.89642399292E+03  0.42070078033E+03  0.56776059384E+03  0.11545402300E+04  0.17333761607E+03 0.  0.
        -24    2    5    5    0    0 -0.83744007711E+03  0.43093453164E+03  0.53469238619E+03  0.10859878533E+04  0.80394131846E+02 0.  0.
          5    1    3    3  502    0  0.61621395203E+02 -0.76787209809E+02 -0.89191321734E+01  0.98970262482E+02  0.47000000000E+01 0. -1.
        -11    1    4    4    0    0  0.82382782306E+03 -0.34098928961E+03 -0.18817465108E+03  0.91124951412E+03  0.00000000000E+00 0.  1.
         12    1    4    4    0    0  0.10974774660E+02 -0.29242809131E+01 -0.11728064333E+02  0.16326193393E+02  0.00000000000E+00 0. -1.
         -5    1    5    5    0  501 -0.58983915819E+02 -0.10233751316E+02  0.33068207650E+02  0.68552376680E+02  0.47000000000E+01 0.  1.
         13    1    6    6    0    0 -0.21298278475E+03  0.11525515572E+03  0.17839056264E+03  0.30078000325E+03  0.00000000000E+00 0. -1.
        -14    1    6    6    0    0 -0.62445729236E+03  0.31567937593E+03  0.35630182356E+03  0.78520785009E+03  0.00000000000E+00 0.  1.
</event>
<event>
12    1  0.9656379E-001  0.3401570E+03  0.7818608E-02  0.1066729E+00
         -2   -1    0    0    0  501 -0.00000000000E+00  0.00000000000E+00  0.15827169142E+03  0.15827169142E+03  0.00000000000E+00 0.  1.
          2   -1    0    0  502    0  0.00000000000E+00 -0.00000000000E+00 -0.80688342935E+03  0.80688342935E+03  0.00000000000E+00 0. -1.
          6    2    1    2  502    0 -0.12617279236E+02  0.29296084551E+03 -0.17669850528E+03  0.38364238576E+03  0.17312962094E+03 0.  0.
         24    2    3    3    0    0  0.62463640359E+02  0.12438239151E+03 -0.79990699252E+02  0.17524293905E+03  0.70277236974E+02 0.  0.
         -6    2    1    2    0  501  0.12617279236E+02 -0.29296084551E+03 -0.47191323265E+03  0.58151273500E+03  0.17166743744E+03 0.  0.
        -24    2    5    5    0    0  0.64575073441E+01 -0.22242013762E+03 -0.23173905377E+03  0.33107379941E+03  0.79965333693E+02 0.  0.
          5    1    3    3  502    0 -0.75080919594E+02  0.16857845401E+03 -0.96707806024E+02  0.20839944671E+03  0.47000000000E+01 0. -1.
        -13    1    4    4    0    0  0.59205161743E+02  0.11061902471E+03 -0.38244449188E+02  0.13116576420E+03  0.00000000000E+00 0.  1.
         14    1    4    4    0    0  0.32584786155E+01  0.13763366799E+02 -0.41746250064E+02  0.44077174852E+02  0.00000000000E+00 0. -1.
         -5    1    5    5    0  501  0.61597718915E+01 -0.70540707896E+02 -0.24017417888E+03  0.25043893559E+03  0.47000000000E+01 0.  1.
         13    1    6    6    0    0 -0.94177240412E+01 -0.20308167038E+03 -0.22849491177E+03  0.30584437722E+03  0.00000000000E+00 0. -1.
        -14    1    6    6    0    0  0.15875231385E+02 -0.19338467238E+02 -0.32441419973E+01  0.25229422188E+02  0.00000000000E+00 0.  1.
</event>
<event>
12    1  0.9656379E-001  0.1745001E+03  0.7818608E-02  0.1173235E+00
         -2   -1    0    0    0  501 -0.00000000000E+00  0.00000000000E+00  0.65024924366E+02  0.65024924366E+02  0.00000000000E+00 0.  1.
          2   -1    0    0  502    0  0.00000000000E+00 -0.00000000000E+00 -0.16705075704E+04  0.16705075704E+04  0.00000000000E+00 0. -1.
          6    2    1    2  502    0  0.85246146717E+01  0.15706940108E+02 -0.66899364704E+02  0.18711277594E+03  0.17382833170E+03 0.  0.
         24    2    3    3    0    0 -0.49335806763E+01 -0.53222019035E+02 -0.62677237092E+02  0.11659865826E+03  0.82522042697E+02 0.  0.
         -6    2    1    2    0  501 -0.85246146717E+01 -0.15706940108E+02 -0.15385832813E+04  0.15484197188E+04  0.17333705613E+03 0.  0.
        -24    2    5    5    0    0 -0.86466862298E+01  0.32898293941E+02 -0.42802580133E+03  0.43678916416E+03  0.80135038497E+02 0.  0.
          5    1    3    3  502    0  0.13458195348E+02  0.68928959143E+02 -0.42221276114E+01  0.70514117680E+02  0.47000000000E+01 0. -1.
        -11    1    4    4    0    0  0.13131187476E+02 -0.36386062535E+02  0.99048222900E+01  0.39930929565E+02  0.00000000000E+00 0.  1.
         12    1    4    4    0    0 -0.18064768152E+02 -0.16835956501E+02 -0.72582059382E+02  0.76667728699E+02  0.00000000000E+00 0. -1.
         -5    1    5    5    0  501  0.12207155811E+00 -0.48605234049E+02 -0.11105574800E+04  0.11116305547E+04  0.47000000000E+01 0.  1.
         13    1    6    6    0    0 -0.13879308432E+02  0.46111424360E+02 -0.41410520604E+03  0.41689569479E+03  0.00000000000E+00 0. -1.
        -14    1    6    6    0    0  0.52326222024E+01 -0.13213130419E+02 -0.13920595291E+02  0.19893469377E+02  0.00000000000E+00 0.  1.
</event>
<event>
12    1  0.1001752E+000  0.6388062E+03  0.7818608E-02  0.9828013E-01
         -1   -1    0    0    0  501 -0.00000000000E+00  0.00000000000E+00  0.26176853930E+03  0.26176853930E+03  0.00000000000E+00 0.  1.
          1   -1    0    0  502    0  0.00000000000E+00 -0.00000000000E+00 -0.15681751609E+04  0.15681751609E+04  0.00000000000E+00 0. -1.
          6    2    1    2  502    0 -0.31227118963E+03 -0.53037854358E+03 -0.58308951343E+03  0.86506734964E+03  0.17185297022E+03 0.  0.
         24    2    3    3    0    0 -0.11825569668E+03 -0.19806206324E+03 -0.30329498428E+03  0.38926978433E+03  0.79562094059E+02 0.  0.
         -6    2    1    2    0  501  0.31227118963E+03  0.53037854358E+03 -0.72331710812E+03  0.96487635052E+03  0.17024698979E+03 0.  0.
        -24    2    5    5    0    0  0.13079718180E+03  0.19011156702E+03 -0.36103928764E+03  0.43574334261E+03  0.79199638397E+02 0.  0.
          5    1    3    3  502    0 -0.19401549295E+03 -0.33231648034E+03 -0.27979452915E+03  0.47579756531E+03  0.47000000000E+01 0. -1.
        -11    1    4    4    0    0 -0.96252204222E+02 -0.14791634661E+03 -0.16945536571E+03  0.24466069030E+03  0.00000000000E+00 0.  1.
         12    1    4    4    0    0 -0.22003492461E+02 -0.50145716635E+02 -0.13383961857E+03  0.14460909403E+03  0.00000000000E+00 0. -1.
         -5    1    5    5    0  501  0.18147400783E+03  0.34026697656E+03 -0.36227782048E+03  0.52913300791E+03  0.47000000000E+01 0.  1.
         13    1    6    6    0    0  0.50585516285E+02  0.13874910078E+03 -0.19949554071E+03  0.24821095501E+03  0.00000000000E+00 0. -1.
        -14    1    6    6    0    0  0.80211665519E+02  0.51362466236E+02 -0.16154374693E+03  0.18753238759E+03  0.00000000000E+00 0.  1.
</event>
<event>
12    1  0.9656379E-001  0.2961385E+03  0.7818608E-02  0.1087187E+00
         -4   -1    0    0    0  501 -0.00000000000E+00  0.00000000000E+00  0.10700727342E+04  0.10700727342E+04  0.00000000000E+00 0.  1.
          4   -1    0    0  502    0  0.00000000000E+00 -0.00000000000E+00 -0.33224750655E+03  0.33224750655E+03  0.00000000000E+00 0. -1.
          6    2    1    2  502    0 -0.11374505172E+03 -0.21217164347E+03  0.97740843467E+03  0.10212168401E+04  0.17205186238E+03 0.  0.
         24    2    3    3    0    0 -0.64503775354E+02 -0.31139989887E+02  0.41005418845E+03  0.42362994805E+03  0.78660405643E+02 0.  0.
         -6    2    1    2    0  501  0.11374505172E+03  0.21217164347E+03 -0.23958320701E+03  0.38110340061E+03  0.17287262880E+03 0.  0.
        -24    2    5    5    0    0  0.26141047413E+02  0.75515737000E+02 -0.17151064019E+03  0.20502028757E+03  0.78939456047E+02 0.  0.
          5    1    3    3  502    0 -0.49241276370E+02 -0.18103165359E+03  0.56735424622E+03  0.59758689209E+03  0.47000000000E+01 0. -1.
        -11    1    4    4    0    0 -0.73858224678E+02 -0.45869241491E+02  0.30553818796E+03  0.31766745028E+03  0.00000000000E+00 0.  1.
         12    1    4    4    0    0  0.93544493233E+01  0.14729251604E+02  0.10451600049E+03  0.10596249777E+03  0.00000000000E+00 0. -1.
         -5    1    5    5    0  501  0.87604004311E+02  0.13665590647E+03 -0.68072566818E+02  0.17608311304E+03  0.47000000000E+01 0.  1.
         11    1    6    6    0    0 -0.13697567776E+02  0.69233428500E+02 -0.12420649228E+03  0.14285707441E+03  0.00000000000E+00 0. -1.
        -12    1    6    6    0    0  0.39838615189E+02  0.62823084999E+01 -0.47304147910E+02  0.62163213155E+02  0.00000000000E+00 0.  1.
</event>
<event>
12    1  0.9656379E-001  0.2150976E+03  0.7818608E-02  0.1137592E+00
          1   -1    0    0  502    0  0.00000000000E+00  0.00000000000E+00  0.22254626940E+03  0.22254626940E+03  0.00000000000E+00 0. -1.
         -1   -1    0    0    0  501 -0.00000000000E+00 -0.00000000000E+00 -0.28701960141E+03  0.28701960141E+03  0.00000000000E+00 0.  1.
          6    2    1    2  502    0  0.10215580356E+03 -0.49363183049E+02 -0.16660000240E+03  0.27970311532E+03  0.19392199432E+03 0.  0.
         24    2    3    3    0    0  0.96146666500E+02 -0.10910387016E+03 -0.12663040384E+03  0.20742090289E+03  0.76422089838E+02 0.  0.
         -6    2    1    2    0  501 -0.10215580356E+03  0.49363183049E+02  0.10212667039E+03  0.22986275548E+03  0.17185603717E+03 0.  0.
        -24    2    5    5    0    0 -0.66003781544E+02 -0.84620798677E+01  0.12026511615E+03  0.15913918839E+03  0.80208959262E+02 0.  0.
          5    1    3    3  502    0  0.60091370619E+01  0.59740687115E+02 -0.39969598556E+02  0.72282212431E+02  0.47000000000E+01 0. -1.
        -13    1    4    4    0    0 -0.28517009868E+01 -0.10197578848E+02 -0.43242551262E+02  0.44520119637E+02  0.00000000000E+00 0.  1.
         14    1    4    4    0    0  0.98998367487E+02 -0.98906291316E+02 -0.83387852580E+02  0.16290078325E+03  0.00000000000E+00 0. -1.
         -5    1    5    5    0  501 -0.36152022018E+02  0.57825262917E+02 -0.18138445759E+02  0.70723567090E+02  0.47000000000E+01 0.  1.
         11    1    6    6    0    0 -0.55436504612E+02  0.83866488947E+01  0.12644068264E+03  0.13831409237E+03  0.00000000000E+00 0. -1.
        -12    1    6    6    0    0 -0.10567276932E+02 -0.16848728762E+02 -0.61755664898E+01  0.20825096018E+02  0.00000000000E+00 0.  1.
</event>
<event>
12    1  0.9656379E-001  0.5978780E+03  0.7818608E-02  0.9909818E-01
         -2   -1    0    0    0  501 -0.00000000000E+00  0.00000000000E+00  0.27325916235E+03  0.27325916235E+03  0.00000000000E+00 0.  1.
          2   -1    0    0  502    0  0.00000000000E+00 -0.00000000000E+00 -0.13211016660E+04  0.13211016660E+04  0.00000000000E+00 0. -1.
          6    2    1    2  502    0  0.51385289783E+03 -0.25401266517E+03 -0.44462488097E+03  0.74480516003E+03  0.16874894656E+03 0.  0.
         24    2    3    3    0    0  0.46770726922E+03 -0.20219678386E+03 -0.33545961013E+03  0.61537003747E+03  0.80706281706E+02 0.  0.
         -6    2    1    2    0  501 -0.51385289783E+03  0.25401266517E+03 -0.60321762271E+03  0.84955566834E+03  0.17119024094E+03 0.  0.
        -24    2    5    5    0    0 -0.16669461659E+03  0.64587241155E+02 -0.25979092169E+03  0.32575718375E+03  0.81656676692E+02 0.  0.
          5    1    3    3  502    0  0.46145628613E+02 -0.51815881311E+02 -0.10916527084E+03  0.12943512256E+03  0.47000000000E+01 0. -1.
        -11    1    4    4    0    0  0.31593070999E+03 -0.17671072066E+03 -0.23522862812E+03  0.43170753966E+03  0.00000000000E+00 0.  1.
         12    1    4    4    0    0  0.15177655923E+03 -0.25486063202E+02 -0.10023098200E+03  0.18366249781E+03  0.00000000000E+00 0. -1.
         -5    1    5    5    0  501 -0.34715828124E+03  0.18942542402E+03 -0.34342670102E+03  0.52379848460E+03  0.47000000000E+01 0.  1.
         13    1    6    6    0    0 -0.11250378219E+03  0.82313515101E+02 -0.17917253449E+03  0.22701412487E+03  0.00000000000E+00 0. -1.
        -14    1    6    6    0    0 -0.54190834406E+02 -0.17726273946E+02 -0.80618387195E+02  0.98743058873E+02  0.00000000000E+00 0.  1.
</event>
<event>
12    1  0.9656379E-001  0.4348995E+03  0.7818608E-02  0.1032323E+00
         -2   -1    0    0    0  501 -0.00000000000E+00  0.00000000000E+00  0.26104115386E+03  0.26104115386E+03  0.00000000000E+00 0.  1.
          2   -1    0    0  502    0  0.00000000000E+00 -0.00000000000E+00 -0.16572320193E+04  0.16572320193E+04  0.00000000000E+00 0. -1.
          6    2    1    2  502    0 -0.37690613077E+03 -0.13151686370E+03  0.21440330999E+02  0.43543479138E+03  0.17259447530E+03 0.  0.
         24    2    3    3    0    0 -0.35760460663E+03 -0.16031505249E+03  0.12279905212E+02  0.39927005839E+03  0.75391065210E+02 0.  0.
         -6    2    1    2    0  501  0.37690613077E+03  0.13151686370E+03 -0.14176311964E+04  0.14828383817E+04  0.17255880312E+03 0.  0.
        -24    2    5    5    0    0  0.34126080033E+03  0.13118267358E+03 -0.10738083335E+04  0.11371406058E+04  0.79728241565E+02 0.  0.
          5    1    3    3  502    0 -0.19301524134E+02  0.28798188793E+02  0.91604257871E+01  0.36164732990E+02  0.47000000000E+01 0. -1.
        -11    1    4    4    0    0 -0.15310757318E+03 -0.90694026658E+02  0.37244399412E+02  0.18180891266E+03  0.00000000000E+00 0.  1.
         12    1    4    4    0    0 -0.20449703346E+03 -0.69621025831E+02 -0.24964494200E+02  0.21746114573E+03  0.00000000000E+00 0. -1.
         -5    1    5    5    0  501  0.35645330436E+02  0.33419011398E+00 -0.34382286289E+03  0.34569777597E+03  0.47000000000E+01 0.  1.
         13    1    6    6    0    0  0.21736851188E+03  0.77693666794E+02 -0.78729985104E+03  0.82044282632E+03  0.00000000000E+00 0. -1.
        -14    1    6    6    0    0  0.12389228845E+03  0.53489006788E+02 -0.28650848247E+03  0.31669777946E+03  0.00000000000E+00 0.  1.
</event>
<event>
12    1  0.9656379E-001  0.3801138E+03  0.7818608E-02  0.1050892E+00
         -2   -1    0    0    0  501 -0.00000000000E+00  0.00000000000E+00  0.48614355365E+03  0.48614355365E+03  0.00000000000E+00 0.  1.
          2   -1    0    0  502    0  0.00000000000E+00 -0.00000000000E+00 -0.11571680109E+04  0.11571680109E+04  0.00000000000E+00 0. -1.
          6    2    1    2  502    0  0.31136879051E+03  0.13262220559E+03  0.37278192347E+03  0.53248910707E+03  0.17331795510E+03 0.  0.
         24    2    3    3    0    0  0.63259057276E+02  0.36187377747E+02  0.14468325745E+03  0.18190501275E+03  0.82734237425E+02 0.  0.
         -6    2    1    2    0  501 -0.31136879051E+03 -0.13262220559E+03 -0.10438063808E+04  0.11108224575E+04  0.17278772670E+03 0.  0.
        -24    2    5    5    0    0 -0.68080930629E+02 -0.24182681182E+02 -0.21891289773E+03  0.24397791461E+03  0.79890868334E+02 0.  0.
          5    1    3    3  502    0  0.24810973323E+03  0.96434827844E+02  0.22809866602E+03  0.35058409431E+03  0.47000000000E+01 0. -1.
        -13    1    4    4    0    0  0.62806788329E+02  0.13327543045E+02  0.14548921919E+03  0.15902650397E+03  0.00000000000E+00 0.  1.
         14    1    4    4    0    0  0.45226894650E+00  0.22859834701E+02 -0.80596174123E+00  0.22878508782E+02  0.00000000000E+00 0. -1.
         -5    1    5    5    0  501 -0.24328785988E+03 -0.10843952441E+03 -0.82489348305E+03  0.86684454292E+03  0.47000000000E+01 0.  1.
         13    1    6    6    0    0 -0.43638945242E+02  0.12593804535E+02 -0.17826353082E+03  0.18395882114E+03  0.00000000000E+00 0. -1.
        -14    1    6    6    0    0 -0.24441985387E+02 -0.36776485718E+02 -0.40649366905E+02  0.60019093472E+02  0.00000000000E+00 0.  1.
</event>
<event>
12    1  0.9656379E-001  0.1478327E+04  0.7818608E-02  0.8898995E-01
         -1   -1    0    0    0  501 -0.00000000000E+00  0.00000000000E+00  0.23431861912E+04  0.23431861912E+04  0.00000000000E+00 0.  1.
          1   -1    0    0  502    0  0.00000000000E+00 -0.00000000000E+00 -0.11660463352E+04  0.11660463352E+04  0.00000000000E+00 0. -1.
          6    2    1    2  502    0  0.51076909159E+03 -0.13773799493E+04  0.13734511730E+04  0.20177229385E+04  0.16363722835E+03 0.  0.
         24    2    3    3    0    0  0.43746953096E+03 -0.12372105367E+04  0.11694841958E+04  0.17595661885E+04  0.79437930397E+02 0.  0.
         -6    2    1    2    0  501 -0.51076909159E+03  0.13773799493E+04 -0.19631131701E+03  0.14915095879E+04  0.16733836356E+03 0.  0.
        -24    2    5    5    0    0 -0.37351580168E+03  0.11386031494E+04 -0.18992349513E+03  0.12159815130E+04  0.81295265097E+02 0.  0.
          5    1    3    3  502    0  0.73299560623E+02 -0.14016941257E+03  0.20396697721E+03  0.25815675006E+03  0.47000000000E+01 0. -1.
        -11    1    4    4    0    0  0.39427566529E+03 -0.10290636402E+04  0.98779413445E+03  0.14799197708E+04  0.00000000000E+00 0.  1.
         12    1    4    4    0    0  0.43193865675E+02 -0.20814689649E+03  0.18169006131E+03  0.27964641770E+03  0.00000000000E+00 0. -1.
         -5    1    5    5    0  501 -0.13725328990E+03  0.23877679993E+03 -0.63878218718E+01  0.27552807487E+03  0.47000000000E+01 0.  1.
         13    1    6    6    0    0 -0.24256140082E+03  0.64539856130E+03 -0.81264132561E+02  0.69424721486E+03  0.00000000000E+00 0. -1.
        -14    1    6    6    0    0 -0.13095440086E+03  0.49320458806E+03 -0.10865936257E+03  0.52173429815E+03  0.00000000000E+00 0.  1.
</event>
<event>
12    1  0.9656379E-001  0.2904449E+03  0.7818608E-02  0.1090117E+00
          1   -1    0    0  502    0  0.00000000000E+00  0.00000000000E+00  0.60098223656E+03  0.60098223656E+03  0.00000000000E+00 0. -1.
         -1   -1    0    0    0  501 -0.00000000000E+00 -0.00000000000E+00 -0.63680660043E+03  0.63680660043E+03  0.00000000000E+00 0.  1.
          6    2    1    2  502    0 -0.22720949962E+03 -0.47505453794E+02 -0.56437535560E+03  0.63553862538E+03  0.17750740121E+03 0.  0.
         24    2    3    3    0    0 -0.86441174274E+02  0.22209313415E+02 -0.34933413944E+03  0.36919169967E+03  0.79390427098E+02 0.  0.
         -6    2    1    2    0  501  0.22720949962E+03  0.47505453794E+02  0.52855099173E+03  0.60225021161E+03  0.17163403412E+03 0.  0.
        -24    2    5    5    0    0  0.24482307506E+03  0.24151195494E+02  0.46705201078E+03  0.53398694126E+03  0.80516174377E+02 0.  0.
          5    1    3    3  502    0 -0.14076832534E+03 -0.69714767209E+02 -0.21504121616E+03  0.26634692571E+03  0.47000000000E+01 0. -1.
        -13    1    4    4    0    0 -0.88583697230E+02  0.35965737066E+02 -0.23044962674E+03  0.24949476171E+03  0.00000000000E+00 0.  1.
         14    1    4    4    0    0  0.21425229562E+01 -0.13756423651E+02 -0.11888451270E+03  0.11969693796E+03  0.00000000000E+00 0. -1.
         -5    1    5    5    0  501 -0.17613575447E+02  0.23354258300E+02  0.61498980951E+02  0.68263270350E+02  0.47000000000E+01 0.  1.
         11    1    6    6    0    0  0.12968688666E+03 -0.12190091815E+02  0.17661288036E+03  0.21945249240E+03  0.00000000000E+00 0. -1.
        -12    1    6    6    0    0  0.11513618840E+03  0.36341287309E+02  0.29043913042E+03  0.31453444886E+03  0.00000000000E+00 0.  1.
</event>
<event>
12    1  0.9656379E-001  0.8240730E+03  0.7818608E-02  0.9525812E-01
          1   -1    0    0  502    0  0.00000000000E+00  0.00000000000E+00  0.15766104281E+04  0.15766104281E+04  0.00000000000E+00 0. -1.
         -1   -1    0    0    0  501 -0.00000000000E+00 -0.00000000000E+00 -0.48446655818E+03  0.48446655818E+03  0.00000000000E+00 0.  1.
          6    2    1    2  502    0  0.22861383981E+03 -0.77297699910E+03  0.20286242173E+03  0.84867571744E+03  0.17128800992E+03 0.  0.
         24    2    3    3    0    0  0.90011935258E+02 -0.23557600786E+03  0.18514633118E+02  0.26385394075E+03  0.75351884126E+02 0.  0.
         -6    2    1    2    0  501 -0.22861383981E+03  0.77297699910E+03  0.88928144817E+03  0.12124012688E+04  0.17128226319E+03 0.  0.
        -24    2    5    5    0    0 -0.29253372886E+02  0.23428949273E+03  0.24227301678E+03  0.34720139273E+03  0.78136203044E+02 0.  0.
          5    1    3    3  502    0  0.13860190455E+03 -0.53740099124E+03  0.18434778862E+03  0.58482177669E+03  0.47000000000E+01 0. -1.
        -13    1    4    4    0    0  0.13723870695E+01 -0.70395862193E+02  0.28891626996E+02  0.76106418722E+02  0.00000000000E+00 0.  1.
         14    1    4    4    0    0  0.88639548188E+02 -0.16518014566E+03 -0.10376993878E+02  0.18774752203E+03  0.00000000000E+00 0. -1.
         -5    1    5    5    0  501 -0.19936046692E+03  0.53868750636E+03  0.64700843139E+03  0.86519987608E+03  0.47000000000E+01 0.  1.
         13    1    6    6    0    0 -0.17091528043E+02  0.20390404361E+02  0.61030429278E+02  0.66577790731E+02  0.00000000000E+00 0. -1.
        -14    1    6    6    0    0 -0.12161844843E+02  0.21389908837E+03  0.18124258750E+03  0.28062360200E+03  0.00000000000E+00 0.  1.
</event>
<event>
12    1  0.9656379E-001  0.3287497E+03  0.7818608E-02  0.1071691E+00
         -2   -1    0    0    0  501 -0.00000000000E+00  0.00000000000E+00  0.12614712807E+03  0.12614712807E+03  0.00000000000E+00 0.  1.
          2   -1    0    0  502    0  0.00000000000E+00 -0.00000000000E+00 -0.12272873146E+04  0.12272873146E+04  0.00000000000E+00 0. -1.
          6    2    1    2  502    0 -0.40163877981E+02  0.27631390462E+03 -0.17767526705E+03  0.37289190834E+03  0.17180618093E+03 0.  0.
         24    2    3    3    0    0 -0.11049688719E+02  0.28146083812E+03 -0.14033083197E+03  0.32502935751E+03  0.81296013586E+02 0.  0.
         -6    2    1    2    0  501  0.40163877981E+02 -0.27631390462E+03 -0.92346491952E+03  0.98054253437E+03  0.17525322579E+03 0.  0.
        -24    2    5    5    0    0 -0.20809162758E+02 -0.24823503245E+03 -0.80434730345E+03  0.84373160200E+03  0.53430132421E+02 0.  0.
          5    1    3    3  502    0 -0.29114189262E+02 -0.51469334983E+01 -0.37344435080E+02  0.47862550834E+02  0.47000000000E+01 0. -1.
        -11    1    4    4    0    0  0.53110083780E+01  0.11090927853E+03 -0.99042797410E+02  0.14879029066E+03  0.00000000000E+00 0.  1.
         12    1    4    4    0    0 -0.16360697097E+02  0.17055155959E+03 -0.41288034557E+02  0.17623906685E+03  0.00000000000E+00 0. -1.
         -5    1    5    5    0  501  0.60973040739E+02 -0.28078872173E+02 -0.11911761607E+03  0.13681093237E+03  0.47000000000E+01 0.  1.
         11    1    6    6    0    0  0.82874012620E+01 -0.50961432578E+02 -0.23092431522E+03  0.23662583965E+03  0.00000000000E+00 0. -1.
        -12    1    6    6    0    0 -0.29096564020E+02 -0.19727359987E+03 -0.57342298823E+03  0.60710576235E+03  0.00000000000E+00 0.  1.
</event>
<event>
12    1  0.9656379E-001  0.6614296E+03  0.7818608E-02  0.9785566E-01
         -2   -1    0    0    0  501 -0.00000000000E+00  0.00000000000E+00  0.11254782556E+04  0.11254782556E+04  0.00000000000E+00 0.  1.
          2   -1    0    0  502    0  0.00000000000E+00 -0.00000000000E+00 -0.58619842268E+03  0.58619842268E+03  0.00000000000E+00 0. -1.
          6    2    1    2  502    0  0.13184595589E+03 -0.62516792856E+03  0.76634851632E+03  0.10122194950E+04  0.17052848004E+03 0.  0.
         24    2    3    3    0    0  0.10124017095E+03 -0.55459009862E+03  0.73231791069E+03  0.92796917584E+03  0.83770634983E+02 0.  0.
         -6    2    1    2    0  501 -0.13184595589E+03  0.62516792856E+03 -0.22706868342E+03  0.69945718331E+03  0.17164460172E+03 0.  0.
        -24    2    5    5    0    0 -0.66831251162E+02  0.35267332622E+03 -0.58059585089E+02  0.37224718124E+03  0.79700422567E+02 0.  0.
          5    1    3    3  502    0  0.30605784933E+02 -0.70577829943E+02  0.34030605626E+02  0.84250319110E+02  0.47000000000E+01 0. -1.
        -13    1    4    4    0    0  0.68882778750E+01 -0.26496052814E+03  0.32613560063E+03  0.42025701641E+03  0.00000000000E+00 0.  1.
         14    1    4    4    0    0  0.94351893079E+02 -0.28962957048E+03  0.40618231006E+03  0.50771215943E+03  0.00000000000E+00 0. -1.
         -5    1    5    5    0  501 -0.65014704726E+02  0.27249460234E+03 -0.16900909833E+03  0.32721000207E+03  0.47000000000E+01 0.  1.
         11    1    6    6    0    0 -0.61985224332E+02  0.15730197303E+03 -0.51352189547E+02  0.17670066816E+03  0.00000000000E+00 0. -1.
        -12    1    6    6    0    0 -0.48460268296E+01  0.19537135319E+03 -0.67073955421E+01  0.19554651308E+03  0.00000000000E+00 0.  1.
</event>
<event>
12    1  0.9656379E-001  0.3678614E+03  0.7818608E-02  0.1055514E+00
         -2   -1    0    0    0  501 -0.00000000000E+00  0.00000000000E+00  0.95765981324E+02  0.95765981324E+02  0.00000000000E+00 0.  1.
          2   -1    0    0  502    0  0.00000000000E+00 -0.00000000000E+00 -0.14240303258E+04  0.14240303258E+04  0.00000000000E+00 0. -1.
          6    2    1    2  502    0  0.31733422119E+03  0.70050029315E+02 -0.59620168186E+03  0.70020046656E+03  0.17092756761E+03 0.  0.
         24    2    3    3    0    0  0.31550515601E+03  0.40040621664E+02 -0.57836449915E+03  0.66492774177E+03  0.80477655599E+02 0.  0.
         -6    2    1    2    0  501 -0.31733422119E+03 -0.70050029315E+02 -0.73206266258E+03  0.81959584053E+03  0.17382055494E+03 0.  0.
        -24    2    5    5    0    0 -0.17544995982E+03  0.23064076334E+02 -0.45213276293E+03  0.49220582997E+03  0.80795443695E+02 0.  0.
          5    1    3    3  502    0  0.18290651837E+01  0.30009407651E+02 -0.17837182717E+02  0.35272724792E+02  0.47000000000E+01 0. -1.
        -11    1    4    4    0    0  0.25579291931E+03  0.53133432439E+02 -0.41374264400E+03  0.48932213794E+03  0.00000000000E+00 0.  1.
         12    1    4    4    0    0  0.59712236702E+02 -0.13092810774E+02 -0.16462185515E+03  0.17560560383E+03  0.00000000000E+00 0. -1.
         -5    1    5    5    0  501 -0.14188426137E+03 -0.93114105649E+02 -0.27992989965E+03  0.32739001056E+03  0.47000000000E+01 0.  1.
         13    1    6    6    0    0 -0.58415182559E+02 -0.13740112127E+02 -0.23769131572E+03  0.24514951724E+03  0.00000000000E+00 0. -1.
        -14    1    6    6    0    0 -0.11703477726E+03  0.36804188461E+02 -0.21444144721E+03  0.24705631273E+03  0.00000000000E+00 0.  1.
</event>
<event>
12    1  0.9656379E-001  0.4135814E+03  0.7818608E-02  0.1039176E+00
          2   -1    0    0  502    0  0.00000000000E+00  0.00000000000E+00  0.10611555380E+04  0.10611555380E+04  0.00000000000E+00 0. -1.
         -2   -1    0    0    0  501 -0.00000000000E+00 -0.00000000000E+00 -0.16782968768E+03  0.16782968768E+03  0.00000000000E+00 0.  1.
          6    2    1    2  502    0 -0.98175423156E+02  0.36278225647E+03  0.32455304707E+03  0.52579637248E+03  0.17285186035E+03 0.  0.
         24    2    3    3    0    0 -0.23964132937E+02  0.19833339128E+03  0.10016902664E+03  0.23783626503E+03  0.81374696926E+02 0.  0.
         -6    2    1    2    0  501  0.98175423156E+02 -0.36278225647E+03  0.56877280326E+03  0.70318885322E+03  0.17240267471E+03 0.  0.
        -24    2    5    5    0    0  0.13079438945E+03 -0.23893374128E+03  0.36529429536E+03  0.46271422909E+03  0.80424066929E+02 0.  0.
          5    1    3    3  502    0 -0.74211290219E+02  0.16444886518E+03  0.22438402043E+03  0.28796010745E+03  0.47000000000E+01 0. -1.
        -13    1    4    4    0    0 -0.17627024831E+02  0.15740240396E+03  0.11289890880E+03  0.19450550734E+03  0.00000000000E+00 0.  1.
         14    1    4    4    0    0 -0.63371081060E+01  0.40930987325E+02 -0.12729882157E+02  0.43330757693E+02  0.00000000000E+00 0. -1.
         -5    1    5    5    0  501 -0.32618966296E+02 -0.12384851518E+03  0.20347850790E+03  0.24047462413E+03  0.47000000000E+01 0.  1.
         13    1    6    6    0    0  0.28923820692E+01 -0.61198491890E+02  0.11384914174E+03  0.12928746404E+03  0.00000000000E+00 0. -1.
        -14    1    6    6    0    0  0.12790200738E+03 -0.17773524939E+03  0.25144515363E+03  0.33342676505E+03  0.00000000000E+00 0.  1.
</event>
<event>
12    1  0.9656379E-001  0.6418265E+03  0.7818608E-02  0.9822238E-01
         -2   -1    0    0    0  501 -0.00000000000E+00  0.00000000000E+00  0.49900705049E+03  0.49900705049E+03  0.00000000000E+00 0.  1.
          2   -1    0    0  502    0  0.00000000000E+00 -0.00000000000E+00 -0.10743468721E+04  0.10743468721E+04  0.00000000000E+00 0. -1.
          6    2    1    2  502    0  0.41096142167E+03 -0.46222366187E+03 -0.66635827283E+03  0.92538406798E+03  0.17251759852E+03 0.  0.
         24    2    3    3    0    0  0.21124373347E+03 -0.33312569806E+03 -0.38400955045E+03  0.55620073917E+03  0.79368014820E+02 0.  0.
         -6    2    1    2    0  501 -0.41096142167E+03  0.46222366187E+03  0.91018451260E+02  0.64796985458E+03  0.17041294047E+03 0.  0.
        -24    2    5    5    0    0 -0.15316043589E+03  0.17464150988E+03  0.87844657556E+02  0.26170957267E+03  0.82567793183E+02 0.  0.
          5    1    3    3  502    0  0.19971768820E+03 -0.12909796382E+03 -0.28234872238E+03  0.36918332881E+03  0.47000000000E+01 0. -1.
        -11    1    4    4    0    0  0.61075961674E+02 -0.56620022052E+02 -0.49150832403E+02  0.96705244519E+02  0.00000000000E+00 0.  1.
         12    1    4    4    0    0  0.15016777180E+03 -0.27650567600E+03 -0.33485871805E+03  0.45949549465E+03  0.00000000000E+00 0. -1.
         -5    1    5    5    0  501 -0.25780098578E+03  0.28758215199E+03  0.31737937044E+01  0.38626028191E+03  0.47000000000E+01 0.  1.
         13    1    6    6    0    0 -0.58110952587E+02  0.39283776061E+02 -0.79201548603E+01  0.70589140278E+02  0.00000000000E+00 0. -1.
        -14    1    6    6    0    0 -0.95049483301E+02  0.13535773382E+03  0.95764812416E+02  0.19112043239E+03  0.00000000000E+00 0.  1.
</event>
<event>
12    1  0.9656379E-001  0.1580338E+04  0.7818608E-02  0.8832719E-01
          2   -1    0    0  502    0  0.00000000000E+00  0.00000000000E+00  0.21419540665E+04  0.21419540665E+04  0.00000000000E+00 0. -1.
         -2   -1    0    0    0  501 -0.00000000000E+00 -0.00000000000E+00 -0.11923844850E+04  0.11923844850E+04  0.00000000000E+00 0.  1.
          6    2    1    2  502    0  0.11924414804E+04 -0.10226800799E+04  0.72288482379E+03  0.17378097359E+04  0.17213070540E+03 0.  0.
         24    2    3    3    0    0  0.32864014368E+03 -0.31420428366E+03  0.17579901233E+03  0.49385809767E+03  0.79131864551E+02 0.  0.
         -6    2    1    2    0  501 -0.11924414804E+04  0.10226800799E+04  0.22668475766E+03  0.15965288155E+04  0.17241533943E+03 0.  0.
        -24    2    5    5    0    0 -0.72861920606E+03  0.54474449238E+03  0.10661948252E+03  0.91977827924E+03  0.83617339670E+02 0.  0.
          5    1    3    3  502    0  0.86380133675E+03 -0.70847579626E+03  0.54708581146E+03  0.12439516383E+04  0.47000000000E+01 0. -1.
        -13    1    4    4    0    0  0.20125598169E+03 -0.17939762921E+03  0.14409304191E+03  0.30569639229E+03  0.00000000000E+00 0.  1.
         14    1    4    4    0    0  0.12738416200E+03 -0.13480665445E+03  0.31705970414E+02  0.18816170538E+03  0.00000000000E+00 0. -1.
         -5    1    5    5    0  501 -0.46382227437E+03  0.47793558754E+03  0.12006527514E+03  0.67675053626E+03  0.47000000000E+01 0.  1.
         11    1    6    6    0    0 -0.60336051106E+03  0.47868444408E+03  0.69075335542E+02  0.77327492219E+03  0.00000000000E+00 0. -1.
        -12    1    6    6    0    0 -0.12525869500E+03  0.66060048302E+02  0.37544146979E+02  0.14650335705E+03  0.00000000000E+00 0.  1.
</event>
<event>
12    1  0.9656379E-001  0.2316860E+03  0.7818608E-02  0.1125459E+00
          2   -1    0    0  502    0  0.00000000000E+00  0.00000000000E+00  0.22627387117E+03  0.22627387117E+03  0.00000000000E+00 0. -1.
         -2   -1    0    0    0  501 -0.00000000000E+00 -0.00000000000E+00 -0.24457030298E+03  0.24457030298E+03  0.00000000000E+00 0.  1.
          6    2    1    2  502    0  0.68465958631E+02  0.14012929801E+03  0.31669024724E+02  0.23289496299E+03  0.17003919845E+03 0.  0.
         24    2    3    3    0    0  0.36982805242E+02  0.45602900861E+01 -0.88642108655E+01  0.87859870538E+02  0.79071224142E+02 0.  0.
         -6    2    1    2    0  501 -0.68465958631E+02 -0.14012929801E+03 -0.49965456537E+02  0.23794921115E+03  0.17262523741E+03 0.  0.
        -24    2    5    5    0    0 -0.36707770182E+02 -0.14911178856E+03 -0.82545505864E+02  0.19133572293E+03  0.78827739100E+02 0.  0.
          5    1    3    3  502    0  0.31483153388E+02  0.13556900792E+03  0.40533235589E+02  0.14503509245E+03  0.47000000000E+01 0. -1.
        -13    1    4    4    0    0  0.49009596467E+02  0.25416639508E+02 -0.23149490770E+02  0.59865223900E+02  0.00000000000E+00 0.  1.
         14    1    4    4    0    0 -0.12026791224E+02 -0.20856349422E+02  0.14285279905E+02  0.27994646637E+02  0.00000000000E+00 0. -1.
         -5    1    5    5    0  501 -0.31758188448E+02  0.89824905569E+01  0.32580049327E+02  0.46613488223E+02  0.47000000000E+01 0.  1.
         11    1    6    6    0    0 -0.24042750089E+02 -0.10601900996E+03 -0.14316270491E+02  0.10964962337E+03  0.00000000000E+00 0. -1.
        -12    1    6    6    0    0 -0.12665020093E+02 -0.43092778600E+02 -0.68229235373E+02  0.81686099558E+02  0.00000000000E+00 0.  1.
</event>
<event>
12    1  0.9656379E-001  0.8744538E+03  0.7818608E-02  0.9458091E-01
         -1   -1    0    0    0  501 -0.00000000000E+00  0.00000000000E+00  0.76360930303E+03  0.76360930303E+03  0.00000000000E+00 0.  1.
          1   -1    0    0  502    0  0.00000000000E+00 -0.00000000000E+00 -0.12648275737E+04  0.12648275737E+04  0.00000000000E+00 0. -1.
          6    2    1    2  502    0 -0.77094594848E+03  0.37527838629E+03 -0.71349620781E+03  0.11286728511E+04  0.17214541363E+03 0.  0.
         24    2    3    3    0    0 -0.61700640382E+03  0.36251295791E+03 -0.58894706718E+03  0.93019132040E+03  0.79276084763E+02 0.  0.
         -6    2    1    2    0  501  0.77094594848E+03 -0.37527838629E+03  0.21227793711E+03  0.89976402572E+03  0.17123625987E+03 0.  0.
        -24    2    5    5    0    0  0.67806489718E+03 -0.34898252989E+03  0.14096247734E+03  0.77965429857E+03  0.80184751000E+02 0.  0.
          5    1    3    3  502    0 -0.15393954467E+03  0.12765428378E+02 -0.12454914064E+03  0.19848153065E+03  0.47000000000E+01 0. -1.
        -13    1    4    4    0    0 -0.53238905599E+02  0.31586932033E+02 -0.24734311326E+02  0.66662594469E+02  0.00000000000E+00 0.  1.
         14    1    4    4    0    0 -0.56376749822E+03  0.33092602588E+03 -0.56421275585E+03  0.86352872594E+03  0.00000000000E+00 0. -1.
         -5    1    5    5    0  501  0.92881051299E+02 -0.26295856400E+02  0.71315459774E+02  0.12010972715E+03  0.47000000000E+01 0.  1.
         13    1    6    6    0    0  0.51768517687E+03 -0.22752588738E+03  0.97246657145E+02  0.57377947341E+03  0.00000000000E+00 0. -1.
        -14    1    6    6    0    0  0.16037972031E+03 -0.12145664251E+03  0.43715820194E+02  0.20587482516E+03  0.00000000000E+00 0.  1.
</event>
<event>
12    1  0.9656379E-001  0.2954356E+03  0.7818608E-02  0.1087545E+00
          2   -1    0    0  502    0  0.00000000000E+00  0.00000000000E+00  0.50522168721E+03  0.50522168721E+03  0.00000000000E+00 0. -1.
         -2   -1    0    0    0  501 -0.00000000000E+00 -0.00000000000E+00 -0.18278807418E+03  0.18278807418E+03  0.00000000000E+00 0.  1.
          6    2    1    2  502    0 -0.23011296222E+03  0.70374606078E+02  0.81251127732E+02  0.30752337645E+03  0.17339065933E+03 0.  0.
         24    2    3    3    0    0 -0.86778557871E+02  0.94133127777E+01 -0.21561910371E+02  0.12083207629E+03  0.80723888149E+02 0.  0.
         -6    2    1    2    0  501  0.23011296222E+03 -0.70374606078E+02  0.24118248530E+03  0.38048638495E+03  0.16939993315E+03 0.  0.
        -24    2    5    5    0    0  0.14963265884E+03 -0.10725878754E+03  0.19787308094E+03  0.28181867706E+03  0.79835020386E+02 0.  0.
          5    1    3    3  502    0 -0.14333440435E+03  0.60961293300E+02  0.10281303810E+03  0.18669130016E+03  0.47000000000E+01 0. -1.
        -13    1    4    4    0    0 -0.32246953853E+02 -0.21301164397E+02  0.22100741496E+02  0.44520202292E+02  0.00000000000E+00 0.  1.
         14    1    4    4    0    0 -0.54531604018E+02  0.30714477175E+02 -0.43662651867E+02  0.76311873997E+02  0.00000000000E+00 0. -1.
         -5    1    5    5    0  501  0.80480303378E+02  0.36884181465E+02  0.43309404362E+02  0.98667707890E+02  0.47000000000E+01 0.  1.
         11    1    6    6    0    0  0.11456917959E+03 -0.34796264180E+02  0.12730378974E+03  0.17476593431E+03  0.00000000000E+00 0. -1.
        -12    1    6    6    0    0  0.35063479254E+02 -0.72462523364E+02  0.70569291201E+02  0.10705274275E+03  0.00000000000E+00 0.  1.
</event>
<event>
12    1  0.9656379E-001  0.3875994E+03  0.7818608E-02  0.1048160E+00
         -4   -1    0    0    0  501 -0.00000000000E+00  0.00000000000E+00  0.80913276184E+03  0.80913276184E+03  0.00000000000E+00 0.  1.
          4   -1    0    0  502    0  0.00000000000E+00 -0.00000000000E+00 -0.20914038674E+03  0.20914038674E+03  0.00000000000E+00 0. -1.
          6    2    1    2  502    0 -0.20922227305E+03  0.27715241413E+03  0.47055174788E+03  0.60963615998E+03  0.17219140489E+03 0.  0.
         24    2    3    3    0    0 -0.11210233315E+03  0.74737216941E+02  0.24688157322E+03  0.29269037311E+03  0.81021963823E+02 0.  0.
         -6    2    1    2    0  501  0.20922227305E+03 -0.27715241413E+03  0.12944062722E+03  0.40863698861E+03  0.17216820928E+03 0.  0.
        -24    2    5    5    0    0  0.38098437127E+02 -0.60341700845E+02  0.85589595458E+01  0.10709972691E+03  0.79400780491E+02 0.  0.
          5    1    3    3  502    0 -0.97119939894E+02  0.20241519719E+03  0.22367017467E+03  0.31694578687E+03  0.47000000000E+01 0. -1.
        -13    1    4    4    0    0 -0.92592002162E+02  0.88174315980E+02  0.23144797359E+03  0.26441662834E+03  0.00000000000E+00 0.  1.
         14    1    4    4    0    0 -0.19510330991E+02 -0.13437099038E+02  0.15433599630E+02  0.28273744773E+02  0.00000000000E+00 0. -1.
         -5    1    5    5    0  501  0.17112383592E+03 -0.21681071329E+03  0.12088166767E+03  0.30153726170E+03  0.47000000000E+01 0.  1.
         13    1    6    6    0    0  0.56727472719E+02 -0.65299194965E+02  0.12576905535E+02  0.87408063569E+02  0.00000000000E+00 0. -1.
        -14    1    6    6    0    0 -0.18629035591E+02  0.49574941197E+01 -0.40179459889E+01  0.19691663337E+02  0.00000000000E+00 0.  1.
</event>
<event>
12    1  0.9656379E-001  0.5885424E+03  0.7818608E-02  0.9929466E-01
         -1   -1    0    0    0  501 -0.00000000000E+00  0.00000000000E+00  0.62325205231E+03  0.62325205231E+03  0.00000000000E+00 0.  1.
          1   -1    0    0  502    0  0.00000000000E+00 -0.00000000000E+00 -0.16130859593E+04  0.16130859593E+04  0.00000000000E+00 0. -1.
          6    2    1    2  502    0  0.12536469411E+03 -0.54867742851E+03  0.41040364836E+03  0.71738418664E+03  0.17159746376E+03 0.  0.
         24    2    3    3    0    0  0.22875565993E+02 -0.31952225118E+03  0.17605911235E+03  0.37393758492E+03  0.78833659390E+02 0.  0.
         -6    2    1    2    0  501 -0.12536469411E+03  0.54867742851E+03 -0.14002375554E+04  0.15189538250E+04  0.17260441460E+03 0.  0.
        -24    2    5    5    0    0 -0.10505318705E+03  0.54722335648E+03 -0.13772039813E+04  0.14878522627E+04  0.80771130236E+02 0.  0.
          5    1    3    3  502    0  0.10248912811E+03 -0.22915517733E+03  0.23434453600E+03  0.34344660172E+03  0.47000000000E+01 0. -1.
        -13    1    4    4    0    0  0.24724372288E+02 -0.78353564384E+02  0.78948314529E+02  0.11394477611E+03  0.00000000000E+00 0.  1.
         14    1    4    4    0    0 -0.18488062946E+01 -0.24116868680E+03  0.97110797826E+02  0.25999280880E+03  0.00000000000E+00 0. -1.
         -5    1    5    5    0  501 -0.20311507056E+02  0.14540720306E+01 -0.23033574079E+02  0.31101562327E+02  0.47000000000E+01 0.  1.
         11    1    6    6    0    0 -0.82523804081E+02  0.34664520628E+03 -0.96977529220E+03  0.10331685219E+04  0.00000000000E+00 0. -1.
        -12    1    6    6    0    0 -0.22529382970E+02  0.20057815020E+03 -0.40742868909E+03  0.45468374078E+03  0.00000000000E+00 0.  1.
</event>
<event>
12    1  0.9656379E-001  0.2047348E+03  0.7818608E-02  0.1145805E+00
          2   -1    0    0  502    0  0.00000000000E+00  0.00000000000E+00  0.10983128058E+04  0.10983128058E+04  0.00000000000E+00 0. -1.
         -2   -1    0    0    0  501 -0.00000000000E+00 -0.00000000000E+00 -0.17403231164E+03  0.17403231164E+03  0.00000000000E+00 0.  1.
          6    2    1    2  502    0 -0.10750952935E+03 -0.16136621456E+02 -0.99909908687E+02  0.22791425245E+03  0.17362092950E+03 0.  0.
         24    2    3    3    0    0 -0.11859805032E+03  0.25779018661E+02 -0.11528581629E+03  0.18167158040E+03  0.70595243062E+02 0.  0.
         -6    2    1    2    0  501  0.10750952935E+03  0.16136621456E+02  0.10241904029E+04  0.10444308650E+04  0.17335270697E+03 0.  0.
        -24    2    5    5    0    0  0.14193213661E+03  0.35289488352E+02  0.81758726980E+03  0.83405336433E+03  0.76197056509E+02 0.  0.
          5    1    3    3  502    0  0.11088520973E+02 -0.41915640117E+02  0.15375907600E+02  0.46242672050E+02  0.47000000000E+01 0. -1.
        -11    1    4    4    0    0 -0.39152868026E+02  0.24295987840E+02 -0.84904627038E+02  0.96602473014E+02  0.00000000000E+00 0.  1.
         12    1    4    4    0    0 -0.79445182297E+02  0.14830308211E+01 -0.30381189248E+02  0.85069107382E+02  0.00000000000E+00 0. -1.
         -5    1    5    5    0  501 -0.34422607255E+02 -0.19152866896E+02  0.20660313308E+03  0.21037750070E+03  0.47000000000E+01 0.  1.
         13    1    6    6    0    0  0.79294282313E+02  0.12505664718E+02  0.62760914886E+03  0.63272207057E+03  0.00000000000E+00 0. -1.
        -14    1    6    6    0    0  0.62637854292E+02  0.22783823633E+02  0.18997812094E+03  0.20133129376E+03  0.00000000000E+00 0.  1.
</event>
<event>
12    1  0.9656379E-001  0.2403011E+03  0.7818608E-02  0.1119592E+00
         -2   -1    0    0    0  501 -0.00000000000E+00  0.00000000000E+00  0.12796346794E+03  0.12796346794E+03  0.00000000000E+00 0.  1.
          2   -1    0    0  502    0  0.00000000000E+00 -0.00000000000E+00 -0.14898478636E+04  0.14898478636E+04  0.00000000000E+00 0. -1.
          6    2    1    2  502    0  0.16052468143E+03  0.50146386244E+02 -0.52287861925E+01  0.23997030871E+03  0.17110106796E+03 0.  0.
         24    2    3    3    0    0  0.92346599321E+02  0.20773061931E+02 -0.69013000267E+02  0.14198276345E+03  0.80230271115E+02 0.  0.
         -6    2    1    2    0  501 -0.16052468143E+03 -0.50146386244E+02 -0.13566556095E+04  0.13778410229E+04  0.17218771180E+03 0.  0.
        -24    2    5    5    0    0 -0.15322420080E+03 -0.26376028704E+02 -0.71580117046E+03  0.73648711982E+03  0.76606862778E+02 0.  0.
          5    1    3    3  502    0  0.68178082113E+02  0.29373324313E+02  0.63784214074E+02  0.97987545264E+02  0.47000000000E+01 0. -1.
        -11    1    4    4    0    0  0.95175035455E+02  0.43346058923E+01 -0.30538823886E+02  0.10004846799E+03  0.00000000000E+00 0.  1.
         12    1    4    4    0    0 -0.28284361340E+01  0.16438456038E+02 -0.38474176381E+02  0.41934295464E+02  0.00000000000E+00 0. -1.
         -5    1    5    5    0  501 -0.73004806359E+01 -0.23770357541E+02 -0.64085443905E+03  0.64135390305E+03  0.47000000000E+01 0.  1.
         13    1    6    6    0    0 -0.26579586265E+02 -0.33637471285E+01 -0.37538603775E+02  0.46118716094E+02  0.00000000000E+00 0. -1.
        -14    1    6    6    0    0 -0.12664461453E+03 -0.23012281575E+02 -0.67826256669E+03  0.69036840373E+03  0.00000000000E+00 0.  1.
</event>
<event>
12    1  0.9656379E-001  0.8138205E+03  0.7818608E-02  0.9540225E-01
          2   -1    0    0  502    0  0.00000000000E+00  0.00000000000E+00  0.27321475792E+04  0.27321475792E+04  0.00000000000E+00 0. -1.
         -2   -1    0    0    0  501 -0.00000000000E+00 -0.00000000000E+00 -0.18254004361E+04  0.18254004361E+04  0.00000000000E+00 0.  1.
          6    2    1    2  502    0  0.76107997762E+03  0.23131241506E+03 -0.16686960139E+04  0.18566131205E+04  0.17238830188E+03 0.  0.
         24    2    3    3    0    0  0.74223972961E+03  0.19899462345E+03 -0.16229505591E+04  0.17973330122E+04  0.76933498504E+02 0.  0.
         -6    2    1    2    0  501 -0.76107997762E+03 -0.23131241506E+03  0.25754431570E+04  0.27009348948E+04  0.17144586587E+03 0.  0.
        -24    2    5    5    0    0 -0.18226338849E+03 -0.81982962671E+02  0.73186871980E+03  0.76286453359E+03  0.79933251177E+02 0.  0.
          5    1    3    3  502    0  0.18840248014E+02  0.32317791612E+02 -0.45745454845E+02  0.59280108290E+02  0.47000000000E+01 0. -1.
        -13    1    4    4    0    0  0.36878888199E+03  0.98130744254E+02 -0.71652263854E+03  0.81181252392E+03  0.00000000000E+00 0.  1.
         14    1    4    4    0    0  0.37345084762E+03  0.10086387920E+03 -0.90642792052E+03  0.98552048828E+03  0.00000000000E+00 0. -1.
         -5    1    5    5    0  501 -0.57881658913E+03 -0.14932945239E+03  0.18435744372E+04  0.19380703612E+04  0.47000000000E+01 0.  1.
         13    1    6    6    0    0 -0.89291002104E+02  0.28012511911E+01  0.29341724171E+03  0.30671551607E+03  0.00000000000E+00 0. -1.
        -14    1    6    6    0    0 -0.92972386382E+02 -0.84784213862E+02  0.43845147808E+03  0.45614901752E+03  0.00000000000E+00 0.  1.
</event>
<event>
12    1  0.9656379E-001  0.3234429E+03  0.7818608E-02  0.1074076E+00
          1   -1    0    0  502    0  0.00000000000E+00  0.00000000000E+00  0.89193030006E+03  0.89193030006E+03  0.00000000000E+00 0. -1.
         -1   -1    0    0    0  501 -0.00000000000E+00 -0.00000000000E+00 -0.13130668242E+03  0.13130668242E+03  0.00000000000E+00 0.  1.
          6    2    1    2  502    0  0.26494449359E+03 -0.67180479130E+02  0.21274195576E+03  0.38680302552E+03  0.17218780255E+03 0.  0.
         24    2    3    3    0    0  0.23391073573E+03 -0.11024243228E+02  0.13750235205E+03  0.28780956652E+03  0.95350320040E+02 0.  0.
         -6    2    1    2    0  501 -0.26494449359E+03  0.67180479130E+02  0.54788166188E+03  0.63643395696E+03  0.17368092783E+03 0.  0.
        -24    2    5    5    0    0 -0.27879751792E+03  0.72573364088E+02  0.47086719076E+03  0.55785719034E+03  0.80584020173E+02 0.  0.
          5    1    3    3  502    0  0.31033757862E+02 -0.56156235902E+02  0.75239603714E+02  0.98993459000E+02  0.47000000000E+01 0. -1.
        -11    1    4    4    0    0  0.14046408547E+03  0.22892372564E+02  0.38327844698E+02  0.14738807180E+03  0.00000000000E+00 0.  1.
         12    1    4    4    0    0  0.93446650259E+02 -0.33916615791E+02  0.99174507352E+02  0.14042149472E+03  0.00000000000E+00 0. -1.
         -5    1    5    5    0  501  0.13853024327E+02 -0.53928849584E+01  0.77014471116E+02  0.78576766620E+02  0.47000000000E+01 0.  1.
         13    1    6    6    0    0 -0.12675227633E+03  0.73668866833E+02  0.24714066783E+03  0.28735300797E+03  0.00000000000E+00 0. -1.
        -14    1    6    6    0    0 -0.15204524159E+03 -0.10955027452E+01  0.22372652293E+03  0.27050418237E+03  0.00000000000E+00 0.  1.
</event>
<event>
12    1  0.9656379E-001  0.3102797E+03  0.7818608E-02  0.1080212E+00
         -3   -1    0    0    0  501 -0.00000000000E+00  0.00000000000E+00  0.97092084103E+03  0.97092084103E+03  0.00000000000E+00 0.  1.
          3   -1    0    0  502    0  0.00000000000E+00 -0.00000000000E+00 -0.32908665765E+03  0.32908665765E+03  0.00000000000E+00 0. -1.
          6    2    1    2  502    0 -0.22137875088E+03  0.13400816021E+03  0.86425688178E+03  0.91828441032E+03  0.17128795109E+03 0.  0.
         24    2    3    3    0    0 -0.18623509323E+03  0.13645868712E+03  0.57828373731E+03  0.63011117924E+03  0.96558449240E+02 0.  0.
         -6    2    1    2    0  501  0.22137875088E+03 -0.13400816021E+03 -0.22242269840E+03  0.38172308836E+03  0.17109623339E+03 0.  0.
        -24    2    5    5    0    0  0.10663183309E+03 -0.12707793127E+03 -0.18421440454E+03  0.26049253555E+03  0.80014159946E+02 0.  0.
          5    1    3    3  502    0 -0.35143657650E+02 -0.24505269187E+01  0.28597314447E+03  0.28817323108E+03  0.47000000000E+01 0. -1.
        -11    1    4    4    0    0 -0.65139951700E+02 -0.32866560411E+01  0.14234726569E+03  0.15657828542E+03  0.00000000000E+00 0.  1.
         12    1    4    4    0    0 -0.12109514153E+03  0.13974534317E+03  0.43593647162E+03  0.47353289382E+03  0.00000000000E+00 0. -1.
         -5    1    5    5    0  501  0.11474691779E+03 -0.69302289364E+01 -0.38208293857E+02  0.12123055281E+03  0.47000000000E+01 0.  1.
         11    1    6    6    0    0  0.63233802168E+02 -0.40763240727E+02 -0.12867586599E+03  0.14905580841E+03  0.00000000000E+00 0. -1.
        -12    1    6    6    0    0  0.43398030922E+02 -0.86314690542E+02 -0.55538538544E+02  0.11143672714E+03  0.00000000000E+00 0.  1.
</event>
<event>
12    1  0.9656379E-001  0.5674424E+03  0.7818608E-02  0.9975354E-01
         -2   -1    0    0    0  501 -0.00000000000E+00  0.00000000000E+00  0.45123039878E+03  0.45123039878E+03  0.00000000000E+00 0.  1.
          2   -1    0    0  502    0  0.00000000000E+00 -0.00000000000E+00 -0.98283045541E+03  0.98283045541E+03  0.00000000000E+00 0. -1.
          6    2    1    2  502    0 -0.13257794849E+03  0.52419527978E+03  0.10954402349E+03  0.57777864466E+03  0.17167022272E+03 0.  0.
         24    2    3    3    0    0 -0.15062645218E+03  0.45004956627E+03  0.56130157534E+02  0.48451307549E+03  0.79808430206E+02 0.  0.
         -6    2    1    2    0  501  0.13257794849E+03 -0.52419527978E+03 -0.64114408012E+03  0.85628220954E+03  0.17261485201E+03 0.  0.
        -24    2    5    5    0    0  0.44741088234E+02 -0.16626563863E+03 -0.14697800766E+03  0.23979933127E+03  0.79089550356E+02 0.  0.
          5    1    3    3  502    0  0.18048503691E+02  0.74145713509E+02  0.53413865952E+02  0.93265569173E+02  0.47000000000E+01 0. -1.
        -13    1    4    4    0    0 -0.10565874189E+03  0.26140163899E+03  0.68619803432E+02  0.29017798681E+03  0.00000000000E+00 0.  1.
         14    1    4    4    0    0 -0.44967710295E+02  0.18864792728E+03 -0.12489645898E+02  0.19433508868E+03  0.00000000000E+00 0. -1.
         -5    1    5    5    0  501  0.87836860255E+02 -0.35792964115E+03 -0.49416607246E+03  0.61648287827E+03  0.47000000000E+01 0.  1.
         11    1    6    6    0    0 -0.33921744060E+01 -0.12770408845E+03 -0.10174054000E+03  0.16331251799E+03  0.00000000000E+00 0. -1.
        -12    1    6    6    0    0  0.48133262640E+02 -0.38561550183E+02 -0.45237467664E+02  0.76486813278E+02  0.00000000000E+00 0.  1.
</event>
<event>
12    1  0.9656379E-001  0.1909640E+03  0.7818608E-02  0.1157595E+00
         -1   -1    0    0    0  501 -0.00000000000E+00  0.00000000000E+00  0.25490428179E+03  0.25490428179E+03  0.00000000000E+00 0.  1.
          1   -1    0    0  502    0  0.00000000000E+00 -0.00000000000E+00 -0.82561567126E+03  0.82561567126E+03  0.00000000000E+00 0. -1.
          6    2    1    2  502    0  0.23951856556E+02 -0.80702109852E+02  0.20614164377E+03  0.28028664343E+03  0.17023425984E+03 0.  0.
         24    2    3    3    0    0 -0.32171541357E+02 -0.13388721702E+02  0.15502134368E+03  0.17871743994E+03  0.81817115566E+02 0.  0.
         -6    2    1    2    0  501 -0.23951856556E+02  0.80702109852E+02 -0.77685303324E+03  0.80023330961E+03  0.17258676831E+03 0.  0.
        -24    2    5    5    0    0 -0.17179158911E+02  0.75289379706E+02 -0.78121734181E+03  0.78944886386E+03  0.83458728156E+02 0.  0.
          5    1    3    3  502    0  0.56123397912E+02 -0.67313388150E+02  0.51120300091E+02  0.10156920350E+03  0.47000000000E+01 0. -1.
        -13    1    4    4    0    0  0.53199207080E+01  0.25604258666E+02  0.92099251974E+02  0.95740022104E+02  0.00000000000E+00 0.  1.
         14    1    4    4    0    0 -0.37491462065E+02 -0.38992980369E+02  0.62922091704E+02  0.82977417833E+02  0.00000000000E+00 0. -1.
         -5    1    5    5    0  501 -0.67726976446E+01  0.54127301466E+01  0.43643085678E+01  0.10784445758E+02  0.47000000000E+01 0.  1.
         13    1    6    6    0    0  0.20046519921E+02  0.73177572466E+02 -0.55888856876E+03  0.56401529444E+03  0.00000000000E+00 0. -1.
        -14    1    6    6    0    0 -0.37225678832E+02  0.21118072395E+01 -0.22232877305E+03  0.22543356942E+03  0.00000000000E+00 0.  1.
</event>
<event>
12    1  0.9656379E-001  0.4820099E+03  0.7818608E-02  0.1018584E+00
          2   -1    0    0  502    0  0.00000000000E+00  0.00000000000E+00  0.18355796316E+04  0.18355796316E+04  0.00000000000E+00 0. -1.
         -2   -1    0    0    0  501 -0.00000000000E+00 -0.00000000000E+00 -0.98747564201E+03  0.98747564201E+03  0.00000000000E+00 0.  1.
          6    2    1    2  502    0  0.42306413603E+03 -0.15752637645E+03 -0.89407095118E+03  0.10150487552E+04  0.16481288573E+03 0.  0.
         24    2    3    3    0    0  0.37833217793E+03 -0.17681308962E+03 -0.84410293977E+03  0.94510722577E+03  0.79497105371E+02 0.  0.
         -6    2    1    2    0  501 -0.42306413603E+03  0.15752637645E+03  0.17421749407E+04  0.18080065183E+04  0.17296307041E+03 0.  0.
        -24    2    5    5    0    0 -0.82828376973E+02  0.40445045243E+02  0.38948785143E+03  0.40827337896E+03  0.80560684235E+02 0.  0.
          5    1    3    3  502    0  0.44731958097E+02  0.19286713170E+02 -0.49968011413E+02  0.69941529470E+02  0.47000000000E+01 0. -1.
        -11    1    4    4    0    0  0.24624847391E+03 -0.79953322343E+02 -0.56495364789E+03  0.62145270851E+03  0.00000000000E+00 0.  1.
         12    1    4    4    0    0  0.13208370402E+03 -0.96859767274E+02 -0.27914929188E+03  0.32365451726E+03  0.00000000000E+00 0. -1.
         -5    1    5    5    0  501 -0.34023575906E+03  0.11708133120E+03  0.13526870893E+04  0.13997331394E+04  0.47000000000E+01 0.  1.
         13    1    6    6    0    0 -0.93165033229E+01 -0.23549336195E+00  0.20879289395E+03  0.20900077812E+03  0.00000000000E+00 0. -1.
        -14    1    6    6    0    0 -0.73511873650E+02  0.40680538605E+02  0.18069495747E+03  0.19927260084E+03  0.00000000000E+00 0.  1.
</event>
<event>
12    1  0.9656379E-001  0.4226174E+03  0.7818608E-02  0.1036218E+00
         -2   -1    0    0    0  501 -0.00000000000E+00  0.00000000000E+00  0.25490508749E+03  0.25490508749E+03  0.00000000000E+00 0.  1.
          2   -1    0    0  502    0  0.00000000000E+00 -0.00000000000E+00 -0.74294553570E+03  0.74294553570E+03  0.00000000000E+00 0. -1.
          6    2    1    2  502    0 -0.34994513696E+03 -0.16312777830E+03 -0.12510045284E+03  0.44090091540E+03  0.17225336853E+03 0.  0.
         24    2    3    3    0    0 -0.33485273364E+03 -0.15010090155E+03 -0.70494629445E+02  0.38257968338E+03  0.82104125850E+02 0.  0.
         -6    2    1    2    0  501  0.34994513696E+03  0.16312777830E+03 -0.36293999537E+03  0.55694970780E+03  0.17145047637E+03 0.  0.
        -24    2    5    5    0    0  0.67834351664E+02  0.39538942504E+02 -0.67377220972E+02  0.13005377303E+03  0.78800169632E+02 0.  0.
          5    1    3    3  502    0 -0.15092403316E+02 -0.13026876743E+02 -0.54605823397E+02  0.58321232021E+02  0.47000000000E+01 0. -1.
        -13    1    4    4    0    0 -0.14601748710E+03 -0.74740627545E+02  0.89834304540E+01  0.16428015695E+03  0.00000000000E+00 0.  1.
         14    1    4    4    0    0 -0.18883524654E+03 -0.75360274009E+02 -0.79478059900E+02  0.21829952643E+03  0.00000000000E+00 0. -1.
         -5    1    5    5    0  501  0.28211078529E+03  0.12358883579E+03 -0.29556277439E+03  0.42689593476E+03  0.47000000000E+01 0.  1.
         13    1    6    6    0    0  0.29370452867E+02  0.60619699298E+02 -0.39665199940E+02  0.78170963477E+02  0.00000000000E+00 0. -1.
        -14    1    6    6    0    0  0.38463898797E+02 -0.21080756795E+02 -0.27712021032E+02  0.51882809555E+02  0.00000000000E+00 0.  1.
</event>
<event>
12    1  0.9656379E-001  0.6480377E+03  0.7818608E-02  0.9810468E-01
         -2   -1    0    0    0  501 -0.00000000000E+00  0.00000000000E+00  0.13618223131E+04  0.13618223131E+04  0.00000000000E+00 0.  1.
          2   -1    0    0  502    0  0.00000000000E+00 -0.00000000000E+00 -0.88864901951E+03  0.88864901951E+03  0.00000000000E+00 0. -1.
          6    2    1    2  502    0  0.19986674778E+03  0.58848428853E+03 -0.67231719603E+03  0.93578030116E+03  0.19342669216E+03 0.  0.
         24    2    3    3    0    0  0.10358189654E+03  0.40012377419E+03 -0.35081807383E+03  0.55089820035E+03  0.97914566167E+02 0.  0.
         -6    2    1    2    0  501 -0.19986674778E+03 -0.58848428853E+03  0.11454904896E+04  0.13146910315E+04  0.17321539093E+03 0.  0.
        -24    2    5    5    0    0 -0.19646616896E+03 -0.37104358675E+03  0.77666541156E+03  0.88650176146E+03  0.80024450966E+02 0.  0.
          5    1    3    3  502    0  0.96284851232E+02  0.18836051434E+03 -0.32149912221E+03  0.38488210080E+03  0.47000000000E+01 0. -1.
        -11    1    4    4    0    0  0.80857285870E+02  0.18337758702E+03 -0.21590216677E+03  0.29458273153E+03  0.00000000000E+00 0.  1.
         12    1    4    4    0    0  0.22724610674E+02  0.21674618716E+03 -0.13491590706E+03  0.25631546882E+03  0.00000000000E+00 0. -1.
         -5    1    5    5    0  501 -0.34005788191E+01 -0.21744070178E+03  0.36882507808E+03  0.42818927000E+03  0.47000000000E+01 0.  1.
         11    1    6    6    0    0 -0.18417695522E+03 -0.35629865779E+03  0.76572009260E+03  0.86440565974E+03  0.00000000000E+00 0. -1.
        -12    1    6    6    0    0 -0.12289213735E+02 -0.14744928958E+02  0.10945318955E+02  0.22096101720E+02  0.00000000000E+00 0.  1.
</event>
<event>
12    1  0.9656379E-001  0.9717310E+03  0.7818608E-02  0.9340105E-01
         -2   -1    0    0    0  501 -0.00000000000E+00  0.00000000000E+00  0.53290992761E+03  0.53290992761E+03  0.00000000000E+00 0.  1.
          2   -1    0    0  502    0  0.00000000000E+00 -0.00000000000E+00 -0.20895189989E+04  0.20895189989E+04  0.00000000000E+00 0. -1.
          6    2    1    2  502    0  0.90446506690E+03 -0.31026799458E+03 -0.12894902928E+04  0.16146062296E+04  0.17275640614E+03 0.  0.
         24    2    3    3    0    0  0.54961300353E+03 -0.15221738567E+03 -0.67307980229E+03  0.88598838422E+03  0.81819377733E+02 0.  0.
         -6    2    1    2    0  501 -0.90446506690E+03  0.31026799458E+03 -0.26711877847E+03  0.10078226969E+04  0.17329414523E+03 0.  0.
        -24    2    5    5    0    0 -0.82795758130E+03  0.32540045983E+03 -0.23806875887E+03  0.92446575055E+03  0.80999841389E+02 0.  0.
          5    1    3    3  502    0  0.35485206338E+03 -0.15805060891E+03 -0.61641049051E+03  0.72861784543E+03  0.47000000000E+01 0. -1.
        -13    1    4    4    0    0  0.73483244235E+02 -0.49472229969E+02 -0.11683185635E+03  0.14661845511E+03  0.00000000000E+00 0.  1.
         14    1    4    4    0    0  0.47612975929E+03 -0.10274515570E+03 -0.55624794594E+03  0.73936992910E+03  0.00000000000E+00 0. -1.
         -5    1    5    5    0  501 -0.76507485605E+02 -0.15132465249E+02 -0.29050019601E+02  0.83356946303E+02  0.47000000000E+01 0.  1.
         13    1    6    6    0    0 -0.10439351259E+03  0.71200534542E+02 -0.34853328774E+02  0.13108118140E+03  0.00000000000E+00 0. -1.
        -14    1    6    6    0    0 -0.72356406871E+03  0.25419992529E+03 -0.20321543009E+03  0.79338456915E+03  0.00000000000E+00 0.  1.
</event>
<event>
12    1  0.9656379E-001  0.1423881E+04  0.7818608E-02  0.8936711E-01
         -1   -1    0    0    0  501 -0.00000000000E+00  0.00000000000E+00  0.70297990579E+03  0.70297990579E+03  0.00000000000E+00 0.  1.
          1   -1    0    0  502    0  0.00000000000E+00 -0.00000000000E+00 -0.30957358004E+04  0.30957358004E+04  0.00000000000E+00 0. -1.
          6    2    1    2  502    0 -0.13629209217E+04 -0.37445323593E+03 -0.69971198499E+03  0.15865097156E+04  0.17218464275E+03 0.  0.
         24    2    3    3    0    0 -0.98258435348E+03 -0.32631640969E+03 -0.54716362185E+03  0.11738765223E+04  0.81508585877E+02 0.  0.
         -6    2    1    2    0  501  0.13629209217E+04  0.37445323593E+03 -0.16930439096E+04  0.22122059905E+04  0.17230496272E+03 0.  0.
        -24    2    5    5    0    0  0.69968299499E+03  0.16856368575E+03 -0.95969836866E+03  0.12022095417E+04  0.79478385310E+02 0.  0.
          5    1    3    3  502    0 -0.38033656818E+03 -0.48136826242E+02 -0.15254836314E+03  0.41263319333E+03  0.47000000000E+01 0. -1.
        -13    1    4    4    0    0 -0.43887600615E+03 -0.10720122749E+03 -0.25758856597E+03  0.52005395996E+03  0.00000000000E+00 0.  1.
         14    1    4    4    0    0 -0.54370834733E+03 -0.21911518220E+03 -0.28957505588E+03  0.65382256233E+03  0.00000000000E+00 0. -1.
         -5    1    5    5    0  501  0.66323792667E+03  0.20588955019E+03 -0.73334554091E+03  0.10099964488E+04  0.47000000000E+01 0.  1.
         13    1    6    6    0    0  0.52706993282E+03  0.11104700018E+03 -0.66378154388E+03  0.85483336875E+03  0.00000000000E+00 0. -1.
        -14    1    6    6    0    0  0.17261306216E+03  0.57516685563E+02 -0.29591682478E+03  0.34737617295E+03  0.00000000000E+00 0.  1.
</event>
<event>
12    1  0.9656379E-001  0.1891579E+03  0.7818608E-02  0.1159223E+00
         -1   -1    0    0    0  501 -0.00000000000E+00  0.00000000000E+00  0.24346747225E+03  0.24346747225E+03  0.00000000000E+00 0.  1.
          1   -1    0    0  502    0  0.00000000000E+00 -0.00000000000E+00 -0.10940043546E+04  0.10940043546E+04  0.00000000000E+00 0. -1.
          6    2    1    2  502    0 -0.39833260112E+02 -0.64930158338E+02  0.19711793334E+03  0.27276644975E+03  0.17246287250E+03 0.  0.
         24    2    3    3    0    0 -0.16694827178E+02  0.35746391418E+02  0.95522715470E+02  0.12780151246E+03  0.75180553749E+02 0.  0.
         -6    2    1    2    0  501  0.39833260112E+02  0.64930158338E+02 -0.10476548157E+04  0.10647053771E+04  0.17382264838E+03 0.  0.
        -24    2    5    5    0    0 -0.94778527289E+01 -0.27327222349E+02 -0.47758695468E+03  0.48509993690E+03  0.79975263209E+02 0.  0.
          5    1    3    3  502    0 -0.23138432934E+02 -0.10067654976E+03  0.10159521787E+03  0.14496493729E+03  0.47000000000E+01 0. -1.
        -13    1    4    4    0    0 -0.44121816476E+02  0.82195928625E+01  0.61623476011E+02  0.76234829256E+02  0.00000000000E+00 0.  1.
         14    1    4    4    0    0  0.27426989298E+02  0.27526798555E+02  0.33899239459E+02  0.51566683203E+02  0.00000000000E+00 0. -1.
         -5    1    5    5    0  501  0.49311112841E+02  0.92257380687E+02 -0.57006786098E+03  0.57960544016E+03  0.47000000000E+01 0.  1.
         11    1    6    6    0    0  0.21864621688E+02 -0.62374298682E+01 -0.41007143566E+02  0.46888730377E+02  0.00000000000E+00 0. -1.
        -12    1    6    6    0    0 -0.31342474416E+02 -0.21089792481E+02 -0.43657981111E+03  0.43821120652E+03  0.00000000000E+00 0.  1.
</event>
<event>
12    1  0.9656382E-001  0.1191324E+04  0.7818608E-02  0.9120485E-01
         -2   -1    0    0    0  501 -0.00000000000E+00  0.00000000000E+00  0.11229389945E+04  0.11229389945E+04  0.00000000000E+00 0.  1.
          2   -1    0    0  502    0  0.00000000000E+00 -0.00000000000E+00 -0.28439167338E+04  0.28439167338E+04  0.00000000000E+00 0. -1.
          6    2    1    2  502    0  0.10549960942E+04 -0.52418431546E+03  0.61739452363E+03  0.13432316372E+04  0.18790763186E+03 0.  0.
         24    2    3    3    0    0  0.77642752359E+03 -0.34377602574E+03  0.37174750809E+03  0.93030047375E+03  0.79000673598E+02 0.  0.
         -6    2    1    2    0  501 -0.10549960942E+04  0.52418431546E+03 -0.23383722629E+04  0.26236240911E+04  0.16623049078E+03 0.  0.
        -24    2    5    5    0    0 -0.10435161588E+04  0.50772530497E+03 -0.23227205689E+04  0.25977444954E+04  0.80837266642E+02 0.  0.
          5    1    3    3  502    0  0.27856857059E+03 -0.18040828972E+03  0.24564701554E+03  0.41293116347E+03  0.47000000000E+01 0. -1.
        -13    1    4    4    0    0  0.44331594851E+03 -0.17552588592E+03  0.24580531703E+03  0.53643137559E+03  0.00000000000E+00 0.  1.
         14    1    4    4    0    0  0.33311157508E+03 -0.16825013982E+03  0.12594219106E+03  0.39386909817E+03  0.00000000000E+00 0. -1.
         -5    1    5    5    0  501 -0.11479935426E+02  0.16459010494E+02 -0.15651694017E+02  0.25879595620E+02  0.47000000000E+01 0.  1.
         11    1    6    6    0    0 -0.68206573782E+03  0.31633052631E+03 -0.14225138570E+04  0.16089823945E+04  0.00000000000E+00 0. -1.
        -12    1    6    6    0    0 -0.36145042094E+03  0.19139477866E+03 -0.90020671186E+03  0.98876210089E+03  0.00000000000E+00 0.  1.
</event>
<event>
12    1  0.9656379E-001  0.7444666E+03  0.7818608E-02  0.9644072E-01
         -2   -1    0    0    0  501 -0.00000000000E+00  0.00000000000E+00  0.33656059669E+03  0.33656059669E+03  0.00000000000E+00 0.  1.
          2   -1    0    0  502    0  0.00000000000E+00 -0.00000000000E+00 -0.16517511067E+04  0.16517511067E+04  0.00000000000E+00 0. -1.
          6    2    1    2  502    0  0.32527665720E+03 -0.64708519670E+03 -0.60271677238E+03  0.95771501196E+03  0.17154119307E+03 0.  0.
         24    2    3    3    0    0  0.24542042991E+03 -0.52151866040E+03 -0.39997763951E+03  0.70618128048E+03  0.80603897117E+02 0.  0.
         -6    2    1    2    0  501 -0.32527665720E+03  0.64708519670E+03 -0.71247373761E+03  0.10305966914E+04  0.17316627287E+03 0.  0.
        -24    2    5    5    0    0 -0.25651687306E+03  0.60639220874E+03 -0.61645688638E+03  0.90559607980E+03  0.81072498402E+02 0.  0.
          5    1    3    3  502    0  0.79856227289E+02 -0.12556653630E+03 -0.20273913287E+03  0.25153373148E+03  0.47000000000E+01 0. -1.
        -13    1    4    4    0    0  0.59997188611E+02 -0.13919094702E+03 -0.14969058806E+03  0.21302829513E+03  0.00000000000E+00 0.  1.
         14    1    4    4    0    0  0.18542324130E+03 -0.38232771339E+03 -0.25028705144E+03  0.49315298535E+03  0.00000000000E+00 0. -1.
         -5    1    5    5    0  501 -0.68759784136E+02  0.40692987964E+02 -0.96016851233E+02  0.12500061162E+03  0.47000000000E+01 0.  1.
         13    1    6    6    0    0 -0.11116480211E+03  0.34589178219E+03 -0.30550554202E+03  0.47469187313E+03  0.00000000000E+00 0. -1.
        -14    1    6    6    0    0 -0.14535207095E+03  0.26050042655E+03 -0.31095134436E+03  0.43090420667E+03  0.00000000000E+00 0.  1.
</event>
<event>
12    1  0.9656379E-001  0.1631364E+04  0.7818608E-02  0.8801508E-01
         -1   -1    0    0    0  501 -0.00000000000E+00  0.00000000000E+00  0.28158543964E+04  0.28158543964E+04  0.00000000000E+00 0.  1.
          1   -1    0    0  502    0  0.00000000000E+00 -0.00000000000E+00 -0.97068760870E+03  0.97068760870E+03  0.00000000000E+00 0. -1.
          6    2    1    2  502    0 -0.82050810961E+03  0.13998106447E+04  0.12296558155E+04  0.20426964659E+04  0.16688926863E+03 0.  0.
         24    2    3    3    0    0 -0.21162518645E+03  0.33138675944E+03  0.30999019132E+03  0.50709399025E+03  0.80299392047E+02 0.  0.
         -6    2    1    2    0  501  0.82050810961E+03 -0.13998106447E+04  0.61551097221E+03  0.17438455392E+04  0.17158120160E+03 0.  0.
        -24    2    5    5    0    0  0.30518167639E+03 -0.64090857414E+03  0.25940718326E+03  0.75981013132E+03  0.78228466136E+02 0.  0.
          5    1    3    3  502    0 -0.60888292316E+03  0.10684238853E+04  0.91966562416E+03  0.15356024756E+04  0.47000000000E+01 0. -1.
        -13    1    4    4    0    0 -0.15349703893E+03  0.29530241545E+03  0.26089275415E+03  0.42288282858E+03  0.00000000000E+00 0.  1.
         14    1    4    4    0    0 -0.58128147518E+02  0.36084343987E+02  0.49097437165E+02  0.84211161677E+02  0.00000000000E+00 0. -1.
         -5    1    5    5    0  501  0.51532643323E+03 -0.75890207060E+03  0.35610378895E+03  0.98403540793E+03  0.47000000000E+01 0.  1.
         11    1    6    6    0    0  0.23353778016E+03 -0.48193199246E+03  0.23059493226E+03  0.58307149039E+03  0.00000000000E+00 0. -1.
        -12    1    6    6    0    0  0.71643896230E+02 -0.15897658168E+03  0.28812250997E+02  0.17673864093E+03  0.00000000000E+00 0.  1.
</event>
<event>
12    1  0.9656379E-001  0.2685956E+03  0.7818608E-02  0.1102086E+00
          1   -1    0    0  502    0  0.00000000000E+00  0.00000000000E+00  0.17988119538E+04  0.17988119538E+04  0.00000000000E+00 0. -1.
         -1   -1    0    0    0  501 -0.00000000000E+00 -0.00000000000E+00 -0.71153803633E+02  0.71153803633E+02  0.00000000000E+00 0.  1.
          6    2    1    2  502    0  0.19786562464E+03 -0.57778543386E+02  0.24629354602E+03  0.36445554904E+03  0.17227353517E+03 0.  0.
         24    2    3    3    0    0  0.18024863762E+03 -0.90436488374E+02  0.15783049535E+03  0.26841024235E+03  0.80406860046E+02 0.  0.
         -6    2    1    2    0  501 -0.19786562464E+03  0.57778543386E+02  0.14813646042E+04  0.15055102084E+04  0.17213579429E+03 0.  0.
        -24    2    5    5    0    0 -0.80727101415E+02  0.31877884323E+02  0.10790051089E+04  0.10856203047E+04  0.82379346075E+02 0.  0.
          5    1    3    3  502    0  0.17616987022E+02  0.32657944988E+02  0.88463050665E+02  0.96045306681E+02  0.47000000000E+01 0. -1.
        -11    1    4    4    0    0  0.53595851573E+02  0.11107115425E+02  0.41902453414E+02  0.68932567927E+02  0.00000000000E+00 0.  1.
         12    1    4    4    0    0  0.12665278605E+03 -0.10154360380E+03  0.11592804194E+03  0.19947767443E+03  0.00000000000E+00 0. -1.
         -5    1    5    5    0  501 -0.11713852323E+03  0.25900659062E+02  0.40235949532E+03  0.41988990371E+03  0.47000000000E+01 0.  1.
         11    1    6    6    0    0 -0.51810449124E+02 -0.10027894142E+02  0.81770403495E+03  0.81940513184E+03  0.00000000000E+00 0. -1.
        -12    1    6    6    0    0 -0.28916652291E+02  0.41905778465E+02  0.26130107391E+03  0.26621517289E+03  0.00000000000E+00 0.  1.
</event>
<event>
12    1  0.9656379E-001  0.5444937E+03  0.7818608E-02  0.1002777E+00
          1   -1    0    0  502    0  0.00000000000E+00  0.00000000000E+00  0.14590792239E+04  0.14590792239E+04  0.00000000000E+00 0. -1.
         -1   -1    0    0    0  501 -0.00000000000E+00 -0.00000000000E+00 -0.27841422992E+04  0.27841422992E+04  0.00000000000E+00 0.  1.
          6    2    1    2  502    0  0.16170395878E+03 -0.49089331515E+03 -0.27052651843E+04  0.27595370939E+04  0.17164159684E+03 0.  0.
         24    2    3    3    0    0  0.17442484518E+03 -0.49037096097E+03 -0.26754720671E+04  0.27267985288E+04  0.79948290716E+02 0.  0.
         -6    2    1    2    0  501 -0.16170395878E+03  0.49089331515E+03  0.13802021091E+04  0.14836844292E+04  0.17098890775E+03 0.  0.
        -24    2    5    5    0    0 -0.31643213596E+02  0.30335345146E+03  0.75746312267E+03  0.82042510358E+03  0.79513262382E+02 0.  0.
          5    1    3    3  502    0 -0.12720886403E+02 -0.52235417992E+00 -0.29793117243E+02  0.32738565024E+02  0.47000000000E+01 0. -1.
        -13    1    4    4    0    0  0.94576620766E+02 -0.29758440686E+03 -0.17934142265E+04  0.18203944090E+04  0.00000000000E+00 0.  1.
         14    1    4    4    0    0  0.79848224415E+02 -0.19278655411E+03 -0.88205784052E+03  0.90640411982E+03  0.00000000000E+00 0. -1.
         -5    1    5    5    0  501 -0.13006074518E+03  0.18753986369E+03  0.62273898640E+03  0.66325932567E+03  0.47000000000E+01 0.  1.
         11    1    6    6    0    0 -0.55843484633E+02  0.17707308799E+03  0.47834533515E+03  0.51311561360E+03  0.00000000000E+00 0. -1.
        -12    1    6    6    0    0  0.24200271037E+02  0.12628036347E+03  0.27911778753E+03  0.30730948998E+03  0.00000000000E+00 0.  1.
</event>
<event>
12    1  0.9656379E-001  0.1553541E+04  0.7818608E-02  0.8849609E-01
          2   -1    0    0  502    0  0.00000000000E+00  0.00000000000E+00  0.23175669562E+04  0.23175669562E+04  0.00000000000E+00 0. -1.
         -2   -1    0    0    0  501 -0.00000000000E+00 -0.00000000000E+00 -0.13553869092E+04  0.13553869092E+04  0.00000000000E+00 0.  1.
          6    2    1    2  502    0  0.13654131690E+04  0.72063371385E+03 -0.40283394613E+03  0.16049330120E+04  0.17282567360E+03 0.  0.
         24    2    3    3    0    0  0.80161595323E+03  0.39882244768E+03 -0.16808770988E+03  0.91460144175E+03  0.81208606626E+02 0.  0.
         -6    2    1    2    0  501 -0.13654131690E+04 -0.72063371385E+03  0.13650139932E+04  0.20680208534E+04  0.17257165736E+03 0.  0.
        -24    2    5    5    0    0 -0.96660613574E+03 -0.56410775829E+03  0.92927917436E+03  0.14569281052E+04  0.80837709609E+02 0.  0.
          5    1    3    3  502    0  0.56379721574E+03  0.32181126617E+03 -0.23474623625E+03  0.69033157030E+03  0.47000000000E+01 0. -1.
        -11    1    4    4    0    0  0.36816487901E+03  0.14919400651E+03 -0.10138424674E+03  0.40997926192E+03  0.00000000000E+00 0.  1.
         12    1    4    4    0    0  0.43345107422E+03  0.24962844117E+03 -0.66703463135E+02  0.50462217983E+03  0.00000000000E+00 0. -1.
         -5    1    5    5    0  501 -0.39880703323E+03 -0.15652595556E+03  0.43573481881E+03  0.61109274815E+03  0.47000000000E+01 0.  1.
         13    1    6    6    0    0 -0.42938955554E+03 -0.29726357969E+03  0.43130397306E+03  0.67732129997E+03  0.00000000000E+00 0. -1.
        -14    1    6    6    0    0 -0.53721658021E+03 -0.26684417860E+03  0.49797520130E+03  0.77960680526E+03  0.00000000000E+00 0.  1.
</event>
<event>
12    1  0.9656379E-001  0.3035696E+03  0.7818608E-02  0.1083470E+00
          2   -1    0    0  502    0  0.00000000000E+00  0.00000000000E+00  0.20174230399E+04  0.20174230399E+04  0.00000000000E+00 0. -1.
         -2   -1    0    0    0  501 -0.00000000000E+00 -0.00000000000E+00 -0.53874182446E+02  0.53874182446E+02  0.00000000000E+00 0.  1.
          6    2    1    2  502    0 -0.19653598470E+03  0.15542899656E+03  0.57890867322E+03  0.65385210409E+03  0.17205451415E+03 0.  0.
         24    2    3    3    0    0 -0.15848684710E+03  0.18235316604E+03  0.45242948468E+03  0.51897540889E+03  0.79197718147E+02 0.  0.
         -6    2    1    2    0  501  0.19653598470E+03 -0.15542899656E+03  0.13846401843E+04  0.14174451183E+04  0.17069756064E+03 0.  0.
        -24    2    5    5    0    0  0.17632779288E+03 -0.18303950528E+03  0.12894186248E+04  0.13161537238E+04  0.71170806302E+02 0.  0.
          5    1    3    3  502    0 -0.38049137603E+02 -0.26924169476E+02  0.12647918854E+03  0.13487669520E+03  0.47000000000E+01 0. -1.
        -13    1    4    4    0    0 -0.14261128021E+03  0.10994854899E+03  0.31572573916E+03  0.36346857228E+03  0.00000000000E+00 0.  1.
         14    1    4    4    0    0 -0.15875566892E+02  0.72404617047E+02  0.13670374553E+03  0.15550683662E+03  0.00000000000E+00 0. -1.
         -5    1    5    5    0  501  0.20208191821E+02  0.27610508717E+02  0.95221559440E+02  0.10129139445E+03  0.47000000000E+01 0.  1.
         11    1    6    6    0    0  0.24042490945E+02 -0.34227558822E+02  0.11029547636E+03  0.11796041395E+03  0.00000000000E+00 0. -1.
        -12    1    6    6    0    0  0.15228530194E+03 -0.14881194646E+03  0.11791231485E+04  0.11981933099E+04  0.00000000000E+00 0.  1.
</event>
<event>
12    1  0.9656379E-001  0.8810857E+03  0.7818608E-02  0.9449539E-01
          1   -1    0    0  502    0  0.00000000000E+00  0.00000000000E+00  0.20043045675E+04  0.20043045675E+04  0.00000000000E+00 0. -1.
         -1   -1    0    0    0  501 -0.00000000000E+00 -0.00000000000E+00 -0.41046276428E+03  0.41046276428E+03  0.00000000000E+00 0.  1.
          6    2    1    2  502    0  0.73444293071E+02  0.86123437668E+03  0.51033936260E+03  0.10183106404E+04  0.17143972580E+03 0.  0.
         24    2    3    3    0    0  0.82049965321E+01  0.70386889226E+03  0.38137190605E+03  0.80459410770E+03  0.80177353248E+02 0.  0.
         -6    2    1    2    0  501 -0.73444293071E+02 -0.86123437668E+03  0.10835024406E+04  0.13964566914E+04  0.17027928919E+03 0.  0.
        -24    2    5    5    0    0 -0.52536905092E+02 -0.84276789628E+03  0.10181081985E+04  0.13252062410E+04  0.81298364422E+02 0.  0.
          5    1    3    3  502    0  0.65239296539E+02  0.15736548442E+03  0.12896745655E+03  0.21371653270E+03  0.47000000000E+01 0. -1.
        -13    1    4    4    0    0 -0.13863991119E+02  0.32075456216E+03  0.13319335018E+03  0.34758620215E+03  0.00000000000E+00 0.  1.
         14    1    4    4    0    0  0.22068987651E+02  0.38311433010E+03  0.24817855587E+03  0.45700790555E+03  0.00000000000E+00 0. -1.
         -5    1    5    5    0  501 -0.20907387979E+02 -0.18466480402E+02  0.65394242159E+02  0.71250450371E+02  0.47000000000E+01 0.  1.
         11    1    6    6    0    0 -0.60219273955E+02 -0.48734171865E+03  0.54821487531E+03  0.73598088372E+03  0.00000000000E+00 0. -1.
        -12    1    6    6    0    0  0.76823688629E+01 -0.35542617762E+03  0.46989332317E+03  0.58922535731E+03  0.00000000000E+00 0.  1.
</event>
<event>
12    1  0.9656379E-001  0.1766066E+03  0.7818608E-02  0.1171128E+00
         -1   -1    0    0    0  501 -0.00000000000E+00  0.00000000000E+00  0.68522406259E+02  0.68522406259E+02  0.00000000000E+00 0.  1.
          1   -1    0    0  502    0  0.00000000000E+00 -0.00000000000E+00 -0.11023729963E+04  0.11023729963E+04  0.00000000000E+00 0. -1.
          6    2    1    2  502    0  0.84692717875E+01  0.38699583133E+02 -0.67326365353E+02  0.18821567488E+03  0.17123934857E+03 0.  0.
         24    2    3    3    0    0 -0.49609265551E+02 -0.66993839783E+01 -0.42453274060E+02  0.11027375173E+03  0.88611843835E+02 0.  0.
         -6    2    1    2    0  501 -0.84692717875E+01 -0.38699583133E+02 -0.96652422467E+03  0.98267972766E+03  0.17297683076E+03 0.  0.
        -24    2    5    5    0    0 -0.54679178578E+02 -0.68817918782E+02 -0.72707951304E+03  0.73691901160E+03  0.81726940898E+02 0.  0.
          5    1    3    3  502    0  0.58078537338E+02  0.45398967112E+02 -0.24873091293E+02  0.77941923152E+02  0.47000000000E+01 0. -1.
        -11    1    4    4    0    0  0.23117261250E+01  0.34987050099E+02 -0.12051290179E+02  0.37076560618E+02  0.00000000000E+00 0.  1.
         12    1    4    4    0    0 -0.51920991676E+02 -0.41686434077E+02 -0.30401983881E+02  0.73197191111E+02  0.00000000000E+00 0. -1.
         -5    1    5    5    0  501  0.46209906791E+02  0.30118335649E+02 -0.23944471163E+03  0.24576071605E+03  0.47000000000E+01 0.  1.
         13    1    6    6    0    0 -0.11507718099E+02 -0.36563649047E+01 -0.41580725122E+03  0.41598253178E+03  0.00000000000E+00 0. -1.
        -14    1    6    6    0    0 -0.43171460479E+02 -0.65161553877E+02 -0.31127226181E+03  0.32093647982E+03  0.00000000000E+00 0.  1.
</event>
<event>
12    1  0.9656379E-001  0.3193468E+03  0.7818608E-02  0.1075950E+00
          1   -1    0    0  502    0  0.00000000000E+00  0.00000000000E+00  0.91005501306E+03  0.91005501306E+03  0.00000000000E+00 0. -1.
         -1   -1    0    0    0  501 -0.00000000000E+00 -0.00000000000E+00 -0.84801958808E+03  0.84801958808E+03  0.00000000000E+00 0.  1.
          6    2    1    2  502    0  0.50492813941E+02  0.26370944558E+03 -0.78788335764E+03  0.85010895941E+03  0.17272192011E+03 0.  0.
         24    2    3    3    0    0  0.80244544557E+02  0.13193056959E+03 -0.32237287309E+03  0.36536888591E+03  0.75665655135E+02 0.  0.
         -6    2    1    2    0  501 -0.50492813941E+02 -0.26370944558E+03  0.84991878262E+03  0.90796564173E+03  0.17305338355E+03 0.  0.
        -24    2    5    5    0    0  0.63234019846E+01 -0.14315269915E+03  0.30157169928E+03  0.34363539683E+03  0.81284164865E+02 0.  0.
          5    1    3    3  502    0 -0.29751730616E+02  0.13177887598E+03 -0.46551048455E+03  0.48474007350E+03  0.47000000000E+01 0. -1.
        -11    1    4    4    0    0 -0.84666007835E+01  0.39480613449E+02 -0.11191755308E+03  0.11897874119E+03  0.00000000000E+00 0.  1.
         12    1    4    4    0    0  0.88711145341E+02  0.92449956145E+02 -0.21045532000E+03  0.24639014472E+03  0.00000000000E+00 0. -1.
         -5    1    5    5    0  501 -0.56816215925E+02 -0.12055674642E+03  0.54834708334E+03  0.56433024490E+03  0.47000000000E+01 0.  1.
         13    1    6    6    0    0 -0.12109959150E+02 -0.27290441191E+02  0.14468914156E+03  0.14773749347E+03  0.00000000000E+00 0. -1.
        -14    1    6    6    0    0  0.18433361135E+02 -0.11586225796E+03  0.15688255771E+03  0.19589790335E+03  0.00000000000E+00 0.  1.
</event>
<event>
12    1  0.9656379E-001  0.3082320E+03  0.7818608E-02  0.1081196E+00
         -2   -1    0    0    0  501 -0.00000000000E+00  0.00000000000E+00  0.18213728529E+03  0.18213728529E+03  0.00000000000E+00 0.  1.
          2   -1    0    0  502    0  0.00000000000E+00 -0.00000000000E+00 -0.68763967892E+03  0.68763967892E+03  0.00000000000E+00 0. -1.
          6    2    1    2  502    0 -0.30123686852E+02  0.25458100347E+03 -0.38678614353E+02  0.31002854849E+03  0.17000806404E+03 0.  0.
         24    2    3    3    0    0 -0.76600176926E+02  0.21890342541E+03 -0.60532362006E+02  0.24731786366E+03  0.60956230826E+02 0.  0.
         -6    2    1    2    0  501  0.30123686852E+02 -0.25458100347E+03 -0.46682377928E+03  0.55974841572E+03  0.17226411164E+03 0.  0.
        -24    2    5    5    0    0 -0.26658270583E+02 -0.22708757312E+03 -0.40145633631E+03  0.46878099296E+03  0.79429214652E+02 0.  0.
          5    1    3    3  502    0  0.46476490074E+02  0.35677578059E+02  0.21853747653E+02  0.62710684833E+02  0.47000000000E+01 0. -1.
        -13    1    4    4    0    0 -0.55709631274E+02  0.81695774169E+02 -0.90799087842E+01  0.99298576411E+02  0.00000000000E+00 0.  1.
         14    1    4    4    0    0 -0.20890545653E+02  0.13720765124E+03 -0.51452453222E+02  0.14801928725E+03  0.00000000000E+00 0. -1.
         -5    1    5    5    0  501  0.56781957435E+02 -0.27493430350E+02 -0.65367442969E+02  0.90967422756E+02  0.47000000000E+01 0. -1.
         11    1    6    6    0    0  0.25270190241E+02 -0.12197299416E+03 -0.21734177156E+03  0.25050636616E+03  0.00000000000E+00 0. -1.
        -12    1    6    6    0    0 -0.51928460824E+02 -0.10511457896E+03 -0.18411456475E+03  0.21827462680E+03  0.00000000000E+00 0.  1.
</event>
<event>
12    1  0.9656379E-001  0.4691105E+03  0.7818608E-02  0.1022172E+00
          2   -1    0    0  502    0  0.00000000000E+00  0.00000000000E+00  0.21920287985E+04  0.21920287985E+04  0.00000000000E+00 0. -1.
         -2   -1    0    0    0  501 -0.00000000000E+00 -0.00000000000E+00 -0.14773306471E+03  0.14773306471E+03  0.00000000000E+00 0.  1.
          6    2    1    2  502    0 -0.42124966916E+03 -0.11417663395E+03  0.35968473008E+03  0.59101398422E+03  0.17157166721E+03 0.  0.
         24    2    3    3    0    0 -0.33377283380E+03 -0.26762547143E+02  0.27942120689E+03  0.44350892515E+03  0.80643767999E+02 0.  0.
         -6    2    1    2    0  501  0.42124966916E+03  0.11417663395E+03  0.16846110037E+04  0.17487478790E+04  0.17238713094E+03 0.  0.
        -24    2    5    5    0    0  0.37403456273E+03  0.12621809851E+03  0.16095593734E+04  0.16591426316E+04  0.78993879540E+02 0.  0.
          5    1    3    3  502    0 -0.87476835364E+02 -0.87414086808E+02  0.80263523187E+02  0.14750505907E+03  0.47000000000E+01 0. -1.
        -13    1    4    4    0    0 -0.30380388971E+03 -0.47990890769E+02  0.25317684318E+03  0.39836973143E+03  0.00000000000E+00 0.  1.
         14    1    4    4    0    0 -0.29968944082E+02  0.21228343626E+02  0.26244363718E+02  0.45139193717E+02  0.00000000000E+00 0. -1.
         -5    1    5    5    0  501  0.47215106433E+02 -0.12041464562E+02  0.75051630271E+02  0.89605247339E+02  0.47000000000E+01 0.  1.
         11    1    6    6    0    0  0.18516417348E+03  0.23889980311E+02  0.80915592050E+03  0.83041544180E+03  0.00000000000E+00 0. -1.
        -12    1    6    6    0    0  0.18887038925E+03  0.10232811820E+03  0.80040345293E+03  0.82872718983E+03  0.00000000000E+00 0.  1.
</event>
<event>
12    1  0.9656379E-001  0.3696130E+03  0.7818608E-02  0.1054841E+00
         -2   -1    0    0    0  501 -0.00000000000E+00  0.00000000000E+00  0.79632358799E+03  0.79632358799E+03  0.00000000000E+00 0.  1.
          2   -1    0    0  502    0  0.00000000000E+00 -0.00000000000E+00 -0.13409060655E+04  0.13409060655E+04  0.00000000000E+00 0. -1.
          6    2    1    2  502    0 -0.32450168361E+03  0.43684332043E+02  0.72562975604E+03  0.81432183691E+03  0.17138216855E+03 0.  0.
         24    2    3    3    0    0 -0.26681126520E+03 -0.18670340421E+02  0.49280020692E+03  0.56643480922E+03  0.80371116167E+02 0.  0.
         -6    2    1    2    0  501  0.32450168361E+03 -0.43684332043E+02 -0.12702122336E+04  0.13229078166E+04  0.17157012969E+03 0.  0.
        -24    2    5    5    0    0  0.29662354894E+03 -0.33551561043E+02 -0.89832354376E+03  0.94980843166E+03  0.77715059961E+02 0.  0.
          5    1    3    3  502    0 -0.57690418415E+02  0.62354672464E+02  0.23282954912E+03  0.24788702769E+03  0.47000000000E+01 0. -1.
        -13    1    4    4    0    0 -0.34598330059E+02 -0.84668534154E+01  0.13611716327E+03  0.14070044131E+03  0.00000000000E+00 0.  1.
         14    1    4    4    0    0 -0.23221293514E+03 -0.10203487006E+02  0.35668304365E+03  0.42573436791E+03  0.00000000000E+00 0. -1.
         -5    1    5    5    0  501  0.27878134674E+02 -0.10132771000E+02 -0.37188868980E+03  0.37309938494E+03  0.47000000000E+01 0.  1.
         13    1    6    6    0    0  0.22697635578E+03 -0.60794516589E+01 -0.75066604807E+03  0.78425425822E+03  0.00000000000E+00 0. -1.
        -14    1    6    6    0    0  0.69647193159E+02 -0.27472109384E+02 -0.14765749569E+03  0.16555417344E+03  0.00000000000E+00 0.  1.
</event>
<event>
12    1  0.9656379E-001  0.3631967E+03  0.7818608E-02  0.1057325E+00
          1   -1    0    0  502    0  0.00000000000E+00  0.00000000000E+00  0.16282240784E+04  0.16282240784E+04  0.00000000000E+00 0. -1.
         -1   -1    0    0    0  501 -0.00000000000E+00 -0.00000000000E+00 -0.18504669208E+03  0.18504669208E+03  0.00000000000E+00 0.  1.
          6    2    1    2  502    0 -0.28449632601E+03  0.14564183080E+03  0.41392063972E+02  0.36507998089E+03  0.17152372168E+03 0.  0.
         24    2    3    3    0    0 -0.17424695816E+03  0.45067547531E+02  0.77630811390E+02  0.21143934050E+03  0.79290387598E+02 0.  0.
         -6    2    1    2    0  501  0.28449632601E+03 -0.14564183080E+03  0.14017853224E+04  0.14481907896E+04  0.17350726415E+03 0.  0.
        -24    2    5    5    0    0  0.21152588103E+03 -0.33757693343E+02  0.82325805105E+03  0.85442430376E+03  0.80026820756E+02 0.  0.
          5    1    3    3  502    0 -0.11024936785E+03  0.10057428327E+03 -0.36238747418E+02  0.15364064039E+03  0.47000000000E+01 0. -1.
        -13    1    4    4    0    0 -0.29964781568E+02  0.21999223351E+02 -0.13137639752E+02  0.39426533461E+02  0.00000000000E+00 0.  1.
         14    1    4    4    0    0 -0.14428217659E+03  0.23068324180E+02  0.90768451142E+02  0.17201280704E+03  0.00000000000E+00 0. -1.
         -5    1    5    5    0  501  0.72970444985E+02 -0.11188413745E+03  0.57852727133E+03  0.59376648586E+03  0.47000000000E+01 0.  1.
         13    1    6    6    0    0  0.14979415562E+03 -0.39658182097E+02  0.44714598742E+03  0.47323418572E+03  0.00000000000E+00 0. -1.
        -14    1    6    6    0    0  0.61731725407E+02  0.59004887533E+01  0.37611206362E+03  0.38119011804E+03  0.00000000000E+00 0.  1.
</event>
<event>
12    1  0.9656379E-001  0.3995514E+03  0.7818608E-02  0.1043935E+00
          2   -1    0    0  502    0  0.00000000000E+00  0.00000000000E+00  0.41236188921E+03  0.41236188921E+03  0.00000000000E+00 0. -1.
         -2   -1    0    0    0  501 -0.00000000000E+00 -0.00000000000E+00 -0.60778661106E+03  0.60778661106E+03  0.00000000000E+00 0.  1.
          6    2    1    2  502    0  0.36017992380E+03 -0.23111462501E+02 -0.40508054218E+03  0.56913830916E+03  0.17194316529E+03 0.  0.
         24    2    3    3    0    0  0.14328647639E+03 -0.68063615312E+02 -0.17823822942E+03  0.25205316534E+03  0.81229684756E+02 0.  0.
         -6    2    1    2    0  501 -0.36017992380E+03  0.23111462501E+02  0.20965582034E+03  0.45101019111E+03  0.17085348191E+03 0.  0.
        -24    2    5    5    0    0 -0.15736611849E+03  0.71695134018E+00  0.28918346420E+02  0.17838759808E+03  0.78874933416E+02 0.  0.
          5    1    3    3  502    0  0.21689344741E+03  0.44952152811E+02 -0.22684231276E+03  0.31708514382E+03  0.47000000000E+01 0. -1.
        -11    1    4    4    0    0  0.10087736459E+03 -0.44198337084E+02 -0.62810355938E+02  0.12678673630E+03  0.00000000000E+00 0.  1.
         12    1    4    4    0    0  0.42409111797E+02 -0.23865278227E+02 -0.11542787348E+03  0.12526642904E+03  0.00000000000E+00 0. -1.
         -5    1    5    5    0  501 -0.20281380531E+03  0.22394511161E+02  0.18073747392E+03  0.27262259303E+03  0.47000000000E+01 0.  1.
         11    1    6    6    0    0 -0.12554763274E+03  0.29713330313E+02  0.49382851810E+01  0.12911032780E+03  0.00000000000E+00 0. -1.
        -12    1    6    6    0    0 -0.31818485750E+02 -0.28996378973E+02  0.23980061239E+02  0.49277270277E+02  0.00000000000E+00 0.  1.
</event>
<event>
12    1  0.9656379E-001  0.1753670E+03  0.7818608E-02  0.1172364E+00
          2   -1    0    0  502    0  0.00000000000E+00  0.00000000000E+00  0.16112062032E+04  0.16112062032E+04  0.00000000000E+00 0. -1.
         -2   -1    0    0    0  501 -0.00000000000E+00 -0.00000000000E+00 -0.19457398330E+02  0.19457398330E+02  0.00000000000E+00 0.  1.
          6    2    1    2  502    0 -0.54655191851E+01 -0.36075640387E+02  0.68313278795E+03  0.70526645153E+03  0.17146147660E+03 0.  0.
         24    2    3    3    0    0 -0.55664562062E+02 -0.73574983457E+01  0.24909378432E+03  0.26736620917E+03  0.79273578002E+02 0.  0.
         -6    2    1    2    0  501  0.54655191851E+01  0.36075640387E+02  0.90861601696E+03  0.92539715004E+03  0.17159689766E+03 0.  0.
        -24    2    5    5    0    0  0.58926338889E+02  0.11480879718E+02  0.74481106471E+03  0.75127904679E+03  0.77926632283E+02 0.  0.
          5    1    3    3  502    0  0.50199042877E+02 -0.28718142041E+02  0.43403900363E+03  0.43790024236E+03  0.47000000000E+01 0. -1.
        -13    1    4    4    0    0 -0.26775241364E+02 -0.19880156078E+02  0.22567394390E+03  0.22812466572E+03  0.00000000000E+00 0.  1.
         14    1    4    4    0    0 -0.28889320698E+02  0.12522657733E+02  0.23419840422E+02  0.39241543452E+02  0.00000000000E+00 0. -1.
         -5    1    5    5    0  501 -0.53460819703E+02  0.24594760669E+02  0.16380495226E+03  0.17411810325E+03  0.47000000000E+01 0.  1.
         11    1    6    6    0    0  0.17821329554E+01  0.34993573571E+02  0.20902077174E+03  0.21193727659E+03  0.00000000000E+00 0. -1.
        -12    1    6    6    0    0  0.57144205933E+02 -0.23512693853E+02  0.53579029297E+03  0.53934177020E+03  0.00000000000E+00 0.  1.
</event>
<event>
12    1  0.1046860E+000  0.1997686E+03  0.7818608E-02  0.1149934E+00
         -2   -1    0    0    0  501 -0.00000000000E+00  0.00000000000E+00  0.11442891619E+04  0.11442891619E+04  0.00000000000E+00 0.  1.
          2   -1    0    0  502    0  0.00000000000E+00 -0.00000000000E+00 -0.58498196192E+03  0.58498196192E+03  0.00000000000E+00 0. -1.
          6    2    1    2  502    0 -0.10179161492E+03  0.18791510256E+02  0.11181926051E+04  0.11360545029E+04  0.17190252378E+03 0.  0.
         24    2    3    3    0    0 -0.10933540122E+03 -0.38809405165E+02  0.86645200654E+03  0.87765521276E+03  0.77969179544E+02 0.  0.
         -6    2    1    2    0  501  0.10179161492E+03 -0.18791510256E+02 -0.55888540513E+03  0.59321662094E+03  0.16981875506E+03 0.  0.
        -24    2    5    5    0    0  0.43292294859E+02 -0.48484743934E+00 -0.49971599046E+03  0.50789127896E+03  0.79768554294E+02 0.  0.
          5    1    3    3  502    0  0.75437862994E+01  0.57600915422E+02  0.25174059854E+03  0.25839929009E+03  0.47000000000E+01 0. -1.
        -13    1    4    4    0    0 -0.76998701284E+02  0.13597872920E+02  0.47870833215E+03  0.48505192445E+03  0.00000000000E+00 0.  1.
         14    1    4    4    0    0 -0.32336699940E+02 -0.52407278085E+02  0.38774367439E+03  0.39260328831E+03  0.00000000000E+00 0. -1.
         -5    1    5    5    0  501  0.58499320066E+02 -0.18306662817E+02 -0.59169414669E+02  0.85325341980E+02  0.47000000000E+01 0.  1.
         11    1    6    6    0    0  0.62855942170E+02 -0.16986484313E+02 -0.35054493587E+03  0.35654054773E+03  0.00000000000E+00 0. -1.
        -12    1    6    6    0    0 -0.19563647311E+02  0.16501636874E+02 -0.14917105459E+03  0.15135073123E+03  0.00000000000E+00 0.  1.
</event>
<event>
12    1  0.9656379E-001  0.6403201E+03  0.7818608E-02  0.9825114E-01
         -2   -1    0    0    0  501 -0.00000000000E+00  0.00000000000E+00  0.24692735810E+03  0.24692735810E+03  0.00000000000E+00 0.  1.
          2   -1    0    0  502    0  0.00000000000E+00 -0.00000000000E+00 -0.18928087584E+04  0.18928087584E+04  0.00000000000E+00 0. -1.
          6    2    1    2  502    0  0.61375296155E+03  0.63763327784E+02 -0.44768385843E+03  0.78100550066E+03  0.16967703200E+03 0.  0.
         24    2    3    3    0    0  0.48532506708E+03 -0.72462012294E+01 -0.36516164800E+03  0.61257722957E+03  0.79466375608E+02 0.  0.
         -6    2    1    2    0  501 -0.61375296155E+03 -0.63763327784E+02 -0.11981975418E+04  0.13587306158E+04  0.17237481626E+03 0.  0.
        -24    2    5    5    0    0 -0.43673934490E+03 -0.18859095767E+02 -0.96505875336E+03  0.10625448713E+04  0.81032618727E+02 0.  0.
          5    1    3    3  502    0  0.12842789447E+03  0.71009529013E+02 -0.82522210427E+02  0.16842827109E+03  0.47000000000E+01 0. -1.
        -13    1    4    4    0    0  0.47117235476E+03  0.65826201009E+01 -0.35696034718E+03  0.59115768475E+03  0.00000000000E+00 0.  1.
         14    1    4    4    0    0  0.14152712323E+02 -0.13828821330E+02 -0.82013008217E+01  0.21419544828E+02  0.00000000000E+00 0. -1.
         -5    1    5    5    0  501 -0.17701361665E+03 -0.44904232017E+02 -0.23313878849E+03  0.29618574448E+03  0.47000000000E+01 0.  1.
         13    1    6    6    0    0 -0.74222284481E+02 -0.10741704077E+02 -0.10372712459E+03  0.12799862536E+03  0.00000000000E+00 0. -1.
        -14    1    6    6    0    0 -0.36251706042E+03 -0.81173916894E+01 -0.86133162877E+03  0.93454624597E+03  0.00000000000E+00 0.  1.
</event>
<event>
12    1  0.9656379E-001  0.3462488E+03  0.7818608E-02  0.1064165E+00
         -1   -1    0    0    0  501 -0.00000000000E+00  0.00000000000E+00  0.99576680183E+02  0.99576680183E+02  0.00000000000E+00 0.  1.
          1   -1    0    0  502    0  0.00000000000E+00 -0.00000000000E+00 -0.17445039979E+04  0.17445039979E+04  0.00000000000E+00 0. -1.
          6    2    1    2  502    0 -0.28265322516E+03 -0.10461719299E+03 -0.31041523771E+03  0.46556370056E+03  0.17191374787E+03 0.  0.
         24    2    3    3    0    0 -0.27809199402E+03 -0.13255186872E+03 -0.28350469241E+03  0.42622646138E+03  0.79930787070E+02 0.  0.
         -6    2    1    2    0  501  0.28265322516E+03  0.10461719299E+03 -0.13345120800E+04  0.13785169776E+04  0.16896438350E+03 0.  0.
        -24    2    5    5    0    0  0.10523601231E+03  0.37944856826E+02 -0.34998638570E+03  0.37590289396E+03  0.79360475455E+02 0.  0.
          5    1    3    3  502    0 -0.45612311388E+01  0.27934675728E+02 -0.26910545303E+02  0.39337239177E+02  0.47000000000E+01 0. -1.
        -11    1    4    4    0    0 -0.17929563494E+03 -0.11638246511E+03 -0.22465549763E+03  0.31009981540E+03  0.00000000000E+00 0.  1.
         12    1    4    4    0    0 -0.98796359084E+02 -0.16169403614E+02 -0.58849194777E+02  0.11612664598E+03  0.00000000000E+00 0. -1.
         -5    1    5    5    0  501  0.17741721285E+03  0.66672336169E+02 -0.98452569434E+03  0.10026140836E+04  0.47000000000E+01 0.  1.
         11    1    6    6    0    0  0.50121887322E+02  0.58280456520E+02 -0.16998091188E+03  0.18655381423E+03  0.00000000000E+00 0. -1.
        -12    1    6    6    0    0  0.55114124986E+02 -0.20335599694E+02 -0.18000547382E+03  0.18934907973E+03  0.00000000000E+00 0.  1.
</event>
<event>
12    1  0.9656379E-001  0.2399155E+03  0.7818608E-02  0.1119849E+00
          2   -1    0    0  502    0  0.00000000000E+00  0.00000000000E+00  0.16947638718E+04  0.16947638718E+04  0.00000000000E+00 0. -1.
         -2   -1    0    0    0  501 -0.00000000000E+00 -0.00000000000E+00 -0.56084155525E+03  0.56084155525E+03  0.00000000000E+00 0.  1.
          6    2    1    2  502    0  0.15825022831E+03  0.53168244407E+02 -0.52609934847E+03  0.57839659714E+03  0.17289332593E+03 0.  0.
         24    2    3    3    0    0  0.13402784906E+03 -0.13183845771E+02 -0.43683157092E+03  0.46446613749E+03  0.82278146615E+02 0.  0.
         -6    2    1    2    0  501 -0.15825022831E+03 -0.53168244407E+02  0.16600216650E+04  0.16772088299E+04  0.17171934613E+03 0.  0.
        -24    2    5    5    0    0 -0.36894225184E+02 -0.24856593434E+00  0.38301613951E+03  0.39335020294E+03  0.81619687542E+02 0.  0.
          5    1    3    3  502    0  0.24222379254E+02  0.66352090177E+02 -0.89267777550E+02  0.11393045965E+03  0.47000000000E+01 0. -1.
        -13    1    4    4    0    0  0.92818350895E+02  0.24565235711E+02 -0.21093153072E+03  0.23175592273E+03  0.00000000000E+00 0.  1.
         14    1    4    4    0    0  0.41209498163E+02 -0.37749081482E+02 -0.22590004020E+03  0.23271021476E+03  0.00000000000E+00 0. -1.
         -5    1    5    5    0  501 -0.12135600313E+03 -0.52919678472E+02  0.12770055255E+04  0.12838586269E+04  0.47000000000E+01 0.  1.
         13    1    6    6    0    0 -0.36475965174E+02 -0.88091793242E+00  0.38729237906E+03  0.38900727362E+03  0.00000000000E+00 0. -1.
        -14    1    6    6    0    0 -0.41826001044E+00  0.63235199808E+00 -0.42762395465E+01  0.43429293276E+01  0.00000000000E+00 0.  1.
</event>
<event>
12    1  0.9656379E-001  0.4458547E+03  0.7818608E-02  0.1028965E+00
         -1   -1    0    0    0  501 -0.00000000000E+00  0.00000000000E+00  0.97942087723E+03  0.97942087723E+03  0.00000000000E+00 0.  1.
          1   -1    0    0  502    0  0.00000000000E+00 -0.00000000000E+00 -0.37884997242E+03  0.37884997242E+03  0.00000000000E+00 0. -1.
          6    2    1    2  502    0  0.41049959398E+03 -0.58234784864E+01  0.76349029893E+03  0.88479259205E+03  0.17719104051E+03 0.  0.
         24    2    3    3    0    0  0.41595468145E+03 -0.17353949703E+01  0.68197205836E+03  0.80285490872E+03  0.80428896830E+02 0.  0.
         -6    2    1    2    0  501 -0.41049959398E+03  0.58234784864E+01 -0.16291939412E+03  0.47347825759E+03  0.17057286382E+03 0.  0.
        -24    2    5    5    0    0 -0.41784159772E+03  0.95577698361E+01 -0.14029565029E+03  0.44894718065E+03  0.84780597871E+02 0.  0.
          5    1    3    3  502    0 -0.54550874691E+01 -0.40880835161E+01  0.81518240563E+02  0.81937683337E+02  0.47000000000E+01 0. -1.
        -13    1    4    4    0    0  0.31010609551E+03  0.12339272156E+02  0.56388202868E+03  0.64364663471E+03  0.00000000000E+00 0.  1.
         14    1    4    4    0    0  0.10584858594E+03 -0.14074667126E+02  0.11809002968E+03  0.15920827400E+03  0.00000000000E+00 0. -1.
         -5    1    5    5    0  501  0.73420037425E+01 -0.37342913497E+01 -0.22623743829E+02  0.24531076937E+02  0.47000000000E+01 0.  1.
         13    1    6    6    0    0 -0.33314014273E+03  0.20934953673E+02 -0.76906062887E+02  0.34254221563E+03  0.00000000000E+00 0. -1.
        -14    1    6    6    0    0 -0.84701454998E+02 -0.11377183837E+02 -0.63389587401E+02  0.10640496502E+03  0.00000000000E+00 0.  1.
</event>
<event>
12    1  0.9656379E-001  0.6104004E+03  0.7818608E-02  0.9884061E-01
         -1   -1    0    0    0  501 -0.00000000000E+00  0.00000000000E+00  0.46574252744E+03  0.46574252744E+03  0.00000000000E+00 0.  1.
          1   -1    0    0  502    0  0.00000000000E+00 -0.00000000000E+00 -0.82020096553E+03  0.82020096553E+03  0.00000000000E+00 0. -1.
          6    2    1    2  502    0 -0.35859292125E+02  0.58463748375E+03 -0.76279627051E+02  0.61509799490E+03  0.17158113412E+03 0.  0.
         24    2    3    3    0    0  0.31843972402E+01  0.19175459523E+03  0.19519317008E+02  0.20879650406E+03  0.80218521518E+02 0.  0.
         -6    2    1    2    0  501  0.35859292125E+02 -0.58463748375E+03 -0.27817881104E+03  0.67084549807E+03  0.17193997536E+03 0.  0.
        -24    2    5    5    0    0  0.64112277173E+02 -0.22009907278E+03 -0.14073251521E+03  0.28020492353E+03  0.78454906859E+02 0.  0.
          5    1    3    3  502    0 -0.39043689365E+02  0.39288288852E+03 -0.95798944059E+02  0.40630149084E+03  0.47000000000E+01 0. -1.
        -13    1    4    4    0    0  0.40275625899E+02  0.11147704246E+03  0.14566370352E+01  0.11853851201E+03  0.00000000000E+00 0.  1.
         14    1    4    4    0    0 -0.37091228658E+02  0.80277552763E+02  0.18062679973E+02  0.90257992050E+02  0.00000000000E+00 0. -1.
         -5    1    5    5    0  501 -0.28252985048E+02 -0.36453841097E+03 -0.13744629583E+03  0.39064057454E+03  0.47000000000E+01 0.  1.
         11    1    6    6    0    0  0.13803856811E+02 -0.16538762764E+03 -0.80080302077E+02  0.18427281031E+03  0.00000000000E+00 0. -1.
        -12    1    6    6    0    0  0.50308420361E+02 -0.54711445137E+02 -0.60652213133E+02  0.95932113216E+02  0.00000000000E+00 0.  1.
</event>
<event>
12    1  0.9656379E-001  0.6133027E+03  0.7818608E-02  0.9878185E-01
         -2   -1    0    0    0  501 -0.00000000000E+00  0.00000000000E+00  0.18080705392E+04  0.18080705392E+04  0.00000000000E+00 0.  1.
          2   -1    0    0  502    0  0.00000000000E+00 -0.00000000000E+00 -0.15807317365E+04  0.15807317365E+04  0.00000000000E+00 0. -1.
          6    2    1    2  502    0 -0.39057905124E+03  0.44071435013E+03  0.16926343151E+04  0.18002126925E+04  0.17021656823E+03 0.  0.
         24    2    3    3    0    0 -0.34982328161E+03  0.40541022716E+03  0.13687052033E+04  0.14717928799E+04  0.78016454777E+02 0.  0.
         -6    2    1    2    0  501  0.39057905124E+03 -0.44071435013E+03 -0.14652955123E+04  0.15885895831E+04  0.17246678409E+03 0.  0.
        -24    2    5    5    0    0  0.37730217583E+03 -0.44311072703E+03 -0.14588551701E+04  0.15729183978E+04  0.84319810372E+02 0.  0.
          5    1    3    3  502    0 -0.40755769629E+02  0.35304122975E+02  0.32392911177E+03  0.32841981260E+03  0.47000000000E+01 0. -1.
        -11    1    4    4    0    0 -0.20868044233E+03  0.18619744222E+03  0.74659419788E+03  0.79725774428E+03  0.00000000000E+00 0.  1.
         12    1    4    4    0    0 -0.14114283928E+03  0.21921278493E+03  0.62211100541E+03  0.67453513564E+03  0.00000000000E+00 0. -1.
         -5    1    5    5    0  501  0.13276875412E+02  0.23963769027E+01 -0.64403421857E+01  0.15671185355E+02  0.47000000000E+01 0.  1.
         13    1    6    6    0    0  0.25443836273E+03 -0.30788190645E+03 -0.10991545454E+04  0.11694746100E+04  0.00000000000E+00 0. -1.
        -14    1    6    6    0    0  0.12286381309E+03 -0.13522882059E+03 -0.35970062469E+03  0.40344378777E+03  0.00000000000E+00 0.  1.
</event>
<event>
12    1  0.9656379E-001  0.2012798E+03  0.7818608E-02  0.1148664E+00
         -1   -1    0    0    0  501 -0.00000000000E+00  0.00000000000E+00  0.10843730149E+03  0.10843730149E+03  0.00000000000E+00 0.  1.
          1   -1    0    0  502    0  0.00000000000E+00 -0.00000000000E+00 -0.41556187857E+03  0.41556187857E+03  0.00000000000E+00 0. -1.
          6    2    1    2  502    0  0.82651962247E+02  0.68481480731E+02 -0.70884036016E+02  0.21416470597E+03  0.17123350915E+03 0.  0.
         24    2    3    3    0    0  0.95299253234E+02  0.31786830893E+02  0.60172573759E+01  0.12789564882E+03  0.78922362581E+02 0.  0.
         -6    2    1    2    0  501 -0.82651962247E+02 -0.68481480731E+02 -0.23624054105E+03  0.30983447409E+03  0.16931257493E+03 0.  0.
        -24    2    5    5    0    0  0.17978722065E+02 -0.31564531572E+02 -0.14408452100E+03  0.16839820649E+03  0.79234163443E+02 0.  0.
          5    1    3    3  502    0 -0.12647290987E+02  0.36694649838E+02 -0.76901293392E+02  0.86269057149E+02  0.47000000000E+01 0. -1.
        -13    1    4    4    0    0  0.20819332468E+02  0.33291664441E+02 -0.25701293838E+02  0.46929053161E+02  0.00000000000E+00 0.  1.
         14    1    4    4    0    0  0.74479920767E+02 -0.15048335480E+01  0.31718551214E+02  0.80966595658E+02  0.00000000000E+00 0. -1.
         -5    1    5    5    0  501 -0.10063068431E+03 -0.36916949159E+02 -0.92156020051E+02  0.14143626760E+03  0.47000000000E+01 0.  1.
         13    1    6    6    0    0  0.22081365982E+01 -0.40890162644E+02 -0.25140298376E+02  0.48051179701E+02  0.00000000000E+00 0. -1.
        -14    1    6    6    0    0  0.15770585467E+02  0.93256310716E+01 -0.11894422263E+03  0.12034702679E+03  0.00000000000E+00 0.  1.
</event>
<event>
12    1  0.9656379E-001  0.4240900E+03  0.7818608E-02  0.1035743E+00
         -2   -1    0    0    0  501 -0.00000000000E+00  0.00000000000E+00  0.34630856486E+03  0.34630856486E+03  0.00000000000E+00 0.  1.
          2   -1    0    0  502    0  0.00000000000E+00 -0.00000000000E+00 -0.51965372795E+03  0.51965372795E+03  0.00000000000E+00 0. -1.
          6    2    1    2  502    0  0.96206301697E+02  0.37509253561E+03 -0.97132805989E+02  0.43442627370E+03  0.17129314791E+03 0.  0.
         24    2    3    3    0    0  0.23657562209E+02  0.24508636299E+03 -0.11724652003E+03  0.28412133029E+03  0.79694280158E+02 0.  0.
         -6    2    1    2    0  501 -0.96206301697E+02 -0.37509253561E+03 -0.76212357106E+02  0.43153601912E+03  0.17454211429E+03 0.  0.
        -24    2    5    5    0    0 -0.81399760560E+02 -0.38745359381E+03 -0.79453136275E+02  0.41142079926E+03  0.78791273748E+02 0.  0.
          5    1    3    3  502    0  0.72548739488E+02  0.13000617262E+03  0.20113714046E+02  0.15030494341E+03  0.47000000000E+01 0. -1.
        -11    1    4    4    0    0  0.44231371499E+02  0.20773354117E+03 -0.78284281485E+02  0.22635827151E+03  0.00000000000E+00 0.  1.
         12    1    4    4    0    0 -0.20573809290E+02  0.37352821816E+02 -0.38962238550E+02  0.57763058776E+02  0.00000000000E+00 0. -1.
         -5    1    5    5    0  501 -0.14806541137E+02  0.12361058203E+02  0.32407791696E+01  0.20115219858E+02  0.47000000000E+01 0.  1.
         11    1    6    6    0    0 -0.81717526662E+02 -0.37724846608E+03 -0.61638942158E+02  0.39088811508E+03  0.00000000000E+00 0. -1.
        -12    1    6    6    0    0  0.31776610206E+00 -0.10205127736E+02 -0.17814194117E+02  0.20532684176E+02  0.00000000000E+00 0.  1.
</event>
<event>
12    1  0.9656379E-001  0.5292014E+03  0.7818608E-02  0.1006426E+00
         -4   -1    0    0    0  501 -0.00000000000E+00  0.00000000000E+00  0.10941098433E+04  0.10941098433E+04  0.00000000000E+00 0.  1.
          4   -1    0    0  502    0  0.00000000000E+00 -0.00000000000E+00 -0.26567559490E+03  0.26567559490E+03  0.00000000000E+00 0. -1.
          6    2    1    2  502    0 -0.28033179663E+02  0.49981354897E+03  0.54421573949E+03  0.75911072125E+03  0.17169412662E+03 0.  0.
         24    2    3    3    0    0  0.15488786806E+02  0.36173083160E+03  0.46251386838E+03  0.59280292184E+03  0.80044541687E+02 0.  0.
         -6    2    1    2    0  501  0.28033179663E+02 -0.49981354897E+03  0.28421850894E+03  0.60067471699E+03  0.17155323347E+03 0.  0.
        -24    2    5    5    0    0 -0.46398343706E+01 -0.44834316910E+03  0.28935485222E+03  0.53931350879E+03  0.78100607697E+02 0.  0.
          5    1    3    3  502    0 -0.43521966469E+02  0.13808271737E+03  0.81701871112E+02  0.16630779941E+03  0.47000000000E+01 0. -1.
        -11    1    4    4    0    0  0.27282793157E+02  0.32574394376E+03  0.37515570736E+03  0.49758946177E+03  0.00000000000E+00 0.  1.
         12    1    4    4    0    0 -0.11794006351E+02  0.35986887835E+02  0.87358161015E+02  0.95213460066E+02  0.00000000000E+00 0. -1.
         -5    1    5    5    0  501  0.32673014034E+02 -0.51470379864E+02 -0.51363432720E+01  0.61361208199E+02  0.47000000000E+01 0.  1.
         13    1    6    6    0    0  0.33351241032E+02 -0.12266144295E+03  0.86278958527E+02  0.15363005418E+03  0.00000000000E+00 0. -1.
        -14    1    6    6    0    0 -0.37991075402E+02 -0.32568172616E+03  0.20307589369E+03  0.38568345461E+03  0.00000000000E+00 0.  1.
</event>
<event>
12    1  0.9656379E-001  0.3753723E+03  0.7818608E-02  0.1052658E+00
          1   -1    0    0  502    0  0.00000000000E+00  0.00000000000E+00  0.14983784285E+04  0.14983784285E+04  0.00000000000E+00 0. -1.
         -1   -1    0    0    0  501 -0.00000000000E+00 -0.00000000000E+00 -0.94048989661E+02  0.94048989661E+02  0.00000000000E+00 0.  1.
          6    2    1    2  502    0 -0.63083362989E+02  0.32806751517E+03  0.71159955863E+03  0.80474418485E+03  0.17213792729E+03 0.  0.
         24    2    3    3    0    0 -0.57663413993E+02  0.29744632573E+03  0.70637787314E+03  0.77286332713E+03  0.80923647694E+02 0.  0.
         -6    2    1    2    0  501  0.63083362989E+02 -0.32806751517E+03  0.69272988021E+03  0.78768323331E+03  0.17018338316E+03 0.  0.
        -24    2    5    5    0    0 -0.29090693566E+02 -0.13653442118E+03  0.32616483452E+03  0.36392268121E+03  0.81045061545E+02 0.  0.
          5    1    3    3  502    0 -0.54199489967E+01  0.30621189444E+02  0.52216854969E+01  0.31880857729E+02  0.47000000000E+01 0. -1.
        -13    1    4    4    0    0 -0.55099212087E+02  0.25838630772E+03  0.53005923998E+03  0.59225180884E+03  0.00000000000E+00 0.  1.
         14    1    4    4    0    0 -0.25642019054E+01  0.39060018010E+02  0.17631863315E+03  0.18061151828E+03  0.00000000000E+00 0. -1.
         -5    1    5    5    0  501  0.92174056556E+02 -0.19153309399E+03  0.36656504569E+03  0.42376055210E+03  0.47000000000E+01 0.  1.
         11    1    6    6    0    0 -0.91766654287E+01 -0.14046839242E+03  0.27652489064E+03  0.31029275790E+03  0.00000000000E+00 0. -1.
        -12    1    6    6    0    0 -0.19914028138E+02  0.39339712391E+01  0.49639943874E+02  0.53629923310E+02  0.00000000000E+00 0.  1.
</event>
<event>
12    1  0.9656379E-001  0.4687314E+03  0.7818608E-02  0.1022279E+00
          2   -1    0    0  502    0  0.00000000000E+00  0.00000000000E+00  0.37669444158E+03  0.37669444158E+03  0.00000000000E+00 0. -1.
         -2   -1    0    0    0  501 -0.00000000000E+00 -0.00000000000E+00 -0.58499918108E+03  0.58499918108E+03  0.00000000000E+00 0.  1.
          6    2    1    2  502    0  0.17285098808E+03 -0.40001495005E+03 -0.77869505122E+02  0.47501053802E+03  0.17228443647E+03 0.  0.
         24    2    3    3    0    0  0.16055195860E+03 -0.35214126119E+03 -0.16757568484E+02  0.39627099896E+03  0.83483467039E+02 0.  0.
         -6    2    1    2    0  501 -0.17285098808E+03  0.40001495005E+03 -0.13043523438E+03  0.48668308465E+03  0.17308278416E+03 0.  0.
        -24    2    5    5    0    0 -0.15097610630E+03  0.18091934532E+03 -0.76080335062E+02  0.25983965947E+03  0.78758092093E+02 0.  0.
          5    1    3    3  502    0  0.12299029482E+02 -0.47873688860E+02 -0.61111936638E+02  0.78739539058E+02  0.47000000000E+01 0. -1.
        -13    1    4    4    0    0  0.90149015841E+02 -0.21434737769E+03 -0.50367134463E+02  0.23792539086E+03  0.00000000000E+00 0.  1.
         14    1    4    4    0    0  0.70402942761E+02 -0.13779388350E+03  0.33609565979E+02  0.15834560810E+03  0.00000000000E+00 0. -1.
         -5    1    5    5    0  501 -0.21874881788E+02  0.21909560474E+03 -0.54354899315E+02  0.22684342518E+03  0.47000000000E+01 0.  1.
         13    1    6    6    0    0 -0.12927024816E+02  0.61923659801E+02 -0.25523366012E+01  0.63310046879E+02  0.00000000000E+00 0. -1.
        -14    1    6    6    0    0 -0.13804908148E+03  0.11899568552E+03 -0.73527998461E+02  0.19652961259E+03  0.00000000000E+00 0.  1.
</event>
<event>
12    1  0.9656379E-001  0.1241660E+04  0.7818608E-02  0.9077153E-01
         -2   -1    0    0    0  501 -0.00000000000E+00  0.00000000000E+00  0.11209758810E+04  0.11209758810E+04  0.00000000000E+00 0.  1.
          2   -1    0    0  502    0  0.00000000000E+00 -0.00000000000E+00 -0.21137279998E+04  0.21137279998E+04  0.00000000000E+00 0. -1.
          6    2    1    2  502    0 -0.98103643315E+03 -0.74143968261E+03 -0.14522924846E+04  0.19107084677E+04  0.17172099970E+03 0.  0.
         24    2    3    3    0    0 -0.63069346438E+03 -0.54731236967E+03 -0.10346547424E+04  0.13320298150E+04  0.80423355676E+02 0.  0.
         -6    2    1    2    0  501  0.98103643315E+03  0.74143968261E+03  0.45954036578E+03  0.13239954131E+04  0.17210816370E+03 0.  0.
        -24    2    5    5    0    0  0.89100882354E+03  0.66029111486E+03  0.36467868312E+03  0.11700120069E+04  0.77823354045E+02 0.  0.
          5    1    3    3  502    0 -0.35034296878E+03 -0.19412731294E+03 -0.41763774223E+03  0.57867865274E+03  0.47000000000E+01 0. -1.
        -11    1    4    4    0    0 -0.45211027137E+03 -0.37695269198E+03 -0.67194190053E+03  0.89331010694E+03  0.00000000000E+00 0.  1.
         12    1    4    4    0    0 -0.17858319301E+03 -0.17035967770E+03 -0.36271284183E+03  0.43871970806E+03  0.00000000000E+00 0. -1.
         -5    1    5    5    0  501  0.90027609610E+02  0.81148567753E+02  0.94861682667E+02  0.15398340618E+03  0.47000000000E+01 0.  1.
         11    1    6    6    0    0  0.13748945675E+03  0.12659927872E+03  0.84127744195E+02  0.20495903355E+03  0.00000000000E+00 0. -1.
        -12    1    6    6    0    0  0.75351936679E+03  0.53369183614E+03  0.28055093892E+03  0.96505297338E+03  0.00000000000E+00 0.  1.
</event>
<event>
12    1  0.9656379E-001  0.3878084E+03  0.7818608E-02  0.1048085E+00
         -1   -1    0    0    0  501 -0.00000000000E+00  0.00000000000E+00  0.19618556932E+03  0.19618556932E+03  0.00000000000E+00 0.  1.
          1   -1    0    0  502    0  0.00000000000E+00 -0.00000000000E+00 -0.21544239506E+04  0.21544239506E+04  0.00000000000E+00 0. -1.
          6    2    1    2  502    0  0.17615212161E+03  0.29948544626E+03 -0.35738974010E+02  0.38936918916E+03  0.17207553206E+03 0.  0.
         24    2    3    3    0    0  0.11981826597E+03  0.98042993056E+02  0.25103886380E+02  0.17147814092E+03  0.69323173270E+02 0.  0.
         -6    2    1    2    0  501 -0.17615212161E+03 -0.29948544626E+03 -0.19224994073E+04  0.19612403308E+04  0.17244872153E+03 0.  0.
        -24    2    5    5    0    0 -0.51663941950E+02 -0.44318860220E+02 -0.51702856934E+03  0.52737225462E+03  0.78546986911E+02 0.  0.
          5    1    3    3  502    0  0.56333855632E+02  0.20144245321E+03 -0.60842860390E+02  0.21789104824E+03  0.47000000000E+01 0. -1.
        -11    1    4    4    0    0  0.92818463347E+02  0.98554935253E+02  0.39297852602E+02  0.14097043527E+03  0.00000000000E+00 0.  1.
         12    1    4    4    0    0  0.26999802627E+02 -0.51194219719E+00 -0.14193966222E+02  0.30507705646E+02  0.00000000000E+00 0. -1.
         -5    1    5    5    0  501 -0.12448817966E+03 -0.25516658604E+03 -0.14054708379E+04  0.14338680762E+04  0.47000000000E+01 0.  1.
         13    1    6    6    0    0 -0.12354104866E+02 -0.55895029866E+02 -0.38191020608E+03  0.38617649305E+03  0.00000000000E+00 0. -1.
        -14    1    6    6    0    0 -0.39309837085E+02  0.11576169646E+02 -0.13511836326E+03  0.14119576157E+03  0.00000000000E+00 0.  1.
</event>
<event>
12    1  0.9656379E-001  0.5028872E+03  0.7818608E-02  0.1013028E+00
         -2   -1    0    0    0  501 -0.00000000000E+00  0.00000000000E+00  0.11270598815E+04  0.11270598815E+04  0.00000000000E+00 0.  1.
          2   -1    0    0  502    0  0.00000000000E+00 -0.00000000000E+00 -0.51854800079E+03  0.51854800079E+03  0.00000000000E+00 0. -1.
          6    2    1    2  502    0  0.47081471742E+03  0.30023521537E+02  0.92380387127E+03  0.10514988639E+04  0.17224505300E+03 0.  0.
         24    2    3    3    0    0  0.16823460261E+03 -0.41102217947E+02  0.32741905999E+03  0.37895850839E+03  0.80087679480E+02 0.  0.
         -6    2    1    2    0  501 -0.47081471742E+03 -0.30023521537E+02 -0.31529199051E+03  0.59410901841E+03  0.17603572506E+03 0.  0.
        -24    2    5    5    0    0 -0.22043737999E+03 -0.10647205963E+02 -0.23039060852E+03  0.32897775400E+03  0.80252904274E+02 0.  0.
          5    1    3    3  502    0  0.30258011481E+03  0.71125739484E+02  0.59638481128E+03  0.67254035554E+03  0.47000000000E+01 0. -1.
        -11    1    4    4    0    0  0.16577353974E+03 -0.44409847864E+02  0.33141663621E+03  0.37321587295E+03  0.00000000000E+00 0.  1.
         12    1    4    4    0    0  0.24610628671E+01  0.33076299173E+01 -0.39975762252E+01  0.57426354386E+01  0.00000000000E+00 0. -1.
         -5    1    5    5    0  501 -0.25037733743E+03 -0.19376315574E+02 -0.84901381998E+02  0.26513126441E+03  0.47000000000E+01 0.  1.
         11    1    6    6    0    0 -0.12813082236E+03  0.28034119796E+02 -0.15859749147E+03  0.20580715199E+03  0.00000000000E+00 0. -1.
        -12    1    6    6    0    0 -0.92306557630E+02 -0.38681325759E+02 -0.71793117050E+02  0.12317060201E+03  0.00000000000E+00 0.  1.
</event>
<event>
12    1  0.9656379E-001  0.7939801E+03  0.7818608E-02  0.9568772E-01
         -2   -1    0    0    0  501 -0.00000000000E+00  0.00000000000E+00  0.37414624366E+04  0.37414624366E+04  0.00000000000E+00 0.  1.
          2   -1    0    0  502    0  0.00000000000E+00 -0.00000000000E+00 -0.34020719540E+03  0.34020719540E+03  0.00000000000E+00 0. -1.
          6    2    1    2  502    0  0.54886577808E+03  0.54737189346E+03  0.31504451741E+04  0.32489337089E+04  0.17145208488E+03 0.  0.
         24    2    3    3    0    0  0.14202746125E+03  0.14147080818E+03  0.10014543027E+04  0.10244209617E+04  0.79635400234E+02 0.  0.
         -6    2    1    2    0  501 -0.54886577808E+03 -0.54737189346E+03  0.25081006708E+03  0.83273592312E+03  0.17226083657E+03 0.  0.
        -24    2    5    5    0    0 -0.55847157134E+03 -0.53398579383E+03  0.24478739265E+03  0.81457493376E+03  0.81118007281E+02 0.  0.
          5    1    3    3  502    0  0.40683831683E+03  0.40590108527E+03  0.21489908714E+04  0.22245127472E+04  0.47000000000E+01 0. -1.
        -11    1    4    4    0    0  0.11853001722E+03  0.14942112085E+03  0.89863166253E+03  0.91864841002E+03  0.00000000000E+00 0.  1.
         12    1    4    4    0    0  0.23497444040E+02 -0.79503126671E+01  0.10282264020E+03  0.10577255167E+03  0.00000000000E+00 0. -1.
         -5    1    5    5    0  501  0.96057932580E+01 -0.13386099621E+02  0.60226744367E+01  0.18160989360E+02  0.47000000000E+01 0.  1.
         11    1    6    6    0    0 -0.34764452079E+03 -0.30512968372E+03  0.18237196898E+03  0.49721260220E+03  0.00000000000E+00 0. -1.
        -12    1    6    6    0    0 -0.21082705055E+03 -0.22885611012E+03  0.62415423668E+02  0.31736233156E+03  0.00000000000E+00 0.  1.
</event>
<event>
12    1  0.9656379E-001  0.3073703E+03  0.7818608E-02  0.1081613E+00
          2   -1    0    0  502    0  0.00000000000E+00  0.00000000000E+00  0.14328060282E+04  0.14328060282E+04  0.00000000000E+00 0. -1.
         -2   -1    0    0    0  501 -0.00000000000E+00 -0.00000000000E+00 -0.24279426597E+03  0.24279426597E+03  0.00000000000E+00 0.  1.
          6    2    1    2  502    0  0.15913655038E+03 -0.19743975879E+03 -0.11969160084E+03  0.33046125290E+03  0.17484753455E+03 0.  0.
         24    2    3    3    0    0  0.12891163094E+03 -0.81613736346E+02 -0.11921562087E+03  0.21066338235E+03  0.82992083074E+02 0.  0.
         -6    2    1    2    0  501 -0.15913655038E+03  0.19743975879E+03  0.13097033630E+04  0.13451390412E+04  0.17253765123E+03 0.  0.
        -24    2    5    5    0    0 -0.12280587334E+03  0.80942457132E+02  0.96609128321E+03  0.98047084850E+03  0.79735521440E+02 0.  0.
          5    1    3    3  502    0  0.30224919439E+02 -0.11582602244E+03 -0.47597997313E+00  0.11979787055E+03  0.47000000000E+01 0. -1.
        -11    1    4    4    0    0  0.43564338476E+02 -0.64799008039E+02 -0.89423268110E+02  0.11871513766E+03  0.00000000000E+00 0.  1.
         12    1    4    4    0    0  0.85347292468E+02 -0.16814728307E+02 -0.29792352755E+02  0.91948244695E+02  0.00000000000E+00 0. -1.
         -5    1    5    5    0  501 -0.36330677040E+02  0.11649730166E+03  0.34361207983E+03  0.36466819274E+03  0.47000000000E+01 0.  1.
         13    1    6    6    0    0 -0.12048815076E+03  0.94740794254E+02  0.89086087734E+03  0.90395039430E+03  0.00000000000E+00 0. -1.
        -14    1    6    6    0    0 -0.23177225857E+01 -0.13798337122E+02  0.75230405865E+02  0.76520454206E+02  0.00000000000E+00 0.  1.
</event>
<event>
12    1  0.9656379E-001  0.1260033E+04  0.7818608E-02  0.9061874E-01
          2   -1    0    0  502    0  0.00000000000E+00  0.00000000000E+00  0.14520798758E+04  0.14520798758E+04  0.00000000000E+00 0. -1.
         -2   -1    0    0    0  501 -0.00000000000E+00 -0.00000000000E+00 -0.19289629508E+04  0.19289629508E+04  0.00000000000E+00 0.  1.
          6    2    1    2  502    0  0.10403729827E+04 -0.69021028003E+03 -0.13511030808E+04  0.18476533289E+04  0.17197998433E+03 0.  0.
         24    2    3    3    0    0  0.45353184632E+03 -0.37617315697E+03 -0.64700413143E+03  0.87874711335E+03  0.79904714997E+02 0.  0.
         -6    2    1    2    0  501 -0.10403729827E+04  0.69021028003E+03  0.87422000576E+03  0.15333894977E+04  0.16809687530E+03 0.  0.
        -24    2    5    5    0    0 -0.51485171145E+03  0.41799667057E+03  0.47548797303E+03  0.81974940662E+03  0.78145862150E+02 0.  0.
          5    1    3    3  502    0  0.58684113637E+03 -0.31403712306E+03 -0.70409894938E+03  0.96890621554E+03  0.47000000000E+01 0. -1.
        -11    1    4    4    0    0  0.29522552396E+03 -0.22228638496E+03 -0.35279792664E+03  0.51091655285E+03  0.00000000000E+00 0.  1.
         12    1    4    4    0    0  0.15830632236E+03 -0.15388677201E+03 -0.29420620479E+03  0.36783056050E+03  0.00000000000E+00 0. -1.
         -5    1    5    5    0  501 -0.52552127124E+03  0.27221360946E+03  0.39873203272E+03  0.71364009110E+03  0.47000000000E+01 0.  1.
         11    1    6    6    0    0 -0.45738672101E+03  0.34227224285E+03  0.38817201706E+03  0.69067388513E+03  0.00000000000E+00 0. -1.
        -12    1    6    6    0    0 -0.57464990442E+02  0.75724427725E+02  0.87315955971E+02  0.12907552149E+03  0.00000000000E+00 0.  1.
</event>
<event>
12    1  0.1274547E+000  0.4589179E+03  0.7818608E-02  0.1025096E+00
         -2   -1    0    0    0  501 -0.00000000000E+00  0.00000000000E+00  0.16649203859E+04  0.16649203859E+04  0.00000000000E+00 0.  1.
          2   -1    0    0  502    0  0.00000000000E+00 -0.00000000000E+00 -0.10995796658E+04  0.10995796658E+04  0.00000000000E+00 0. -1.
          6    2    1    2  502    0  0.15503026231E+03 -0.39635576989E+03  0.15829928544E+04  0.16482042034E+04  0.17198383841E+03 0.  0.
         24    2    3    3    0    0  0.18136414236E+03 -0.37310912164E+03  0.14882860277E+04  0.15470837163E+04  0.79808247147E+02 0.  0.
         -6    2    1    2    0  501 -0.15503026231E+03  0.39635576989E+03 -0.10176521342E+04  0.11162958483E+04  0.17137174783E+03 0.  0.
        -24    2    5    5    0    0 -0.14413877251E+03  0.19125788493E+03 -0.50300226579E+03  0.56215656607E+03  0.75187506254E+02 0.  0.
          5    1    3    3  502    0 -0.26333880056E+02 -0.23246648251E+02  0.94706826699E+02  0.10112048713E+03  0.47000000000E+01 0. -1.
        -11    1    4    4    0    0  0.10158879231E+03 -0.28478146383E+03  0.10164314589E+04  0.10604497515E+04  0.00000000000E+00 0.  1.
         12    1    4    4    0    0  0.79775350050E+02 -0.88327657812E+02  0.47185456880E+03  0.48663396481E+03  0.00000000000E+00 0. -1.
         -5    1    5    5    0  501 -0.10891489796E+02  0.20509788497E+03 -0.51464986845E+03  0.55413928219E+03  0.47000000000E+01 0.  1.
         13    1    6    6    0    0 -0.21478154247E+02  0.47047026449E+02 -0.18472864729E+03  0.19183171514E+03  0.00000000000E+00 0. -1.
        -14    1    6    6    0    0 -0.12266061826E+03  0.14421085848E+03 -0.31827361850E+03  0.37032485092E+03  0.00000000000E+00 0.  1.
</event>
<event>
12    1  0.9656379E-001  0.3408359E+03  0.7818608E-02  0.1066440E+00
         -1   -1    0    0    0  501 -0.00000000000E+00  0.00000000000E+00  0.30055915196E+02  0.30055915196E+02  0.00000000000E+00 0.  1.
          1   -1    0    0  502    0  0.00000000000E+00 -0.00000000000E+00 -0.39154309218E+04  0.39154309218E+04  0.00000000000E+00 0. -1.
          6    2    1    2  502    0 -0.27313636621E+03 -0.10723046276E+03 -0.17160417124E+04  0.17494585540E+04  0.17234914277E+03 0.  0.
         24    2    3    3    0    0 -0.13873917834E+03 -0.74973036084E+02 -0.12787047654E+04  0.12907769206E+04  0.78419805580E+02 0.  0.
         -6    2    1    2    0  501  0.27313636621E+03  0.10723046276E+03 -0.21693332943E+04  0.21960282830E+04  0.17444607015E+03 0.  0.
        -24    2    5    5    0    0  0.15595103551E+03  0.13007272182E+03 -0.12289464432E+04  0.12480811904E+04  0.78470754736E+02 0.  0.
          5    1    3    3  502    0 -0.13439718787E+03 -0.32257426673E+02 -0.43733694694E+03  0.45868163343E+03  0.47000000000E+01 0. -1.
        -11    1    4    4    0    0 -0.11806652975E+03 -0.37617703019E+02 -0.73259566966E+03  0.74300148871E+03  0.00000000000E+00 0.  1.
         12    1    4    4    0    0 -0.20672648586E+02 -0.37355333065E+02 -0.54610909575E+03  0.54777543188E+03  0.00000000000E+00 0. -1.
         -5    1    5    5    0  501  0.11718533069E+03 -0.22842259066E+02 -0.94038685114E+03  0.94794709258E+03  0.47000000000E+01 0.  1.
         11    1    6    6    0    0  0.12089431537E+03  0.77668335654E+02 -0.10122734894E+04  0.10224213531E+04  0.00000000000E+00 0. -1.
        -12    1    6    6    0    0  0.35056720143E+02  0.52404386170E+02 -0.21667295371E+03  0.22565983734E+03  0.00000000000E+00 0.  1.
</event>
<event>
12    1  0.9656379E-001  0.3753226E+03  0.7818608E-02  0.1052676E+00
         -2   -1    0    0    0  501 -0.00000000000E+00  0.00000000000E+00  0.47356784337E+02  0.47356784337E+02  0.00000000000E+00 0.  1.
          2   -1    0    0  502    0  0.00000000000E+00 -0.00000000000E+00 -0.33120369103E+04  0.33120369103E+04  0.00000000000E+00 0. -1.
          6    2    1    2  502    0  0.55066281549E+02 -0.33002464972E+03 -0.11027259563E+04  0.11653854164E+04  0.17369533472E+03 0.  0.
         24    2    3    3    0    0 -0.19665159302E+02 -0.22993020542E+03 -0.82202058882E+03  0.85810495923E+03  0.85858341257E+02 0.  0.
         -6    2    1    2    0  501 -0.55066281549E+02  0.33002464972E+03 -0.21619541697E+04  0.21940082783E+04  0.16636684885E+03 0.  0.
        -24    2    5    5    0    0  0.29499568640E+02  0.20084966409E+03 -0.11856199503E+04  0.12055305810E+04  0.79990644162E+02 0.  0.
          5    1    3    3  502    0  0.74731440851E+02 -0.10009444430E+03 -0.28070536744E+03  0.30728045714E+03  0.47000000000E+01 0. -1.
        -13    1    4    4    0    0  0.18184883046E+02 -0.19100677546E+03 -0.63267239359E+03  0.66112679257E+03  0.00000000000E+00 0.  1.
         14    1    4    4    0    0 -0.37850042347E+02 -0.38923429961E+02 -0.18934819523E+03  0.19697816666E+03  0.00000000000E+00 0. -1.
         -5    1    5    5    0  501 -0.84565850189E+02  0.12917498563E+03 -0.97633421941E+03  0.98847769723E+03  0.47000000000E+01 0.  1.
         13    1    6    6    0    0  0.11007554791E+02  0.20338106339E+02 -0.33368992103E+03  0.33449031111E+03  0.00000000000E+00 0. -1.
        -14    1    6    6    0    0  0.18492013849E+02  0.18051155775E+03 -0.85193002926E+03  0.87104026991E+03  0.00000000000E+00 0.  1.
</event>
<event>
12    1  0.9656379E-001  0.3307753E+03  0.7818608E-02  0.1070794E+00
          2   -1    0    0  502    0  0.00000000000E+00  0.00000000000E+00  0.31003448262E+04  0.31003448262E+04  0.00000000000E+00 0. -1.
         -2   -1    0    0    0  501 -0.00000000000E+00 -0.00000000000E+00 -0.12671276972E+03  0.12671276972E+03  0.00000000000E+00 0.  1.
          6    2    1    2  502    0  0.28021346419E+03 -0.24960868860E+02  0.11518539980E+03  0.34943579703E+03  0.17232257378E+03 0.  0.
         24    2    3    3    0    0  0.20823245185E+03  0.31549301790E+02  0.12407460340E+03  0.25737183305E+03  0.80558306776E+02 0.  0.
         -6    2    1    2    0  501 -0.28021346419E+03  0.24960868860E+02  0.28584466567E+04  0.28776217989E+04  0.17563398842E+03 0.  0.
        -24    2    5    5    0    0 -0.23192975064E+03  0.78571443271E+02  0.23341315964E+04  0.23483451386E+04  0.81176965911E+02 0.  0.
          5    1    3    3  502    0  0.71981012338E+02 -0.56510170650E+02 -0.88892035958E+01  0.92063963985E+02  0.47000000000E+01 0. -1.
        -13    1    4    4    0    0  0.12478040662E+03 -0.15768700658E+02  0.46840134355E+02  0.13421177289E+03  0.00000000000E+00 0.  1.
         14    1    4    4    0    0  0.83452045231E+02  0.47318002448E+02  0.77234469043E+02  0.12316006015E+03  0.00000000000E+00 0. -1.
         -5    1    5    5    0  501 -0.48283713550E+02 -0.53610574411E+02  0.52431506034E+03  0.52927666034E+03  0.47000000000E+01 0.  1.
         13    1    6    6    0    0 -0.13584860114E+03  0.83436978368E+02  0.16038193444E+04  0.16117236305E+04  0.00000000000E+00 0. -1.
        -14    1    6    6    0    0 -0.96081149504E+02 -0.48655350978E+01  0.73031225198E+03  0.73662150805E+03  0.00000000000E+00 0.  1.
</event>
<event>
12    1  0.9656379E-001  0.3232008E+03  0.7818608E-02  0.1074186E+00
         -1   -1    0    0    0  501 -0.00000000000E+00  0.00000000000E+00  0.32239744727E+03  0.32239744727E+03  0.00000000000E+00 0.  1.
          1   -1    0    0  502    0  0.00000000000E+00 -0.00000000000E+00 -0.13684483232E+04  0.13684483232E+04  0.00000000000E+00 0. -1.
          6    2    1    2  502    0  0.62678234348E+02  0.26331679840E+03  0.21653422339E+03  0.38690768721E+03  0.17189005539E+03 0.  0.
         24    2    3    3    0    0  0.57887204665E+02  0.26110204691E+03  0.14415731390E+03  0.31418653405E+03  0.80041487107E+02 0.  0.
         -6    2    1    2    0  501 -0.62678234348E+02 -0.26331679840E+03 -0.12625850993E+04  0.13039380833E+04  0.18129835786E+03 0.  0.
        -24    2    5    5    0    0 -0.12392240568E+02 -0.65682471787E+02 -0.65372999487E+03  0.66182077588E+03  0.78588029996E+02 0.  0.
          5    1    3    3  502    0  0.47910296822E+01  0.22147514842E+01  0.72376909492E+02  0.72721153162E+02  0.47000000000E+01 0. -1.
        -11    1    4    4    0    0  0.39305187123E+02  0.51894284092E+02  0.12461114879E+02  0.66281172593E+02  0.00000000000E+00 0.  1.
         12    1    4    4    0    0  0.18582017542E+02  0.20920776282E+03  0.13169619902E+03  0.24790536145E+03  0.00000000000E+00 0. -1.
         -5    1    5    5    0  501 -0.50285993780E+02 -0.19763432661E+03 -0.60885510446E+03  0.64211730739E+03  0.47000000000E+01 0.  1.
         13    1    6    6    0    0 -0.44507209084E+02 -0.32009247738E+02 -0.29108126537E+03  0.29619889711E+03  0.00000000000E+00 0. -1.
        -14    1    6    6    0    0  0.32114968517E+02 -0.33673224049E+02 -0.36264872951E+03  0.36562187877E+03  0.00000000000E+00 0.  1.
</event>
<event>
12    1  0.9656379E-001  0.5548074E+03  0.7818608E-02  0.1000387E+00
         -2   -1    0    0    0  501 -0.00000000000E+00  0.00000000000E+00  0.82850352431E+02  0.82850352431E+02  0.00000000000E+00 0.  1.
          2   -1    0    0  502    0  0.00000000000E+00 -0.00000000000E+00 -0.39942162510E+04  0.39942162510E+04  0.00000000000E+00 0. -1.
          6    2    1    2  502    0 -0.44398479449E+03  0.28540923319E+03 -0.14164359921E+04  0.15211588209E+04  0.17044738389E+03 0.  0.
         24    2    3    3    0    0 -0.13849369572E+03  0.14673389656E+03 -0.46815101330E+03  0.51526511312E+03  0.74976165463E+02 0.  0.
         -6    2    1    2    0  501  0.44398479449E+03 -0.28540923319E+03 -0.24949299065E+04  0.25559077825E+04  0.17148885179E+03 0.  0.
        -24    2    5    5    0    0  0.30195980941E+03 -0.26669325719E+03 -0.19268729475E+04  0.19700475749E+04  0.77091321480E+02 0.  0.
          5    1    3    3  502    0 -0.30549109877E+03  0.13867533663E+03 -0.94828497879E+03  0.10058937078E+04  0.47000000000E+01 0. -1.
        -13    1    4    4    0    0 -0.13698664607E+03  0.10616280414E+03 -0.40011256558E+03  0.43603434191E+03  0.00000000000E+00 0.  1.
         14    1    4    4    0    0 -0.15070496498E+01  0.40571092421E+02 -0.68038447716E+02  0.79230771210E+02  0.00000000000E+00 0. -1.
         -5    1    5    5    0  501  0.14202498508E+03 -0.18715975999E+02 -0.56805695904E+03  0.58586020761E+03  0.47000000000E+01 0.  1.
         11    1    6    6    0    0  0.68987124030E+02 -0.38481061886E+02 -0.51327273025E+03  0.51931581049E+03  0.00000000000E+00 0. -1.
        -12    1    6    6    0    0  0.23297268538E+03 -0.22821219531E+03 -0.14136002172E+04  0.14507317644E+04  0.00000000000E+00 0.  1.
</event>
<event>
12    1  0.9656379E-001  0.2486340E+03  0.7818608E-02  0.1114171E+00
         -2   -1    0    0    0  501 -0.00000000000E+00  0.00000000000E+00  0.61095765846E+03  0.61095765846E+03  0.00000000000E+00 0.  1.
          2   -1    0    0  502    0  0.00000000000E+00 -0.00000000000E+00 -0.26224527398E+03  0.26224527398E+03  0.00000000000E+00 0. -1.
          6    2    1    2  502    0 -0.17872582006E+03 -0.15366970330E+02  0.51662904644E+03  0.57352900785E+03  0.17277409727E+03 0.  0.
         24    2    3    3    0    0 -0.15725071613E+03  0.28839505081E+02  0.47979246643E+03  0.51193017520E+03  0.79449283592E+02 0.  0.
         -6    2    1    2    0  501  0.17872582006E+03  0.15366970330E+02 -0.16791666196E+03  0.29967392458E+03  0.17154997282E+03 0.  0.
        -24    2    5    5    0    0  0.53208412665E+02  0.38252324715E+02 -0.13304868152E+03  0.16732504825E+03  0.77468345767E+02 0.  0.
          5    1    3    3  502    0 -0.21475103923E+02 -0.44206475411E+02  0.36836580014E+02  0.61598832651E+02  0.47000000000E+01 0. -1.
        -11    1    4    4    0    0 -0.27202508495E+01 -0.69612607907E+01  0.99348007283E+00  0.75396232754E+01  0.00000000000E+00 0.  1.
         12    1    4    4    0    0 -0.15453046528E+03  0.35800765871E+02  0.47879898636E+03  0.50439055193E+03  0.00000000000E+00 0. -1.
         -5    1    5    5    0  501  0.12551740739E+03 -0.22885354385E+02 -0.34867980449E+02  0.13234887632E+03  0.47000000000E+01 0.  1.
         11    1    6    6    0    0 -0.48558282287E+00  0.44930362225E+02 -0.42538229530E+02  0.61874665348E+02  0.00000000000E+00 0. -1.
        -12    1    6    6    0    0  0.53693995488E+02 -0.66780375100E+01 -0.90510451985E+02  0.10545038291E+03  0.00000000000E+00 0.  1.
</event>
<event>
12    1  0.9656379E-001  0.6810120E+03  0.7818608E-02  0.9750267E-01
          1   -1    0    0  502    0  0.00000000000E+00  0.00000000000E+00  0.23091988712E+04  0.23091988712E+04  0.00000000000E+00 0. -1.
         -1   -1    0    0    0  501 -0.00000000000E+00 -0.00000000000E+00 -0.20823116219E+03  0.20823116219E+03  0.00000000000E+00 0.  1.
          6    2    1    2  502    0 -0.34959395726E+03  0.55729072324E+03  0.81290625804E+03  0.10602876553E+04  0.17494125437E+03 0.  0.
         24    2    3    3    0    0 -0.76813906602E+02  0.16741308945E+03  0.29475190927E+03  0.35678247088E+03  0.80545172076E+02 0.  0.
         -6    2    1    2    0  501  0.34959395726E+03 -0.55729072324E+03  0.12880614510E+04  0.14571423781E+04  0.17712346925E+03 0.  0.
        -24    2    5    5    0    0  0.31259562945E+03 -0.52292127635E+03  0.10769081749E+04  0.12399836086E+04  0.81642168966E+02 0.  0.
          5    1    3    3  502    0 -0.27278005066E+03  0.38987763379E+03  0.51815434877E+03  0.70350518443E+03  0.47000000000E+01 0. -1.
        -13    1    4    4    0    0 -0.85079246382E+02  0.17157613230E+03  0.27691945639E+03  0.33669159875E+03  0.00000000000E+00 0.  1.
         14    1    4    4    0    0  0.82653397807E+01 -0.41630428494E+01  0.17832452882E+02  0.20090872137E+02  0.00000000000E+00 0. -1.
         -5    1    5    5    0  501  0.36998327818E+02 -0.34369446888E+02  0.21115327615E+03  0.21715876950E+03  0.47000000000E+01 0.  1.
         13    1    6    6    0    0  0.14577013312E+03 -0.22747910249E+03  0.55847779134E+03  0.62039754770E+03  0.00000000000E+00 0. -1.
        -14    1    6    6    0    0  0.16682549633E+03 -0.29544217387E+03  0.51843038352E+03  0.61958606091E+03  0.00000000000E+00 0.  1.
</event>
<event>
12    1  0.9656379E-001  0.3875659E+03  0.7818608E-02  0.1048172E+00
          1   -1    0    0  502    0  0.00000000000E+00  0.00000000000E+00  0.44251953185E+03  0.44251953185E+03  0.00000000000E+00 0. -1.
         -1   -1    0    0    0  501 -0.00000000000E+00 -0.00000000000E+00 -0.38375071431E+03  0.38375071431E+03  0.00000000000E+00 0.  1.
          6    2    1    2  502    0  0.68217672641E+02 -0.34071239266E+03 -0.11102271007E+03  0.40291582245E+03  0.17110386452E+03 0.  0.
         24    2    3    3    0    0  0.43199465664E+02 -0.18611424670E+03  0.85674006370E+01  0.20581081999E+03  0.76026223186E+02 0.  0.
         -6    2    1    2    0  501 -0.68217672641E+02  0.34071239266E+03  0.16979152761E+03  0.42335442371E+03  0.17222433003E+03 0.  0.
        -24    2    5    5    0    0  0.16255371574E+01  0.22502913154E+03  0.52930945151E+02  0.24463907297E+03  0.80036483271E+02 0.  0.
          5    1    3    3  502    0  0.25018206977E+02 -0.15459814596E+03 -0.11959011071E+03  0.19710500246E+03  0.47000000000E+01 0. -1.
        -13    1    4    4    0    0  0.19510430433E+02 -0.16872454627E+03 -0.11481593446E+02  0.17023647200E+03  0.00000000000E+00 0.  1.
         14    1    4    4    0    0  0.23689035231E+02 -0.17389700427E+02  0.20048994083E+02  0.35574347989E+02  0.00000000000E+00 0. -1.
         -5    1    5    5    0  501 -0.69843209798E+02  0.11568326112E+03  0.11686058246E+03  0.17871535074E+03  0.47000000000E+01 0.  1.
         11    1    6    6    0    0  0.31164153818E+02  0.90199411923E+02  0.47266661670E+02  0.10649542572E+03  0.00000000000E+00 0. -1.
        -12    1    6    6    0    0 -0.29538616661E+02  0.13482971962E+03  0.56642834810E+01  0.13814364725E+03  0.00000000000E+00 0.  1.
</event>
<event>
12    1  0.9656379E-001  0.8883124E+03  0.7818608E-02  0.9440311E-01
         -1   -1    0    0    0  501 -0.00000000000E+00  0.00000000000E+00  0.58441064096E+03  0.58441064096E+03  0.00000000000E+00 0.  1.
          1   -1    0    0  502    0  0.00000000000E+00 -0.00000000000E+00 -0.18504070190E+04  0.18504070190E+04  0.00000000000E+00 0. -1.
          6    2    1    2  502    0  0.85485399138E+03  0.16932918101E+03 -0.59983777243E-01  0.88830079916E+03  0.17213537717E+03 0.  0.
         24    2    3    3    0    0  0.59715095132E+03  0.11350260256E+03  0.64674823739E+02  0.61674942461E+03  0.82005612488E+02 0.  0.
         -6    2    1    2    0  501 -0.85485399138E+03 -0.16932918101E+03 -0.12659363943E+04  0.15465168608E+04  0.17225483538E+03 0.  0.
        -24    2    5    5    0    0 -0.73677333965E+03 -0.19475478845E+03 -0.11054433548E+04  0.13455949667E+04  0.88636459830E+02 0.  0.
          5    1    3    3  502    0  0.25770304006E+03  0.55826578450E+02 -0.64734807516E+02  0.27155137455E+03  0.47000000000E+01 0. -1.
        -11    1    4    4    0    0  0.21315593321E+03  0.61139431840E+01  0.28963362120E+01  0.21326326671E+03  0.00000000000E+00 0.  1.
         12    1    4    4    0    0  0.38399501811E+03  0.10738865938E+03  0.61778487527E+02  0.40348615790E+03  0.00000000000E+00 0. -1.
         -5    1    5    5    0  501 -0.11808065173E+03  0.25425607436E+02 -0.16049303945E+03  0.20092189413E+03  0.47000000000E+01 0.  1.
         13    1    6    6    0    0 -0.64745447586E+03 -0.15665831057E+03 -0.91466719300E+03  0.11315278161E+04  0.00000000000E+00 0. -1.
        -14    1    6    6    0    0 -0.89318863788E+02 -0.38096477881E+02 -0.19077616181E+03  0.21406715061E+03  0.00000000000E+00 0.  1.
</event>
<event>
12    1  0.9656379E-001  0.2944127E+03  0.7818608E-02  0.1088067E+00
          2   -1    0    0  502    0  0.00000000000E+00  0.00000000000E+00  0.17409641933E+04  0.17409641933E+04  0.00000000000E+00 0. -1.
         -2   -1    0    0    0  501 -0.00000000000E+00 -0.00000000000E+00 -0.80546283780E+02  0.80546283780E+02  0.00000000000E+00 0.  1.
          6    2    1    2  502    0 -0.17955044685E+02 -0.23314619652E+03  0.25866542374E+03  0.38810326460E+03  0.17040190719E+03 0.  0.
         24    2    3    3    0    0  0.13876354114E+02 -0.22314577339E+03  0.26234159512E+03  0.35420856519E+03  0.81572089225E+02 0.  0.
         -6    2    1    2    0  501  0.17955044685E+02  0.23314619652E+03  0.14017524858E+04  0.14334072125E+04  0.18726097520E+03 0.  0.
        -24    2    5    5    0    0 -0.14884820752E+02  0.16094798016E+03  0.54086821210E+03  0.56886406036E+03  0.70299972310E+02 0.  0.
          5    1    3    3  502    0 -0.31831398798E+02 -0.10000423131E+02 -0.36761713733E+01  0.33894699412E+02  0.47000000000E+01 0. -1.
        -11    1    4    4    0    0 -0.25298998291E+02 -0.16395583039E+03  0.19895312115E+03  0.25904420096E+03  0.00000000000E+00 0.  1.
         12    1    4    4    0    0  0.39175352404E+02 -0.59189942996E+02  0.63388473964E+02  0.95164364230E+02  0.00000000000E+00 0. -1.
         -5    1    5    5    0  501  0.32839865437E+02  0.72198216355E+02  0.86088427373E+03  0.86454315217E+03  0.47000000000E+01 0.  1.
         11    1    6    6    0    0 -0.21188011135E+02  0.74387074942E+02  0.36046246443E+03  0.36866727140E+03  0.00000000000E+00 0. -1.
        -12    1    6    6    0    0  0.63031903830E+01  0.86560905219E+02  0.18040574767E+03  0.20019678897E+03  0.00000000000E+00 0.  1.
</event>
<event>
12    1  0.9656379E-001  0.3657104E+03  0.7818608E-02  0.1056345E+00
         -2   -1    0    0    0  501 -0.00000000000E+00  0.00000000000E+00  0.43895708252E+03  0.43895708252E+03  0.00000000000E+00 0.  1.
          2   -1    0    0  502    0  0.00000000000E+00 -0.00000000000E+00 -0.16105449918E+04  0.16105449918E+04  0.00000000000E+00 0. -1.
          6    2    1    2  502    0 -0.13950247681E+03 -0.29149616803E+03  0.33681942033E+03  0.49749421885E+03  0.17211106549E+03 0.  0.
         24    2    3    3    0    0 -0.17744945812E+02 -0.16217493695E+03  0.21953633365E+03  0.28459450165E+03  0.78627191864E+02 0.  0.
         -6    2    1    2    0  501  0.13950247681E+03  0.29149616803E+03 -0.15084073296E+04  0.15520078555E+04  0.17030782254E+03 0.  0.
        -24    2    5    5    0    0  0.78046295022E+02  0.66769211073E+02 -0.64646999667E+03  0.65912649528E+03  0.77297661501E+02 0.  0.
          5    1    3    3  502    0 -0.12175753100E+03 -0.12932123108E+03  0.11728308668E+03  0.21289971720E+03  0.47000000000E+01 0. -1.
        -13    1    4    4    0    0 -0.32661285509E+02 -0.31899149186E+02  0.31958994682E+02  0.55728741516E+02  0.00000000000E+00 0.  1.
         14    1    4    4    0    0  0.14916339697E+02 -0.13027578777E+03  0.18757733896E+03  0.22886576013E+03  0.00000000000E+00 0. -1.
         -5    1    5    5    0  501  0.61456181786E+02  0.22472695696E+03 -0.86193733293E+03  0.89288136018E+03  0.47000000000E+01 0.  1.
         13    1    6    6    0    0  0.39984994960E+02  0.59097610605E+02 -0.55757666655E+03  0.56212371101E+03  0.00000000000E+00 0. -1.
        -14    1    6    6    0    0  0.38061300062E+02  0.76716004679E+01 -0.88893330121E+02  0.97002784271E+02  0.00000000000E+00 0.  1.
</event>
<event>
12    1  0.9656379E-001  0.2814738E+03  0.7818608E-02  0.1094887E+00
          2   -1    0    0  502    0  0.00000000000E+00  0.00000000000E+00  0.65091905794E+03  0.65091905794E+03  0.00000000000E+00 0. -1.
         -2   -1    0    0    0  501 -0.00000000000E+00 -0.00000000000E+00 -0.14019570142E+03  0.14019570142E+03  0.00000000000E+00 0.  1.
          6    2    1    2  502    0 -0.20559584938E+03  0.78925213063E+02  0.40015709977E+03  0.49011855009E+03  0.17774038962E+03 0.  0.
         24    2    3    3    0    0 -0.20104291427E+03  0.83409563327E+02  0.41359704802E+03  0.47451211473E+03  0.81998904056E+02 0.  0.
         -6    2    1    2    0  501  0.20559584938E+03 -0.78925213063E+02  0.11056625675E+03  0.30099620927E+03  0.17284379747E+03 0.  0.
        -24    2    5    5    0    0  0.10074544538E+03 -0.84875030106E+02  0.11696945242E+03  0.19567717749E+03  0.85172116855E+02 0.  0.
          5    1    3    3  502    0 -0.45529351145E+01 -0.44843502638E+01 -0.13439948250E+02  0.15606435352E+02  0.47000000000E+01 0. -1.
        -11    1    4    4    0    0 -0.10041931858E+03  0.75181020268E+01  0.13224450010E+03  0.16622024308E+03  0.00000000000E+00 0.  1.
         12    1    4    4    0    0 -0.10062359568E+03  0.75891461300E+02  0.28135254792E+03  0.30829187165E+03  0.00000000000E+00 0. -1.
         -5    1    5    5    0  501  0.10485040400E+03  0.59498170426E+01 -0.64031956679E+01  0.10531903178E+03  0.47000000000E+01 0.  1.
         13    1    6    6    0    0  0.95345144675E+02 -0.48059806260E+02  0.47482276780E+02  0.11685464560E+03  0.00000000000E+00 0. -1.
        -14    1    6    6    0    0  0.54003007075E+01 -0.36815223845E+02  0.69487175636E+02  0.78822531883E+02  0.00000000000E+00 0.  1.
</event>
<event>
12    1  0.9656379E-001  0.1848099E+04  0.7818608E-02  0.8681131E-01
         -2   -1    0    0    0  501 -0.00000000000E+00  0.00000000000E+00  0.26099545391E+04  0.26099545391E+04  0.00000000000E+00 0.  1.
          2   -1    0    0  502    0  0.00000000000E+00 -0.00000000000E+00 -0.14371056005E+04  0.14371056005E+04  0.00000000000E+00 0. -1.
          6    2    1    2  502    0  0.11556676774E+04  0.14313052449E+04  0.11913364185E+04  0.21984850959E+04  0.17277664800E+03 0.  0.
         24    2    3    3    0    0  0.86164879032E+03  0.11554751363E+04  0.95761574406E+03  0.17324627805E+04  0.82691862225E+02 0.  0.
         -6    2    1    2    0  501 -0.11556676774E+04 -0.14313052449E+04 -0.18487479867E+02  0.18485750436E+04  0.18079109555E+03 0.  0.
        -24    2    5    5    0    0 -0.88888992756E+03 -0.99387328146E+03 -0.24371958139E+01  0.13359379477E+04  0.82552149077E+02 0.  0.
          5    1    3    3  502    0  0.29401888709E+03  0.27583010863E+03  0.23372067442E+03  0.46602231539E+03  0.47000000000E+01 0. -1.
        -11    1    4    4    0    0  0.28120786603E+03  0.37142629239E+03  0.35630186420E+03  0.58650351492E+03  0.00000000000E+00 0.  1.
         12    1    4    4    0    0  0.58044092429E+03  0.78404884392E+03  0.60131387986E+03  0.11459592656E+04  0.00000000000E+00 0. -1.
         -5    1    5    5    0  501 -0.26677774985E+03 -0.43743196347E+03 -0.16050284053E+02  0.51263709591E+03  0.47000000000E+01 0.  1.
         13    1    6    6    0    0 -0.78392662387E+03 -0.86219962590E+03 -0.27884974282E+02  0.11656357571E+04  0.00000000000E+00 0. -1.
        -14    1    6    6    0    0 -0.10496330369E+03 -0.13167365556E+03  0.25447778469E+02  0.17030219058E+03  0.00000000000E+00 0.  1.
</event>
<event>
12    1  0.9656379E-001  0.3949702E+03  0.7818608E-02  0.1045535E+00
          1   -1    0    0  502    0  0.00000000000E+00  0.00000000000E+00  0.19312217552E+04  0.19312217552E+04  0.00000000000E+00 0. -1.
         -1   -1    0    0    0  501 -0.00000000000E+00 -0.00000000000E+00 -0.11480774410E+03  0.11480774410E+03  0.00000000000E+00 0.  1.
          6    2    1    2  502    0 -0.10939438922E+03  0.33779286273E+03  0.35169412452E+03  0.52906230795E+03  0.17362896640E+03 0.  0.
         24    2    3    3    0    0 -0.12634228654E+03  0.30806608992E+03  0.35566603977E+03  0.49429481802E+03  0.83438277528E+02 0.  0.
         -6    2    1    2    0  501  0.10939438922E+03 -0.33779286273E+03  0.14647198866E+04  0.15169671914E+04  0.17237738536E+03 0.  0.
        -24    2    5    5    0    0  0.10848823586E+03 -0.21962580955E+03  0.11953190975E+04  0.12227510315E+04  0.79543362982E+02 0.  0.
          5    1    3    3  502    0  0.16947897322E+02  0.29726772809E+02 -0.39719152451E+01  0.34767489930E+02  0.47000000000E+01 0. -1.
        -13    1    4    4    0    0 -0.36168024018E+02  0.11778151015E+03  0.18961653624E+03  0.22613058376E+03  0.00000000000E+00 0.  1.
         14    1    4    4    0    0 -0.90174262520E+02  0.19028457976E+03  0.16604950352E+03  0.26816423426E+03  0.00000000000E+00 0. -1.
         -5    1    5    5    0  501  0.90615335830E+00 -0.11816705318E+03  0.26940078905E+03  0.29421615984E+03  0.47000000000E+01 0.  1.
         13    1    6    6    0    0  0.85963351742E+02 -0.17891928659E+03  0.78109685463E+03  0.80592437938E+03  0.00000000000E+00 0. -1.
        -14    1    6    6    0    0  0.22524884116E+02 -0.40706522956E+02  0.41422224290E+03  0.41682665214E+03  0.00000000000E+00 0.  1.
</event>
<event>
12    1  0.9656379E-001  0.6163928E+03  0.7818608E-02  0.9871968E-01
         -2   -1    0    0    0  501 -0.00000000000E+00  0.00000000000E+00  0.75480971591E+03  0.75480971591E+03  0.00000000000E+00 0.  1.
          2   -1    0    0  502    0  0.00000000000E+00 -0.00000000000E+00 -0.13782989829E+04  0.13782989829E+04  0.00000000000E+00 0. -1.
          6    2    1    2  502    0 -0.26330119382E+03  0.52958460948E+03  0.53810073560E+03  0.81790981491E+03  0.17215309002E+03 0.  0.
         24    2    3    3    0    0 -0.17031119746E+03  0.32558018223E+03  0.42223177935E+03  0.56549616475E+03  0.80609415189E+02 0.  0.
         -6    2    1    2    0  501  0.26330119382E+03 -0.52958460948E+03 -0.11615900026E+04  0.13151988839E+04  0.17512679075E+03 0.  0.
        -24    2    5    5    0    0  0.21837523017E+03 -0.29604060043E+03 -0.65297619373E+03  0.75370868547E+03  0.79819137562E+02 0.  0.
          5    1    3    3  502    0 -0.92989996367E+02  0.20400442725E+03  0.11586895625E+03  0.25241365015E+03  0.47000000000E+01 0. -1.
        -11    1    4    4    0    0 -0.13246419369E+03  0.30130680068E+03  0.35030581024E+03  0.48067318568E+03  0.00000000000E+00 0.  1.
         12    1    4    4    0    0 -0.37847003769E+02  0.24273381551E+02  0.71925969114E+02  0.84822979075E+02  0.00000000000E+00 0. -1.
         -5    1    5    5    0  501  0.44925963658E+02 -0.23354400904E+03 -0.50861380888E+03  0.56149019845E+03  0.47000000000E+01 0.  1.
         13    1    6    6    0    0  0.39810207486E+02 -0.71799002832E+02 -0.21626494059E+03  0.23132331045E+03  0.00000000000E+00 0. -1.
        -14    1    6    6    0    0  0.17856502268E+03 -0.22424159760E+03 -0.43671125314E+03  0.52238537502E+03  0.00000000000E+00 0.  1.
</event>
<event>
12    1  0.9656379E-001  0.1742223E+04  0.7818608E-02  0.8737643E-01
          2   -1    0    0  502    0  0.00000000000E+00  0.00000000000E+00  0.30940882446E+04  0.30940882446E+04  0.00000000000E+00 0. -1.
         -2   -1    0    0    0  501 -0.00000000000E+00 -0.00000000000E+00 -0.12752922089E+04  0.12752922089E+04  0.00000000000E+00 0.  1.
          6    2    1    2  502    0 -0.15803659381E+04 -0.71282326475E+03 -0.14006837611E+03  0.17478209166E+04  0.17200378321E+03 0.  0.
         24    2    3    3    0    0 -0.14600787043E+04 -0.61969436160E+03 -0.10518567364E+03  0.15916770594E+04  0.80752156997E+02 0.  0.
         -6    2    1    2    0  501  0.15803659381E+04  0.71282326475E+03  0.19588644118E+04  0.26215595369E+04  0.17248511866E+03 0.  0.
        -24    2    5    5    0    0  0.11353988683E+04  0.56902932585E+03  0.13762568927E+04  0.18744812268E+04  0.81681521066E+02 0.  0.
          5    1    3    3  502    0 -0.12028723383E+03 -0.93128903153E+02 -0.34882702472E+02  0.15614385725E+03  0.47000000000E+01 0. -1.
        -13    1    4    4    0    0 -0.36647202279E+03 -0.15456770901E+03 -0.61525687526E+02  0.40246531575E+03  0.00000000000E+00 0.  1.
         14    1    4    4    0    0 -0.10936066815E+04 -0.46512665259E+03 -0.43659986113E+02  0.11892117436E+04  0.00000000000E+00 0. -1.
         -5    1    5    5    0  501  0.44496706979E+03  0.14379393891E+03  0.58260751908E+03  0.74707831005E+03  0.47000000000E+01 0.  1.
         11    1    6    6    0    0  0.10267856495E+04  0.50083198440E+03  0.12671153838E+04  0.17060782052E+04  0.00000000000E+00 0. -1.
        -12    1    6    6    0    0  0.10861321885E+03  0.68197341446E+02  0.10914150898E+03  0.16840302156E+03  0.00000000000E+00 0.  1.
</event>
<event>
12    1  0.9656379E-001  0.3386826E+03  0.7818608E-02  0.1067358E+00
          2   -1    0    0  502    0  0.00000000000E+00  0.00000000000E+00  0.90456637367E+03  0.90456637367E+03  0.00000000000E+00 0. -1.
         -2   -1    0    0    0  501 -0.00000000000E+00 -0.00000000000E+00 -0.28602491774E+03  0.28602491774E+03  0.00000000000E+00 0.  1.
          6    2    1    2  502    0 -0.27778826862E+03 -0.90375695633E+02 -0.13469103399E+03  0.36490506141E+03  0.17227867153E+03 0.  0.
         24    2    3    3    0    0 -0.16501037948E+03 -0.72934872881E+02 -0.15297903172E+03  0.24923494670E+03  0.78533772938E+02 0.  0.
         -6    2    1    2    0  501  0.27778826862E+03  0.90375695633E+02  0.75323248992E+03  0.82568622999E+03  0.17048307241E+03 0.  0.
        -24    2    5    5    0    0  0.14380612427E+03  0.85590628174E+02  0.29570930030E+03  0.34890150822E+03  0.79261056912E+02 0.  0.
          5    1    3    3  502    0 -0.11277788914E+03 -0.17440822752E+02  0.18287997733E+02  0.11567011471E+03  0.47000000000E+01 0. -1.
        -13    1    4    4    0    0 -0.31426566259E+02 -0.46462014300E+02 -0.21891740622E+02  0.60212923422E+02  0.00000000000E+00 0.  1.
         14    1    4    4    0    0 -0.13358381322E+03 -0.26472858582E+02 -0.13108729110E+03  0.18902202328E+03  0.00000000000E+00 0. -1.
         -5    1    5    5    0  501  0.13398214434E+03  0.47850674597E+01  0.45752318963E+03  0.47678472178E+03  0.47000000000E+01 0.  1.
         11    1    6    6    0    0  0.41616026573E+02  0.40086783143E+02  0.17516662776E+03  0.18445105403E+03  0.00000000000E+00 0. -1.
        -12    1    6    6    0    0  0.10219009770E+03  0.45503845031E+02  0.12054267254E+03  0.16445045419E+03  0.00000000000E+00 0.  1.
</event>
<event>
12    1  0.9656379E-001  0.2956568E+03  0.7818608E-02  0.1087432E+00
         -2   -1    0    0    0  501 -0.00000000000E+00  0.00000000000E+00  0.62954588234E+03  0.62954588234E+03  0.00000000000E+00 0.  1.
          2   -1    0    0  502    0  0.00000000000E+00 -0.00000000000E+00 -0.29449972396E+03  0.29449972396E+03  0.00000000000E+00 0. -1.
          6    2    1    2  502    0  0.19552861489E+03  0.13908747440E+03  0.50329200083E+03  0.58348479681E+03  0.17197355971E+03 0.  0.
         24    2    3    3    0    0  0.79983147876E+02  0.80762494714E+02  0.38041519822E+03  0.40495368798E+03  0.79698694297E+02 0.  0.
         -6    2    1    2    0  501 -0.19552861489E+03 -0.13908747440E+03 -0.16824584245E+03  0.34056080948E+03  0.17348843384E+03 0.  0.
        -24    2    5    5    0    0 -0.19712825160E+03 -0.16099909260E+03 -0.17310366893E+03  0.31757458909E+03  0.78156791379E+02 0.  0.
          5    1    3    3  502    0  0.11554546702E+03  0.58324979684E+02  0.12287680260E+03  0.17853110883E+03  0.47000000000E+01 0. -1.
        -13    1    4    4    0    0  0.94841070650E+02  0.73432791382E+02  0.35403920186E+03  0.37380604595E+03  0.00000000000E+00 0.  1.
         14    1    4    4    0    0 -0.14857922774E+02  0.73297033324E+01  0.26375996361E+02  0.31147642031E+02  0.00000000000E+00 0. -1.
         -5    1    5    5    0  501  0.15996367017E+01  0.21911618203E+02  0.48578264861E+01  0.22986220395E+02  0.47000000000E+01 0.  1.
         13    1    6    6    0    0 -0.16132739674E+03 -0.11350716631E+03 -0.16574532424E+03  0.25764688675E+03  0.00000000000E+00 0. -1.
        -14    1    6    6    0    0 -0.35800854854E+02 -0.47491926291E+02 -0.73583446976E+01  0.59927702340E+02  0.00000000000E+00 0.  1.
</event>
<event>
12    1  0.9656379E-001  0.3333989E+03  0.7818608E-02  0.1069643E+00
          2   -1    0    0  502    0  0.00000000000E+00  0.00000000000E+00  0.42366418222E+03  0.42366418222E+03  0.00000000000E+00 0. -1.
         -2   -1    0    0    0  501 -0.00000000000E+00 -0.00000000000E+00 -0.40947149314E+03  0.40947149314E+03  0.00000000000E+00 0.  1.
          6    2    1    2  502    0  0.28313378384E+03  0.36674799874E+02 -0.24259042842E+03  0.41209162491E+03  0.17163802279E+03 0.  0.
         24    2    3    3    0    0  0.72305039754E+02  0.36469309249E+01 -0.31587691541E+02  0.11195191673E+03  0.79335556491E+02 0.  0.
         -6    2    1    2    0  501 -0.28313378384E+03 -0.36674799874E+02  0.25678311751E+03  0.42104405044E+03  0.17271578527E+03 0.  0.
        -24    2    5    5    0    0 -0.23738406277E+03 -0.53074319068E+02  0.26864854165E+03  0.37079607041E+03  0.78419451025E+02 0.  0.
          5    1    3    3  502    0  0.21082874408E+03  0.33027868949E+02 -0.21100273688E+03  0.30013970818E+03  0.47000000000E+01 0. -1.
        -11    1    4    4    0    0  0.88214544805E+02  0.31974403525E+01 -0.16070117121E+02  0.89723342583E+02  0.00000000000E+00 0.  1.
         12    1    4    4    0    0 -0.15909505051E+02  0.44949057234E+00 -0.15517574420E+02  0.22228574147E+02  0.00000000000E+00 0. -1.
         -5    1    5    5    0  501 -0.45749721067E+02  0.16399519194E+02 -0.11865424141E+02  0.50247980035E+02  0.47000000000E+01 0.  1.
         11    1    6    6    0    0 -0.10830766843E+03 -0.50803995269E+02  0.86888733781E+02  0.14785550052E+03  0.00000000000E+00 0. -1.
        -12    1    6    6    0    0 -0.12907639434E+03 -0.22703237988E+01  0.18175980787E+03  0.22294056989E+03  0.00000000000E+00 0.  1.
</event>
<event>
12    1  0.9656379E-001  0.3468384E+03  0.7818608E-02  0.1063920E+00
          1   -1    0    0  502    0  0.00000000000E+00  0.00000000000E+00  0.72895239583E+03  0.72895239583E+03  0.00000000000E+00 0. -1.
         -1   -1    0    0    0  501 -0.00000000000E+00 -0.00000000000E+00 -0.18580041754E+03  0.18580041754E+03  0.00000000000E+00 0.  1.
          6    2    1    2  502    0  0.30128229130E+03  0.28493539871E+01  0.11881617016E+03  0.36686165948E+03  0.17231093129E+03 0.  0.
         24    2    3    3    0    0  0.19350014740E+03 -0.59567918459E+02  0.44881533519E+02  0.22194331373E+03  0.79081214600E+02 0.  0.
         -6    2    1    2    0  501 -0.30128229130E+03 -0.28493539871E+01  0.42433580813E+03  0.54789115389E+03  0.17130294972E+03 0.  0.
        -24    2    5    5    0    0 -0.16040835107E+03  0.27163531641E+02  0.32777580739E+03  0.37442022237E+03  0.79276897427E+02 0.  0.
          5    1    3    3  502    0  0.10778214389E+03  0.62417272446E+02  0.73934636641E+02  0.14491834576E+03  0.47000000000E+01 0. -1.
        -11    1    4    4    0    0  0.11049715266E+03 -0.30782055097E+02 -0.14916428109E+02  0.11567046074E+03  0.00000000000E+00 0.  1.
         12    1    4    4    0    0  0.83002994746E+02 -0.28785863363E+02  0.59797961627E+02  0.10627285298E+03  0.00000000000E+00 0. -1.
         -5    1    5    5    0  501 -0.14087394023E+03 -0.30012885629E+02  0.96560000735E+02  0.17347093152E+03  0.47000000000E+01 0.  1.
         11    1    6    6    0    0 -0.72764112068E+02 -0.73175405944E+01  0.21714310436E+03  0.22912723578E+03  0.00000000000E+00 0. -1.
        -12    1    6    6    0    0 -0.87644238999E+02  0.34481072236E+02  0.11063270303E+03  0.14529298659E+03  0.00000000000E+00 0.  1.
</event>
<event>
12    1  0.9656379E-001  0.6664253E+03  0.7818608E-02  0.9776437E-01
          2   -1    0    0  502    0  0.00000000000E+00  0.00000000000E+00  0.15497392083E+04  0.15497392083E+04  0.00000000000E+00 0. -1.
         -2   -1    0    0    0  501 -0.00000000000E+00 -0.00000000000E+00 -0.34181062149E+03  0.34181062149E+03  0.00000000000E+00 0.  1.
          6    2    1    2  502    0  0.27721223303E+03  0.58083574317E+03  0.22368350399E+03  0.70283701432E+03  0.17242034699E+03 0.  0.
         24    2    3    3    0    0  0.12973167079E+03  0.28563294471E+03  0.41292012685E+02  0.32576413733E+03  0.77464555464E+02 0.  0.
         -6    2    1    2    0  501 -0.27721223303E+03 -0.58083574317E+03  0.98424508282E+03  0.11887128155E+04  0.17344449235E+03 0.  0.
        -24    2    5    5    0    0 -0.17731113594E+03 -0.26822912905E+03  0.40963648855E+03  0.52697249556E+03  0.80696057667E+02 0.  0.
          5    1    3    3  502    0  0.14748056224E+03  0.29520279846E+03  0.18239149130E+03  0.37707287699E+03  0.47000000000E+01 0. -1.
        -11    1    4    4    0    0  0.91847876344E+02  0.11045176081E+03  0.11945970112E+02  0.14414690443E+03  0.00000000000E+00 0.  1.
         12    1    4    4    0    0  0.37883794450E+02  0.17518118389E+03  0.29346042573E+02  0.18161723290E+03  0.00000000000E+00 0. -1.
         -5    1    5    5    0  501 -0.99901097087E+02 -0.31260661412E+03  0.57460859426E+03  0.66174031991E+03  0.47000000000E+01 0.  1.
         13    1    6    6    0    0 -0.98242925505E+02 -0.16528397099E+03  0.30358517199E+03  0.35935277950E+03  0.00000000000E+00 0. -1.
        -14    1    6    6    0    0 -0.79068210438E+02 -0.10294515805E+03  0.10605131656E+03  0.16761971606E+03  0.00000000000E+00 0.  1.
</event>
<event>
12    1  0.9656379E-001  0.1858875E+04  0.7818608E-02  0.8675602E-01
          2   -1    0    0  502    0  0.00000000000E+00  0.00000000000E+00  0.42052758623E+04  0.42052758623E+04  0.00000000000E+00 0. -1.
         -2   -1    0    0    0  501 -0.00000000000E+00 -0.00000000000E+00 -0.12326861844E+04  0.12326861844E+04  0.00000000000E+00 0.  1.
          6    2    1    2  502    0 -0.81980447851E+03 -0.16594420095E+04 -0.83693745043E+02  0.18607872471E+04  0.17232924974E+03 0.  0.
         24    2    3    3    0    0 -0.39791308688E+03 -0.67672507589E+03 -0.53463397951E+02  0.79089899046E+03  0.79819954444E+02 0.  0.
         -6    2    1    2    0  501  0.81980447851E+03  0.16594420095E+04  0.30562834229E+04  0.35771747995E+04  0.17170911134E+03 0.  0.
        -24    2    5    5    0    0  0.66321094795E+03  0.12334478548E+04  0.22321101761E+04  0.26362836344E+04  0.80207175674E+02 0.  0.
          5    1    3    3  502    0 -0.42189139163E+03 -0.98271693360E+03 -0.30230347092E+02  0.10698882567E+04  0.47000000000E+01 0. -1.
        -13    1    4    4    0    0 -0.26281437058E+03 -0.50300242350E+03 -0.16630755899E+02  0.56776704155E+03  0.00000000000E+00 0.  1.
         14    1    4    4    0    0 -0.13509871630E+03 -0.17372265239E+03 -0.36832642052E+02  0.22313194890E+03  0.00000000000E+00 0. -1.
         -5    1    5    5    0  501  0.15659353056E+03  0.42599415474E+03  0.82417324682E+03  0.94089116504E+03  0.47000000000E+01 0.  1.
         13    1    6    6    0    0  0.43682746603E+03  0.85926114317E+03  0.15906221775E+04  0.18598996905E+04  0.00000000000E+00 0. -1.
        -14    1    6    6    0    0  0.22638348192E+03  0.37418671159E+03  0.64148799861E+03  0.77638394392E+03  0.00000000000E+00 0.  1.
</event>
<event>
12    1  0.9656379E-001  0.5211452E+03  0.7818608E-02  0.1008402E+00
          1   -1    0    0  502    0  0.00000000000E+00  0.00000000000E+00  0.19909549017E+04  0.19909549017E+04  0.00000000000E+00 0. -1.
         -1   -1    0    0    0  501 -0.00000000000E+00 -0.00000000000E+00 -0.16617464543E+03  0.16617464543E+03  0.00000000000E+00 0.  1.
          6    2    1    2  502    0  0.26010001220E+03  0.41834205435E+03  0.45653192337E+03  0.69313889086E+03  0.17134186350E+03 0.  0.
         24    2    3    3    0    0  0.24218149517E+03  0.28422657081E+03  0.37714480865E+03  0.53619163807E+03  0.76332469363E+02 0.  0.
         -6    2    1    2    0  501 -0.26010001220E+03 -0.41834205435E+03  0.13682483329E+04  0.14639906563E+04  0.16882846439E+03 0.  0.
        -24    2    5    5    0    0 -0.24006364961E+03 -0.37382826765E+03  0.10601876087E+04  0.11520508659E+04  0.76454577307E+02 0.  0.
          5    1    3    3  502    0  0.17918517023E+02  0.13411548354E+03  0.79387114712E+02  0.15694725279E+03  0.47000000000E+01 0. -1.
        -11    1    4    4    0    0  0.94703731561E+02  0.13130817755E+03  0.11407189402E+03  0.19804805293E+03  0.00000000000E+00 0.  1.
         12    1    4    4    0    0  0.14747776361E+03  0.15291839327E+03  0.26307291463E+03  0.33814358514E+03  0.00000000000E+00 0. -1.
         -5    1    5    5    0  501 -0.20036362586E+02 -0.44513786704E+02  0.30806072419E+03  0.31193979038E+03  0.47000000000E+01 0.  1.
         13    1    6    6    0    0 -0.78702504592E+02 -0.76069095567E+02  0.20819490990E+03  0.23521418333E+03  0.00000000000E+00 0. -1.
        -14    1    6    6    0    0 -0.16136114502E+03 -0.29775917208E+03  0.85199269879E+03  0.91683668255E+03  0.00000000000E+00 0.  1.
</event>
<event>
12    1  0.9656379E-001  0.2393508E+03  0.7818608E-02  0.1120226E+00
         -3   -1    0    0    0  501 -0.00000000000E+00  0.00000000000E+00  0.13146532946E+03  0.13146532946E+03  0.00000000000E+00 0.  1.
          3   -1    0    0  502    0  0.00000000000E+00 -0.00000000000E+00 -0.49030925046E+03  0.49030925046E+03  0.00000000000E+00 0. -1.
          6    2    1    2  502    0 -0.72137032271E+02  0.14851913711E+03 -0.76258042837E+02  0.25194560989E+03  0.17435485577E+03 0.  0.
         24    2    3    3    0    0  0.11539456185E+02  0.10086598744E+03  0.64824669861E+00  0.12861984306E+03  0.78965418592E+02 0.  0.
         -6    2    1    2    0  501  0.72137032271E+02 -0.14851913711E+03 -0.28258587817E+03  0.36982897003E+03  0.17221208732E+03 0.  0.
        -24    2    5    5    0    0 -0.14198277498E+02 -0.10768343950E+03 -0.12448421179E+03  0.18506001479E+03  0.83388103825E+02 0.  0.
          5    1    3    3  502    0 -0.83676488456E+02  0.47653149677E+02 -0.76906289535E+02  0.12332576683E+03  0.47000000000E+01 0. -1.
        -11    1    4    4    0    0  0.37746147700E+00  0.87796841066E+02 -0.30583029453E+02  0.92971767053E+02  0.00000000000E+00 0.  1.
         12    1    4    4    0    0  0.11161994708E+02  0.13069146371E+02  0.31231276151E+02  0.35648076004E+02  0.00000000000E+00 0. -1.
         -5    1    5    5    0  501  0.86335309768E+02 -0.40835697613E+02 -0.15810166637E+03  0.18476895525E+03  0.47000000000E+01 0.  1.
         13    1    6    6    0    0  0.28564708823E+02 -0.74783924870E+02 -0.92529492818E+02  0.12235311623E+03  0.00000000000E+00 0. -1.
        -14    1    6    6    0    0 -0.42762986321E+02 -0.32899514631E+02 -0.31954718976E+02  0.62706898559E+02  0.00000000000E+00 0.  1.
</event>
<event>
12    1  0.9656379E-001  0.6824602E+03  0.7818608E-02  0.9747707E-01
         -1   -1    0    0    0  501 -0.00000000000E+00  0.00000000000E+00  0.49858759872E+03  0.49858759872E+03  0.00000000000E+00 0.  1.
          1   -1    0    0  502    0  0.00000000000E+00 -0.00000000000E+00 -0.12982258831E+04  0.12982258831E+04  0.00000000000E+00 0. -1.
          6    2    1    2  502    0  0.35691344428E+02  0.65933156810E+03  0.76150626753E+02  0.68622709606E+03  0.17063622317E+03 0.  0.
         24    2    3    3    0    0  0.68468222199E+02  0.62696877727E+03  0.74036284468E+02  0.63987804656E+03  0.78643486224E+02 0.  0.
         -6    2    1    2    0  501 -0.35691344428E+02 -0.65933156810E+03 -0.87578891111E+03  0.11105863857E+04  0.17436718324E+03 0.  0.
        -24    2    5    5    0    0 -0.65087847914E+02 -0.24555283989E+03 -0.37346322737E+03  0.45910332925E+03  0.82270648528E+02 0.  0.
          5    1    3    3  502    0 -0.32776877771E+02  0.32362790827E+02  0.21143422851E+01  0.46349049503E+02  0.47000000000E+01 0. -1.
        -11    1    4    4    0    0  0.33328531800E+02  0.83152707812E+02  0.23345982941E+02  0.92575368041E+02  0.00000000000E+00 0.  1.
         12    1    4    4    0    0  0.35139690399E+02  0.54381606946E+03  0.50690301526E+02  0.54730267852E+03  0.00000000000E+00 0. -1.
         -5    1    5    5    0  501  0.29396503486E+02 -0.41377872820E+03 -0.50232568374E+03  0.65148305648E+03  0.47000000000E+01 0.  1.
         11    1    6    6    0    0 -0.53054221595E+02 -0.24845538929E+03 -0.34889816076E+03  0.43159559483E+03  0.00000000000E+00 0. -1.
        -12    1    6    6    0    0 -0.12033626319E+02  0.29025494007E+01 -0.24565066609E+02  0.27507734420E+02  0.00000000000E+00 0.  1.
</event>
<event>
12    1  0.9656379E-001  0.3570818E+03  0.7818608E-02  0.1059745E+00
         -1   -1    0    0    0  501 -0.00000000000E+00  0.00000000000E+00  0.17484688689E+03  0.17484688689E+03  0.00000000000E+00 0.  1.
          1   -1    0    0  502    0  0.00000000000E+00 -0.00000000000E+00 -0.82876407279E+03  0.82876407279E+03  0.00000000000E+00 0. -1.
          6    2    1    2  502    0 -0.30907776711E+03 -0.51241427391E+02 -0.15300335210E+03  0.38839913110E+03  0.17114061260E+03 0.  0.
         24    2    3    3    0    0 -0.32290797567E+03 -0.53777740543E+02 -0.15856836043E+03  0.37256351078E+03  0.80610411903E+02 0.  0.
         -6    2    1    2    0  501  0.30907776711E+03  0.51241427391E+02 -0.50091383380E+03  0.61521182858E+03  0.17151144315E+03 0.  0.
        -24    2    5    5    0    0  0.24998579316E+03  0.17242233147E+01 -0.29084536629E+03  0.39139345149E+03  0.78114896428E+02 0.  0.
          5    1    3    3  502    0  0.13830208558E+02  0.25363131518E+01  0.55650083270E+01  0.15835620318E+02  0.47000000000E+01 0. -1.
        -11    1    4    4    0    0 -0.13866269670E+03 -0.33297335611E+02 -0.11225389576E+03  0.18148551769E+03  0.00000000000E+00 0.  1.
         12    1    4    4    0    0 -0.18424527897E+03 -0.20480404932E+02 -0.46314464666E+02  0.19107799310E+03  0.00000000000E+00 0. -1.
         -5    1    5    5    0  501  0.59091973950E+02  0.49517204076E+02 -0.21006846751E+03  0.22381837709E+03  0.47000000000E+01 0.  1.
         11    1    6    6    0    0  0.16612012232E+03 -0.19234012669E+02 -0.23518573218E+03  0.28857957465E+03  0.00000000000E+00 0. -1.
        -12    1    6    6    0    0  0.83865670841E+02  0.20958235983E+02 -0.55659634116E+02  0.10281387684E+03  0.00000000000E+00 0.  1.
</event>
<event>
12    1  0.9656379E-001  0.3028255E+03  0.7818608E-02  0.1083837E+00
          1   -1    0    0  502    0  0.00000000000E+00  0.00000000000E+00  0.53325869453E+03  0.53325869453E+03  0.00000000000E+00 0. -1.
         -1   -1    0    0    0  501 -0.00000000000E+00 -0.00000000000E+00 -0.32305431092E+03  0.32305431092E+03  0.00000000000E+00 0.  1.
          6    2    1    2  502    0 -0.24422111479E+03  0.38671644912E+02 -0.18738556038E+03  0.35754159933E+03  0.17771662270E+03 0.  0.
         24    2    3    3    0    0 -0.15393682965E+03  0.94290129660E+02 -0.13573660772E+03  0.23949765709E+03  0.79671356225E+02 0.  0.
         -6    2    1    2    0  501  0.24422111479E+03 -0.38671644912E+02  0.39758994398E+03  0.49877140612E+03  0.17191772152E+03 0.  0.
        -24    2    5    5    0    0  0.23001392191E+03 -0.54836151494E+02  0.40426316511E+03  0.47575494499E+03  0.83669906378E+02 0.  0.
          5    1    3    3  502    0 -0.90284285137E+02 -0.55618484748E+02 -0.51648952653E+02  0.11804394224E+03  0.47000000000E+01 0. -1.
        -11    1    4    4    0    0 -0.11619252587E+03  0.66572213431E+02 -0.13841705855E+03  0.19259243175E+03  0.00000000000E+00 0.  1.
         12    1    4    4    0    0 -0.37744303783E+02  0.27717916229E+02  0.26804508263E+01  0.46905225346E+02  0.00000000000E+00 0. -1.
         -5    1    5    5    0  501  0.14207192881E+02  0.16164506582E+02 -0.66732211277E+01  0.23016461127E+02  0.47000000000E+01 0.  1.
         13    1    6    6    0    0  0.64330448850E+02  0.21649336982E+02  0.97059456845E+02  0.11843833249E+03  0.00000000000E+00 0. -1.
        -14    1    6    6    0    0  0.16568347306E+03 -0.76485488476E+02  0.30720370827E+03  0.35731661249E+03  0.00000000000E+00 0.  1.
</event>
<event>
12    1  0.1040942E+000  0.4364692E+03  0.7818608E-02  0.1031836E+00
          2   -1    0    0  502    0  0.00000000000E+00  0.00000000000E+00  0.10397265027E+04  0.10397265027E+04  0.00000000000E+00 0. -1.
         -2   -1    0    0    0  501 -0.00000000000E+00 -0.00000000000E+00 -0.91654009992E+03  0.91654009992E+03  0.00000000000E+00 0.  1.
          6    2    1    2  502    0 -0.24974846163E+03  0.31351486836E+03 -0.81333541688E+03  0.92286404928E+03  0.17174890488E+03 0.  0.
         24    2    3    3    0    0 -0.20537380207E+03  0.20216590495E+03 -0.45143824973E+03  0.54160383413E+03  0.80552890212E+02 0.  0.
         -6    2    1    2    0  501  0.24974846163E+03 -0.31351486836E+03  0.93652181966E+03  0.10334025533E+04  0.17372924849E+03 0.  0.
        -24    2    5    5    0    0  0.13701157845E+03 -0.12133073951E+03  0.53189871699E+03  0.57146501489E+03  0.10081020351E+03 0.  0.
          5    1    3    3  502    0 -0.44374659555E+02  0.11134896341E+03 -0.36189716716E+03  0.38126021515E+03  0.47000000000E+01 0. -1.
        -11    1    4    4    0    0 -0.18605714649E+03  0.19960496331E+03 -0.44315980310E+03  0.52043252610E+03  0.00000000000E+00 0.  1.
         12    1    4    4    0    0 -0.19316655589E+02  0.25609416466E+01 -0.82784466281E+01  0.21171308033E+02  0.00000000000E+00 0. -1.
         -5    1    5    5    0  501  0.11273688318E+03 -0.19218412885E+03  0.40462310267E+03  0.46193753845E+03  0.47000000000E+01 0.  1.
         13    1    6    6    0    0  0.12899671281E+03 -0.13831663320E+03  0.46535567280E+03  0.50232215275E+03  0.00000000000E+00 0. -1.
        -14    1    6    6    0    0  0.80148656348E+01  0.16985893686E+02  0.66543044186E+02  0.69142862140E+02  0.00000000000E+00 0.  1.
</event>
<event>
12    1  0.9656379E-001  0.1799980E+03  0.7818608E-02  0.1167805E+00
         -2   -1    0    0    0  501 -0.00000000000E+00  0.00000000000E+00  0.38168509012E+03  0.38168509012E+03  0.00000000000E+00 0.  1.
          2   -1    0    0  502    0  0.00000000000E+00 -0.00000000000E+00 -0.23548587922E+03  0.23548587922E+03  0.00000000000E+00 0. -1.
          6    2    1    2  502    0  0.48475142710E+02  0.21279472233E+02  0.32016115016E+03  0.36829746840E+03  0.17417579556E+03 0.  0.
         24    2    3    3    0    0 -0.23068978164E+01  0.20040759021E+01  0.54036538308E+02  0.96645566920E+02  0.80069220273E+02 0.  0.
         -6    2    1    2    0  501 -0.48475142710E+02 -0.21279472233E+02 -0.17396193926E+03  0.24887350094E+03  0.16991941549E+03 0.  0.
        -24    2    5    5    0    0 -0.41165033190E+02  0.48428567099E+02 -0.11490530228E+03  0.15709973116E+03  0.86239265822E+02 0.  0.
          5    1    3    3  502    0  0.50782040527E+02  0.19275396331E+02  0.26612461185E+03  0.27165190148E+03  0.47000000000E+01 0. -1.
        -11    1    4    4    0    0 -0.23992919158E+02  0.23722464782E+02  0.56550567212E+02  0.65851212267E+02  0.00000000000E+00 0.  1.
         12    1    4    4    0    0  0.21686021342E+02 -0.21718388880E+02 -0.25140289034E+01  0.30794354653E+02  0.00000000000E+00 0. -1.
         -5    1    5    5    0  501 -0.73101095205E+01 -0.69708039333E+02 -0.59056636980E+02  0.91773769783E+02  0.47000000000E+01 0.  1.
         11    1    6    6    0    0 -0.40744692483E+02 -0.10709509774E+02 -0.74133413356E+02  0.85267734466E+02  0.00000000000E+00 0. -1.
        -12    1    6    6    0    0 -0.42034070710E+00  0.59138076874E+02 -0.40771888928E+02  0.71831996696E+02  0.00000000000E+00 0.  1.
</event>
<event>
12    1  0.9656379E-001  0.4440945E+03  0.7818608E-02  0.1029498E+00
         -2   -1    0    0    0  501 -0.00000000000E+00  0.00000000000E+00  0.56378934003E+03  0.56378934003E+03  0.00000000000E+00 0.  1.
          2   -1    0    0  502    0  0.00000000000E+00 -0.00000000000E+00 -0.77976308653E+03  0.77976308653E+03  0.00000000000E+00 0. -1.
          6    2    1    2  502    0 -0.91254275079E+01 -0.40994691307E+03  0.39085758252E+03  0.59150379750E+03  0.17019796616E+03 0.  0.
         24    2    3    3    0    0  0.53175808000E+02 -0.26118866952E+03  0.28725675946E+03  0.39976001140E+03  0.79021726253E+02 0.  0.
         -6    2    1    2    0  501  0.91254275079E+01  0.40994691307E+03 -0.60683132901E+03  0.75204862905E+03  0.17085998253E+03 0.  0.
        -24    2    5    5    0    0 -0.50331288519E+02  0.30665656369E+03 -0.48556310236E+03  0.58195433123E+03  0.79547662503E+02 0.  0.
          5    1    3    3  502    0 -0.62301235508E+02 -0.14875824354E+03  0.10360082306E+03  0.19174378610E+03  0.47000000000E+01 0. -1.
        -11    1    4    4    0    0  0.15015507776E+02 -0.18676689508E+03  0.15449031201E+03  0.24284685520E+03  0.00000000000E+00 0.  1.
         12    1    4    4    0    0  0.38160300225E+02 -0.74421774440E+02  0.13276644744E+03  0.15691315621E+03  0.00000000000E+00 0. -1.
         -5    1    5    5    0  501  0.59456716027E+02  0.10329034938E+03 -0.12126822665E+03  0.17009429782E+03  0.47000000000E+01 0.  1.
         11    1    6    6    0    0 -0.12249314850E+02  0.29535675681E+02 -0.10424179505E+03  0.10903556157E+03  0.00000000000E+00 0. -1.
        -12    1    6    6    0    0 -0.38081973669E+02  0.27712088801E+03 -0.38132130731E+03  0.47291876966E+03  0.00000000000E+00 0.  1.
</event>
<event>
12    1  0.9656379E-001  0.1003663E+04  0.7818608E-02  0.9304537E-01
         -2   -1    0    0    0  501 -0.00000000000E+00  0.00000000000E+00  0.23699153408E+04  0.23699153408E+04  0.00000000000E+00 0.  1.
          2   -1    0    0  502    0  0.00000000000E+00 -0.00000000000E+00 -0.21815090747E+04  0.21815090747E+04  0.00000000000E+00 0. -1.
          6    2    1    2  502    0  0.43609939469E+03  0.88735643721E+03  0.21362137845E+04  0.23602962838E+04  0.17321976137E+03 0.  0.
         24    2    3    3    0    0  0.26399990241E+03  0.48743874367E+03  0.13492417616E+04  0.14609079074E+04  0.80660432419E+02 0.  0.
         -6    2    1    2    0  501 -0.43609939469E+03 -0.88735643721E+03 -0.19478075184E+04  0.21911281317E+04  0.17176796022E+03 0.  0.
        -24    2    5    5    0    0 -0.36913550888E+03 -0.71168175418E+03 -0.16864200967E+04  0.18691169044E+04  0.82663878621E+02 0.  0.
          5    1    3    3  502    0  0.17209949228E+03  0.39991769354E+03  0.78697202286E+03  0.89938837641E+03  0.47000000000E+01 0. -1.
        -11    1    4    4    0    0  0.80852081066E+02  0.22524150578E+03  0.53390850591E+03  0.58508895702E+03  0.00000000000E+00 0.  1.
         12    1    4    4    0    0  0.18314782135E+03  0.26219723789E+03  0.81533325569E+03  0.87581895039E+03  0.00000000000E+00 0. -1.
         -5    1    5    5    0  501 -0.66963885809E+02 -0.17567468303E+03 -0.26138742174E+03  0.32201122730E+03  0.47000000000E+01 0.  1.
         13    1    6    6    0    0 -0.11161702828E+03 -0.27556706394E+03 -0.69139083386E+03  0.75260670531E+03  0.00000000000E+00 0. -1.
        -14    1    6    6    0    0 -0.25751848061E+03 -0.43611469024E+03 -0.99502926279E+03  0.11165101991E+04  0.00000000000E+00 0.  1.
</event>
<event>
12    1  0.9656379E-001  0.2600885E+03  0.7818608E-02  0.1107090E+00
         -2   -1    0    0    0  501 -0.00000000000E+00  0.00000000000E+00  0.25487869312E+02  0.25487869312E+02  0.00000000000E+00 0.  1.
          2   -1    0    0  502    0  0.00000000000E+00 -0.00000000000E+00 -0.26845076282E+04  0.26845076282E+04  0.00000000000E+00 0. -1.
          6    2    1    2  502    0  0.77723363760E+02  0.18010416873E+03 -0.11798717416E+04  0.12079688246E+04  0.16915354448E+03 0.  0.
         24    2    3    3    0    0  0.43891115221E+02  0.72047560389E+02 -0.32277209277E+03  0.34340954395E+03  0.81431014091E+02 0.  0.
         -6    2    1    2    0  501 -0.77723363760E+02 -0.18010416873E+03 -0.14791480173E+04  0.15020266730E+04  0.17241472199E+03 0.  0.
        -24    2    5    5    0    0 -0.48830552025E+01 -0.13584965883E+03 -0.65894524802E+03  0.67739412151E+03  0.78581053254E+02 0.  0.
          5    1    3    3  502    0  0.33832248540E+02  0.10805660834E+03 -0.85709964888E+03  0.86455928065E+03  0.47000000000E+01 0. -1.
        -11    1    4    4    0    0  0.43692100615E+02  0.62493482967E+02 -0.32480833332E+03  0.33363885934E+03  0.00000000000E+00 0.  1.
         12    1    4    4    0    0  0.19901460562E+00  0.95540774216E+01  0.20362405521E+01  0.97706846115E+01  0.00000000000E+00 0. -1.
         -5    1    5    5    0  501 -0.72840308558E+02 -0.44254509893E+02 -0.82020276927E+03  0.82463255145E+03  0.47000000000E+01 0.  1.
         11    1    6    6    0    0 -0.23736419882E+02 -0.12892244454E+03 -0.61845905056E+03  0.63219934479E+03  0.00000000000E+00 0. -1.
        -12    1    6    6    0    0  0.18853364679E+02 -0.69272142926E+01 -0.40486197462E+02  0.45194776717E+02  0.00000000000E+00 0.  1.
</event>
<event>
12    1  0.9656379E-001  0.5530455E+03  0.7818608E-02  0.1000791E+00
         -2   -1    0    0    0  501 -0.00000000000E+00  0.00000000000E+00  0.17179399611E+03  0.17179399611E+03  0.00000000000E+00 0.  1.
          2   -1    0    0  502    0  0.00000000000E+00 -0.00000000000E+00 -0.18261853497E+04  0.18261853497E+04  0.00000000000E+00 0. -1.
          6    2    1    2  502    0  0.15540986722E+03  0.50221410594E+03 -0.66909539548E+03  0.86811825431E+03  0.17195761156E+03 0.  0.
         24    2    3    3    0    0  0.10011153143E+02  0.19804706849E+03 -0.29788379222E+03  0.36664191676E+03  0.79803990700E+02 0.  0.
         -6    2    1    2    0  501 -0.15540986722E+03 -0.50221410594E+03 -0.98529595807E+03  0.11298610915E+04  0.17148389417E+03 0.  0.
        -24    2    5    5    0    0 -0.11417108344E+03 -0.48073427238E+03 -0.84778610291E+03  0.98462655423E+03  0.81287748582E+02 0.  0.
          5    1    3    3  502    0  0.14539871408E+03  0.30416703745E+03 -0.37121160326E+03  0.50147633755E+03  0.47000000000E+01 0. -1.
        -13    1    4    4    0    0  0.36343695009E+02  0.17427969139E+03 -0.24149057591E+03  0.30001995476E+03  0.00000000000E+00 0.  1.
         14    1    4    4    0    0 -0.26332541866E+02  0.23767377101E+02 -0.56393216306E+02  0.66621962000E+02  0.00000000000E+00 0. -1.
         -5    1    5    5    0  501 -0.41238783780E+02 -0.21479833562E+02 -0.13750985516E+03  0.14523453723E+03  0.47000000000E+01 0.  1.
         13    1    6    6    0    0 -0.40692561219E+02 -0.57407960506E+02 -0.13862574647E+03  0.15546271596E+03  0.00000000000E+00 0. -1.
        -14    1    6    6    0    0 -0.73478522220E+02 -0.42332631187E+03 -0.70916035644E+03  0.82916383827E+03  0.00000000000E+00 0.  1.
</event>
<event>
12    1  0.1171908E+000  0.1067082E+04  0.7818608E-02  0.9237884E-01
         -1   -1    0    0    0  501 -0.00000000000E+00  0.00000000000E+00  0.76164052066E+03  0.76164052066E+03  0.00000000000E+00 0.  1.
          1   -1    0    0  502    0  0.00000000000E+00 -0.00000000000E+00 -0.18406168129E+04  0.18406168129E+04  0.00000000000E+00 0. -1.
          6    2    1    2  502    0  0.53960986865E+02  0.10517931026E+04  0.24351605605E+02  0.10672682091E+04  0.17113711075E+03 0.  0.
         24    2    3    3    0    0 -0.14054113420E+02  0.59575270289E+03  0.64765622878E+02  0.60439211032E+03  0.77307412305E+02 0.  0.
         -6    2    1    2    0  501 -0.53960986865E+02 -0.10517931026E+04 -0.11033278978E+04  0.15349891245E+04  0.17227490647E+03 0.  0.
        -24    2    5    5    0    0 -0.30104931940E+02 -0.81137065264E+03 -0.93209390427E+03  0.12388215430E+04  0.81554435957E+02 0.  0.
          5    1    3    3  502    0  0.68015100286E+02  0.45604039968E+03 -0.40414017273E+02  0.46287609875E+03  0.47000000000E+01 0. -1.
        -11    1    4    4    0    0  0.74806908014E+01  0.43488708119E+03  0.17309330230E+02  0.43529570068E+03  0.00000000000E+00 0.  1.
         12    1    4    4    0    0 -0.21534804222E+02  0.16086562171E+03  0.47456292648E+02  0.16909640964E+03  0.00000000000E+00 0. -1.
         -5    1    5    5    0  501 -0.23856054926E+02 -0.24042244993E+03 -0.17123399353E+03  0.29616758149E+03  0.47000000000E+01 0.  1.
         11    1    6    6    0    0  0.10639479825E+02 -0.60802010201E+03 -0.67570890534E+03  0.90905674615E+03  0.00000000000E+00 0. -1.
        -12    1    6    6    0    0 -0.40744411765E+02 -0.20335055063E+03 -0.25638499894E+03  0.32976479681E+03  0.00000000000E+00 0.  1.
</event>
<event>
12    1  0.9656379E-001  0.3102766E+03  0.7818608E-02  0.1080213E+00
         -1   -1    0    0    0  501 -0.00000000000E+00  0.00000000000E+00  0.29232471054E+03  0.29232471054E+03  0.00000000000E+00 0.  1.
          1   -1    0    0  502    0  0.00000000000E+00 -0.00000000000E+00 -0.51686466551E+03  0.51686466551E+03  0.00000000000E+00 0. -1.
          6    2    1    2  502    0  0.68954739114E+02  0.24880271203E+03  0.13155553847E+03  0.33654577524E+03  0.17116849467E+03 0.  0.
         24    2    3    3    0    0  0.73470813545E+02  0.25427917525E+03  0.84728769453E+02  0.28895141765E+03  0.79108141039E+02 0.  0.
         -6    2    1    2    0  501 -0.68954739114E+02 -0.24880271203E+03 -0.35609549344E+03  0.47264360081E+03  0.17300412532E+03 0.  0.
        -24    2    5    5    0    0 -0.10157179637E+02 -0.23230046209E+03 -0.31203704433E+03  0.39719352333E+03  0.79554415079E+02 0.  0.
          5    1    3    3  502    0 -0.45160744310E+01 -0.54764632185E+01  0.46826769019E+02  0.47594357590E+02  0.47000000000E+01 0. -1.
        -13    1    4    4    0    0  0.83551538034E+02  0.16407299546E+03  0.43132296951E+02  0.18910632561E+03  0.00000000000E+00 0.  1.
         14    1    4    4    0    0 -0.10080724489E+02  0.90206179793E+02  0.41596472501E+02  0.99845092036E+02  0.00000000000E+00 0. -1.
         -5    1    5    5    0  501 -0.58797559477E+02 -0.16502249944E+02 -0.44058449114E+02  0.75450077482E+02  0.47000000000E+01 0.  1.
         13    1    6    6    0    0 -0.44009609114E+02 -0.15037477253E+03 -0.18787568113E+03  0.24463583030E+03  0.00000000000E+00 0. -1.
        -14    1    6    6    0    0  0.33852429477E+02 -0.81925689563E+02 -0.12416136320E+03  0.15255769303E+03  0.00000000000E+00 0.  1.
</event>
<event>
12    1  0.9656379E-001  0.2895510E+03  0.7818608E-02  0.1090584E+00
         -2   -1    0    0    0  501 -0.00000000000E+00  0.00000000000E+00  0.14649383670E+03  0.14649383670E+03  0.00000000000E+00 0.  1.
          2   -1    0    0  502    0  0.00000000000E+00 -0.00000000000E+00 -0.57286919640E+03  0.57286919640E+03  0.00000000000E+00 0. -1.
          6    2    1    2  502    0  0.21430653675E+03 -0.89882368328E+02 -0.22323033091E+03  0.36447473241E+03  0.17030536721E+03 0.  0.
         24    2    3    3    0    0  0.10239754415E+03  0.17172124449E+02 -0.10353974340E+03  0.16868858942E+03  0.83397978584E+02 0.  0.
         -6    2    1    2    0  501 -0.21430653675E+03  0.89882368328E+02 -0.20314502879E+03  0.35488830069E+03  0.17513329613E+03 0.  0.
        -24    2    5    5    0    0 -0.17098214393E+03  0.49210728567E+00 -0.11015705072E+03  0.21873957374E+03  0.80481610232E+02 0.  0.
          5    1    3    3  502    0  0.11190899260E+03 -0.10705449278E+03 -0.11969058751E+03  0.19578614299E+03  0.47000000000E+01 0. -1.
        -11    1    4    4    0    0  0.92261882519E+02 -0.16741959783E+01 -0.11248773348E+03  0.14549415136E+03  0.00000000000E+00 0.  1.
         12    1    4    4    0    0  0.10135661631E+02  0.18846320428E+02  0.89479900791E+01  0.23194438058E+02  0.00000000000E+00 0. -1.
         -5    1    5    5    0  501 -0.43324392817E+02  0.89390261042E+02 -0.92987978076E+02  0.13614872695E+03  0.47000000000E+01 0.  1.
         11    1    6    6    0    0 -0.10416789918E+03  0.19249843569E+02 -0.10499716272E+03  0.14915063485E+03  0.00000000000E+00 0. -1.
        -12    1    6    6    0    0 -0.66814244754E+02 -0.18757736284E+02 -0.51598880006E+01  0.69588938896E+02  0.00000000000E+00 0.  1.
</event>
<event>
12    1  0.1085048E+000  0.3482354E+03  0.7818608E-02  0.1063342E+00
         -2   -1    0    0    0  501 -0.00000000000E+00  0.00000000000E+00  0.23518401643E+03  0.23518401643E+03  0.00000000000E+00 0.  1.
          2   -1    0    0  502    0  0.00000000000E+00 -0.00000000000E+00 -0.29008677437E+04  0.29008677437E+04  0.00000000000E+00 0. -1.
          6    2    1    2  502    0 -0.12055502998E+03 -0.27939891690E+03  0.90204306769E+02  0.35802721505E+03  0.16567860376E+03 0.  0.
         24    2    3    3    0    0 -0.14347541567E+03 -0.24892727572E+03  0.10549868402E+03  0.31667660476E+03  0.81265713385E+02 0.  0.
         -6    2    1    2    0  501  0.12055502998E+03  0.27939891690E+03 -0.27558880340E+04  0.27780245451E+04  0.17292844437E+03 0.  0.
        -24    2    5    5    0    0  0.92486042740E+02  0.85601880270E+02 -0.14460774955E+04  0.14536488823E+04  0.77933303753E+02 0.  0.
          5    1    3    3  502    0  0.22920385692E+02 -0.30471641176E+02 -0.15294377254E+02  0.41350610295E+02  0.47000000000E+01 0. -1.
        -11    1    4    4    0    0 -0.84284570232E+02 -0.15927620058E+03  0.10635120413E+03  0.20924477405E+03  0.00000000000E+00 0.  1.
         12    1    4    4    0    0 -0.59190845439E+02 -0.89651075142E+02 -0.85252010548E+00  0.10743183070E+03  0.00000000000E+00 0. -1.
         -5    1    5    5    0  501  0.28068987239E+02  0.19379703663E+03 -0.13098105385E+04  0.13243756628E+04  0.47000000000E+01 0.  1.
         11    1    6    6    0    0  0.44195574220E+02  0.86768010284E+02 -0.83320709535E+03  0.83887782193E+03  0.00000000000E+00 0. -1.
        -12    1    6    6    0    0  0.48290468520E+02 -0.11661300141E+01 -0.61287040017E+03  0.61477106033E+03  0.00000000000E+00 0.  1.
</event>
<event>
12    1  0.9656379E-001  0.4375991E+03  0.7818608E-02  0.1031486E+00
         -2   -1    0    0    0  501 -0.00000000000E+00  0.00000000000E+00  0.39775448603E+03  0.39775448603E+03  0.00000000000E+00 0.  1.
          2   -1    0    0  502    0  0.00000000000E+00 -0.00000000000E+00 -0.70113866266E+03  0.70113866266E+03  0.00000000000E+00 0. -1.
          6    2    1    2  502    0 -0.13897491905E+03 -0.37553480711E+03  0.15533703050E+03  0.46644871104E+03  0.18194611157E+03 0.  0.
         24    2    3    3    0    0 -0.17154376230E+03 -0.30023849717E+03  0.10877707214E+03  0.37200198763E+03  0.83562011762E+02 0.  0.
         -6    2    1    2    0  501  0.13897491905E+03  0.37553480711E+03 -0.45872120713E+03  0.63244443764E+03  0.17093975943E+03 0.  0.
        -24    2    5    5    0    0  0.69271263533E+02  0.12500863607E+03 -0.10802655284E+03  0.19583157420E+03  0.79086043609E+02 0.  0.
          5    1    3    3  502    0  0.32568843251E+02 -0.75296309936E+02  0.46559958361E+02  0.94446723412E+02  0.47000000000E+01 0. -1.
        -11    1    4    4    0    0 -0.48678016981E+02 -0.42525135529E+02  0.46928560267E+02  0.79876318503E+02  0.00000000000E+00 0.  1.
         12    1    4    4    0    0 -0.12286574532E+03 -0.25771336164E+03  0.61848511875E+02  0.29212566913E+03  0.00000000000E+00 0. -1.
         -5    1    5    5    0  501  0.69703655516E+02  0.25052617104E+03 -0.35069465430E+03  0.43661286344E+03  0.47000000000E+01 0.  1.
         11    1    6    6    0    0  0.78763533353E+02  0.68425147372E+02 -0.82611812782E+02  0.13308045157E+03  0.00000000000E+00 0. -1.
        -12    1    6    6    0    0 -0.94922698208E+01  0.56583488698E+02 -0.25414740055E+02  0.62751122633E+02  0.00000000000E+00 0.  1.
</event>
<event>
12    1  0.9656379E-001  0.1328025E+04  0.7818608E-02  0.9007632E-01
         -2   -1    0    0    0  501 -0.00000000000E+00  0.00000000000E+00  0.79611951686E+03  0.79611951686E+03  0.00000000000E+00 0.  1.
          2   -1    0    0  502    0  0.00000000000E+00 -0.00000000000E+00 -0.23796634922E+04  0.23796634922E+04  0.00000000000E+00 0. -1.
          6    2    1    2  502    0  0.13098076485E+04  0.13630272967E+03 -0.37449306871E+03  0.13798657493E+04  0.17207532481E+03 0.  0.
         24    2    3    3    0    0  0.73974412262E+03  0.11025625935E+03 -0.15302766594E+03  0.76772209233E+03  0.81252291201E+02 0.  0.
         -6    2    1    2    0  501 -0.13098076485E+04 -0.13630272967E+03 -0.12090509066E+04  0.17959172598E+04  0.17128981010E+03 0.  0.
        -24    2    5    5    0    0 -0.10809023259E+04 -0.15189873227E+03 -0.94575809235E+03  0.14466522057E+04  0.83193580273E+02 0.  0.
          5    1    3    3  502    0  0.57006352585E+03  0.26046470318E+02 -0.22146540277E+03  0.61214365695E+03  0.47000000000E+01 0. -1.
        -11    1    4    4    0    0  0.35216386863E+03  0.44903440128E+02 -0.11335826893E+03  0.37267386069E+03  0.00000000000E+00 0.  1.
         12    1    4    4    0    0  0.38758025399E+03  0.65352819225E+02 -0.39669397014E+02  0.39504823164E+03  0.00000000000E+00 0. -1.
         -5    1    5    5    0  501 -0.22890532254E+03  0.15596002603E+02 -0.26329281429E+03  0.34926505414E+03  0.47000000000E+01 0.  1.
         13    1    6    6    0    0 -0.96028156176E+03 -0.12845351614E+03 -0.87114640605E+03  0.13028956383E+04  0.00000000000E+00 0. -1.
        -14    1    6    6    0    0 -0.12062076417E+03 -0.23445216135E+02 -0.74611686305E+02  0.14375656730E+03  0.00000000000E+00 0.  1.
</event>
<event>
12    1  0.9656379E-001  0.5001095E+03  0.7818608E-02  0.1013750E+00
         -1   -1    0    0    0  501 -0.00000000000E+00  0.00000000000E+00  0.10953535781E+04  0.10953535781E+04  0.00000000000E+00 0.  1.
          1   -1    0    0  502    0  0.00000000000E+00 -0.00000000000E+00 -0.12854134907E+04  0.12854134907E+04  0.00000000000E+00 0. -1.
          6    2    1    2  502    0  0.11081599593E+02 -0.46951107164E+03  0.98446511229E+03  0.11041461689E+04  0.17147523620E+03 0.  0.
         24    2    3    3    0    0  0.48660861002E+02 -0.27848725425E+03  0.70988317805E+03  0.76751635985E+03  0.72278668939E+02 0.  0.
         -6    2    1    2    0  501 -0.11081599593E+02  0.46951107164E+03 -0.11745250249E+04  0.12766209000E+04  0.17230333714E+03 0.  0.
        -24    2    5    5    0    0 -0.58394988897E+02  0.35550399308E+03 -0.96915882261E+03  0.10369679472E+04  0.78997697195E+02 0.  0.
          5    1    3    3  502    0 -0.37579261409E+02 -0.19102381739E+03  0.27458193424E+03  0.33662980900E+03  0.47000000000E+01 0. -1.
        -13    1    4    4    0    0 -0.87026191789E+01 -0.11395806931E+03  0.22678406124E+03  0.25395508968E+03  0.00000000000E+00 0.  1.
         14    1    4    4    0    0  0.57363480181E+02 -0.16452918494E+03  0.48309911681E+03  0.51356127017E+03  0.00000000000E+00 0. -1.
         -5    1    5    5    0  501  0.47313389304E+02  0.11400707856E+03 -0.20536620228E+03  0.23965295285E+03  0.47000000000E+01 0.  1.
         13    1    6    6    0    0 -0.43638518900E+02  0.92175295272E+02 -0.21353452121E+03  0.23663811430E+03  0.00000000000E+00 0. -1.
        -14    1    6    6    0    0 -0.14756469998E+02  0.26332869781E+03 -0.75562430140E+03  0.80032983286E+03  0.00000000000E+00 0.  1.
</event>
<event>
12    1  0.9656379E-001  0.2335949E+03  0.7818608E-02  0.1124135E+00
          1   -1    0    0  502    0  0.00000000000E+00  0.00000000000E+00  0.10820319096E+04  0.10820319096E+04  0.00000000000E+00 0. -1.
         -1   -1    0    0    0  501 -0.00000000000E+00 -0.00000000000E+00 -0.11657788694E+04  0.11657788694E+04  0.00000000000E+00 0.  1.
          6    2    1    2  502    0  0.12028171880E+03  0.10260561162E+03 -0.11412050423E+04  0.11649802829E+04  0.17272668453E+03 0.  0.
         24    2    3    3    0    0  0.51987315338E+02  0.45322312769E+02 -0.92477891757E+03  0.93086949856E+03  0.80902311390E+02 0.  0.
         -6    2    1    2    0  501 -0.12028171880E+03 -0.10260561162E+03  0.10574580825E+04  0.10828304961E+04  0.17119779094E+03 0.  0.
        -24    2    5    5    0    0 -0.15410123606E+03 -0.88762527219E+02  0.83240055684E+03  0.85477705809E+03  0.78276144566E+02 0.  0.
          5    1    3    3  502    0  0.68294403466E+02  0.57283298855E+02 -0.21642612469E+03  0.23411078429E+03  0.47000000000E+01 0. -1.
        -13    1    4    4    0    0  0.66521243123E+02  0.45169430217E+02 -0.55388961818E+03  0.55969550859E+03  0.00000000000E+00 0.  1.
         14    1    4    4    0    0 -0.14533927785E+02  0.15288255233E+00 -0.37088929939E+03  0.37117398997E+03  0.00000000000E+00 0. -1.
         -5    1    5    5    0  501  0.33819517260E+02 -0.13843084405E+02  0.22505752568E+03  0.22805343803E+03  0.47000000000E+01 0.  1.
         13    1    6    6    0    0 -0.98799248149E+02 -0.29006786962E+02  0.59394624394E+03  0.60280579444E+03  0.00000000000E+00 0. -1.
        -14    1    6    6    0    0 -0.55301987915E+02 -0.59755740257E+02  0.23845431291E+03  0.25197126365E+03  0.00000000000E+00 0.  1.
</event>
<event>
12    1  0.9656379E-001  0.7338728E+03  0.7818608E-02  0.9660997E-01
         -1   -1    0    0    0  501 -0.00000000000E+00  0.00000000000E+00  0.22698943922E+03  0.22698943922E+03  0.00000000000E+00 0.  1.
          1   -1    0    0  502    0  0.00000000000E+00 -0.00000000000E+00 -0.29100393655E+04  0.29100393655E+04  0.00000000000E+00 0. -1.
          6    2    1    2  502    0  0.70249877550E+03 -0.12329910384E+03 -0.66794542860E+03  0.99255372650E+03  0.17408218121E+03 0.  0.
         24    2    3    3    0    0  0.27729983848E+03 -0.63095998016E+02 -0.19705346876E+03  0.35523129803E+03  0.80516458939E+02 0.  0.
         -6    2    1    2    0  501 -0.70249877550E+03  0.12329910384E+03 -0.20151044977E+04  0.21444750782E+04  0.17152266881E+03 0.  0.
        -24    2    5    5    0    0 -0.45589210134E+03  0.15040898567E+03 -0.13891106922E+04  0.14710954439E+04  0.63504478474E+02 0.  0.
          5    1    3    3  502    0  0.42519893702E+03 -0.60203105828E+02 -0.47089195984E+03  0.63732242847E+03  0.47000000000E+01 0. -1.
        -11    1    4    4    0    0  0.21052449671E+03 -0.45042616123E+02 -0.18732642546E+03  0.28537797858E+03  0.00000000000E+00 0.  1.
         12    1    4    4    0    0  0.66775341772E+02 -0.18053381893E+02 -0.97270432992E+01  0.69853319447E+02  0.00000000000E+00 0. -1.
         -5    1    5    5    0  501 -0.24660667416E+03 -0.27109881828E+02 -0.62599380545E+03  0.67337963430E+03  0.47000000000E+01 0.  1.
         13    1    6    6    0    0 -0.80995932739E+02  0.10299662609E+02 -0.29465830903E+03  0.30576125204E+03  0.00000000000E+00 0. -1.
        -14    1    6    6    0    0 -0.37489616860E+03  0.14010932306E+03 -0.10944523832E+04  0.11653341919E+04  0.00000000000E+00 0.  1.
</event>
<event>
12    1  0.9656379E-001  0.5330314E+03  0.7818608E-02  0.1005500E+00
          2   -1    0    0  502    0  0.00000000000E+00  0.00000000000E+00  0.53225828139E+03  0.53225828139E+03  0.00000000000E+00 0. -1.
         -2   -1    0    0    0  501 -0.00000000000E+00 -0.00000000000E+00 -0.74097016018E+03  0.74097016018E+03  0.00000000000E+00 0.  1.
          6    2    1    2  502    0  0.98838166866E+01 -0.50332973501E+03 -0.44079258787E+03  0.69072197362E+03  0.17134826332E+03 0.  0.
         24    2    3    3    0    0  0.93993122540E+01 -0.30892453955E+03 -0.36028479430E+03  0.48025295073E+03  0.72904358463E+02 0.  0.
         -6    2    1    2    0  501 -0.98838166866E+01  0.50332973501E+03  0.23208070908E+03  0.58250646795E+03  0.17892405566E+03 0.  0.
        -24    2    5    5    0    0 -0.43874240349E+02  0.12736308624E+03  0.72479110483E+02  0.17262718064E+03  0.80003858259E+02 0.  0.
          5    1    3    3  502    0  0.48450443263E+00 -0.19440519547E+03 -0.80507793569E+02  0.21046902288E+03  0.47000000000E+01 0. -1.
        -11    1    4    4    0    0  0.43919636222E+01 -0.29863406316E+03 -0.31722620403E+03  0.43569950372E+03  0.00000000000E+00 0.  1.
         12    1    4    4    0    0  0.50073486318E+01 -0.10290476389E+02 -0.43058590272E+02  0.44553447014E+02  0.00000000000E+00 0. -1.
         -5    1    5    5    0  501  0.33990423663E+02  0.37596664877E+03  0.15960159860E+03  0.40987928731E+03  0.47000000000E+01 0.  1.
         11    1    6    6    0    0 -0.21135282453E+02  0.82080411227E+02  0.69515354565E+00  0.84760706167E+02  0.00000000000E+00 0. -1.
        -12    1    6    6    0    0 -0.22738957896E+02  0.45282675012E+02  0.71783956937E+02  0.87866474472E+02  0.00000000000E+00 0.  1.
</event>
<event>
12    1  0.9656379E-001  0.7985127E+03  0.7818608E-02  0.9562172E-01
          2   -1    0    0  502    0  0.00000000000E+00  0.00000000000E+00  0.37248721110E+04  0.37248721110E+04  0.00000000000E+00 0. -1.
         -2   -1    0    0    0  501 -0.00000000000E+00 -0.00000000000E+00 -0.19097539927E+03  0.19097539927E+03  0.00000000000E+00 0.  1.
          6    2    1    2  502    0  0.73277678622E+03  0.26644404419E+03  0.23973276113E+04  0.25268188427E+04  0.17227751120E+03 0.  0.
         24    2    3    3    0    0  0.71807923513E+03  0.25273461522E+03  0.23794094157E+04  0.24994853800E+04  0.79532531739E+02 0.  0.
         -6    2    1    2    0  501 -0.73277678622E+03 -0.26644404419E+03  0.11365691004E+04  0.13890286675E+04  0.17221228798E+03 0.  0.
        -24    2    5    5    0    0 -0.22895322661E+03 -0.12640600997E+03  0.34046517144E+03  0.43653069591E+03  0.79021871485E+02 0.  0.
          5    1    3    3  502    0  0.14697551084E+02  0.13709428967E+02  0.17918195592E+02  0.27333462710E+02  0.47000000000E+01 0. -1.
        -11    1    4    4    0    0  0.37114436031E+03  0.88471268471E+02  0.11853104495E+04  0.12452052696E+04  0.00000000000E+00 0.  1.
         12    1    4    4    0    0  0.34693487482E+03  0.16426334675E+03  0.11940989662E+04  0.12542801105E+04  0.00000000000E+00 0. -1.
         -5    1    5    5    0  501 -0.50382355960E+03 -0.14003803422E+03  0.79610392895E+03  0.95249797161E+03  0.47000000000E+01 0.  1.
         13    1    6    6    0    0 -0.19929377511E+03 -0.77037455912E+02  0.24542045993E+03  0.32539818770E+03  0.00000000000E+00 0. -1.
        -14    1    6    6    0    0 -0.29659451506E+02 -0.49368554053E+02  0.95044711513E+02  0.11113250820E+03  0.00000000000E+00 0.  1.
</event>
<event>
12    1  0.9656379E-001  0.6150179E+03  0.7818608E-02  0.9874729E-01
          1   -1    0    0  502    0  0.00000000000E+00  0.00000000000E+00  0.12907374670E+04  0.12907374670E+04  0.00000000000E+00 0. -1.
         -1   -1    0    0    0  501 -0.00000000000E+00 -0.00000000000E+00 -0.30159249910E+03  0.30159249910E+03  0.00000000000E+00 0.  1.
          6    2    1    2  502    0 -0.12090579317E+03  0.57796504407E+03  0.62848591031E+03  0.87925028532E+03  0.17153635703E+03 0.  0.
         24    2    3    3    0    0  0.12974530012E+01  0.24100659328E+03  0.30071256371E+03  0.39352187594E+03  0.79659020100E+02 0.  0.
         -6    2    1    2    0  501  0.12090579317E+03 -0.57796504407E+03  0.36065905760E+03  0.71307968079E+03  0.17246991720E+03 0.  0.
        -24    2    5    5    0    0  0.90992229027E+02 -0.56929972509E+03  0.35259137983E+03  0.68056681415E+03  0.80428506551E+02 0.  0.
          5    1    3    3  502    0 -0.12220324617E+03  0.33695845079E+03  0.32777334660E+03  0.48572840938E+03  0.47000000000E+01 0. -1.
        -13    1    4    4    0    0 -0.88506603802E+01  0.17029622861E+03  0.26105993258E+03  0.31181954407E+03  0.00000000000E+00 0.  1.
         14    1    4    4    0    0  0.10148113381E+02  0.70710364672E+02  0.39652631127E+02  0.81702331867E+02  0.00000000000E+00 0. -1.
         -5    1    5    5    0  501  0.29913564139E+02 -0.86653189870E+01  0.80676777653E+01  0.32512866640E+02  0.47000000000E+01 0.  1.
         13    1    6    6    0    0  0.61770751619E+01 -0.26990809924E+03  0.18328925956E+03  0.32631808249E+03  0.00000000000E+00 0. -1.
        -14    1    6    6    0    0  0.84815153865E+02 -0.29939162585E+03  0.16930212027E+03  0.35424873166E+03  0.00000000000E+00 0.  1.
</event>
<event>
12    1  0.9656379E-001  0.4929691E+03  0.7818608E-02  0.1015631E+00
         -2   -1    0    0    0  501 -0.00000000000E+00  0.00000000000E+00  0.14862093610E+03  0.14862093610E+03  0.00000000000E+00 0.  1.
          2   -1    0    0  502    0  0.00000000000E+00 -0.00000000000E+00 -0.18198808092E+04  0.18198808092E+04  0.00000000000E+00 0. -1.
          6    2    1    2  502    0  0.37551880622E+03  0.27010392669E+03 -0.11512347807E+04  0.12528698532E+04  0.17427232625E+03 0.  0.
         24    2    3    3    0    0  0.34218434417E+03  0.18448412274E+03 -0.98919852707E+03  0.10665374226E+04  0.88678244064E+02 0.  0.
         -6    2    1    2    0  501 -0.37551880622E+03 -0.27010392669E+03 -0.52002509244E+03  0.71563189214E+03  0.16653048745E+03 0.  0.
        -24    2    5    5    0    0 -0.37413096943E+03 -0.23788499068E+03 -0.44210476133E+03  0.63117093117E+03  0.79730002422E+02 0.  0.
          5    1    3    3  502    0  0.33334462047E+02  0.85619803945E+02 -0.16203625363E+03  0.18633243056E+03  0.47000000000E+01 0. -1.
        -11    1    4    4    0    0  0.14465504609E+03  0.12805902184E+03 -0.46699788393E+03  0.50538225041E+03  0.00000000000E+00 0.  1.
         12    1    4    4    0    0  0.19752929808E+03  0.56425100899E+02 -0.52220064313E+03  0.56115517221E+03  0.00000000000E+00 0. -1.
         -5    1    5    5    0  501 -0.13878367902E+01 -0.32218936009E+02 -0.77920331110E+02  0.84460960975E+02  0.47000000000E+01 0.  1.
         13    1    6    6    0    0 -0.20722736207E+03 -0.12175009454E+03 -0.29333634979E+03  0.37922615841E+03  0.00000000000E+00 0. -1.
        -14    1    6    6    0    0 -0.16690360736E+03 -0.11613489614E+03 -0.14876841154E+03  0.25194477276E+03  0.00000000000E+00 0.  1.
</event>
<event>
12    1  0.9656379E-001  0.2928368E+03  0.7818608E-02  0.1088877E+00
         -2   -1    0    0    0  501 -0.00000000000E+00  0.00000000000E+00  0.19126078670E+03  0.19126078670E+03  0.00000000000E+00 0.  1.
          2   -1    0    0  502    0  0.00000000000E+00 -0.00000000000E+00 -0.11878702556E+04  0.11878702556E+04  0.00000000000E+00 0. -1.
          6    2    1    2  502    0 -0.21392065304E+03 -0.10335076948E+03  0.45718982038E+02  0.29647238965E+03  0.17135409290E+03 0.  0.
         24    2    3    3    0    0 -0.59366165446E+02 -0.76714006585E+02 -0.19194459524E+02  0.12667117743E+03  0.79169309140E+02 0.  0.
         -6    2    1    2    0  501  0.21392065304E+03  0.10335076948E+03 -0.10423284510E+04  0.10826586527E+04  0.17104891456E+03 0.  0.
        -24    2    5    5    0    0  0.14481411596E+03  0.10400276969E+03 -0.93283677490E+03  0.95309532569E+03  0.80115834642E+02 0.  0.
          5    1    3    3  502    0 -0.15455448760E+03 -0.26636762896E+02  0.64913441563E+02  0.16980121222E+03  0.47000000000E+01 0. -1.
        -11    1    4    4    0    0 -0.10276243195E+02 -0.71810562970E+02  0.29341131049E+01  0.72601426625E+02  0.00000000000E+00 0.  1.
         12    1    4    4    0    0 -0.49089922251E+02 -0.49034436155E+01 -0.22128572629E+02  0.54069750808E+02  0.00000000000E+00 0. -1.
         -5    1    5    5    0  501  0.69106537088E+02 -0.65200021247E+00 -0.10949167607E+03  0.12956332699E+03  0.47000000000E+01 0.  1.
         13    1    6    6    0    0  0.12138098348E+03  0.49660044966E+02 -0.73455049319E+03  0.74616612779E+03  0.00000000000E+00 0. -1.
        -14    1    6    6    0    0  0.23433132477E+02  0.54342724728E+02 -0.19828628171E+03  0.20692919790E+03  0.00000000000E+00 0.  1.
</event>
<event>
12    1  0.9656379E-001  0.1822165E+03  0.7818608E-02  0.1165675E+00
         -2   -1    0    0    0  501 -0.00000000000E+00  0.00000000000E+00  0.10230261604E+03  0.10230261604E+03  0.00000000000E+00 0.  1.
          2   -1    0    0  502    0  0.00000000000E+00 -0.00000000000E+00 -0.74289920715E+03  0.74289920715E+03  0.00000000000E+00 0. -1.
          6    2    1    2  502    0  0.56941845986E+01  0.61846302151E+02 -0.40891333640E+01  0.18344960091E+03  0.17256780185E+03 0.  0.
         24    2    3    3    0    0  0.15083494930E+02  0.60525197927E+02 -0.65076222283E+02  0.12155113987E+03  0.81541115358E+02 0.  0.
         -6    2    1    2    0  501 -0.56941845986E+01 -0.61846302151E+02 -0.63650745775E+03  0.66175222227E+03  0.17004961359E+03 0.  0.
        -24    2    5    5    0    0  0.42507918266E+02 -0.15379295941E+02 -0.51065556542E+03  0.51912188122E+03  0.81700521448E+02 0.  0.
          5    1    3    3  502    0 -0.93893103314E+01  0.13211042242E+01  0.60987088919E+02  0.61898461044E+02  0.47000000000E+01 0. -1.
        -13    1    4    4    0    0  0.14407877950E+02  0.47413299501E+02  0.54136940589E+01  0.49848931784E+02  0.00000000000E+00 0.  1.
         14    1    4    4    0    0  0.67561697998E+00  0.13111898426E+02 -0.70489916342E+02  0.71702208087E+02  0.00000000000E+00 0. -1.
         -5    1    5    5    0  501 -0.48202102864E+02 -0.46467006210E+02 -0.12585189233E+03  0.14263034106E+03  0.47000000000E+01 0.  1.
         13    1    6    6    0    0 -0.25610984865E+01  0.12352426018E+02 -0.34476349863E+03  0.34499421972E+03  0.00000000000E+00 0. -1.
        -14    1    6    6    0    0  0.45069016752E+02 -0.27731721959E+02 -0.16589206679E+03  0.17412766149E+03  0.00000000000E+00 0.  1.
</event>
<event>
12    1  0.9656379E-001  0.4259159E+03  0.7818608E-02  0.1035158E+00
         -2   -1    0    0    0  501 -0.00000000000E+00  0.00000000000E+00  0.19345120131E+04  0.19345120131E+04  0.00000000000E+00 0.  1.
          2   -1    0    0  502    0  0.00000000000E+00 -0.00000000000E+00 -0.30010389885E+03  0.30010389885E+03  0.00000000000E+00 0. -1.
          6    2    1    2  502    0 -0.28729658339E+02  0.38865618325E+03  0.17438110971E+04  0.17951357651E+04  0.17250000129E+03 0.  0.
         24    2    3    3    0    0 -0.78939817442E+02  0.19509224149E+03  0.97906971651E+03  0.10046678474E+04  0.80544995593E+02 0.  0.
         -6    2    1    2    0  501  0.28729658339E+02 -0.38865618325E+03 -0.10940298288E+03  0.43948014691E+03  0.17115713486E+03 0.  0.
        -24    2    5    5    0    0  0.22472298214E+02 -0.39499823408E+03 -0.12314681600E+03  0.42244021987E+03  0.82231331989E+02 0.  0.
          5    1    3    3  502    0  0.50210159103E+02  0.19356394176E+03  0.76474138064E+03  0.79046791768E+03  0.47000000000E+01 0. -1.
        -13    1    4    4    0    0 -0.57883058752E+02  0.18740398401E+03  0.93349951650E+03  0.95388261805E+03  0.00000000000E+00 0.  1.
         14    1    4    4    0    0 -0.21056758691E+02  0.76882574819E+01  0.45570200011E+02  0.50785229336E+02  0.00000000000E+00 0. -1.
         -5    1    5    5    0  501  0.62573601244E+01  0.63420508327E+01  0.13743833118E+02  0.17039927032E+02  0.47000000000E+01 0.  1.
         13    1    6    6    0    0  0.14768742081E+02 -0.26168075698E+03 -0.40003247458E+02  0.26513240866E+03  0.00000000000E+00 0. -1.
        -14    1    6    6    0    0  0.77035561332E+01 -0.13331747711E+03 -0.83143568543E+02  0.15730781121E+03  0.00000000000E+00 0.  1.
</event>
<event>
12    1  0.9656379E-001  0.3714832E+03  0.7818608E-02  0.1054127E+00
          1   -1    0    0  502    0  0.00000000000E+00  0.00000000000E+00  0.22457064464E+04  0.22457064464E+04  0.00000000000E+00 0. -1.
         -1   -1    0    0    0  501 -0.00000000000E+00 -0.00000000000E+00 -0.10947838096E+03  0.10947838096E+03  0.00000000000E+00 0.  1.
          6    2    1    2  502    0 -0.30799174422E+03 -0.11360870298E+03  0.28667559180E+03  0.46851474137E+03  0.17192241285E+03 0.  0.
         24    2    3    3    0    0 -0.26268016521E+03 -0.12301789027E+03  0.17645079458E+03  0.34887667084E+03  0.80285602832E+02 0.  0.
         -6    2    1    2    0  501  0.30799174422E+03  0.11360870298E+03  0.18495524736E+04  0.18866700860E+04  0.17582323161E+03 0.  0.
        -24    2    5    5    0    0  0.10643637974E+03  0.58399457828E+01  0.48298795334E+03  0.50111628044E+03  0.80482020034E+02 0.  0.
          5    1    3    3  502    0 -0.45311579004E+02  0.94091872885E+01  0.11022479722E+03  0.11963807053E+03  0.47000000000E+01 0. -1.
        -13    1    4    4    0    0 -0.19113789444E+03 -0.51226104940E+02  0.13404592195E+03  0.23901070627E+03  0.00000000000E+00 0.  1.
         14    1    4    4    0    0 -0.71542270771E+02 -0.71791785326E+02  0.42404872635E+02  0.10986596457E+03  0.00000000000E+00 0. -1.
         -5    1    5    5    0  501  0.20155536448E+03  0.10776875720E+03  0.13665645203E+04  0.13855538056E+04  0.47000000000E+01 0.  1.
         13    1    6    6    0    0  0.18279400003E+02 -0.45259500267E+01  0.26612370674E+03  0.26678914517E+03  0.00000000000E+00 0. -1.
        -14    1    6    6    0    0  0.88156979734E+02  0.10365895810E+02  0.21686424660E+03  0.23432713527E+03  0.00000000000E+00 0.  1.
</event>
<event>
12    1  0.9656379E-001  0.1285980E+04  0.7818608E-02  0.9040758E-01
         -1   -1    0    0    0  501 -0.00000000000E+00  0.00000000000E+00  0.17486092031E+04  0.17486092031E+04  0.00000000000E+00 0.  1.
          1   -1    0    0  502    0  0.00000000000E+00 -0.00000000000E+00 -0.11360918098E+04  0.11360918098E+04  0.00000000000E+00 0. -1.
          6    2    1    2  502    0  0.63430369261E+03 -0.11054186055E+04 -0.28415833416E+03  0.13168252960E+04  0.17026870965E+03 0.  0.
         24    2    3    3    0    0  0.43803864656E+03 -0.83108684223E+03 -0.15113336816E+03  0.95420205321E+03  0.71253548411E+02 0.  0.
         -6    2    1    2    0  501 -0.63430369261E+03  0.11054186055E+04  0.89667572746E+03  0.15678757168E+04  0.17296079165E+03 0.  0.
        -24    2    5    5    0    0 -0.57895071085E+03  0.10576486165E+04  0.87335217939E+03  0.14909861706E+04  0.80568045157E+02 0.  0.
          5    1    3    3  502    0  0.19626504605E+03 -0.27433176326E+03 -0.13302496600E+03  0.36262324279E+03  0.47000000000E+01 0. -1.
        -13    1    4    4    0    0  0.15714653812E+03 -0.32089865837E+03 -0.90909509959E+02  0.36869434819E+03  0.00000000000E+00 0.  1.
         14    1    4    4    0    0  0.28089210844E+03 -0.51018818387E+03 -0.60223858197E+02  0.58550770502E+03  0.00000000000E+00 0. -1.
         -5    1    5    5    0  501 -0.55352981760E+02  0.47769988963E+02  0.23323548075E+02  0.76889546299E+02  0.47000000000E+01 0.  1.
         13    1    6    6    0    0 -0.22900299681E+03  0.49532051256E+03  0.41372873004E+03  0.68480380020E+03  0.00000000000E+00 0. -1.
        -14    1    6    6    0    0 -0.34994771404E+03  0.56232810397E+03  0.45962344935E+03  0.80618237035E+03  0.00000000000E+00 0.  1.
</event>
<event>
12    1  0.9656379E-001  0.4607522E+03  0.7818608E-02  0.1024563E+00
          2   -1    0    0  502    0  0.00000000000E+00  0.00000000000E+00  0.44349223119E+03  0.44349223119E+03  0.00000000000E+00 0. -1.
         -2   -1    0    0    0  501 -0.00000000000E+00 -0.00000000000E+00 -0.48838057311E+03  0.48838057311E+03  0.00000000000E+00 0.  1.
          6    2    1    2  502    0 -0.19974621217E+03 -0.37806942978E+03  0.43232107436E+02  0.46226851631E+03  0.17025898815E+03 0.  0.
         24    2    3    3    0    0 -0.21404728864E+03 -0.34433825769E+03  0.11121217624E+02  0.41332454831E+03  0.79551387628E+02 0.  0.
         -6    2    1    2    0  501  0.19974621217E+03  0.37806942978E+03 -0.88120449359E+02  0.46960428799E+03  0.17299690947E+03 0.  0.
        -24    2    5    5    0    0  0.13097899650E+03  0.21118435096E+03 -0.11850720078E+03  0.28650594243E+03  0.79292942895E+02 0.  0.
          5    1    3    3  502    0  0.14301076469E+02 -0.33731172093E+02  0.32110889813E+02  0.48943967999E+02  0.47000000000E+01 0. -1.
        -13    1    4    4    0    0 -0.16313624554E+03 -0.19678175479E+03  0.23813494954E+02  0.25671691835E+03  0.00000000000E+00 0.  1.
         14    1    4    4    0    0 -0.50911043099E+02 -0.14755650290E+03 -0.12692277330E+02  0.15660762996E+03  0.00000000000E+00 0. -1.
         -5    1    5    5    0  501  0.68767215670E+02  0.16688507882E+03  0.30386751426E+02  0.18309834556E+03  0.47000000000E+01 0.  1.
         13    1    6    6    0    0  0.67349608232E+02  0.13167215100E+03 -0.28551723149E+02  0.15062777291E+03  0.00000000000E+00 0. -1.
        -14    1    6    6    0    0  0.63629388268E+02  0.79512199963E+02 -0.89955477636E+02  0.13587816952E+03  0.00000000000E+00 0.  1.
</event>
<event>
12    1  0.9656379E-001  0.5156984E+03  0.7818608E-02  0.1009761E+00
          2   -1    0    0  502    0  0.00000000000E+00  0.00000000000E+00  0.31012605382E+04  0.31012605382E+04  0.00000000000E+00 0. -1.
         -2   -1    0    0    0  501 -0.00000000000E+00 -0.00000000000E+00 -0.68023477858E+03  0.68023477858E+03  0.00000000000E+00 0.  1.
          6    2    1    2  502    0 -0.48496266640E+03  0.32503383745E+02 -0.55707146634E+03  0.75906130184E+03  0.17204703888E+03 0.  0.
         24    2    3    3    0    0 -0.32559976322E+03  0.40885622724E+02 -0.46397993432E+03  0.57425080383E+03  0.82460695449E+02 0.  0.
         -6    2    1    2    0  501  0.48496266640E+03 -0.32503383745E+02  0.29780972260E+04  0.30224340150E+04  0.17262395454E+03 0.  0.
        -24    2    5    5    0    0  0.38694389083E+03 -0.78990731679E+02  0.24876459676E+04  0.25201061532E+04  0.81163124805E+02 0.  0.
          5    1    3    3  502    0 -0.15936290318E+03 -0.83822389794E+01 -0.93091532013E+02  0.18481049801E+03  0.47000000000E+01 0. -1.
        -11    1    4    4    0    0 -0.11473916751E+03  0.53714528496E+02 -0.18790415679E+03  0.22662369530E+03  0.00000000000E+00 0.  1.
         12    1    4    4    0    0 -0.21086059571E+03 -0.12828905771E+02 -0.27607577753E+03  0.34762710853E+03  0.00000000000E+00 0. -1.
         -5    1    5    5    0  501  0.98018775572E+02  0.46487347934E+02  0.49045125838E+03  0.50232786179E+03  0.47000000000E+01 0.  1.
         11    1    6    6    0    0  0.25949180453E+03 -0.53991686853E+02  0.18911904467E+04  0.19096733764E+04  0.00000000000E+00 0. -1.
        -12    1    6    6    0    0  0.12745208630E+03 -0.24999044826E+02  0.59645552088E+03  0.61043277675E+03  0.00000000000E+00 0.  1.
</event>
<event>
12    1  0.9656379E-001  0.8569251E+03  0.7818608E-02  0.9481089E-01
          2   -1    0    0  502    0  0.00000000000E+00  0.00000000000E+00  0.19083483136E+04  0.19083483136E+04  0.00000000000E+00 0. -1.
         -2   -1    0    0    0  501 -0.00000000000E+00 -0.00000000000E+00 -0.86508950633E+03  0.86508950633E+03  0.00000000000E+00 0.  1.
          6    2    1    2  502    0 -0.78100869606E+03 -0.30812129763E+03 -0.51164133909E+03  0.99803274312E+03  0.17140355627E+03 0.  0.
         24    2    3    3    0    0 -0.73415638715E+03 -0.32497521430E+03 -0.48516101412E+03  0.94144218765E+03  0.79609624869E+02 0.  0.
         -6    2    1    2    0  501  0.78100869606E+03  0.30812129763E+03  0.15549001463E+04  0.17754050768E+04  0.17156749166E+03 0.  0.
        -24    2    5    5    0    0  0.77481028603E+03  0.29232804259E+03  0.14728857665E+04  0.16915224463E+04  0.77904052668E+02 0.  0.
          5    1    3    3  502    0 -0.46852308911E+02  0.16853916674E+02 -0.26480324975E+02  0.56590555469E+02  0.47000000000E+01 0. -1.
        -11    1    4    4    0    0 -0.13774868799E+03 -0.89093773767E+02 -0.12161631822E+03  0.20421295362E+03  0.00000000000E+00 0.  1.
         12    1    4    4    0    0 -0.59640769915E+03 -0.23588144053E+03 -0.36354469589E+03  0.73722923403E+03  0.00000000000E+00 0. -1.
         -5    1    5    5    0  501  0.61984100247E+01  0.15793255037E+02  0.82014379866E+02  0.83882630480E+02  0.47000000000E+01 0.  1.
         11    1    6    6    0    0  0.34009294351E+03  0.88079151193E+02  0.63844217396E+03  0.72871774824E+03  0.00000000000E+00 0. -1.
        -12    1    6    6    0    0  0.43471734252E+03  0.20424889140E+03  0.83444359249E+03  0.96280469804E+03  0.00000000000E+00 0.  1.
</event>
<event>
12    1  0.9656379E-001  0.3972781E+03  0.7818608E-02  0.1044726E+00
         -1   -1    0    0    0  501 -0.00000000000E+00  0.00000000000E+00  0.29537263878E+03  0.29537263878E+03  0.00000000000E+00 0.  1.
          1   -1    0    0  502    0  0.00000000000E+00 -0.00000000000E+00 -0.16068113467E+04  0.16068113467E+04  0.00000000000E+00 0. -1.
          6    2    1    2  502    0  0.98558740879E+02  0.34437699395E+03  0.12132898440E+03  0.41534403536E+03  0.17169917265E+03 0.  0.
         24    2    3    3    0    0  0.40371398064E+02  0.11518601427E+03  0.10719036385E+03  0.17841311162E+03  0.73782088831E+02 0.  0.
         -6    2    1    2    0  501 -0.98558740879E+02 -0.34437699395E+03 -0.14327676924E+04  0.14868399502E+04  0.17193149148E+03 0.  0.
        -24    2    5    5    0    0 -0.89816058060E+02 -0.17228118503E+03 -0.96851143221E+03  0.99161336865E+03  0.86804075694E+02 0.  0.
          5    1    3    3  502    0  0.58187342816E+02  0.22919097968E+03  0.14138620549E+02  0.23693092374E+03  0.47000000000E+01 0. -1.
        -11    1    4    4    0    0 -0.13145274469E+02  0.72694920950E+02  0.62471650890E+02  0.96747387240E+02  0.00000000000E+00 0.  1.
         12    1    4    4    0    0  0.53516672532E+02  0.42491093318E+02  0.44718712958E+02  0.81665724382E+02  0.00000000000E+00 0. -1.
         -5    1    5    5    0  501 -0.87426828199E+01 -0.17209580892E+03 -0.46425626016E+03  0.49522658152E+03  0.47000000000E+01 0.  1.
         13    1    6    6    0    0 -0.10668857284E+03 -0.13663973630E+03 -0.79195903802E+03  0.81071079123E+03  0.00000000000E+00 0. -1.
        -14    1    6    6    0    0  0.16872514784E+02 -0.35641448728E+02 -0.17655239419E+03  0.18090257742E+03  0.00000000000E+00 0.  1.
</event>
<event>
12    1  0.9656379E-001  0.4064850E+03  0.7818608E-02  0.1041557E+00
          2   -1    0    0  502    0  0.00000000000E+00  0.00000000000E+00  0.17844867340E+04  0.17844867340E+04  0.00000000000E+00 0. -1.
         -2   -1    0    0    0  501 -0.00000000000E+00 -0.00000000000E+00 -0.21182903813E+03  0.21182903813E+03  0.00000000000E+00 0.  1.
          6    2    1    2  502    0 -0.18299803666E+03  0.31976217447E+03  0.37390236374E+02  0.40812995172E+03  0.17156893098E+03 0.  0.
         24    2    3    3    0    0 -0.15235690993E+03  0.30564022002E+03  0.73809001675E+02  0.35826288132E+03  0.79220901937E+02 0.  0.
         -6    2    1    2    0  501  0.18299803666E+03 -0.31976217447E+03  0.15352674595E+04  0.15881858204E+04  0.17190665589E+03 0.  0.
        -24    2    5    5    0    0  0.20492822589E+02 -0.13017347700E+03  0.51025080572E+03  0.53318200558E+03  0.81006644422E+02 0.  0.
          5    1    3    3  502    0 -0.30641126731E+02  0.14121954443E+02 -0.36418765301E+02  0.49867070404E+02  0.47000000000E+01 0. -1.
        -11    1    4    4    0    0 -0.15377867302E+03  0.29258304972E+03  0.54630893303E+02  0.33501829168E+03  0.00000000000E+00 0.  1.
         12    1    4    4    0    0  0.14217630939E+01  0.13057170307E+02  0.19178108371E+02  0.23244589637E+02  0.00000000000E+00 0. -1.
         -5    1    5    5    0  501  0.16250521407E+03 -0.18958869747E+03  0.10250166537E+04  0.10550038148E+04  0.47000000000E+01 0.  1.
         13    1    6    6    0    0  0.31149931716E+02 -0.98766992828E+02  0.46876598158E+03  0.48006956017E+03  0.00000000000E+00 0. -1.
        -14    1    6    6    0    0 -0.10657109128E+02 -0.31406484169E+02  0.41484824145E+02  0.53112445408E+02  0.00000000000E+00 0.  1.
</event>
<event>
12    1  0.9656379E-001  0.2272770E+03  0.7818608E-02  0.1128571E+00
         -2   -1    0    0    0  501 -0.00000000000E+00  0.00000000000E+00  0.32665051693E+02  0.32665051693E+02  0.00000000000E+00 0.  1.
          2   -1    0    0  502    0  0.00000000000E+00 -0.00000000000E+00 -0.46422668771E+04  0.46422668771E+04  0.00000000000E+00 0. -1.
          6    2    1    2  502    0 -0.96899228376E+02 -0.11044610799E+03 -0.40292794906E+03  0.46206248543E+03  0.17193895743E+03 0.  0.
         24    2    3    3    0    0 -0.11463554088E+03 -0.93271139162E+02 -0.21874033633E+03  0.27616809871E+03  0.81121337332E+02 0.  0.
         -6    2    1    2    0  501  0.96899228376E+02  0.11044610799E+03 -0.42066738763E+04  0.42128694433E+04  0.17486006294E+03 0.  0.
        -24    2    5    5    0    0  0.12942993785E+03  0.55295733803E+02 -0.32476897466E+04  0.32517386187E+04  0.80657471803E+02 0.  0.
          5    1    3    3  502    0  0.17736312501E+02 -0.17174968832E+02 -0.18418761272E+03  0.18589438673E+03  0.47000000000E+01 0. -1.
        -13    1    4    4    0    0 -0.96433972134E+02 -0.32052938734E+02 -0.10772988748E+03  0.14809669314E+03  0.00000000000E+00 0.  1.
         14    1    4    4    0    0 -0.18201568743E+02 -0.61218200428E+02 -0.11101044886E+03  0.12807140557E+03  0.00000000000E+00 0. -1.
         -5    1    5    5    0  501 -0.32530709476E+02  0.55150374191E+02 -0.95898412978E+03  0.96113082460E+03  0.47000000000E+01 0.  1.
         11    1    6    6    0    0  0.12484935109E+03  0.69362781262E+02 -0.26329307255E+04  0.26368016158E+04  0.00000000000E+00 0. -1.
        -12    1    6    6    0    0  0.45805867584E+01 -0.14067047459E+02 -0.61475902106E+03  0.61493700294E+03  0.00000000000E+00 0.  1.
</event>
<event>
12    1  0.9656379E-001  0.2540359E+03  0.7818608E-02  0.1110780E+00
          2   -1    0    0  502    0  0.00000000000E+00  0.00000000000E+00  0.12094340727E+03  0.12094340727E+03  0.00000000000E+00 0. -1.
         -2   -1    0    0    0  501 -0.00000000000E+00 -0.00000000000E+00 -0.11592574810E+04  0.11592574810E+04  0.00000000000E+00 0.  1.
          6    2    1    2  502    0  0.18142297018E+03  0.46821685736E+02 -0.98947336455E+03  0.10215806415E+04  0.17164761481E+03 0.  0.
         24    2    3    3    0    0  0.17047725472E+03  0.90031425586E+01 -0.57356123497E+03  0.60378279518E+03  0.80234796361E+02 0.  0.
         -6    2    1    2    0  501 -0.18142297018E+03 -0.46821685736E+02 -0.48840709224E+02  0.25862024676E+03  0.17144227247E+03 0.  0.
        -24    2    5    5    0    0 -0.15093995340E+02  0.16864453262E+01 -0.32485160783E+01  0.79402209922E+02  0.77868384410E+02 0.  0.
          5    1    3    3  502    0  0.10945715460E+02  0.37818543178E+02 -0.41591212958E+03  0.41779784636E+03  0.47000000000E+01 0. -1.
        -11    1    4    4    0    0  0.51635517971E+02  0.11986200215E+02 -0.31203524931E+03  0.31650575433E+03  0.00000000000E+00 0.  1.
         12    1    4    4    0    0  0.11884173675E+03 -0.29830576563E+01 -0.26152598566E+03  0.28727704085E+03  0.00000000000E+00 0. -1.
         -5    1    5    5    0  501 -0.16632897484E+03 -0.48508131063E+02 -0.45592193146E+02  0.17921803683E+03  0.47000000000E+01 0.  1.
         13    1    6    6    0    0  0.85632912171E+00 -0.32811186824E+02  0.16317757995E+02  0.36654829236E+02  0.00000000000E+00 0. -1.
        -14    1    6    6    0    0 -0.15950324461E+02  0.34497632150E+02 -0.19566274073E+02  0.42747380686E+02  0.00000000000E+00 0.  1.
</event>
<event>
12    1  0.9656379E-001  0.5460339E+03  0.7818608E-02  0.1002416E+00
         -2   -1    0    0    0  501 -0.00000000000E+00  0.00000000000E+00  0.10995637388E+03  0.10995637388E+03  0.00000000000E+00 0.  1.
          2   -1    0    0  502    0  0.00000000000E+00 -0.00000000000E+00 -0.29171971820E+04  0.29171971820E+04  0.00000000000E+00 0. -1.
          6    2    1    2  502    0  0.37573402416E+03 -0.35667232273E+03 -0.10024257054E+04  0.11416279505E+04  0.17339515491E+03 0.  0.
         24    2    3    3    0    0  0.37355305003E+03 -0.36528890288E+03 -0.93780505192E+03  0.10762297780E+04  0.76251924390E+02 0.  0.
         -6    2    1    2    0  501 -0.37573402416E+03  0.35667232273E+03 -0.18048151027E+04  0.18855256054E+04  0.17163347856E+03 0.  0.
        -24    2    5    5    0    0 -0.38502917537E+03  0.36037678496E+03 -0.17829715535E+04  0.18610439078E+04  0.79862212949E+02 0.  0.
          5    1    3    3  502    0  0.21809741290E+01  0.86165801503E+01 -0.64620653508E+02  0.65398172463E+02  0.47000000000E+01 0. -1.
        -11    1    4    4    0    0  0.83775836771E+02 -0.77837460097E+02 -0.14640135689E+03  0.18576979927E+03  0.00000000000E+00 0.  1.
         12    1    4    4    0    0  0.28977721326E+03 -0.28745144279E+03 -0.79140369502E+03  0.89045997876E+03  0.00000000000E+00 0. -1.
         -5    1    5    5    0  501  0.92951512196E+01 -0.37044622255E+01 -0.21843549165E+02  0.24481697586E+02  0.47000000000E+01 0.  1.
         11    1    6    6    0    0 -0.12832509433E+03  0.13443871311E+03 -0.50515546692E+03  0.53825936422E+03  0.00000000000E+00 0. -1.
        -12    1    6    6    0    0 -0.25670408105E+03  0.22593807185E+03 -0.12778160866E+04  0.13227845436E+04  0.00000000000E+00 0.  1.
</event>
<event>
12    1  0.9656379E-001  0.7713538E+03  0.7818608E-02  0.9602433E-01
          2   -1    0    0  502    0  0.00000000000E+00  0.00000000000E+00  0.15487818690E+04  0.15487818690E+04  0.00000000000E+00 0. -1.
         -2   -1    0    0    0  501 -0.00000000000E+00 -0.00000000000E+00 -0.43799367985E+03  0.43799367985E+03  0.00000000000E+00 0.  1.
          6    2    1    2  502    0  0.45763968546E+03 -0.59656186635E+03  0.20718991971E+03  0.79876990832E+03  0.17258493999E+03 0.  0.
         24    2    3    3    0    0  0.36332412206E+03 -0.47950398102E+03  0.10208351839E+03  0.61528307060E+03  0.78890599903E+02 0.  0.
         -6    2    1    2    0  501 -0.45763968546E+03  0.59656186635E+03  0.90359826940E+03  0.11880056405E+04  0.17189365103E+03 0.  0.
        -24    2    5    5    0    0 -0.28999181120E+03  0.44612244856E+03  0.55913247028E+03  0.77640315637E+03  0.83977688817E+02 0.  0.
          5    1    3    3  502    0  0.94315563397E+02 -0.11705788533E+03  0.10510640132E+03  0.18348683771E+03  0.47000000000E+01 0. -1.
        -13    1    4    4    0    0  0.23611420048E+03 -0.32651820354E+03  0.10461090503E+03  0.41630216713E+03  0.00000000000E+00 0.  1.
         14    1    4    4    0    0  0.12720992158E+03 -0.15298577749E+03 -0.25273866380E+01  0.19898090347E+03  0.00000000000E+00 0. -1.
         -5    1    5    5    0  501 -0.16764787425E+03  0.15043941779E+03  0.34446579912E+03  0.41160248412E+03  0.47000000000E+01 0.  1.
         11    1    6    6    0    0 -0.12859013675E+03  0.23913183400E+03  0.23313956828E+03  0.35787360282E+03  0.00000000000E+00 0. -1.
        -12    1    6    6    0    0 -0.16140167446E+03  0.20699061456E+03  0.32599290200E+03  0.41852955354E+03  0.00000000000E+00 0.  1.
</event>
<event>
12    1  0.9656379E-001  0.1873631E+03  0.7818608E-02  0.1160861E+00
          1   -1    0    0  502    0  0.00000000000E+00  0.00000000000E+00  0.22333902269E+04  0.22333902269E+04  0.00000000000E+00 0. -1.
         -1   -1    0    0    0  501 -0.00000000000E+00 -0.00000000000E+00 -0.74779080845E+02  0.74779080845E+02  0.00000000000E+00 0.  1.
          6    2    1    2  502    0  0.74680783939E+02 -0.19900205204E+01  0.54028416141E+02  0.19528983597E+03  0.17215652939E+03 0.  0.
         24    2    3    3    0    0  0.10412965537E+03 -0.71343189701E+01 -0.27950885891E+01  0.13091048738E+03  0.78967458815E+02 0.  0.
         -6    2    1    2    0  501 -0.74680783939E+02  0.19900205204E+01  0.21045827299E+04  0.21128794717E+04  0.17149348531E+03 0.  0.
        -24    2    5    5    0    0 -0.24405573828E+02 -0.45121894521E+02  0.16810184327E+04  0.16837222358E+04  0.80411310964E+02 0.  0.
          5    1    3    3  502    0 -0.29448871433E+02  0.51442984497E+01  0.56823504730E+02  0.64379348591E+02  0.47000000000E+01 0. -1.
        -13    1    4    4    0    0  0.24609634745E+02 -0.27675363236E+02  0.24451969845E+02  0.44378583594E+02  0.00000000000E+00 0.  1.
         14    1    4    4    0    0  0.79520020627E+02  0.20541044266E+02 -0.27247058434E+02  0.86531903789E+02  0.00000000000E+00 0. -1.
         -5    1    5    5    0  501 -0.50275210110E+02  0.47111915041E+02  0.42356429719E+03  0.42915723592E+03  0.47000000000E+01 0.  1.
         11    1    6    6    0    0 -0.28151020970E+02  0.97822920706E+01  0.10138702924E+04  0.10143082091E+04  0.00000000000E+00 0. -1.
        -12    1    6    6    0    0  0.37454471411E+01 -0.54904186591E+02  0.66714814026E+03  0.66941402669E+03  0.00000000000E+00 0.  1.
</event>
<event>
12    1  0.9656379E-001  0.4196608E+03  0.7818608E-02  0.1037177E+00
         -1   -1    0    0    0  501 -0.00000000000E+00  0.00000000000E+00  0.34366743955E+03  0.34366743955E+03  0.00000000000E+00 0.  1.
          1   -1    0    0  502    0  0.00000000000E+00 -0.00000000000E+00 -0.93753728761E+03  0.93753728761E+03  0.00000000000E+00 0. -1.
          6    2    1    2  502    0 -0.11095945165E+03  0.36765850802E+03  0.13475846207E+03  0.43991629941E+03  0.16697822901E+03 0.  0.
         24    2    3    3    0    0 -0.14211877820E+03  0.29672246296E+03  0.97691879480E+02  0.35389974482E+03  0.86367580270E+02 0.  0.
         -6    2    1    2    0  501  0.11095945165E+03 -0.36765850802E+03 -0.72862831012E+03  0.84128842774E+03  0.17141244386E+03 0.  0.
        -24    2    5    5    0    0  0.10356677221E+03 -0.13474353223E+03 -0.33409470825E+03  0.38304952644E+03  0.78903547729E+02 0.  0.
          5    1    3    3  502    0  0.31159326556E+02  0.70936045053E+02  0.37066582586E+02  0.86016554592E+02  0.47000000000E+01 0. -1.
        -11    1    4    4    0    0 -0.12026162183E+03  0.25676768463E+03  0.11390143637E+03  0.30555856846E+03  0.00000000000E+00 0.  1.
         12    1    4    4    0    0 -0.21857156376E+02  0.39954778336E+02 -0.16209556894E+02  0.48341176356E+02  0.00000000000E+00 0. -1.
         -5    1    5    5    0  501  0.73926794371E+01 -0.23291497579E+03 -0.39453360188E+03  0.45823890130E+03  0.47000000000E+01 0.  1.
         13    1    6    6    0    0  0.59603277529E+02 -0.13016494889E+03 -0.25665247997E+03  0.29388086036E+03  0.00000000000E+00 0. -1.
        -14    1    6    6    0    0  0.43963494680E+02 -0.45785833378E+01 -0.77442228278E+02  0.89168666080E+02  0.00000000000E+00 0.  1.
</event>
<event>
12    1  0.9656379E-001  0.6530008E+03  0.7818608E-02  0.9801165E-01
          2   -1    0    0  502    0  0.00000000000E+00  0.00000000000E+00  0.15459099081E+04  0.15459099081E+04  0.00000000000E+00 0. -1.
         -2   -1    0    0    0  501 -0.00000000000E+00 -0.00000000000E+00 -0.66771674942E+03  0.66771674942E+03  0.00000000000E+00 0.  1.
          6    2    1    2  502    0 -0.60538340437E+03 -0.17423938958E+03 -0.40881251032E+03  0.77046540743E+03  0.17216516573E+03 0.  0.
         24    2    3    3    0    0 -0.22417888885E+03 -0.11913670238E+03 -0.19580172365E+03  0.33029626491E+03  0.79420271795E+02 0.  0.
         -6    2    1    2    0  501  0.60538340437E+03  0.17423938958E+03  0.12870056690E+04  0.14431612501E+04  0.17170431136E+03 0.  0.
        -24    2    5    5    0    0  0.27008007877E+03  0.25280700077E+02  0.57722552464E+03  0.64414500828E+03  0.90283568017E+02 0.  0.
          5    1    3    3  502    0 -0.38120451552E+03 -0.55102687198E+02 -0.21301078668E+03  0.44016914253E+03  0.47000000000E+01 0. -1.
        -11    1    4    4    0    0 -0.61609586303E+02 -0.49969825140E+02 -0.10517457697E+03  0.13173616129E+03  0.00000000000E+00 0.  1.
         12    1    4    4    0    0 -0.16256930254E+03 -0.69166877238E+02 -0.90627146671E+02  0.19856010362E+03  0.00000000000E+00 0. -1.
         -5    1    5    5    0  501  0.33530332559E+03  0.14895868950E+03  0.70978014434E+03  0.79901624178E+03  0.47000000000E+01 0.  1.
         11    1    6    6    0    0  0.18372492193E+03  0.38449566663E+02  0.30385367243E+03  0.35715580685E+03  0.00000000000E+00 0. -1.
        -12    1    6    6    0    0  0.86355156841E+02 -0.13168866586E+02  0.27337185221E+03  0.28698920144E+03  0.00000000000E+00 0.  1.
</event>
<event>
12    1  0.9656379E-001  0.2692235E+03  0.7818608E-02  0.1101725E+00
         -2   -1    0    0    0  501 -0.00000000000E+00  0.00000000000E+00  0.31476948814E+03  0.31476948814E+03  0.00000000000E+00 0.  1.
          2   -1    0    0  502    0  0.00000000000E+00 -0.00000000000E+00 -0.41166164126E+03  0.41166164126E+03  0.00000000000E+00 0. -1.
          6    2    1    2  502    0 -0.89520204112E+02  0.18583423008E+03  0.19266929964E+03  0.33097575773E+03  0.17284462724E+03 0.  0.
         24    2    3    3    0    0 -0.91987155652E+02  0.18912029882E+03  0.21306913069E+03  0.30964204721E+03  0.79067178519E+02 0.  0.
         -6    2    1    2    0  501  0.89520204112E+02 -0.18583423008E+03 -0.28956145276E+03  0.39545537167E+03  0.17317877482E+03 0.  0.
        -24    2    5    5    0    0  0.76905744761E+01 -0.14316472715E+03 -0.23651624517E+03  0.28890651521E+03  0.83497043429E+02 0.  0.
          5    1    3    3  502    0  0.24669515403E+01 -0.32860687428E+01 -0.20399831044E+02  0.21333710515E+02  0.47000000000E+01 0. -1.
        -11    1    4    4    0    0  0.88992699124E+01  0.45400403657E+02  0.65967320621E+02  0.80573451255E+02  0.00000000000E+00 0.  1.
         12    1    4    4    0    0 -0.10088642556E+03  0.14371989517E+03  0.14710181006E+03  0.22906859596E+03  0.00000000000E+00 0. -1.
         -5    1    5    5    0  501  0.81829629636E+02 -0.42669502927E+02 -0.53045207587E+02  0.10654885647E+03  0.47000000000E+01 0.  1.
         13    1    6    6    0    0  0.20235821261E+02 -0.88716078570E+02 -0.20608931847E+03  0.22528390588E+03  0.00000000000E+00 0. -1.
        -14    1    6    6    0    0 -0.12545246785E+02 -0.54448648583E+02 -0.30426926702E+02  0.63622609330E+02  0.00000000000E+00 0.  1.
</event>
<event>
12    1  0.9656379E-001  0.3393027E+03  0.7818608E-02  0.1067093E+00
          1   -1    0    0  502    0  0.00000000000E+00  0.00000000000E+00  0.23774474020E+03  0.23774474020E+03  0.00000000000E+00 0. -1.
         -1   -1    0    0    0  501 -0.00000000000E+00 -0.00000000000E+00 -0.54781947828E+03  0.54781947828E+03  0.00000000000E+00 0.  1.
          6    2    1    2  502    0 -0.20491603676E+03 -0.20851228263E+03 -0.28880248419E+03  0.44549153330E+03  0.17201127068E+03 0.  0.
         24    2    3    3    0    0 -0.22170063301E+03 -0.17108392130E+03 -0.21831772323E+03  0.36380434685E+03  0.79183935909E+02 0.  0.
         -6    2    1    2    0  501  0.20491603676E+03  0.20851228263E+03 -0.21272253897E+02  0.34007268518E+03  0.17242090444E+03 0.  0.
        -24    2    5    5    0    0  0.10082838706E+03  0.16563002535E+03 -0.64180634403E+02  0.21950591560E+03  0.80399155557E+02 0.  0.
          5    1    3    3  502    0  0.16784596249E+02 -0.37428361330E+02 -0.70484760957E+02  0.81687186451E+02  0.47000000000E+01 0. -1.
        -13    1    4    4    0    0 -0.34560483099E+02 -0.50149156843E+02 -0.16313907568E+02  0.63051633636E+02  0.00000000000E+00 0.  1.
         14    1    4    4    0    0 -0.18714014991E+03 -0.12093476446E+03 -0.20200381566E+03  0.30075271322E+03  0.00000000000E+00 0. -1.
         -5    1    5    5    0  501  0.10408764970E+03  0.42882257276E+02  0.42908380505E+02  0.12056676958E+03  0.47000000000E+01 0.  1.
         13    1    6    6    0    0  0.70950822695E+02  0.63459209100E+02 -0.60903273138E+02  0.11300574826E+03  0.00000000000E+00 0. -1.
        -14    1    6    6    0    0  0.29877564367E+02  0.10217081625E+03 -0.32773612644E+01  0.10650016734E+03  0.00000000000E+00 0.  1.
</event>
<event>
12    1  0.9656379E-001  0.3823953E+03  0.7818608E-02  0.1050052E+00
         -1   -1    0    0    0  501 -0.00000000000E+00  0.00000000000E+00  0.95619632056E+03  0.95619632056E+03  0.00000000000E+00 0.  1.
          1   -1    0    0  502    0  0.00000000000E+00 -0.00000000000E+00 -0.37120746991E+03  0.37120746991E+03  0.00000000000E+00 0. -1.
          6    2    1    2  502    0 -0.16522442329E+03  0.29921770879E+03  0.80131379683E+03  0.88770293227E+03  0.17053547332E+03 0.  0.
         24    2    3    3    0    0 -0.11571025000E+03  0.13897723585E+03  0.30186073768E+03  0.36082143628E+03  0.79803946539E+02 0.  0.
         -6    2    1    2    0  501  0.16522442329E+03 -0.29921770879E+03 -0.21632494618E+03  0.43970085820E+03  0.17236593359E+03 0.  0.
        -24    2    5    5    0    0  0.15819080479E+03 -0.20252750675E+03 -0.21171473770E+03  0.34253187662E+03  0.80394245001E+02 0.  0.
          5    1    3    3  502    0 -0.49514173287E+02  0.16024047294E+03  0.49945305915E+03  0.52688149599E+03  0.47000000000E+01 0. -1.
        -11    1    4    4    0    0 -0.11783826148E+03  0.89720301598E+02  0.23424542948E+03  0.27713987374E+03  0.00000000000E+00 0.  1.
         12    1    4    4    0    0  0.21280114731E+01  0.49256934254E+02  0.67615308205E+02  0.83681562537E+02  0.00000000000E+00 0. -1.
         -5    1    5    5    0  501  0.70336184994E+01 -0.96690202040E+02 -0.46102084741E+01  0.97168981583E+02  0.47000000000E+01 0.  1.
         13    1    6    6    0    0  0.13731140375E+03 -0.19099480152E+03 -0.21471632797E+03  0.31849103175E+03  0.00000000000E+00 0. -1.
        -14    1    6    6    0    0  0.20879401045E+02 -0.11532705224E+02  0.30015902700E+01  0.24040844868E+02  0.00000000000E+00 0.  1.
</event>
<event>
12    1  0.9656379E-001  0.9392070E+03  0.7818608E-02  0.9377856E-01
         -2   -1    0    0    0  501 -0.00000000000E+00  0.00000000000E+00  0.25512822810E+03  0.25512822810E+03  0.00000000000E+00 0.  1.
          2   -1    0    0  502    0  0.00000000000E+00 -0.00000000000E+00 -0.34684471534E+04  0.34684471534E+04  0.00000000000E+00 0. -1.
          6    2    1    2  502    0 -0.37681522923E+03 -0.84110469485E+03 -0.17080268332E+04  0.19483493305E+04  0.17106322210E+03 0.  0.
         24    2    3    3    0    0 -0.34145168110E+03 -0.80380749426E+03 -0.16615571710E+04  0.18789002037E+04  0.82450012186E+02 0.  0.
         -6    2    1    2    0  501  0.37681522923E+03  0.84110469485E+03 -0.15052920921E+04  0.17752260510E+04  0.18993795037E+03 0.  0.
        -24    2    5    5    0    0  0.31319585219E+03  0.53674350984E+03 -0.93227708245E+03  0.11232663534E+04  0.80009405424E+02 0.  0.
          5    1    3    3  502    0 -0.35363548125E+02 -0.37297200592E+02 -0.46469662183E+02  0.69449126786E+02  0.47000000000E+01 0. -1.
        -13    1    4    4    0    0 -0.97108014785E+02 -0.16759263874E+03 -0.42240076360E+03  0.46469308601E+03  0.00000000000E+00 0.  1.
         14    1    4    4    0    0 -0.24434366632E+03 -0.63621485551E+03 -0.12391564074E+04  0.14142071177E+04  0.00000000000E+00 0. -1.
         -5    1    5    5    0  501  0.63619377035E+02  0.30436118501E+03 -0.57301500968E+03  0.65195969767E+03  0.47000000000E+01 0.  1.
         11    1    6    6    0    0  0.30549668586E+02  0.11407685637E+03 -0.17372584300E+03  0.21006541823E+03  0.00000000000E+00 0. -1.
        -12    1    6    6    0    0  0.28264618361E+03  0.42266665347E+03 -0.75855123944E+03  0.91320093513E+03  0.00000000000E+00 0.  1.
</event>
<event>
12    1  0.9656379E-001  0.4874580E+03  0.7818608E-02  0.1017105E+00
          1   -1    0    0  502    0  0.00000000000E+00  0.00000000000E+00  0.11475539578E+04  0.11475539578E+04  0.00000000000E+00 0. -1.
         -1   -1    0    0    0  501 -0.00000000000E+00 -0.00000000000E+00 -0.10919858860E+04  0.10919858860E+04  0.00000000000E+00 0.  1.
          6    2    1    2  502    0 -0.40583382202E+03 -0.21015709542E+03 -0.98023117622E+03  0.10952738941E+04  0.17292960520E+03 0.  0.
         24    2    3    3    0    0 -0.96103561823E+02 -0.91276028907E+02 -0.26849507147E+03  0.30999947397E+03  0.80267443041E+02 0.  0.
         -6    2    1    2    0  501  0.40583382202E+03  0.21015709542E+03  0.10357992480E+04  0.11442659497E+04  0.16612460886E+03 0.  0.
        -24    2    5    5    0    0  0.35057092082E+03  0.20477060408E+03  0.79522221058E+03  0.89731979471E+03  0.89294338892E+02 0.  0.
          5    1    3    3  502    0 -0.30973026020E+03 -0.11888106652E+03 -0.71173610475E+03  0.78527442010E+03  0.47000000000E+01 0. -1.
        -13    1    4    4    0    0 -0.71744212511E+02 -0.74593657081E+02 -0.11941227376E+03  0.15802131765E+03  0.00000000000E+00 0.  1.
         14    1    4    4    0    0 -0.24359349313E+02 -0.16682371827E+02 -0.14908279770E+03  0.15197815633E+03  0.00000000000E+00 0. -1.
         -5    1    5    5    0  501  0.55262901197E+02  0.53864913429E+01  0.24057703742E+03  0.24694615500E+03  0.47000000000E+01 0.  1.
         11    1    6    6    0    0  0.28463400242E+03  0.12685148731E+03  0.63506339237E+03  0.70739898748E+03  0.00000000000E+00 0. -1.
        -12    1    6    6    0    0  0.65936918405E+02  0.77919116773E+02  0.16015881821E+03  0.18992080723E+03  0.00000000000E+00 0.  1.
</event>
<event>
12    1  0.9656379E-001  0.4313719E+03  0.7818608E-02  0.1033427E+00
          2   -1    0    0  502    0  0.00000000000E+00  0.00000000000E+00  0.16351037231E+04  0.16351037231E+04  0.00000000000E+00 0. -1.
         -2   -1    0    0    0  501 -0.00000000000E+00 -0.00000000000E+00 -0.12393526852E+03  0.12393526852E+03  0.00000000000E+00 0.  1.
          6    2    1    2  502    0  0.39280326658E+03 -0.49328837985E+02  0.50538992470E+03  0.66496615767E+03  0.17330110899E+03 0.  0.
         24    2    3    3    0    0  0.18452181207E+03 -0.88781948080E+02  0.28151588390E+03  0.35661669954E+03  0.77419274537E+02 0.  0.
         -6    2    1    2    0  501 -0.39280326658E+03  0.49328837985E+02  0.10057785298E+04  0.10940728339E+04  0.16934336222E+03 0.  0.
        -24    2    5    5    0    0 -0.33483293952E+03  0.81972202371E+02  0.74243603019E+03  0.82241586238E+03  0.79523911051E+02 0.  0.
          5    1    3    3  502    0  0.20828145450E+03  0.39453110095E+02  0.22387404080E+03  0.30834945813E+03  0.47000000000E+01 0. -1.
        -11    1    4    4    0    0  0.18663938324E+03 -0.72306340964E+02  0.27119763869E+03  0.33706175332E+03  0.00000000000E+00 0.  1.
         12    1    4    4    0    0 -0.21175711695E+01 -0.16475607116E+02  0.10318245205E+02  0.19554946219E+02  0.00000000000E+00 0. -1.
         -5    1    5    5    0  501 -0.57970327058E+02 -0.32643364386E+02  0.26334249965E+03  0.27165697153E+03  0.47000000000E+01 0.  1.
         13    1    6    6    0    0 -0.19205651672E+03  0.70178475371E+01  0.42145917578E+03  0.46320923204E+03  0.00000000000E+00 0. -1.
        -14    1    6    6    0    0 -0.14277642280E+03  0.74954354834E+02  0.32097685440E+03  0.35920663034E+03  0.00000000000E+00 0.  1.
</event>
<event>
12    1  0.9656379E-001  0.4057637E+03  0.7818608E-02  0.1041802E+00
         -2   -1    0    0    0  501 -0.00000000000E+00  0.00000000000E+00  0.52272922659E+03  0.52272922659E+03  0.00000000000E+00 0.  1.
          2   -1    0    0  502    0  0.00000000000E+00 -0.00000000000E+00 -0.92179014352E+03  0.92179014352E+03  0.00000000000E+00 0. -1.
          6    2    1    2  502    0  0.12044705343E+03  0.34658391934E+03  0.38646231710E+03  0.56044147375E+03  0.17353275521E+03 0.  0.
         24    2    3    3    0    0  0.11887908945E+03  0.34610296476E+03  0.31708695004E+03  0.49088774356E+03  0.80666862871E+02 0.  0.
         -6    2    1    2    0  501 -0.12044705343E+03 -0.34658391934E+03 -0.78552323403E+03  0.88407789635E+03  0.17297129759E+03 0.  0.
        -24    2    5    5    0    0 -0.35106370374E+02 -0.29111266200E+03 -0.60173129490E+03  0.67393113938E+03  0.78253371483E+02 0.  0.
          5    1    3    3  502    0  0.15679639824E+01  0.48095458245E+00  0.69375367065E+02  0.69553730193E+02  0.47000000000E+01 0. -1.
        -13    1    4    4    0    0  0.25979314845E+02  0.26823977612E+02  0.59590102447E+02  0.70323757610E+02  0.00000000000E+00 0.  1.
         14    1    4    4    0    0  0.92899774606E+02  0.31927898715E+03  0.25749684759E+03  0.42056398595E+03  0.00000000000E+00 0. -1.
         -5    1    5    5    0  501 -0.85340683060E+02 -0.55471257344E+02 -0.18379193913E+03  0.21014675697E+03  0.47000000000E+01 0.  1.
         11    1    6    6    0    0 -0.54728097159E+02 -0.25419382938E+03 -0.49157767577E+03  0.55610995211E+03  0.00000000000E+00 0. -1.
        -12    1    6    6    0    0  0.19621726785E+02 -0.36918832619E+02 -0.11015361913E+03  0.11782118728E+03  0.00000000000E+00 0.  1.
</event>
<event>
12    1  0.9656379E-001  0.9196929E+03  0.7818608E-02  0.9401294E-01
          2   -1    0    0  502    0  0.00000000000E+00  0.00000000000E+00  0.19185505359E+04  0.19185505359E+04  0.00000000000E+00 0. -1.
         -2   -1    0    0    0  501 -0.00000000000E+00 -0.00000000000E+00 -0.75473563436E+03  0.75473563436E+03  0.00000000000E+00 0.  1.
          6    2    1    2  502    0  0.42579257395E+03 -0.79699099296E+03 -0.28004206414E+03  0.96141838866E+03  0.17148703000E+03 0.  0.
         24    2    3    3    0    0  0.43782016372E+03 -0.76406477583E+03 -0.27334961910E+03  0.92542286794E+03  0.78778124104E+02 0.  0.
         -6    2    1    2    0  501 -0.42579257395E+03  0.79699099296E+03  0.14438569657E+04  0.17118677816E+04  0.17109764883E+03 0.  0.
        -24    2    5    5    0    0 -0.18641308299E+03  0.49177342587E+03  0.87826307776E+03  0.10260260797E+04  0.69228192595E+02 0.  0.
          5    1    3    3  502    0 -0.12027589765E+02 -0.32926217140E+02 -0.66924450380E+01  0.35995520711E+02  0.47000000000E+01 0. -1.
        -11    1    4    4    0    0  0.22281927160E+03 -0.31942607733E+03 -0.10129617904E+03  0.40242062890E+03  0.00000000000E+00 0.  1.
         12    1    4    4    0    0  0.21500089212E+03 -0.44463869849E+03 -0.17205344006E+03  0.52300223905E+03  0.00000000000E+00 0. -1.
         -5    1    5    5    0  501 -0.23937949096E+03  0.30521756709E+03  0.56559388796E+03  0.68584170189E+03  0.47000000000E+01 0.  1.
         11    1    6    6    0    0 -0.55562385899E+02  0.13298935991E+03  0.30305453131E+03  0.33558217700E+03  0.00000000000E+00 0. -1.
        -12    1    6    6    0    0 -0.13085069709E+03  0.35878406596E+03  0.57520854646E+03  0.69044390274E+03  0.00000000000E+00 0.  1.
</event>
<event>
12    1  0.9656379E-001  0.2506786E+03  0.7818608E-02  0.1112877E+00
         -2   -1    0    0    0  501 -0.00000000000E+00  0.00000000000E+00  0.12466792355E+03  0.12466792355E+03  0.00000000000E+00 0.  1.
          2   -1    0    0  502    0  0.00000000000E+00 -0.00000000000E+00 -0.15229430993E+04  0.15229430993E+04  0.00000000000E+00 0. -1.
          6    2    1    2  502    0 -0.12947509199E+03  0.13154467086E+03 -0.23853615983E+02  0.25022800372E+03  0.16726403968E+03 0.  0.
         24    2    3    3    0    0 -0.21710370365E+02  0.10120452244E+03 -0.40501751903E+02  0.13694512653E+03  0.79999251439E+02 0.  0.
         -6    2    1    2    0  501  0.12947509199E+03 -0.13154467086E+03 -0.13744215597E+04  0.13973830191E+04  0.17197929623E+03 0.  0.
        -24    2    5    5    0    0  0.11882961221E+03 -0.62136695662E+02 -0.11758014837E+04  0.11866632576E+04  0.87630544399E+02 0.  0.
          5    1    3    3  502    0 -0.10776472162E+03  0.30340148421E+02  0.16648135920E+02  0.11328287718E+03  0.47000000000E+01 0. -1.
        -11    1    4    4    0    0 -0.36297251568E+02  0.14264498018E+02  0.20582960192E+01  0.39053846898E+02  0.00000000000E+00 0.  1.
         12    1    4    4    0    0  0.14586881203E+02  0.86940024422E+02 -0.42560047922E+02  0.97891279636E+02  0.00000000000E+00 0. -1.
         -5    1    5    5    0  501  0.10645479782E+02 -0.69407975199E+02 -0.19862007607E+03  0.21071976148E+03  0.47000000000E+01 0.  1.
         11    1    6    6    0    0  0.87462848321E+02 -0.24349075773E+02 -0.44242012735E+03  0.45163945400E+03  0.00000000000E+00 0. -1.
        -12    1    6    6    0    0  0.31366763884E+02 -0.37787619889E+02 -0.73338135632E+03  0.73502380363E+03  0.00000000000E+00 0.  1.
</event>
<event>
12    1  0.9656379E-001  0.1252001E+04  0.7818608E-02  0.9068519E-01
         -2   -1    0    0    0  501 -0.00000000000E+00  0.00000000000E+00  0.99618803155E+03  0.99618803155E+03  0.00000000000E+00 0.  1.
          2   -1    0    0  502    0  0.00000000000E+00 -0.00000000000E+00 -0.15805998824E+04  0.15805998824E+04  0.00000000000E+00 0. -1.
          6    2    1    2  502    0  0.23584913156E+03 -0.12174765512E+04 -0.37855881588E+03  0.13081394646E+04  0.17334392453E+03 0.  0.
         24    2    3    3    0    0  0.23345383462E+03 -0.11838187057E+04 -0.39250448205E+03  0.12713269719E+04  0.79278498242E+02 0.  0.
         -6    2    1    2    0  501 -0.23584913156E+03  0.12174765512E+04 -0.20585303493E+03  0.12686484493E+04  0.17093697745E+03 0.  0.
        -24    2    5    5    0    0 -0.56150339090E+02  0.27855110854E+03 -0.67008933366E+02  0.30263995167E+03  0.79731816406E+02 0.  0.
          5    1    3    3  502    0  0.23952969374E+01 -0.33657845541E+02  0.13945666162E+02  0.36812492697E+02  0.47000000000E+01 0. -1.
        -11    1    4    4    0    0  0.63581656898E+02 -0.32532104153E+03 -0.70985998191E+02  0.33899176848E+03  0.00000000000E+00 0.  1.
         12    1    4    4    0    0  0.16987217772E+03 -0.85849766415E+03 -0.32151848385E+03  0.93233520344E+03  0.00000000000E+00 0. -1.
         -5    1    5    5    0  501 -0.17969879247E+03  0.93892544269E+03 -0.13884410156E+03  0.96600849762E+03  0.47000000000E+01 0.  1.
         11    1    6    6    0    0 -0.25861834768E+02  0.20567758990E+03 -0.80872863883E+02  0.22251410202E+03  0.00000000000E+00 0. -1.
        -12    1    6    6    0    0 -0.30288504322E+02  0.72873518640E+02  0.13863930516E+02  0.80125849651E+02  0.00000000000E+00 0.  1.
</event>
<event>
12    1  0.9656379E-001  0.6409030E+03  0.7818608E-02  0.9824000E-01
         -2   -1    0    0    0  501 -0.00000000000E+00  0.00000000000E+00  0.72818499539E+03  0.72818499539E+03  0.00000000000E+00 0.  1.
          2   -1    0    0  502    0  0.00000000000E+00 -0.00000000000E+00 -0.14839237388E+04  0.14839237388E+04  0.00000000000E+00 0. -1.
          6    2    1    2  502    0  0.24708119911E+03  0.56572284549E+03  0.49295231836E+03  0.80853775550E+03  0.17216229849E+03 0.  0.
         24    2    3    3    0    0  0.12088605998E+03  0.30762558142E+03  0.34830414163E+03  0.48684753822E+03  0.80360516114E+02 0.  0.
         -6    2    1    2    0  501 -0.24708119911E+03 -0.56572284549E+03 -0.12486910618E+04  0.14035709787E+04  0.17230980127E+03 0.  0.
        -24    2    5    5    0    0 -0.60273175069E+02 -0.21534704487E+03 -0.59403337704E+03  0.63789532041E+03  0.63463228688E+02 0.  0.
          5    1    3    3  502    0  0.12619513913E+03  0.25809726407E+03  0.14464817673E+03  0.32169021728E+03  0.47000000000E+01 0. -1.
        -13    1    4    4    0    0  0.36662111914E+02  0.33212722727E+02  0.79227290514E+02  0.93403206385E+02  0.00000000000E+00 0.  1.
         14    1    4    4    0    0  0.84223948064E+02  0.27441285869E+03  0.26907685112E+03  0.39344433183E+03  0.00000000000E+00 0. -1.
         -5    1    5    5    0  501 -0.18680802404E+03 -0.35037580062E+03 -0.65465768471E+03  0.76567565826E+03  0.47000000000E+01 0.  1.
         11    1    6    6    0    0 -0.67350628033E+02 -0.17059889294E+03 -0.51646440783E+03  0.54806530078E+03  0.00000000000E+00 0. -1.
        -12    1    6    6    0    0  0.70774529641E+01 -0.44748151929E+02 -0.77568969215E+02  0.89830019629E+02  0.00000000000E+00 0.  1.
</event>
<event>
12    1  0.9656379E-001  0.2807498E+03  0.7818608E-02  0.1095280E+00
          1   -1    0    0  502    0  0.00000000000E+00  0.00000000000E+00  0.26485773496E+04  0.26485773496E+04  0.00000000000E+00 0. -1.
         -1   -1    0    0    0  501 -0.00000000000E+00 -0.00000000000E+00 -0.16752776853E+03  0.16752776853E+03  0.00000000000E+00 0.  1.
          6    2    1    2  502    0  0.17649193926E+03  0.13545323136E+03 -0.36657025846E+02  0.28275087810E+03  0.17060873076E+03 0.  0.
         24    2    3    3    0    0  0.19903774648E+03  0.10034401568E+03 -0.41763557953E+02  0.24045268525E+03  0.79927173504E+02 0.  0.
         -6    2    1    2    0  501 -0.17649193926E+03 -0.13545323136E+03  0.25177066070E+04  0.25333542401E+04  0.17187252380E+03 0.  0.
        -24    2    5    5    0    0 -0.57750135968E+02 -0.34782761512E+02  0.15045112682E+04  0.15082586134E+04  0.82127766487E+02 0.  0.
          5    1    3    3  502    0 -0.22545807213E+02  0.35109215684E+02  0.51065321077E+01  0.42298192857E+02  0.47000000000E+01 0. -1.
        -13    1    4    4    0    0  0.23608963014E+02  0.13773876556E+02 -0.35398181652E+02  0.44722858520E+02  0.00000000000E+00 0.  1.
         14    1    4    4    0    0  0.17542878346E+03  0.86570139122E+02 -0.63653763018E+01  0.19572982673E+03  0.00000000000E+00 0. -1.
         -5    1    5    5    0  501 -0.11874180329E+03 -0.10067046985E+03  0.10131953388E+04  0.10250956267E+04  0.47000000000E+01 0.  1.
         11    1    6    6    0    0 -0.66331521473E+02 -0.32710437325E+02  0.73801797342E+03  0.74171448182E+03  0.00000000000E+00 0. -1.
        -12    1    6    6    0    0  0.85813855053E+01 -0.20723241870E+01  0.76649329475E+03  0.76654413154E+03  0.00000000000E+00 0.  1.
</event>
<event>
12    1  0.9656379E-001  0.9445912E+03  0.7818608E-02  0.9371495E-01
         -1   -1    0    0    0  501 -0.00000000000E+00  0.00000000000E+00  0.98290421364E+03  0.98290421364E+03  0.00000000000E+00 0.  1.
          1   -1    0    0  502    0  0.00000000000E+00 -0.00000000000E+00 -0.10003529120E+04  0.10003529120E+04  0.00000000000E+00 0. -1.
          6    2    1    2  502    0  0.18060305225E+03 -0.91087721761E+03  0.29294702674E+03  0.98898328123E+03  0.17307571184E+03 0.  0.
         24    2    3    3    0    0  0.19482100242E+03 -0.68337024009E+03  0.24087466452E+03  0.75511324075E+03  0.85001731266E+02 0.  0.
         -6    2    1    2    0  501 -0.18060305225E+03  0.91087721761E+03 -0.31039572513E+03  0.99427384444E+03  0.17297457478E+03 0.  0.
        -24    2    5    5    0    0 -0.11398762947E+03  0.32804243768E+03 -0.90605209045E+02  0.36780440687E+03  0.80409932338E+02 0.  0.
          5    1    3    3  502    0 -0.14217950170E+02 -0.22750697752E+03  0.52072362212E+02  0.23387004048E+03  0.47000000000E+01 0. -1.
        -11    1    4    4    0    0  0.16274802301E+03 -0.57181656713E+03  0.23373289980E+03  0.63882092474E+03  0.00000000000E+00 0.  1.
         12    1    4    4    0    0  0.32072979416E+02 -0.11155367296E+03  0.71417647278E+01  0.11629231601E+03  0.00000000000E+00 0. -1.
         -5    1    5    5    0  501 -0.66615422786E+02  0.58283477993E+03 -0.21979051609E+03  0.62646943757E+03  0.47000000000E+01 0.  1.
         13    1    6    6    0    0 -0.48568135912E+02  0.19584611235E+03 -0.15731466472E+02  0.20239081645E+03  0.00000000000E+00 0. -1.
        -14    1    6    6    0    0 -0.65419493554E+02  0.13219632533E+03 -0.74873742573E+02  0.16541359042E+03  0.00000000000E+00 0.  1.
</event>
<event>
12    1  0.9656379E-001  0.2306379E+03  0.7818608E-02  0.1126192E+00
          2   -1    0    0  502    0  0.00000000000E+00  0.00000000000E+00  0.15396963686E+04  0.15396963686E+04  0.00000000000E+00 0. -1.
         -2   -1    0    0    0  501 -0.00000000000E+00 -0.00000000000E+00 -0.43351713095E+02  0.43351713095E+02  0.00000000000E+00 0.  1.
          6    2    1    2  502    0  0.41599380221E+02  0.14693598298E+03  0.11068147567E+04  0.11307450596E+04  0.17385279011E+03 0.  0.
         24    2    3    3    0    0  0.58789297736E+02  0.75234424102E+02  0.94283178111E+03  0.95088646766E+03  0.78338412181E+02 0.  0.
         -6    2    1    2    0  501 -0.41599380221E+02 -0.14693598298E+03  0.38952989874E+03  0.45230302203E+03  0.17182488236E+03 0.  0.
        -24    2    5    5    0    0 -0.40513232548E+02 -0.18599758385E+02  0.23354323020E+03  0.25025031351E+03  0.78073721664E+02 0.  0.
          5    1    3    3  502    0 -0.17189917514E+02  0.71701558878E+02  0.16398297563E+03  0.17985859198E+03  0.47000000000E+01 0. -1.
        -13    1    4    4    0    0  0.82093873223E+01  0.51268187713E+02  0.22665605839E+03  0.23252696600E+03  0.00000000000E+00 0.  1.
         14    1    4    4    0    0  0.50579910413E+02  0.23966236390E+02  0.71617572272E+03  0.71835950166E+03  0.00000000000E+00 0. -1.
         -5    1    5    5    0  501 -0.10861476736E+01 -0.12833622460E+03  0.15598666854E+03  0.20205270852E+03  0.47000000000E+01 0.  1.
         13    1    6    6    0    0 -0.28081299583E+02 -0.49241338404E+02  0.14040027554E+03  0.15141171079E+03  0.00000000000E+00 0. -1.
        -14    1    6    6    0    0 -0.12431932965E+02  0.30641580018E+02  0.93142954662E+02  0.98838602714E+02  0.00000000000E+00 0.  1.
</event>
<event>
12    1  0.9656379E-001  0.9060472E+03  0.7818608E-02  0.9418054E-01
         -1   -1    0    0    0  501 -0.00000000000E+00  0.00000000000E+00  0.50554171905E+03  0.50554171905E+03  0.00000000000E+00 0.  1.
          1   -1    0    0  502    0  0.00000000000E+00 -0.00000000000E+00 -0.18147540986E+04  0.18147540986E+04  0.00000000000E+00 0. -1.
          6    2    1    2  502    0  0.91225565067E+02 -0.88649148979E+03 -0.27726741940E+03  0.94595732662E+03  0.15417125779E+03 0.  0.
         24    2    3    3    0    0  0.37446530012E+02 -0.63123288149E+03 -0.14601368698E+03  0.65389778818E+03  0.80032039251E+02 0.  0.
         -6    2    1    2    0  501 -0.91225565067E+02  0.88649148979E+03 -0.10319449602E+04  0.13743384910E+04  0.17235609058E+03 0.  0.
        -24    2    5    5    0    0 -0.13584449163E+02  0.71141964274E+03 -0.83148570123E+03  0.10970583096E+04  0.76589934433E+02 0.  0.
          5    1    3    3  502    0  0.53779035055E+02 -0.25525860830E+03 -0.13125373242E+03  0.29205953844E+03  0.47000000000E+01 0. -1.
        -11    1    4    4    0    0 -0.23270612560E+02 -0.15289787277E+03 -0.23819611818E+02  0.15648212299E+03  0.00000000000E+00 0.  1.
         12    1    4    4    0    0  0.60717142572E+02 -0.47833500872E+03 -0.12219407516E+03  0.49741566519E+03  0.00000000000E+00 0. -1.
         -5    1    5    5    0  501 -0.77641115904E+02  0.17507184705E+03 -0.20045925893E+03  0.27728018140E+03  0.47000000000E+01 0.  1.
         11    1    6    6    0    0 -0.63938412768E+01  0.15509193318E+03 -0.23235534783E+03  0.27943406487E+03  0.00000000000E+00 0. -1.
        -12    1    6    6    0    0 -0.71906078860E+01  0.55632770956E+03 -0.59913035340E+03  0.81762424477E+03  0.00000000000E+00 0.  1.
</event>
<event>
12    1  0.9656379E-001  0.4918056E+03  0.7818608E-02  0.1015940E+00
         -1   -1    0    0    0  501 -0.00000000000E+00  0.00000000000E+00  0.17773809410E+03  0.17773809410E+03  0.00000000000E+00 0.  1.
          1   -1    0    0  502    0  0.00000000000E+00 -0.00000000000E+00 -0.24712077496E+04  0.24712077496E+04  0.00000000000E+00 0. -1.
          6    2    1    2  502    0  0.13573279055E+03 -0.43980501149E+03 -0.25833004414E+03  0.55511703680E+03  0.17195544272E+03 0.  0.
         24    2    3    3    0    0  0.16674107123E+03 -0.36888737722E+03 -0.23622880914E+03  0.47448590814E+03  0.73839994899E+02 0.  0.
         -6    2    1    2    0  501 -0.13573279055E+03  0.43980501149E+03 -0.20351396113E+04  0.20938288069E+04  0.17456802781E+03 0.  0.
        -24    2    5    5    0    0 -0.15614996732E+03  0.40402135159E+03 -0.17008581829E+04  0.17569853791E+04  0.80392781354E+02 0.  0.
          5    1    3    3  502    0 -0.31008280682E+02 -0.70917634270E+02 -0.22101235005E+02  0.80631128667E+02  0.47000000000E+01 0. -1.
        -13    1    4    4    0    0  0.53810229640E+02 -0.20239530755E+03 -0.10483797564E+03  0.23420162781E+03  0.00000000000E+00 0.  1.
         14    1    4    4    0    0  0.11293084159E+03 -0.16649206967E+03 -0.13139083350E+03  0.24028428033E+03  0.00000000000E+00 0. -1.
         -5    1    5    5    0  501  0.20417176768E+02  0.35783659894E+02 -0.33428142846E+03  0.33684342778E+03  0.47000000000E+01 0.  1.
         11    1    6    6    0    0 -0.12780260081E+03  0.22109834757E+03 -0.10003145858E+04  0.10323987866E+04  0.00000000000E+00 0. -1.
        -12    1    6    6    0    0 -0.28347366507E+02  0.18292300402E+03 -0.70054359708E+03  0.72458659248E+03  0.00000000000E+00 0.  1.
</event>
<event>
12    1  0.9656379E-001  0.3013383E+03  0.7818608E-02  0.1084574E+00
          1   -1    0    0  502    0  0.00000000000E+00  0.00000000000E+00  0.15630449641E+03  0.15630449641E+03  0.00000000000E+00 0. -1.
         -1   -1    0    0    0  501 -0.00000000000E+00 -0.00000000000E+00 -0.18803643130E+04  0.18803643130E+04  0.00000000000E+00 0.  1.
          6    2    1    2  502    0 -0.23770585075E+03 -0.68436012248E+02 -0.17084865014E+04  0.17348427227E+04  0.17194646792E+03 0.  0.
         24    2    3    3    0    0 -0.18137158166E+03  0.17071698373E+02 -0.11565020745E+04  0.11734212982E+04  0.78951890698E+02 0.  0.
         -6    2    1    2    0  501  0.23770585075E+03  0.68436012248E+02 -0.15573315192E+02  0.30182608670E+03  0.17224662323E+03 0.  0.
        -24    2    5    5    0    0  0.54068149717E+02 -0.74256398237E+00 -0.38431513258E+02  0.10420759599E+03  0.80363708453E+02 0.  0.
          5    1    3    3  502    0 -0.56334269090E+02 -0.85507710621E+02 -0.55198442688E+03  0.56142142458E+03  0.47000000000E+01 0. -1.
        -11    1    4    4    0    0 -0.73607547479E+02 -0.17159606252E+02 -0.65412357851E+03  0.65847564807E+03  0.00000000000E+00 0.  1.
         12    1    4    4    0    0 -0.10776403418E+03  0.34231304625E+02 -0.50237849602E+03  0.51494565009E+03  0.00000000000E+00 0. -1.
         -5    1    5    5    0  501  0.18363770104E+03  0.69178576230E+02  0.22858198066E+02  0.19761849071E+03  0.47000000000E+01 0.  1.
         13    1    6    6    0    0  0.52206772350E+02 -0.14615848178E+02  0.88195505167E+01  0.54926811017E+02  0.00000000000E+00 0. -1.
        -14    1    6    6    0    0  0.18613773668E+01  0.13873284195E+02 -0.47251063775E+02  0.49280784977E+02  0.00000000000E+00 0.  1.
</event>
<event>
12    1  0.9656379E-001  0.1153267E+04  0.7818608E-02  0.9154775E-01
          2   -1    0    0  502    0  0.00000000000E+00  0.00000000000E+00  0.40841650401E+04  0.40841650401E+04  0.00000000000E+00 0. -1.
         -2   -1    0    0    0  501 -0.00000000000E+00 -0.00000000000E+00 -0.39595976710E+03  0.39595976710E+03  0.00000000000E+00 0.  1.
          6    2    1    2  502    0  0.38691678411E+03  0.10727412631E+04  0.90010351975E+03  0.14628919575E+04  0.17142962869E+03 0.  0.
         24    2    3    3    0    0  0.24318367576E+03  0.85132432603E+03  0.68363522457E+03  0.11214753801E+04  0.80364791753E+02 0.  0.
         -6    2    1    2    0  501 -0.38691678411E+03 -0.10727412631E+04  0.27881017533E+04  0.30172328497E+04  0.17234926010E+03 0.  0.
        -24    2    5    5    0    0 -0.20154580792E+03 -0.71538746851E+03  0.19346133420E+04  0.20735545722E+04  0.67080831717E+02 0.  0.
          5    1    3    3  502    0  0.14373310835E+03  0.22141693709E+03  0.21646829518E+03  0.34141657735E+03  0.47000000000E+01 0. -1.
        -11    1    4    4    0    0  0.18731935530E+03  0.53905733909E+03  0.41223057224E+03  0.70399247182E+03  0.00000000000E+00 0.  1.
         12    1    4    4    0    0  0.55864320454E+02  0.31226698695E+03  0.27140465233E+03  0.41748290833E+03  0.00000000000E+00 0. -1.
         -5    1    5    5    0  501 -0.18537097619E+03 -0.35735379462E+03  0.85348841125E+03  0.94367827753E+03  0.47000000000E+01 0.  1.
         13    1    6    6    0    0 -0.12189999679E+03 -0.52833769435E+03  0.13650900003E+04  0.14688332232E+04  0.00000000000E+00 0. -1.
        -14    1    6    6    0    0 -0.79645811131E+02 -0.18704977416E+03  0.56952334168E+03  0.60472134902E+03  0.00000000000E+00 0.  1.
</event>
<event>
12    1  0.9656379E-001  0.3869607E+03  0.7818608E-02  0.1048391E+00
         -1   -1    0    0    0  501 -0.00000000000E+00  0.00000000000E+00  0.14023521468E+04  0.14023521468E+04  0.00000000000E+00 0.  1.
          1   -1    0    0  502    0  0.00000000000E+00 -0.00000000000E+00 -0.82368091175E+03  0.82368091175E+03  0.00000000000E+00 0. -1.
          6    2    1    2  502    0 -0.56204611982E+02  0.34190307025E+03  0.13276547154E+04  0.13827478989E+04  0.17107904875E+03 0.  0.
         24    2    3    3    0    0  0.39273475371E+02  0.15497626759E+03  0.57261577282E+03  0.59906199918E+03  0.73664144555E+02 0.  0.
         -6    2    1    2    0  501  0.56204611982E+02 -0.34190307025E+03 -0.74898348030E+03  0.84328515962E+03  0.17348469334E+03 0.  0.
        -24    2    5    5    0    0  0.62987901089E+02 -0.35493384321E+03 -0.73416515324E+03  0.82189621688E+03  0.81051899128E+02 0.  0.
          5    1    3    3  502    0 -0.95478087353E+02  0.18692680266E+03  0.75503894255E+03  0.78368589976E+03  0.47000000000E+01 0. -1.
        -11    1    4    4    0    0  0.46751820015E+02  0.11505358921E+03  0.50619393522E+03  0.52120568025E+03  0.00000000000E+00 0.  1.
         12    1    4    4    0    0 -0.74783446439E+01  0.39922678383E+02  0.66421837597E+02  0.77856318932E+02  0.00000000000E+00 0. -1.
         -5    1    5    5    0  501 -0.67832891063E+01  0.13030772954E+02 -0.14818327059E+02  0.21388942744E+02  0.47000000000E+01 0.  1.
         11    1    6    6    0    0  0.44652828759E+01 -0.14589799684E+03 -0.37262919684E+03  0.40019830406E+03  0.00000000000E+00 0. -1.
        -12    1    6    6    0    0  0.58522618213E+02 -0.20903584637E+03 -0.36153595640E+03  0.42169791282E+03  0.00000000000E+00 0.  1.
</event>
<event>
12    1  0.9656379E-001  0.4209782E+03  0.7818608E-02  0.1036748E+00
         -2   -1    0    0    0  501 -0.00000000000E+00  0.00000000000E+00  0.53960204224E+03  0.53960204224E+03  0.00000000000E+00 0.  1.
          2   -1    0    0  502    0  0.00000000000E+00 -0.00000000000E+00 -0.37946419921E+03  0.37946419921E+03  0.00000000000E+00 0. -1.
          6    2    1    2  502    0 -0.17391658405E+03 -0.34272960351E+03 -0.88420583291E+02  0.43034780992E+03  0.17225120790E+03 0.  0.
         24    2    3    3    0    0 -0.12207818691E+03 -0.20406603408E+03 -0.12140800837E+03  0.27860768629E+03  0.79600932031E+02 0.  0.
         -6    2    1    2    0  501  0.17391658405E+03  0.34272960351E+03  0.24855842632E+03  0.48871843152E+03  0.17132966667E+03 0.  0.
        -24    2    5    5    0    0  0.20163404103E+03  0.29345179004E+03  0.21065458840E+03  0.42048829704E+03  0.75264950385E+02 0.  0.
          5    1    3    3  502    0 -0.51838397143E+02 -0.13866356943E+03  0.32987425079E+02  0.15174012363E+03  0.47000000000E+01 0. -1.
        -13    1    4    4    0    0 -0.65556110157E+02 -0.54604600350E+02 -0.14997331955E+02  0.86626704451E+02  0.00000000000E+00 0.  1.
         14    1    4    4    0    0 -0.56522076748E+02 -0.14946143373E+03 -0.10641067642E+03  0.19198098184E+03  0.00000000000E+00 0. -1.
         -5    1    5    5    0  501 -0.27717456977E+02  0.49277813479E+02  0.37903837927E+02  0.68230134487E+02  0.47000000000E+01 0.  1.
         11    1    6    6    0    0  0.14199255658E+03  0.25114375930E+03  0.14830051843E+03  0.32438883724E+03  0.00000000000E+00 0. -1.
        -12    1    6    6    0    0  0.59641484442E+02  0.42308030734E+02  0.62354069968E+02  0.96099459793E+02  0.00000000000E+00 0.  1.
</event>
<event>
12    1  0.1164265E+000  0.3557960E+03  0.7818608E-02  0.1060261E+00
          1   -1    0    0  502    0  0.00000000000E+00  0.00000000000E+00  0.87639025028E+03  0.87639025028E+03  0.00000000000E+00 0. -1.
         -1   -1    0    0    0  501 -0.00000000000E+00 -0.00000000000E+00 -0.28195892692E+03  0.28195892692E+03  0.00000000000E+00 0.  1.
          6    2    1    2  502    0  0.15174698594E+03 -0.27217942058E+03 -0.10733037264E+03  0.37146737314E+03  0.17134589487E+03 0.  0.
         24    2    3    3    0    0  0.17063451622E+03 -0.21411071207E+03 -0.11977294934E+03  0.30897240196E+03  0.78478344973E+02 0.  0.
         -6    2    1    2    0  501 -0.15174698594E+03  0.27217942058E+03  0.70176169600E+03  0.78688180406E+03  0.17206019544E+03 0.  0.
        -24    2    5    5    0    0 -0.14151475149E+03  0.12009715503E+03  0.43092510687E+03  0.47606310750E+03  0.80559810454E+02 0.  0.
          5    1    3    3  502    0 -0.18887530283E+02 -0.58068708506E+02  0.12442576702E+02  0.62494971179E+02  0.47000000000E+01 0. -1.
        -13    1    4    4    0    0  0.77937091330E+02 -0.11385947434E+03 -0.19020011830E+02  0.13928363490E+03  0.00000000000E+00 0.  1.
         14    1    4    4    0    0  0.92697424895E+02 -0.10025123773E+03 -0.10075293751E+03  0.16968876706E+03  0.00000000000E+00 0. -1.
         -5    1    5    5    0  501 -0.10232234452E+02  0.15208226554E+03  0.27083658914E+03  0.31081869656E+03  0.47000000000E+01 0.  1.
         13    1    6    6    0    0 -0.98679698266E+02  0.11856926938E+03  0.37584482098E+03  0.40627045666E+03  0.00000000000E+00 0. -1.
        -14    1    6    6    0    0 -0.42835053224E+02  0.15278856538E+01  0.55080285884E+02  0.69792650848E+02  0.00000000000E+00 0.  1.
</event>
<event>
12    1  0.9656379E-001  0.5709648E+03  0.7818608E-02  0.9967546E-01
         -1   -1    0    0    0  501 -0.00000000000E+00  0.00000000000E+00  0.30858315560E+03  0.30858315560E+03  0.00000000000E+00 0.  1.
          1   -1    0    0  502    0  0.00000000000E+00 -0.00000000000E+00 -0.26313969441E+04  0.26313969441E+04  0.00000000000E+00 0. -1.
          6    2    1    2  502    0 -0.53786257800E+03 -0.84245653649E+02 -0.24231239771E+02  0.57156667669E+03  0.17235959489E+03 0.  0.
         24    2    3    3    0    0 -0.13049477184E+03 -0.25022286585E+02  0.23375852147E+02  0.15714604266E+03  0.80581933205E+02 0.  0.
         -6    2    1    2    0  501  0.53786257800E+03  0.84245653649E+02 -0.22985825488E+04  0.23684134230E+04  0.17177580140E+03 0.  0.
        -24    2    5    5    0    0  0.45571503335E+03  0.50934610602E+02 -0.17131437992E+04  0.17762829778E+04  0.10024477196E+03 0.  0.
          5    1    3    3  502    0 -0.40736780617E+03 -0.59223367063E+02 -0.47607091918E+02  0.41442063403E+03  0.47000000000E+01 0. -1.
        -11    1    4    4    0    0 -0.13424789419E+03 -0.19508426907E+02  0.29836660550E+01  0.13569074426E+03  0.00000000000E+00 0.  1.
         12    1    4    4    0    0  0.37531223544E+01 -0.55138596788E+01  0.20392186092E+02  0.21455298404E+02  0.00000000000E+00 0. -1.
         -5    1    5    5    0  501  0.82147544657E+02  0.33311043047E+02 -0.58543874956E+03  0.59213044523E+03  0.47000000000E+01 0.  1.
         11    1    6    6    0    0  0.18209063512E+03 -0.17249912567E+02 -0.55776475254E+03  0.58698899313E+03  0.00000000000E+00 0. -1.
        -12    1    6    6    0    0  0.27362439823E+03  0.68184523168E+02 -0.11553790467E+04  0.11892939847E+04  0.00000000000E+00 0.  1.
</event>
<event>
12    1  0.9656379E-001  0.5126859E+03  0.7818608E-02  0.1010520E+00
         -2   -1    0    0    0  501 -0.00000000000E+00  0.00000000000E+00  0.19246155845E+03  0.19246155845E+03  0.00000000000E+00 0.  1.
          2   -1    0    0  502    0  0.00000000000E+00 -0.00000000000E+00 -0.14231305320E+04  0.14231305320E+04  0.00000000000E+00 0. -1.
          6    2    1    2  502    0 -0.43299059813E+03  0.21459656680E+03 -0.45316796450E+03  0.68431769840E+03  0.17145542787E+03 0.  0.
         24    2    3    3    0    0 -0.21500351337E+03  0.17805204283E+03 -0.23737017453E+03  0.37537652680E+03  0.81448734798E+02 0.  0.
         -6    2    1    2    0  501  0.43299059813E+03 -0.21459656680E+03 -0.77750100903E+03  0.93127439203E+03  0.17097259915E+03 0.  0.
        -24    2    5    5    0    0  0.14175026761E+03 -0.12147578976E+03 -0.25723614776E+03  0.32779280565E+03  0.80175943101E+02 0.  0.
          5    1    3    3  502    0 -0.21798708476E+03  0.36544523975E+02 -0.21579778997E+03  0.30894117160E+03  0.47000000000E+01 0. -1.
        -13    1    4    4    0    0  0.30391623914E+01  0.22498940269E+02 -0.14521447038E+02  0.26950162251E+02  0.00000000000E+00 0.  1.
         14    1    4    4    0    0 -0.21804267576E+03  0.15555310256E+03 -0.22284872749E+03  0.34842636455E+03  0.00000000000E+00 0. -1.
         -5    1    5    5    0  501  0.29124033051E+03 -0.93120777045E+02 -0.52026486127E+03  0.60348158639E+03  0.47000000000E+01 0.  1.
         13    1    6    6    0    0  0.12206325585E+03 -0.55085666687E+02 -0.17054868691E+03  0.21684262429E+03  0.00000000000E+00 0. -1.
        -14    1    6    6    0    0  0.19687011763E+02 -0.66390123070E+02 -0.86687460858E+02  0.11095018136E+03  0.00000000000E+00 0.  1.
</event>
<event>
12    1  0.9656379E-001  0.1748487E+03  0.7818608E-02  0.1172884E+00
          1   -1    0    0  502    0  0.00000000000E+00  0.00000000000E+00  0.80629953489E+03  0.80629953489E+03  0.00000000000E+00 0. -1.
         -1   -1    0    0    0  501 -0.00000000000E+00 -0.00000000000E+00 -0.59288323004E+02  0.59288323004E+02  0.00000000000E+00 0.  1.
          6    2    1    2  502    0 -0.18856127620E+02  0.34225443217E+02  0.11158494485E+03  0.20613322376E+03  0.16885725186E+03 0.  0.
         24    2    3    3    0    0  0.13339449715E+02 -0.60953431655E+01  0.12833636819E+03  0.15168121555E+03  0.79510210810E+02 0.  0.
         -6    2    1    2    0  501  0.18856127620E+02 -0.34225443217E+02  0.63542626703E+03  0.65945463414E+03  0.17200854379E+03 0.  0.
        -24    2    5    5    0    0 -0.75813166344E+01  0.91992431672E+01  0.14547979897E+03  0.16685512804E+03  0.80834147522E+02 0.  0.
          5    1    3    3  502    0 -0.32195577334E+02  0.40320786383E+02 -0.16751423336E+02  0.54452008211E+02  0.47000000000E+01 0. -1.
        -11    1    4    4    0    0  0.38277031599E+02  0.17046494286E+02  0.95993013498E+02  0.10473954724E+03  0.00000000000E+00 0.  1.
         12    1    4    4    0    0 -0.24937581884E+02 -0.23141837451E+02  0.32343354690E+02  0.46941668307E+02  0.00000000000E+00 0. -1.
         -5    1    5    5    0  501  0.26437444254E+02 -0.43424686385E+02  0.48994646806E+03  0.49259950610E+03  0.47000000000E+01 0.  1.
         11    1    6    6    0    0 -0.28564095610E+02  0.31141166353E+02  0.11999009066E+03  0.12721360641E+03  0.00000000000E+00 0. -1.
        -12    1    6    6    0    0  0.20982778976E+02 -0.21941923186E+02  0.25489708312E+02  0.39641521622E+02  0.00000000000E+00 0.  1.
</event>
<event>
12    1  0.9656379E-001  0.4524918E+03  0.7818608E-02  0.1026982E+00
          2   -1    0    0  502    0  0.00000000000E+00  0.00000000000E+00  0.65665028894E+03  0.65665028894E+03  0.00000000000E+00 0. -1.
         -2   -1    0    0    0  501 -0.00000000000E+00 -0.00000000000E+00 -0.32840528953E+03  0.32840528953E+03  0.00000000000E+00 0.  1.
          6    2    1    2  502    0  0.27568594821E+03 -0.31514319721E+03  0.53363557755E+02  0.45552794642E+03  0.17128941558E+03 0.  0.
         24    2    3    3    0    0  0.26502002106E+03 -0.31685972344E+03  0.78226130767E+02  0.42801529477E+03  0.80262501321E+02 0.  0.
         -6    2    1    2    0  501 -0.27568594821E+03  0.31514319721E+03  0.27488144166E+03  0.52952763205E+03  0.17181888530E+03 0.  0.
        -24    2    5    5    0    0 -0.27907677629E+03  0.23929643253E+03  0.23169144581E+03  0.44205366352E+03  0.81141146703E+02 0.  0.
          5    1    3    3  502    0  0.10665927146E+02  0.17165262335E+01 -0.24862573012E+02  0.27512651653E+02  0.47000000000E+01 0. -1.
        -13    1    4    4    0    0  0.25469928284E+03 -0.30767329536E+03  0.58127243855E+02  0.40362526907E+03  0.00000000000E+00 0.  1.
         14    1    4    4    0    0  0.10320738224E+02 -0.91864280835E+01  0.20098886913E+02  0.24390025698E+02  0.00000000000E+00 0. -1.
         -5    1    5    5    0  501  0.33908280860E+01  0.75846764678E+02  0.43189995850E+02  0.87473968520E+02  0.47000000000E+01 0.  1.
         13    1    6    6    0    0 -0.96887690731E+02  0.36935188562E+02  0.53951966016E+02  0.11688561676E+03  0.00000000000E+00 0. -1.
        -14    1    6    6    0    0 -0.18218908556E+03  0.20236124397E+03  0.17773947979E+03  0.32516804676E+03  0.00000000000E+00 0.  1.
</event>
<event>
12    1  0.9656379E-001  0.3592239E+03  0.7818608E-02  0.1058892E+00
          2   -1    0    0  502    0  0.00000000000E+00  0.00000000000E+00  0.19257590522E+04  0.19257590522E+04  0.00000000000E+00 0. -1.
         -2   -1    0    0    0  501 -0.00000000000E+00 -0.00000000000E+00 -0.13422577700E+03  0.13422577700E+03  0.00000000000E+00 0.  1.
          6    2    1    2  502    0 -0.27437744156E+03  0.16457340060E+03  0.16194439099E+03  0.39039660581E+03  0.15432478554E+03 0.  0.
         24    2    3    3    0    0 -0.19520283602E+03  0.17660065936E+03  0.12611804375E+03  0.30253939056E+03  0.79576264070E+02 0.  0.
         -6    2    1    2    0  501  0.27437744156E+03 -0.16457340060E+03  0.16295888842E+04  0.16695882234E+04  0.17203929640E+03 0.  0.
        -24    2    5    5    0    0  0.23877153540E+03 -0.10789694005E+03  0.10141841724E+04  0.10505364881E+04  0.80023629882E+02 0.  0.
          5    1    3    3  502    0 -0.79174605536E+02 -0.12027258755E+02  0.35826347233E+02  0.87857215247E+02  0.47000000000E+01 0. -1.
        -13    1    4    4    0    0 -0.80860794239E+02  0.24830087640E+02  0.46348597081E+02  0.96453065003E+02  0.00000000000E+00 0.  1.
         14    1    4    4    0    0 -0.11434204178E+03  0.15177057172E+03  0.79769446673E+02  0.20608632556E+03  0.00000000000E+00 0. -1.
         -5    1    5    5    0  501  0.35605906159E+02 -0.56676460553E+02  0.61540471178E+03  0.61905173533E+03  0.47000000000E+01 0.  1.
         13    1    6    6    0    0  0.19608115986E+03 -0.11840360117E+03  0.88063360937E+03  0.90993559551E+03  0.00000000000E+00 0. -1.
        -14    1    6    6    0    0  0.42690375536E+02  0.10506661117E+02  0.13355056307E+03  0.14060089256E+03  0.00000000000E+00 0.  1.
</event>
<event>
12    1  0.9656379E-001  0.2301337E+03  0.7818608E-02  0.1126546E+00
         -2   -1    0    0    0  501 -0.00000000000E+00  0.00000000000E+00  0.64248488803E+02  0.64248488803E+02  0.00000000000E+00 0.  1.
          2   -1    0    0  502    0  0.00000000000E+00 -0.00000000000E+00 -0.12259666613E+04  0.12259666613E+04  0.00000000000E+00 0. -1.
          6    2    1    2  502    0  0.10592734257E+03  0.10833936532E+03 -0.21132492254E+03  0.31231546542E+03  0.17298759224E+03 0.  0.
         24    2    3    3    0    0  0.44893518998E+02  0.12923549308E+03 -0.17639955756E+03  0.23880596335E+03  0.84818886497E+02 0.  0.
         -6    2    1    2    0  501 -0.10592734257E+03 -0.10833936532E+03 -0.95039325000E+03  0.97789968473E+03  0.17344291213E+03 0.  0.
        -24    2    5    5    0    0  0.87459071928E+01 -0.47534437660E+02 -0.52194538116E+03  0.53019793161E+03  0.79667133171E+02 0.  0.
          5    1    3    3  502    0  0.61033823569E+02 -0.20896127757E+02 -0.34925364983E+02  0.73509502065E+02  0.47000000000E+01 0. -1.
        -11    1    4    4    0    0  0.62297565060E+02  0.10093037868E+03 -0.98713989247E+02  0.15431260359E+03  0.00000000000E+00 0.  1.
         12    1    4    4    0    0 -0.17404046062E+02  0.28305114396E+02 -0.77685568311E+02  0.84493359763E+02  0.00000000000E+00 0. -1.
         -5    1    5    5    0  501 -0.11467324976E+03 -0.60804927660E+02 -0.42844786883E+03  0.44770175312E+03  0.47000000000E+01 0.  1.
         11    1    6    6    0    0 -0.28269227516E+02 -0.48292303419E+02 -0.29684873210E+03  0.30207691991E+03  0.00000000000E+00 0. -1.
        -12    1    6    6    0    0  0.37015134709E+02  0.75786575948E+00 -0.22509664906E+03  0.22812101169E+03  0.00000000000E+00 0.  1.
</event>
<event>
12    1  0.9656379E-001  0.2510158E+03  0.7818608E-02  0.1112665E+00
         -1   -1    0    0    0  501 -0.00000000000E+00  0.00000000000E+00  0.14478019897E+03  0.14478019897E+03  0.00000000000E+00 0.  1.
          1   -1    0    0  502    0  0.00000000000E+00 -0.00000000000E+00 -0.79994604704E+03  0.79994604704E+03  0.00000000000E+00 0. -1.
          6    2    1    2  502    0 -0.84065356234E+02  0.16678914418E+03 -0.60980918102E+01  0.24748204301E+03  0.16224848891E+03 0.  0.
         24    2    3    3    0    0  0.84126882594E+01  0.93955243869E+02  0.24729849307E+02  0.12570594642E+03  0.79322495823E+02 0.  0.
         -6    2    1    2    0  501  0.84065356234E+02 -0.16678914418E+03 -0.64906775626E+03  0.69724420300E+03  0.17313267648E+03 0.  0.
        -24    2    5    5    0    0  0.82035510997E+02 -0.18496894520E+03 -0.64052514345E+03  0.67651519746E+03  0.80355567710E+02 0.  0.
          5    1    3    3  502    0 -0.92478044494E+02  0.72833900306E+02 -0.30827941117E+02  0.12177609659E+03  0.47000000000E+01 0. -1.
        -11    1    4    4    0    0  0.42934816883E+01  0.10322180531E+03  0.37045780548E+02  0.10975228897E+03  0.00000000000E+00 0.  1.
         12    1    4    4    0    0  0.41192065710E+01 -0.92665614420E+01 -0.12315931241E+02  0.15953657451E+02  0.00000000000E+00 0. -1.
         -5    1    5    5    0  501  0.20298452375E+01  0.18179801020E+02 -0.85426128167E+01  0.20729005537E+02  0.47000000000E+01 0.  1.
         13    1    6    6    0    0  0.52777584144E+02 -0.74002823644E+02 -0.17674291473E+03  0.19874594135E+03  0.00000000000E+00 0. -1.
        -14    1    6    6    0    0  0.29257926853E+02 -0.11096612155E+03 -0.46378222872E+03  0.47776925612E+03  0.00000000000E+00 0.  1.
</event>
<event>
12    1  0.9656379E-001  0.7580035E+03  0.7818608E-02  0.9622877E-01
          1   -1    0    0  502    0  0.00000000000E+00  0.00000000000E+00  0.39859651387E+03  0.39859651387E+03  0.00000000000E+00 0. -1.
         -1   -1    0    0    0  501 -0.00000000000E+00 -0.00000000000E+00 -0.28654718576E+04  0.28654718576E+04  0.00000000000E+00 0.  1.
          6    2    1    2  502    0 -0.36489395634E+03 -0.64111756572E+03 -0.83298918787E+02  0.76299925313E+03  0.17620958532E+03 0.  0.
         24    2    3    3    0    0 -0.18442420382E+03 -0.24140133732E+03 -0.76939360943E+02  0.32435939083E+03  0.83680682030E+02 0.  0.
         -6    2    1    2    0  501  0.36489395634E+03  0.64111756572E+03 -0.23835764250E+04  0.25010691184E+04  0.17242629943E+03 0.  0.
        -24    2    5    5    0    0  0.31178832971E+03  0.51235926781E+03 -0.17292298889E+04  0.18320471560E+04  0.80229616144E+02 0.  0.
          5    1    3    3  502    0 -0.18046975252E+03 -0.39971622839E+03 -0.63595578442E+01  0.43863986230E+03  0.47000000000E+01 0. -1.
        -11    1    4    4    0    0 -0.11699915524E+03 -0.85574490407E+02 -0.27724385156E+02  0.14758196796E+03  0.00000000000E+00 0.  1.
         12    1    4    4    0    0 -0.67425048577E+02 -0.15582684691E+03 -0.49214975787E+02  0.17677742287E+03  0.00000000000E+00 0. -1.
         -5    1    5    5    0  501  0.53105626638E+02  0.12875829791E+03 -0.65434653603E+03  0.66902196232E+03  0.47000000000E+01 0.  1.
         13    1    6    6    0    0  0.12036118709E+03  0.18057422448E+03 -0.51575461681E+03  0.55955043621E+03  0.00000000000E+00 0. -1.
        -14    1    6    6    0    0  0.19142714262E+03  0.33178504333E+03 -0.12134752721E+04  0.12724967198E+04  0.00000000000E+00 0.  1.
</event>
<event>
12    1  0.9656379E-001  0.6846864E+03  0.7818608E-02  0.9743785E-01
          1   -1    0    0  502    0  0.00000000000E+00  0.00000000000E+00  0.43115027228E+03  0.43115027228E+03  0.00000000000E+00 0. -1.
         -1   -1    0    0    0  501 -0.00000000000E+00 -0.00000000000E+00 -0.22385419771E+04  0.22385419771E+04  0.00000000000E+00 0.  1.
          6    2    1    2  502    0  0.52035923851E+03 -0.41187557911E+03 -0.18611736551E+04  0.19832375894E+04  0.16984914424E+03 0.  0.
         24    2    3    3    0    0  0.35285568407E+03 -0.32548728311E+03 -0.11809879547E+04  0.12774082506E+04  0.81179950624E+02 0.  0.
         -6    2    1    2    0  501 -0.52035923851E+03  0.41187557911E+03  0.53781950339E+02  0.68645465992E+03  0.16706966263E+03 0.  0.
        -24    2    5    5    0    0 -0.51610631477E+03  0.42110181562E+03  0.48630382852E+02  0.67413234487E+03  0.91635348000E+02 0.  0.
          5    1    3    3  502    0  0.16750355444E+03 -0.86388295998E+02 -0.68018570049E+03  0.70582933885E+03  0.47000000000E+01 0. -1.
        -11    1    4    4    0    0  0.34540629631E+03 -0.29449948217E+03 -0.10799768549E+04  0.11714885666E+04  0.00000000000E+00 0.  1.
         12    1    4    4    0    0  0.74493877630E+01 -0.30987800934E+02 -0.10101109973E+03  0.10591968397E+03  0.00000000000E+00 0. -1.
         -5    1    5    5    0  501 -0.42529237492E+01 -0.92262365141E+01  0.51515674870E+01  0.12322315050E+02  0.47000000000E+01 0.  1.
         11    1    6    6    0    0 -0.36485616108E+03  0.29402219358E+03 -0.79171630029E+01  0.46864885582E+03  0.00000000000E+00 0. -1.
        -12    1    6    6    0    0 -0.15125015369E+03  0.12707962204E+03  0.56547545855E+02  0.20548348905E+03  0.00000000000E+00 0.  1.
</event>
<event>
12    1  0.9656379E-001  0.2473566E+03  0.7818608E-02  0.1114987E+00
          2   -1    0    0  502    0  0.00000000000E+00  0.00000000000E+00  0.29985154546E+04  0.29985154546E+04  0.00000000000E+00 0. -1.
         -2   -1    0    0    0  501 -0.00000000000E+00 -0.00000000000E+00 -0.25891128282E+02  0.25891128282E+02  0.00000000000E+00 0.  1.
          6    2    1    2  502    0 -0.81545793811E+02  0.15552142451E+03  0.79123493553E+03  0.82906144449E+03  0.17450938534E+03 0.  0.
         24    2    3    3    0    0 -0.79544278370E+02  0.12782530909E+03  0.37903042692E+03  0.41589594763E+03  0.81478665090E+02 0.  0.
         -6    2    1    2    0  501  0.81545793811E+02 -0.15552142451E+03  0.21813893908E+04  0.21953451384E+04  0.17390794243E+03 0.  0.
        -24    2    5    5    0    0  0.57512964377E+02 -0.15429594042E+02  0.91774458713E+03  0.92372271893E+03  0.86387040821E+02 0.  0.
          5    1    3    3  502    0 -0.20015154401E+01  0.27696115421E+02  0.41220450861E+03  0.41316549686E+03  0.47000000000E+01 0. -1.
        -13    1    4    4    0    0 -0.56063044057E+02  0.65341500121E+02  0.30168506395E+03  0.31372990670E+03  0.00000000000E+00 0.  1.
         14    1    4    4    0    0 -0.23481234313E+02  0.62483808967E+02  0.77345362968E+02  0.10216604094E+03  0.00000000000E+00 0. -1.
         -5    1    5    5    0  501  0.24032829433E+02 -0.14009183047E+03  0.12636448036E+04  0.12716224194E+04  0.47000000000E+01 0.  1.
         11    1    6    6    0    0  0.72944920092E+02 -0.17323900818E+02  0.87556035627E+03  0.87876448288E+03  0.00000000000E+00 0. -1.
        -12    1    6    6    0    0 -0.15431955715E+02  0.18943067765E+01  0.42184230861E+02  0.44958236050E+02  0.00000000000E+00 0.  1.
</event>
<event>
12    1  0.9656379E-001  0.1116748E+04  0.7818608E-02  0.9189020E-01
          2   -1    0    0  502    0  0.00000000000E+00  0.00000000000E+00  0.14839119548E+04  0.14839119548E+04  0.00000000000E+00 0. -1.
         -2   -1    0    0    0  501 -0.00000000000E+00 -0.00000000000E+00 -0.11074440250E+04  0.11074440250E+04  0.00000000000E+00 0.  1.
          6    2    1    2  502    0 -0.39395841718E+03 -0.10304383829E+04 -0.44796047377E+03  0.12033705574E+04  0.17442940364E+03 0.  0.
         24    2    3    3    0    0 -0.12547440225E+03 -0.35316945440E+03 -0.10078551883E+03  0.39632074037E+03  0.80249107760E+02 0.  0.
         -6    2    1    2    0  501  0.39395841718E+03  0.10304383829E+04  0.82442840357E+03  0.13879854224E+04  0.17266975598E+03 0.  0.
        -24    2    5    5    0    0  0.39498575914E+03  0.10279605014E+04  0.80168601432E+03  0.13646080488E+04  0.82086045581E+02 0.  0.
          5    1    3    3  502    0 -0.26848401493E+03 -0.67726892854E+03 -0.34717495494E+03  0.80704981704E+03  0.47000000000E+01 0. -1.
        -11    1    4    4    0    0 -0.12595514236E+03 -0.25549883216E+03 -0.85847157905E+02  0.29751316885E+03  0.00000000000E+00 0.  1.
         12    1    4    4    0    0  0.48074011542E+00 -0.97670622247E+02 -0.14938360920E+02  0.98807571512E+02  0.00000000000E+00 0. -1.
         -5    1    5    5    0  501 -0.10273419625E+01  0.24778815637E+01  0.22742389247E+02  0.23377373617E+02  0.47000000000E+01 0.  1.
         13    1    6    6    0    0  0.31242646147E+03  0.88781978179E+03  0.69714220462E+03  0.11712563819E+04  0.00000000000E+00 0. -1.
        -14    1    6    6    0    0  0.82559297671E+02  0.14014071959E+03  0.10454380970E+03  0.19335166683E+03  0.00000000000E+00 0.  1.
</event>
<event>
12    1  0.9656379E-001  0.8620457E+03  0.7818608E-02  0.9474311E-01
          1   -1    0    0  502    0  0.00000000000E+00  0.00000000000E+00  0.54697744761E+03  0.54697744761E+03  0.00000000000E+00 0. -1.
         -1   -1    0    0    0  501 -0.00000000000E+00 -0.00000000000E+00 -0.19300469970E+04  0.19300469970E+04  0.00000000000E+00 0.  1.
          6    2    1    2  502    0 -0.82085211255E+03 -0.20061360696E+03 -0.13656731767E+04  0.16151998331E+04  0.17252033300E+03 0.  0.
         24    2    3    3    0    0 -0.27481548261E+03 -0.46573508333E+02 -0.37113934716E+03  0.47020901160E+03  0.75229372014E+02 0.  0.
         -6    2    1    2    0  501  0.82085211255E+03  0.20061360696E+03 -0.17396372686E+02  0.86182461151E+03  0.16850821121E+03 0.  0.
        -24    2    5    5    0    0  0.25496586658E+03  0.10621932629E+03 -0.18795567425E+02  0.28809856945E+03  0.79733142173E+02 0.  0.
          5    1    3    3  502    0 -0.54603662994E+03 -0.15404009862E+03 -0.99453382956E+03  0.11449908215E+04  0.47000000000E+01 0. -1.
        -13    1    4    4    0    0 -0.25595630610E+03 -0.60638819860E+02 -0.35433146991E+03  0.44129523867E+03  0.00000000000E+00 0.  1.
         14    1    4    4    0    0 -0.18859176512E+02  0.14065311526E+02 -0.16807877254E+02  0.28913772926E+02  0.00000000000E+00 0. -1.
         -5    1    5    5    0  501  0.56588624596E+03  0.94394280662E+02  0.13991947392E+01  0.57372604206E+03  0.47000000000E+01 0.  1.
         11    1    6    6    0    0  0.13848478997E+03  0.36169763566E+02  0.24995499207E+02  0.14529646875E+03  0.00000000000E+00 0. -1.
        -12    1    6    6    0    0  0.11648107661E+03  0.70049562726E+02 -0.43791066632E+02  0.14280210070E+03  0.00000000000E+00 0.  1.
</event>
<event>
12    1  0.9656379E-001  0.6795778E+03  0.7818608E-02  0.9752809E-01
         -2   -1    0    0    0  501 -0.00000000000E+00  0.00000000000E+00  0.39262333921E+03  0.39262333921E+03  0.00000000000E+00 0.  1.
          2   -1    0    0  502    0  0.00000000000E+00 -0.00000000000E+00 -0.11830684344E+04  0.11830684344E+04  0.00000000000E+00 0. -1.
          6    2    1    2  502    0 -0.61714468752E+03  0.22851783398E+03 -0.33497306812E+03  0.75690915342E+03  0.16618226255E+03 0.  0.
         24    2    3    3    0    0 -0.39310566633E+03  0.11601144318E+03 -0.14194514854E+03  0.44047110463E+03  0.76652781862E+02 0.  0.
         -6    2    1    2    0  501  0.61714468752E+03 -0.22851783398E+03 -0.45547202704E+03  0.81878262016E+03  0.17280696131E+03 0.  0.
        -24    2    5    5    0    0  0.40406346198E+03 -0.14527647403E+03 -0.21422776060E+03  0.48628657691E+03  0.78794455768E+02 0.  0.
          5    1    3    3  502    0 -0.22403902118E+03  0.11250639081E+03 -0.19302791958E+03  0.31643804879E+03  0.47000000000E+01 0. -1.
        -13    1    4    4    0    0 -0.17032118661E+03  0.88920056986E+02 -0.75236176248E+02  0.20634089599E+03  0.00000000000E+00 0.  1.
         14    1    4    4    0    0 -0.22278447973E+03  0.27091386189E+02 -0.66708972291E+02  0.23413020864E+03  0.00000000000E+00 0. -1.
         -5    1    5    5    0  501  0.21308122554E+03 -0.83241359951E+02 -0.24124426644E+03  0.33249604325E+03  0.47000000000E+01 0.  1.
         11    1    6    6    0    0  0.33962342441E+03 -0.11589339270E+03 -0.20898219254E+03  0.41526967826E+03  0.00000000000E+00 0. -1.
        -12    1    6    6    0    0  0.64440037570E+02 -0.29383081327E+02 -0.52455680563E+01  0.71016898654E+02  0.00000000000E+00 0.  1.
</event>
<event>
12    1  0.9656379E-001  0.1249438E+04  0.7818608E-02  0.9070651E-01
         -2   -1    0    0    0  501 -0.00000000000E+00  0.00000000000E+00  0.98305291249E+03  0.98305291249E+03  0.00000000000E+00 0.  1.
          2   -1    0    0  502    0  0.00000000000E+00 -0.00000000000E+00 -0.33786145238E+04  0.33786145238E+04  0.00000000000E+00 0. -1.
          6    2    1    2  502    0 -0.11254647232E+04  0.51417305145E+03  0.38993086328E+03  0.13087283123E+04  0.17227578793E+03 0.  0.
         24    2    3    3    0    0 -0.97880230501E+03  0.44315306701E+03  0.38989055249E+03  0.11457074709E+04  0.78691630797E+02 0.  0.
         -6    2    1    2    0  501  0.11254647232E+04 -0.51417305145E+03 -0.27854924746E+04  0.30529391240E+04  0.17442533946E+03 0.  0.
        -24    2    5    5    0    0  0.99415180772E+03 -0.43546699290E+03 -0.23124242477E+04  0.25556933470E+04  0.79330096256E+02 0.  0.
          5    1    3    3  502    0 -0.14666241821E+03  0.71019984444E+02  0.40310784413E-01  0.16302084140E+03  0.47000000000E+01 0. -1.
        -13    1    4    4    0    0 -0.18190333633E+03  0.10831962070E+03  0.98739322931E+02  0.23360526083E+03  0.00000000000E+00 0.  1.
         14    1    4    4    0    0 -0.79689896868E+03  0.33483344631E+03  0.29115122956E+03  0.91210221002E+03  0.00000000000E+00 0. -1.
         -5    1    5    5    0  501  0.13131291550E+03 -0.78706058549E+02 -0.47306822687E+03  0.49724577696E+03  0.47000000000E+01 0.  1.
         13    1    6    6    0    0  0.63086259100E+03 -0.28499512930E+03 -0.15607199447E+04  0.17073536769E+04  0.00000000000E+00 0. -1.
        -14    1    6    6    0    0  0.36328921672E+03 -0.15047186360E+03 -0.75170430301E+03  0.84833967011E+03  0.00000000000E+00 0.  1.
</event>
<event>
12    1  0.9656379E-001  0.8452845E+03  0.7818608E-02  0.9496688E-01
         -2   -1    0    0    0  501 -0.00000000000E+00  0.00000000000E+00  0.74148519948E+03  0.74148519948E+03  0.00000000000E+00 0.  1.
          2   -1    0    0  502    0  0.00000000000E+00 -0.00000000000E+00 -0.21375357459E+04  0.21375357459E+04  0.00000000000E+00 0. -1.
          6    2    1    2  502    0 -0.31125911439E+03 -0.76687054106E+03  0.36877659430E+03  0.92218948119E+03  0.17165255510E+03 0.  0.
         24    2    3    3    0    0 -0.47114188318E+02 -0.20145159536E+03  0.92530335871E+02  0.23969024205E+03  0.78019594100E+02 0.  0.
         -6    2    1    2    0  501  0.31125911439E+03  0.76687054106E+03 -0.17648271407E+04  0.19568314641E+04  0.17205196769E+03 0.  0.
        -24    2    5    5    0    0  0.32365289621E+03  0.67518302978E+03 -0.15667323823E+04  0.17381448645E+04  0.76641316880E+02 0.  0.
          5    1    3    3  502    0 -0.26414492607E+03 -0.56541894571E+03  0.27624625843E+03  0.68249923914E+03  0.47000000000E+01 0. -1.
        -13    1    4    4    0    0 -0.27014467038E+02 -0.13585775347E+03  0.99765893460E+02  0.17070543080E+03  0.00000000000E+00 0.  1.
         14    1    4    4    0    0 -0.20099721280E+02 -0.65593841885E+02 -0.72355575892E+01  0.68984811244E+02  0.00000000000E+00 0. -1.
         -5    1    5    5    0  501 -0.12393781824E+02  0.91687511283E+02 -0.19809475839E+03  0.21868659963E+03  0.47000000000E+01 0.  1.
         13    1    6    6    0    0  0.14026683603E+03  0.32092153664E+03 -0.81660705130E+03  0.88854515597E+03  0.00000000000E+00 0. -1.
        -14    1    6    6    0    0  0.18338606018E+03  0.35426149314E+03 -0.75012533098E+03  0.84959970855E+03  0.00000000000E+00 0.  1.
</event>
<event>
12    1  0.9656379E-001  0.1943911E+03  0.7818608E-02  0.1154559E+00
         -2   -1    0    0    0  501 -0.00000000000E+00  0.00000000000E+00  0.77708302145E+02  0.77708302145E+02  0.00000000000E+00 0.  1.
          2   -1    0    0  502    0  0.00000000000E+00 -0.00000000000E+00 -0.13840237094E+04  0.13840237094E+04  0.00000000000E+00 0. -1.
          6    2    1    2  502    0  0.91140311731E+02 -0.62742999164E+01 -0.63183964076E+02  0.20331562723E+03  0.17029124374E+03 0.  0.
         24    2    3    3    0    0  0.46261867173E+02  0.62717730992E+02 -0.29590465153E+02  0.11429547061E+03  0.78193253148E+02 0.  0.
         -6    2    1    2    0  501 -0.91140311731E+02  0.62742999164E+01 -0.12431314431E+04  0.12584163843E+04  0.17288750111E+03 0.  0.
        -24    2    5    5    0    0 -0.11682782221E+03  0.26488926106E+02 -0.72234909701E+03  0.73658803957E+03  0.80145610193E+02 0.  0.
          5    1    3    3  502    0  0.44878444558E+02 -0.68992030908E+02 -0.33593498923E+02  0.89020156620E+02  0.47000000000E+01 0. -1.
        -13    1    4    4    0    0 -0.20225957705E+02  0.30478133147E+01 -0.10291891088E+02  0.22897632045E+02  0.00000000000E+00 0.  1.
         14    1    4    4    0    0  0.66487824878E+02  0.59669917677E+02 -0.19298574065E+02  0.91397838561E+02  0.00000000000E+00 0. -1.
         -5    1    5    5    0  501  0.25687510475E+02 -0.20214626190E+02 -0.52078234613E+03  0.52182834471E+03  0.47000000000E+01 0.  1.
         11    1    6    6    0    0 -0.64069317416E+02  0.47331343728E+02 -0.29793357996E+03  0.30839836510E+03  0.00000000000E+00 0. -1.
        -12    1    6    6    0    0 -0.52758504789E+02 -0.20842417622E+02 -0.42441551706E+03  0.42818967446E+03  0.00000000000E+00 0.  1.
</event>
<event>
12    1  0.9656379E-001  0.9760021E+03  0.7818608E-02  0.9335264E-01
          2   -1    0    0  502    0  0.00000000000E+00  0.00000000000E+00  0.72417500958E+03  0.72417500958E+03  0.00000000000E+00 0. -1.
         -2   -1    0    0    0  501 -0.00000000000E+00 -0.00000000000E+00 -0.23209421803E+04  0.23209421803E+04  0.00000000000E+00 0.  1.
          6    2    1    2  502    0  0.92349590240E+03  0.26450371327E+03 -0.18005140848E+04  0.20479892887E+04  0.17205307651E+03 0.  0.
         24    2    3    3    0    0  0.58103212448E+03  0.13542201152E+03 -0.98887282559E+03  0.11576370278E+04  0.79476864870E+02 0.  0.
         -6    2    1    2    0  501 -0.92349590240E+03 -0.26450371327E+03  0.20374691404E+03  0.99712790118E+03  0.17304435921E+03 0.  0.
        -24    2    5    5    0    0 -0.85220331412E+03 -0.23137974005E+03  0.22659200134E+03  0.91512900632E+03  0.79561865439E+02 0.  0.
          5    1    3    3  502    0  0.34246377792E+03  0.12908170174E+03 -0.81164125921E+03  0.89035226094E+03  0.47000000000E+01 0. -1.
        -11    1    4    4    0    0  0.47822980300E+03  0.14053137974E+03 -0.83679181252E+03  0.97399863997E+03  0.00000000000E+00 0.  1.
         12    1    4    4    0    0  0.10280232148E+03 -0.51093682212E+01 -0.15208101307E+03  0.18363838782E+03  0.00000000000E+00 0. -1.
         -5    1    5    5    0  501 -0.71292588286E+02 -0.33123973212E+02 -0.22845087301E+02  0.81998894869E+02  0.47000000000E+01 0.  1.
         13    1    6    6    0    0 -0.57260915603E+03 -0.11994205456E+03  0.13345935080E+03  0.60006561336E+03  0.00000000000E+00 0. -1.
        -14    1    6    6    0    0 -0.27959415808E+03 -0.11143768549E+03  0.93132650542E+02  0.31506339295E+03  0.00000000000E+00 0.  1.
</event>
<event>
12    1  0.9656379E-001  0.7518888E+03  0.7818608E-02  0.9632392E-01
          2   -1    0    0  502    0  0.00000000000E+00  0.00000000000E+00  0.22459075687E+04  0.22459075687E+04  0.00000000000E+00 0. -1.
         -2   -1    0    0    0  501 -0.00000000000E+00 -0.00000000000E+00 -0.59742249998E+03  0.59742249998E+03  0.00000000000E+00 0.  1.
          6    2    1    2  502    0  0.14255264929E+03 -0.71786331000E+03 -0.25715630007E+03  0.79476435015E+03  0.17283523931E+03 0.  0.
         24    2    3    3    0    0  0.30904651967E+02 -0.41670423245E+03 -0.19276629815E+03  0.46715142665E+03  0.80461760291E+02 0.  0.
         -6    2    1    2    0  501 -0.14255264929E+03  0.71786331000E+03  0.19056413688E+04  0.20485657186E+04  0.17176579135E+03 0.  0.
        -24    2    5    5    0    0 -0.79933166487E+02  0.45402323383E+03  0.10147999141E+04  0.11173550159E+04  0.78338737668E+02 0.  0.
          5    1    3    3  502    0  0.11164799732E+03 -0.30115907755E+03 -0.64390001923E+02  0.32761292350E+03  0.47000000000E+01 0. -1.
        -13    1    4    4    0    0  0.42589835970E+02 -0.35721298079E+03 -0.13753427862E+03  0.38513722952E+03  0.00000000000E+00 0.  1.
         14    1    4    4    0    0 -0.11685184003E+02 -0.59491251659E+02 -0.55232019528E+02  0.82014197126E+02  0.00000000000E+00 0. -1.
         -5    1    5    5    0  501 -0.62619482804E+02  0.26384007617E+03  0.89084145471E+03  0.93121070272E+03  0.47000000000E+01 0.  1.
         13    1    6    6    0    0 -0.36143700555E+02  0.37920642533E+03  0.82665374312E+03  0.91019794062E+03  0.00000000000E+00 0. -1.
        -14    1    6    6    0    0 -0.43789465932E+02  0.74816808500E+02  0.18814617100E+03  0.20715707524E+03  0.00000000000E+00 0.  1.
</event>
<event>
12    1  0.9656379E-001  0.7067542E+03  0.7818608E-02  0.9705751E-01
          2   -1    0    0  502    0  0.00000000000E+00  0.00000000000E+00  0.19155186411E+04  0.19155186411E+04  0.00000000000E+00 0. -1.
         -2   -1    0    0    0  501 -0.00000000000E+00 -0.00000000000E+00 -0.26188193145E+03  0.26188193145E+03  0.00000000000E+00 0.  1.
          6    2    1    2  502    0 -0.67612101001E+03 -0.11437259969E+03  0.89815671093E+03  0.11430232615E+04  0.17203484298E+03 0.  0.
         24    2    3    3    0    0 -0.38889054656E+03 -0.90289588004E+02  0.42390042745E+03  0.58802556510E+03  0.81819471492E+02 0.  0.
         -6    2    1    2    0  501  0.67612101001E+03  0.11437259969E+03  0.75547999868E+03  0.10343773110E+04  0.17019307091E+03 0.  0.
        -24    2    5    5    0    0  0.63412917646E+03  0.67450123410E+02  0.70073976943E+03  0.95080928145E+03  0.79578474798E+02 0.  0.
          5    1    3    3  502    0 -0.28723046345E+03 -0.24083011689E+02  0.47425628348E+03  0.55499769640E+03  0.47000000000E+01 0. -1.
        -13    1    4    4    0    0 -0.38479222073E+03 -0.93921963262E+02  0.42642043224E+03  0.58199722796E+03  0.00000000000E+00 0.  1.
         14    1    4    4    0    0 -0.40983258319E+01  0.36323752576E+01 -0.25200047882E+01  0.60283371479E+01  0.00000000000E+00 0. -1.
         -5    1    5    5    0  501  0.41991833555E+02  0.46922476283E+02  0.54740229254E+02  0.83568029560E+02  0.47000000000E+01 0.  1.
         11    1    6    6    0    0  0.32606967969E+03  0.57876448268E+02  0.41074659066E+03  0.52762096340E+03  0.00000000000E+00 0. -1.
        -12    1    6    6    0    0  0.30805949677E+03  0.95736751424E+01  0.28999317876E+03  0.42318831805E+03  0.00000000000E+00 0.  1.
</event>
<event>
12    1  0.9656379E-001  0.5857790E+03  0.7818608E-02  0.9935357E-01
          1   -1    0    0  502    0  0.00000000000E+00  0.00000000000E+00  0.10988684983E+04  0.10988684983E+04  0.00000000000E+00 0. -1.
         -1   -1    0    0    0  501 -0.00000000000E+00 -0.00000000000E+00 -0.16926123325E+04  0.16926123325E+04  0.00000000000E+00 0.  1.
          6    2    1    2  502    0 -0.18661741338E+03  0.52696566075E+03 -0.15572529108E+04  0.16635828213E+04  0.17306735221E+03 0.  0.
         24    2    3    3    0    0 -0.15161433262E+03  0.35723298789E+03 -0.12427561177E+04  0.13044662402E+04  0.81160891589E+02 0.  0.
         -6    2    1    2    0  501  0.18661741338E+03 -0.52696566075E+03  0.96350907653E+03  0.11278980095E+04  0.17687654655E+03 0.  0.
        -24    2    5    5    0    0  0.14846278355E+03 -0.51873782788E+03  0.91432228184E+03  0.10649305276E+04  0.83436570473E+02 0.  0.
          5    1    3    3  502    0 -0.35003080761E+02  0.16973267286E+03 -0.31449679310E+03  0.35911658103E+03  0.47000000000E+01 0. -1.
        -13    1    4    4    0    0 -0.54124116112E+02  0.22907520187E+03 -0.72632471969E+03  0.76351323923E+03  0.00000000000E+00 0.  1.
         14    1    4    4    0    0 -0.97490216504E+02  0.12815778602E+03 -0.51643139803E+03  0.54095300101E+03  0.00000000000E+00 0. -1.
         -5    1    5    5    0  501  0.38154629828E+02 -0.82278328656E+01  0.49186794693E+02  0.62967481950E+02  0.47000000000E+01 0.  1.
         13    1    6    6    0    0  0.10769749467E+03 -0.24027188763E+03  0.40618058932E+03  0.48405784931E+03  0.00000000000E+00 0. -1.
        -14    1    6    6    0    0  0.40765288879E+02 -0.27846594025E+03  0.50814169252E+03  0.58087267825E+03  0.00000000000E+00 0.  1.
</event>
<event>
12    1  0.9656379E-001  0.2945892E+03  0.7818608E-02  0.1087977E+00
         -2   -1    0    0    0  501 -0.00000000000E+00  0.00000000000E+00  0.39979532135E+02  0.39979532135E+02  0.00000000000E+00 0.  1.
          2   -1    0    0  502    0  0.00000000000E+00 -0.00000000000E+00 -0.23018192404E+04  0.23018192404E+04  0.00000000000E+00 0. -1.
          6    2    1    2  502    0  0.39760694731E+02 -0.23581608117E+03 -0.85236050493E+03  0.90191503169E+03  0.17245914601E+03 0.  0.
         24    2    3    3    0    0 -0.11560767109E+02 -0.35654865132E+02 -0.29816193697E+03  0.31042830523E+03  0.77847744260E+02 0.  0.
         -6    2    1    2    0  501 -0.39760694731E+02  0.23581608117E+03 -0.14094792034E+04  0.14398837409E+04  0.17159086670E+03 0.  0.
        -24    2    5    5    0    0 -0.41075774842E+02  0.54258121824E+02 -0.35058542004E+03  0.36552665108E+03  0.77900146596E+02 0.  0.
          5    1    3    3  502    0  0.51321461841E+02 -0.20016121604E+03 -0.55419856796E+03  0.59148672646E+03  0.47000000000E+01 0. -1.
        -11    1    4    4    0    0 -0.11776272836E+02 -0.58042235556E+02 -0.25520777628E+03  0.26198967686E+03  0.00000000000E+00 0.  1.
         12    1    4    4    0    0  0.21550572676E+00  0.22387370425E+02 -0.42954160694E+02  0.48438628368E+02  0.00000000000E+00 0. -1.
         -5    1    5    5    0  501  0.13150801106E+01  0.18155795934E+03 -0.10588937833E+04  0.10743570898E+04  0.47000000000E+01 0.  1.
         11    1    6    6    0    0 -0.43441000130E+02  0.42714437233E+02 -0.34821847010E+03  0.35350777440E+03  0.00000000000E+00 0. -1.
        -12    1    6    6    0    0  0.23652252887E+01  0.11543684592E+02 -0.23669499405E+01  0.12018876680E+02  0.00000000000E+00 0.  1.
</event>
<event>
12    1  0.9656379E-001  0.6606412E+03  0.7818608E-02  0.9787014E-01
          1   -1    0    0  502    0  0.00000000000E+00  0.00000000000E+00  0.18783222221E+04  0.18783222221E+04  0.00000000000E+00 0. -1.
         -1   -1    0    0    0  501 -0.00000000000E+00 -0.00000000000E+00 -0.28762746466E+03  0.28762746466E+03  0.00000000000E+00 0.  1.
          6    2    1    2  502    0  0.58291509174E+03  0.25886613914E+03  0.32059606094E+03  0.73429362867E+03  0.17205701567E+03 0.  0.
         24    2    3    3    0    0  0.45263140833E+03  0.17429090349E+03  0.17871751796E+03  0.52386924889E+03  0.85126540267E+02 0.  0.
         -6    2    1    2    0  501 -0.58291509174E+03 -0.25886613914E+03  0.12700986965E+04  0.14316560581E+04  0.17229825199E+03 0.  0.
        -24    2    5    5    0    0 -0.40831333152E+03 -0.25092141898E+03  0.94536177437E+03  0.10628403157E+04  0.78989347400E+02 0.  0.
          5    1    3    3  502    0  0.13028368341E+03  0.84575235648E+02  0.14187854298E+03  0.21042437978E+03  0.47000000000E+01 0. -1.
        -13    1    4    4    0    0  0.81396357545E+02  0.63355967623E+02  0.56425966836E+02  0.11757225603E+03  0.00000000000E+00 0.  1.
         14    1    4    4    0    0  0.37123505079E+03  0.11093493587E+03  0.12229155113E+03  0.40629699286E+03  0.00000000000E+00 0. -1.
         -5    1    5    5    0  501 -0.17460176022E+03 -0.79447201572E+01  0.32473692212E+03  0.36881574239E+03  0.47000000000E+01 0.  1.
         11    1    6    6    0    0 -0.40772919449E+03 -0.24334449754E+03  0.90740843835E+03  0.10241336409E+04  0.00000000000E+00 0. -1.
        -12    1    6    6    0    0 -0.58413703339E+00 -0.75769214490E+01  0.37953336017E+02  0.38706674741E+02  0.00000000000E+00 0.  1.
</event>
<event>
12    1  0.9656379E-001  0.5469350E+03  0.7818608E-02  0.1002206E+00
          2   -1    0    0  502    0  0.00000000000E+00  0.00000000000E+00  0.32539380551E+04  0.32539380551E+04  0.00000000000E+00 0. -1.
         -2   -1    0    0    0  501 -0.00000000000E+00 -0.00000000000E+00 -0.18028173128E+03  0.18028173128E+03  0.00000000000E+00 0.  1.
          6    2    1    2  502    0 -0.38760942413E+03 -0.34595578787E+03  0.33465913062E+03  0.64113463828E+03  0.17067635411E+03 0.  0.
         24    2    3    3    0    0 -0.38768612235E+03 -0.33823319377E+03  0.29041108963E+03  0.59597244752E+03  0.78373046357E+02 0.  0.
         -6    2    1    2    0  501  0.38760942413E+03  0.34595578787E+03  0.27389971932E+04  0.27930851481E+04  0.17115065710E+03 0.  0.
        -24    2    5    5    0    0  0.26272165268E+03  0.26728457783E+03  0.15852486226E+04  0.16299239517E+04  0.56348739573E+02 0.  0.
          5    1    3    3  502    0  0.76698213555E-01 -0.77225941007E+01  0.44248040991E+02  0.45162190756E+02  0.47000000000E+01 0. -1.
        -13    1    4    4    0    0 -0.14694634540E+03 -0.87550301316E+02  0.72723089802E+02  0.18586804857E+03  0.00000000000E+00 0.  1.
         14    1    4    4    0    0 -0.24073977695E+03 -0.25068289245E+03  0.21768799983E+03  0.41010439896E+03  0.00000000000E+00 0. -1.
         -5    1    5    5    0  501  0.12488777145E+03  0.78671210043E+02  0.11537485706E+04  0.11631611964E+04  0.47000000000E+01 0.  1.
         13    1    6    6    0    0  0.19802792832E+03  0.22423581086E+03  0.13231727898E+04  0.13565703044E+04  0.00000000000E+00 0. -1.
        -14    1    6    6    0    0  0.64693724365E+02  0.43048766972E+02  0.26207583286E+03  0.27335364728E+03  0.00000000000E+00 0.  1.
</event>
<event>
12    1  0.9656379E-001  0.3411492E+03  0.7818608E-02  0.1066308E+00
         -2   -1    0    0    0  501 -0.00000000000E+00  0.00000000000E+00  0.61629993343E+03  0.61629993343E+03  0.00000000000E+00 0.  1.
          2   -1    0    0  502    0  0.00000000000E+00 -0.00000000000E+00 -0.22408784225E+03  0.22408784225E+03  0.00000000000E+00 0. -1.
          6    2    1    2  502    0 -0.26558104660E+03 -0.11966867344E+03  0.36441559200E+03  0.50162274023E+03  0.18431702609E+03 0.  0.
         24    2    3    3    0    0 -0.24680197183E+03 -0.95897516640E+02  0.37724690926E+03  0.46838940986E+03  0.83461738092E+02 0.  0.
         -6    2    1    2    0  501  0.26558104660E+03  0.11966867344E+03  0.27796499178E+02  0.33876503545E+03  0.17069042198E+03 0.  0.
        -24    2    5    5    0    0  0.28078885806E+03  0.12303722179E+03  0.13880341015E+02  0.31735536227E+03  0.80877817321E+02 0.  0.
          5    1    3    3  502    0 -0.18779074773E+02 -0.23771156796E+02 -0.12831317263E+02  0.33233330369E+02  0.47000000000E+01 0. -1.
        -13    1    4    4    0    0 -0.96387009278E+02 -0.46365519627E+02  0.22299641369E+03  0.24732087960E+03  0.00000000000E+00 0.  1.
         14    1    4    4    0    0 -0.15041496255E+03 -0.49531997013E+02  0.15425049558E+03  0.22106853026E+03  0.00000000000E+00 0. -1.
         -5    1    5    5    0  501 -0.15207811462E+02 -0.33685483582E+01  0.13916158163E+02  0.21409673176E+02  0.47000000000E+01 0.  1.
         11    1    6    6    0    0  0.16834917972E+03  0.11540381427E+03  0.14931250470E+02  0.20465197019E+03  0.00000000000E+00 0. -1.
        -12    1    6    6    0    0  0.11243967834E+03  0.76334075243E+01 -0.10509094548E+01  0.11270339208E+03  0.00000000000E+00 0.  1.
</event>
<event>
12    1  0.9656379E-001  0.7120900E+03  0.7818608E-02  0.9696777E-01
          1   -1    0    0  502    0  0.00000000000E+00  0.00000000000E+00  0.23653030184E+04  0.23653030184E+04  0.00000000000E+00 0. -1.
         -1   -1    0    0    0  501 -0.00000000000E+00 -0.00000000000E+00 -0.22688444715E+03  0.22688444715E+03  0.00000000000E+00 0.  1.
          6    2    1    2  502    0 -0.63507077161E+03  0.27319134618E+03  0.13730768037E+04  0.15466077574E+04  0.16943213961E+03 0.  0.
         24    2    3    3    0    0 -0.20001090671E+03  0.10411085007E+03  0.37357839166E+03  0.44348289330E+03  0.79201199674E+02 0.  0.
         -6    2    1    2    0  501  0.63507077161E+03 -0.27319134618E+03  0.76534176752E+03  0.10455797081E+04  0.17187352403E+03 0.  0.
        -24    2    5    5    0    0  0.58862412395E+03 -0.28347146840E+03  0.74363678897E+03  0.99308048823E+03  0.79867073873E+02 0.  0.
          5    1    3    3  502    0 -0.43505986490E+03  0.16908049611E+03  0.99949841203E+03  0.11031248641E+04  0.47000000000E+01 0. -1.
        -13    1    4    4    0    0 -0.80158497276E+02  0.82121028572E+02  0.21249916379E+03  0.24150598881E+03  0.00000000000E+00 0.  1.
         14    1    4    4    0    0 -0.11985240944E+03  0.21989821498E+02  0.16107922787E+03  0.20197690449E+03  0.00000000000E+00 0. -1.
         -5    1    5    5    0  501  0.46446647652E+02  0.10280122224E+02  0.21704978545E+02  0.52499219848E+02  0.47000000000E+01 0.  1.
         11    1    6    6    0    0  0.52820501235E+03 -0.22517926296E+03  0.65210455257E+03  0.86887662129E+03  0.00000000000E+00 0. -1.
        -12    1    6    6    0    0  0.60419111602E+02 -0.58292205439E+02  0.91532236406E+02  0.12420386694E+03  0.00000000000E+00 0.  1.
</event>
<event>
12    1  0.9656379E-001  0.2311817E+03  0.7818608E-02  0.1125811E+00
          2   -1    0    0  502    0  0.00000000000E+00  0.00000000000E+00  0.73087987467E+03  0.73087987467E+03  0.00000000000E+00 0. -1.
         -2   -1    0    0    0  501 -0.00000000000E+00 -0.00000000000E+00 -0.14769853908E+03  0.14769853908E+03  0.00000000000E+00 0.  1.
          6    2    1    2  502    0 -0.16096031984E+02  0.15179584487E+03 -0.21247150032E+02  0.23104633881E+03  0.17213340329E+03 0.  0.
         24    2    3    3    0    0 -0.30781685270E+01  0.15878354209E+03  0.28285779667E+02  0.17914360472E+03  0.77914423711E+02 0.  0.
         -6    2    1    2    0  501  0.16096031984E+02 -0.15179584487E+03  0.60442848562E+03  0.64753207493E+03  0.17510834667E+03 0.  0.
        -24    2    5    5    0    0 -0.26667045296E+02 -0.71687200870E+02  0.22833349858E+03  0.26060106700E+03  0.99632040406E+02 0.  0.
          5    1    3    3  502    0 -0.13017863457E+02 -0.69876972185E+01 -0.49532929699E+02  0.51902734090E+02  0.47000000000E+01 0. -1.
        -11    1    4    4    0    0  0.23260691249E+02  0.10590948809E+02  0.10307970851E+02  0.27558704924E+02  0.00000000000E+00 0.  1.
         12    1    4    4    0    0 -0.26338859776E+02  0.14819259328E+03  0.17977808816E+02  0.15158489980E+03  0.00000000000E+00 0. -1.
         -5    1    5    5    0  501  0.42763077280E+02 -0.80108644000E+02  0.37609498704E+03  0.38693100793E+03  0.47000000000E+01 0.  1.
         13    1    6    6    0    0  0.23483155658E+01 -0.63163427157E+02  0.22047335997E+03  0.22935482462E+03  0.00000000000E+00 0. -1.
        -14    1    6    6    0    0 -0.29015360862E+02 -0.85237737129E+01  0.78601386033E+01  0.31246242384E+02  0.00000000000E+00 0.  1.
</event>
<event>
12    1  0.9656379E-001  0.1009046E+04  0.7818608E-02  0.9298678E-01
         -2   -1    0    0    0  501 -0.00000000000E+00  0.00000000000E+00  0.82968378776E+03  0.82968378776E+03  0.00000000000E+00 0.  1.
          2   -1    0    0  502    0  0.00000000000E+00 -0.00000000000E+00 -0.15552719256E+04  0.15552719256E+04  0.00000000000E+00 0. -1.
          6    2    1    2  502    0  0.77697796812E+03 -0.62015659961E+03 -0.91056480639E+03  0.13593410735E+04  0.17432990717E+03 0.  0.
         24    2    3    3    0    0  0.70018574788E+03 -0.60010338753E+03 -0.86973153285E+03  0.12699619785E+04  0.77371378812E+02 0.  0.
         -6    2    1    2    0  501 -0.77697796812E+03  0.62015659961E+03  0.18497666851E+03  0.10256146399E+04  0.17140609866E+03 0.  0.
        -24    2    5    5    0    0 -0.18651226688E+03  0.11780366067E+03  0.71277148970E+02  0.24205998936E+03  0.69628143173E+02 0.  0.
          5    1    3    3  502    0  0.76792220235E+02 -0.20053212077E+02 -0.40833273535E+02  0.89379095044E+02  0.47000000000E+01 0. -1.
        -11    1    4    4    0    0  0.53570726541E+03 -0.49425439182E+03 -0.70842695752E+03  0.10164341750E+04  0.00000000000E+00 0.  1.
         12    1    4    4    0    0  0.16447848248E+03 -0.10584899571E+03 -0.16130457533E+03  0.25352780343E+03  0.00000000000E+00 0. -1.
         -5    1    5    5    0  501 -0.59046570124E+03  0.50235293893E+03  0.11369951954E+03  0.78355465051E+03  0.47000000000E+01 0.  1.
         13    1    6    6    0    0 -0.12936470517E+03  0.53937467069E+02  0.18406484425E+02  0.14136221549E+03  0.00000000000E+00 0. -1.
        -14    1    6    6    0    0 -0.57147561701E+02  0.63866193604E+02  0.52870664545E+02  0.10069777387E+03  0.00000000000E+00 0.  1.
</event>
<event>
12    1  0.9656379E-001  0.5785751E+03  0.7818608E-02  0.9950881E-01
          2   -1    0    0  502    0  0.00000000000E+00  0.00000000000E+00  0.17039157941E+04  0.17039157941E+04  0.00000000000E+00 0. -1.
         -2   -1    0    0    0  501 -0.00000000000E+00 -0.00000000000E+00 -0.20454103191E+03  0.20454103191E+03  0.00000000000E+00 0.  1.
          6    2    1    2  502    0 -0.21097624658E+03  0.51014554308E+03  0.55974815605E+03  0.80487832421E+03  0.17248671498E+03 0.  0.
         24    2    3    3    0    0 -0.16885307634E+03  0.34137343117E+03  0.29673143705E+03  0.48950826904E+03  0.80756540443E+02 0.  0.
         -6    2    1    2    0  501  0.21097624658E+03 -0.51014554308E+03  0.93962660610E+03  0.11035785018E+04  0.17386172354E+03 0.  0.
        -24    2    5    5    0    0  0.18458913938E+03 -0.42648675233E+03  0.66406312354E+03  0.81435126305E+03  0.78892631343E+02 0.  0.
          5    1    3    3  502    0 -0.42123170241E+02  0.16877211191E+03  0.26301671900E+03  0.31537005517E+03  0.47000000000E+01 0. -1.
        -13    1    4    4    0    0 -0.17577166842E+03  0.32780606809E+03  0.29381035360E+03  0.47400107761E+03  0.00000000000E+00 0.  1.
         14    1    4    4    0    0  0.69185920841E+01  0.13567363079E+02  0.29210834540E+01  0.15507191425E+02  0.00000000000E+00 0. -1.
         -5    1    5    5    0  501  0.26387107197E+02 -0.83658790744E+02  0.27556348255E+03  0.28922723871E+03  0.47000000000E+01 0.  1.
         11    1    6    6    0    0  0.66379520434E+02 -0.13199101189E+03  0.27602786367E+03  0.31308026043E+03  0.00000000000E+00 0. -1.
        -12    1    6    6    0    0  0.11820961895E+03 -0.29449574045E+03  0.38803525988E+03  0.50127100261E+03  0.00000000000E+00 0.  1.
</event>
<event>
12    1  0.9656379E-001  0.2172439E+03  0.7818608E-02  0.1135955E+00
         -2   -1    0    0    0  501 -0.00000000000E+00  0.00000000000E+00  0.64786828066E+02  0.64786828066E+02  0.00000000000E+00 0. -1.
          2   -1    0    0  502    0  0.00000000000E+00 -0.00000000000E+00 -0.74631415030E+03  0.74631415030E+03  0.00000000000E+00 0.  1.
          6    2    1    2  502    0 -0.11654571909E+03  0.62473023866E+02 -0.40374062614E+03  0.45855738965E+03  0.17257636875E+03 0.  0.
         24    2    3    3    0    0 -0.12365306770E+03  0.17464611287E+02 -0.37861865237E+03  0.40631301030E+03  0.78377832432E+02 0.  0.
         -6    2    1    2    0  501  0.11654571909E+03 -0.62473023866E+02 -0.27778669610E+03  0.35254358872E+03  0.17215037052E+03 0.  0.
        -24    2    5    5    0    0 -0.74053906167E+01 -0.32892663275E+02 -0.13833260835E+03  0.16357690404E+03  0.80527795788E+02 0.  0.
          5    1    3    3  502    0  0.71073486064E+01  0.45008412579E+02 -0.25121973770E+02  0.52244379345E+02  0.47000000000E+01 0. -1.
        -13    1    4    4    0    0 -0.53663669463E+01 -0.16617462061E+02 -0.17220470801E+02  0.24525141267E+02  0.00000000000E+00 0.  1.
         14    1    4    4    0    0 -0.11828670075E+03  0.34082073348E+02 -0.36139818157E+03  0.38178786903E+03  0.00000000000E+00 0. -1.
         -5    1    5    5    0  501  0.12395110971E+03 -0.29580360591E+02 -0.13945408774E+03  0.18896668468E+03  0.47000000000E+01 0.  1.
         13    1    6    6    0    0  0.17868907367E+02 -0.15045111308E+02 -0.16294318768E+01  0.23415983281E+02  0.00000000000E+00 0. -1.
        -14    1    6    6    0    0 -0.25274297984E+02 -0.17847551967E+02 -0.13670317647E+03  0.14016092076E+03  0.00000000000E+00 0.  1.
</event>
<event>
12    1  0.9656379E-001  0.5545622E+03  0.7818608E-02  0.1000443E+00
          1   -1    0    0  502    0  0.00000000000E+00  0.00000000000E+00  0.99257950921E+03  0.99257950921E+03  0.00000000000E+00 0. -1.
         -1   -1    0    0    0  501 -0.00000000000E+00 -0.00000000000E+00 -0.32800981950E+03  0.32800981950E+03  0.00000000000E+00 0.  1.
          6    2    1    2  502    0  0.35153140660E+03  0.39429635487E+03  0.17720364292E+03  0.58274301156E+03  0.17071713789E+03 0.  0.
         24    2    3    3    0    0  0.24087334349E+03  0.17475154039E+03  0.11758868201E+03  0.32971896910E+03  0.79557727339E+02 0.  0.
         -6    2    1    2    0  501 -0.35153140660E+03 -0.39429635487E+03  0.48736604679E+03  0.73784631715E+03  0.16687593863E+03 0.  0.
        -24    2    5    5    0    0 -0.28351765684E+03 -0.34194719369E+03  0.46692589622E+03  0.64949364551E+03  0.80697323266E+02 0.  0.
          5    1    3    3  502    0  0.11065806311E+03  0.21954481448E+03  0.59614960916E+02  0.25302404245E+03  0.47000000000E+01 0. -1.
        -13    1    4    4    0    0  0.10186116282E+03  0.10346576876E+03  0.22757913999E+02  0.14696524911E+03  0.00000000000E+00 0.  1.
         14    1    4    4    0    0  0.13901218067E+03  0.71285771630E+02  0.94830768008E+02  0.18275372000E+03  0.00000000000E+00 0. -1.
         -5    1    5    5    0  501 -0.68013749756E+02 -0.52349161176E+02  0.20440150568E+02  0.88352671646E+02  0.47000000000E+01 0.  1.
         13    1    6    6    0    0 -0.25369625813E+03 -0.25816632892E+03  0.36134683096E+03  0.51145202807E+03  0.00000000000E+00 0. -1.
        -14    1    6    6    0    0 -0.29821398712E+02 -0.83780864769E+02  0.10557906526E+03  0.13804161743E+03  0.00000000000E+00 0.  1.
</event>
<event>
12    1  0.9656379E-001  0.2622682E+03  0.7818608E-02  0.1105788E+00
          1   -1    0    0  502    0  0.00000000000E+00  0.00000000000E+00  0.64608755811E+03  0.64608755811E+03  0.00000000000E+00 0. -1.
         -1   -1    0    0    0  501 -0.00000000000E+00 -0.00000000000E+00 -0.34585735650E+03  0.34585735650E+03  0.00000000000E+00 0.  1.
          6    2    1    2  502    0 -0.60558991238E+02 -0.18668202386E+03 -0.26269322753E+03  0.37050064633E+03  0.17246862813E+03 0.  0.
         24    2    3    3    0    0 -0.14430496258E+00 -0.14056398042E+03 -0.98849453915E+02  0.18982502429E+03  0.80647826331E+02 0.  0.
         -6    2    1    2    0  501  0.60558991238E+02  0.18668202386E+03  0.56292342913E+03  0.62144426829E+03  0.17547826665E+03 0.  0.
        -24    2    5    5    0    0  0.93830956500E+02  0.19169366888E+03  0.46518819011E+03  0.51797249820E+03  0.79653911300E+02 0.  0.
          5    1    3    3  502    0 -0.60414686275E+02 -0.46118043448E+02 -0.16384377361E+03  0.18067562204E+03  0.47000000000E+01 0. -1.
        -13    1    4    4    0    0  0.26891922329E+02 -0.58048559833E+02 -0.77336407599E+02  0.10036797659E+03  0.00000000000E+00 0.  1.
         14    1    4    4    0    0 -0.27036227292E+02 -0.82515420583E+02 -0.21513046316E+02  0.89457047693E+02  0.00000000000E+00 0. -1.
         -5    1    5    5    0  501 -0.33271965262E+02 -0.50116450184E+01  0.97735239026E+02  0.10347177009E+03  0.47000000000E+01 0.  1.
         13    1    6    6    0    0  0.37213009392E+02  0.25331676646E+02  0.15564873139E+03  0.16202786640E+03  0.00000000000E+00 0. -1.
        -14    1    6    6    0    0  0.56617947108E+02  0.16636199224E+03  0.30953945872E+03  0.35594463179E+03  0.00000000000E+00 0.  1.
</event>
<event>
12    1  0.9656379E-001  0.2290442E+03  0.7818608E-02  0.1127314E+00
          2   -1    0    0  502    0  0.00000000000E+00  0.00000000000E+00  0.40894887238E+02  0.40894887238E+02  0.00000000000E+00 0. -1.
         -2   -1    0    0    0  501 -0.00000000000E+00 -0.00000000000E+00 -0.23403120370E+04  0.23403120370E+04  0.00000000000E+00 0.  1.
          6    2    1    2  502    0  0.14938308774E+03  0.15243143837E+02 -0.19499588199E+04  0.19633614540E+04  0.17291945903E+03 0.  0.
         24    2    3    3    0    0  0.16080859891E+03 -0.29685010483E+02 -0.15702231759E+04  0.15807776975E+04  0.80726090023E+02 0.  0.
         -6    2    1    2    0  501 -0.14938308774E+03 -0.15243143837E+02 -0.34945832988E+03  0.41784547028E+03  0.17299148064E+03 0.  0.
        -24    2    5    5    0    0 -0.43402654003E+02 -0.44121014907E+02 -0.25138390870E+03  0.27051432672E+03  0.78445376385E+02 0.  0.
          5    1    3    3  502    0 -0.11425511161E+02  0.44928154321E+02 -0.37973564406E+03  0.38258375648E+03  0.47000000000E+01 0. -1.
        -11    1    4    4    0    0  0.57436658313E+02  0.19874320564E+02 -0.76855155067E+03  0.77095099998E+03  0.00000000000E+00 0.  1.
         12    1    4    4    0    0  0.10337194059E+03 -0.49559331047E+02 -0.80167162520E+03  0.80982669754E+03  0.00000000000E+00 0. -1.
         -5    1    5    5    0  501 -0.10598043374E+03  0.28877871069E+02 -0.98074421179E+02  0.14733114356E+03  0.47000000000E+01 0.  1.
         13    1    6    6    0    0 -0.33145768557E+02 -0.80832018162E+01 -0.28361004702E+02  0.44365828207E+02  0.00000000000E+00 0. -1.
        -14    1    6    6    0    0 -0.10256885446E+02 -0.36037813091E+02 -0.22302290400E+03  0.22614849851E+03  0.00000000000E+00 0.  1.
</event>
<event>
12    1  0.9656379E-001  0.2150730E+03  0.7818608E-02  0.1137611E+00
         -2   -1    0    0    0  501 -0.00000000000E+00  0.00000000000E+00  0.55531426836E+02  0.55531426836E+02  0.00000000000E+00 0.  1.
          2   -1    0    0  502    0  0.00000000000E+00 -0.00000000000E+00 -0.83302780484E+03  0.83302780484E+03  0.00000000000E+00 0. -1.
          6    2    1    2  502    0  0.12746928397E+03 -0.39509715747E+01 -0.39235711726E+03  0.44747846366E+03  0.17328831306E+03 0.  0.
         24    2    3    3    0    0  0.82272473016E+02  0.52329263216E+02 -0.30458882984E+03  0.33374377755E+03  0.95411960377E+02 0.  0.
         -6    2    1    2    0  501 -0.12746928397E+03  0.39509715747E+01 -0.38513926074E+03  0.44108076801E+03  0.17307791660E+03 0.  0.
        -24    2    5    5    0    0 -0.57872226318E+02  0.56976965276E+01 -0.34834338310E+03  0.36219586392E+03  0.80380799751E+02 0.  0.
          5    1    3    3  502    0  0.45196810954E+02 -0.56280234791E+02 -0.87768287422E+02  0.11373468611E+03  0.47000000000E+01 0. -1.
        -13    1    4    4    0    0  0.64295370811E+02  0.79836001754E+02 -0.21164932580E+03  0.23516615189E+03  0.00000000000E+00 0.  1.
         14    1    4    4    0    0  0.17977102206E+02 -0.27506738538E+02 -0.92939504042E+02  0.98577625658E+02  0.00000000000E+00 0. -1.
         -5    1    5    5    0  501 -0.69597057653E+02 -0.17467249529E+01 -0.36795877639E+02  0.78884904089E+02  0.47000000000E+01 0.  1.
         11    1    6    6    0    0 -0.35833615658E+02  0.34237472221E+02 -0.10398949544E+03  0.11519577977E+03  0.00000000000E+00 0. -1.
        -12    1    6    6    0    0 -0.22038610660E+02 -0.28539775693E+02 -0.24435388766E+03  0.24700008415E+03  0.00000000000E+00 0.  1.
</event>
<event>
12    1  0.9656379E-001  0.1280816E+04  0.7818608E-02  0.9044918E-01
          2   -1    0    0  502    0  0.00000000000E+00  0.00000000000E+00  0.34336045600E+04  0.34336045600E+04  0.00000000000E+00 0. -1.
         -2   -1    0    0    0  501 -0.00000000000E+00 -0.00000000000E+00 -0.55813544070E+03  0.55813544070E+03  0.00000000000E+00 0.  1.
          6    2    1    2  502    0 -0.54160148635E+03 -0.11482897365E+04  0.21954352722E+04  0.25419311199E+04  0.17197760021E+03 0.  0.
         24    2    3    3    0    0 -0.53037348240E+03 -0.11400015532E+04  0.21292022096E+04  0.24740807651E+04  0.81694620372E+02 0.  0.
         -6    2    1    2    0  501  0.54160148635E+03  0.11482897365E+04  0.68003384707E+03  0.14498088808E+04  0.16612726653E+03 0.  0.
        -24    2    5    5    0    0  0.48965418286E+03  0.10964542985E+04  0.66437504279E+03  0.13746242871E+04  0.78895410290E+02 0.  0.
          5    1    3    3  502    0 -0.11228003951E+02 -0.82881832370E+01  0.66233062684E+02  0.67850354801E+02  0.47000000000E+01 0. -1.
        -13    1    4    4    0    0 -0.32524024024E+03 -0.63309330727E+03  0.12615348948E+04  0.14484676870E+04  0.00000000000E+00 0.  1.
         14    1    4    4    0    0 -0.20513324216E+03 -0.50690824597E+03  0.86766731474E+03  0.10256130781E+04  0.00000000000E+00 0. -1.
         -5    1    5    5    0  501  0.51947303491E+02  0.51835437945E+02  0.15658804274E+02  0.75184593623E+02  0.47000000000E+01 0.  1.
         11    1    6    6    0    0  0.21024765532E+03  0.48330057343E+03  0.33610392702E+03  0.62509948856E+03  0.00000000000E+00 0. -1.
        -12    1    6    6    0    0  0.27940652753E+03  0.61315372511E+03  0.32827111577E+03  0.74952479858E+03  0.00000000000E+00 0.  1.
</event>
<event>
12    1  0.9656379E-001  0.2287475E+03  0.7818608E-02  0.1127524E+00
          2   -1    0    0  502    0  0.00000000000E+00  0.00000000000E+00  0.43450725237E+03  0.43450725237E+03  0.00000000000E+00 0.  1.
         -2   -1    0    0    0  501 -0.00000000000E+00 -0.00000000000E+00 -0.18841337114E+03  0.18841337114E+03  0.00000000000E+00 0. -1.
          6    2    1    2  502    0  0.11429962919E+03 -0.96576801140E+02 -0.64433156696E+02  0.23656177334E+03  0.17151780424E+03 0.  0.
         24    2    3    3    0    0  0.40071486130E+02 -0.30448770324E+02 -0.92637178938E+02  0.13311956458E+03  0.81279271273E+02 0.  0.
         -6    2    1    2    0  501 -0.11429962919E+03  0.96576801140E+02  0.31052703793E+03  0.38635885017E+03  0.17451256708E+03 0.  0.
        -24    2    5    5    0    0 -0.72486335066E+02 -0.12948133695E+02  0.12082989382E+03  0.16330917095E+03  0.81535876392E+02 0.  0.
          5    1    3    3  502    0  0.74228143057E+02 -0.66128030816E+02  0.28204022242E+02  0.10344220875E+03  0.47000000000E+01 0. -1.
        -11    1    4    4    0    0 -0.22542468403E+02  0.48210019839E+01 -0.16010888057E+02  0.28066946364E+02  0.00000000000E+00 0.  1.
         12    1    4    4    0    0  0.62613954532E+02 -0.35269772308E+02 -0.76626290881E+02  0.10505261822E+03  0.00000000000E+00 0. -1.
         -5    1    5    5    0  501 -0.41813294121E+02  0.10952493484E+03  0.18969714411E+03  0.22304967922E+03  0.47000000000E+01 0.  1.
         11    1    6    6    0    0  0.15486575904E+02  0.87556187399E+01  0.10959841307E+02  0.20895286890E+02  0.00000000000E+00 0. -1.
        -12    1    6    6    0    0 -0.87972910970E+02 -0.21703752435E+02  0.10987005251E+03  0.14241388406E+03  0.00000000000E+00 0.  1.
</event>
<event>
12    1  0.9656379E-001  0.7911917E+03  0.7818608E-02  0.9572855E-01
         -2   -1    0    0    0  501 -0.00000000000E+00  0.00000000000E+00  0.35945172403E+03  0.35945172403E+03  0.00000000000E+00 0.  1.
          2   -1    0    0  502    0  0.00000000000E+00 -0.00000000000E+00 -0.19767813027E+04  0.19767813027E+04  0.00000000000E+00 0. -1.
          6    2    1    2  502    0 -0.31999784159E+03 -0.70287008957E+03 -0.12115498306E+04  0.14469413005E+04  0.17135096660E+03 0.  0.
         24    2    3    3    0    0 -0.15956965853E+03 -0.30134082755E+03 -0.43099788609E+03  0.55461491505E+03  0.74630797294E+02 0.  0.
         -6    2    1    2    0  501  0.31999784159E+03  0.70287008957E+03 -0.40577974805E+03  0.88929172617E+03  0.17250388075E+03 0.  0.
        -24    2    5    5    0    0  0.27546871622E+03  0.48952255137E+03 -0.34042765060E+03  0.66171096753E+03  0.80343495960E+02 0.  0.
          5    1    3    3  502    0 -0.16042818306E+03 -0.40152926202E+03 -0.78055194448E+03  0.89232638547E+03  0.47000000000E+01 0. -1.
        -13    1    4    4    0    0 -0.52476810189E+02 -0.43573360959E+02 -0.64039028070E+02  0.93559876598E+02  0.00000000000E+00 0.  1.
         14    1    4    4    0    0 -0.10709284834E+03 -0.25776746659E+03 -0.36695885802E+03  0.46105503845E+03  0.00000000000E+00 0. -1.
         -5    1    5    5    0  501  0.44529125367E+02  0.21334753820E+03 -0.65352097453E+02  0.22758075864E+03  0.47000000000E+01 0.  1.
         13    1    6    6    0    0  0.50417664145E+02  0.13089498422E+03 -0.52883610888E+02  0.14990701802E+03  0.00000000000E+00 0. -1.
        -14    1    6    6    0    0  0.22505105207E+03  0.35862756715E+03 -0.28754403971E+03  0.51180394951E+03  0.00000000000E+00 0.  1.
</event>
<event>
12    1  0.9656379E-001  0.4544106E+03  0.7818608E-02  0.1026415E+00
         -2   -1    0    0    0  501 -0.00000000000E+00  0.00000000000E+00  0.16625413403E+03  0.16625413403E+03  0.00000000000E+00 0.  1.
          2   -1    0    0  502    0  0.00000000000E+00 -0.00000000000E+00 -0.12502320596E+04  0.12502320596E+04  0.00000000000E+00 0. -1.
          6    2    1    2  502    0  0.16822027984E+03 -0.38569172659E+03 -0.59941678422E+03  0.75218292152E+03  0.17152986825E+03 0.  0.
         24    2    3    3    0    0  0.10292653161E+03 -0.36201948863E+03 -0.51723339032E+03  0.64448032805E+03  0.78565463880E+02 0.  0.
         -6    2    1    2    0  501 -0.16822027984E+03  0.38569172659E+03 -0.48456114131E+03  0.66430327208E+03  0.17159011367E+03 0.  0.
        -24    2    5    5    0    0 -0.56857377601E+02  0.29121335892E+03 -0.35047271867E+03  0.46598622026E+03  0.79208895595E+02 0.  0.
          5    1    3    3  502    0  0.65293748226E+02 -0.23672237961E+02 -0.82183393898E+02  0.10770259347E+03  0.47000000000E+01 0. -1.
        -11    1    4    4    0    0  0.10749696422E+03 -0.25363682973E+03 -0.35564163595E+03  0.44985354498E+03  0.00000000000E+00 0.  1.
         12    1    4    4    0    0 -0.45704326040E+01 -0.10838265890E+03 -0.16159175437E+03  0.19462678306E+03  0.00000000000E+00 0. -1.
         -5    1    5    5    0  501 -0.11136290224E+03  0.94478367674E+02 -0.13408842264E+03  0.19831705181E+03  0.47000000000E+01 0.  1.
         11    1    6    6    0    0 -0.46580135182E+02  0.19765706938E+03 -0.29029708203E+03  0.35427450078E+03  0.00000000000E+00 0. -1.
        -12    1    6    6    0    0 -0.10277242419E+02  0.93556289540E+02 -0.60175636642E+02  0.11171171948E+03  0.00000000000E+00 0.  1.
</event>
<event>
12    1  0.9656379E-001  0.4358527E+03  0.7818608E-02  0.1032027E+00
         -2   -1    0    0    0  501 -0.00000000000E+00  0.00000000000E+00  0.22550072660E+03  0.22550072660E+03  0.00000000000E+00 0.  1.
          2   -1    0    0  502    0  0.00000000000E+00 -0.00000000000E+00 -0.97954829980E+03  0.97954829980E+03  0.00000000000E+00 0. -1.
          6    2    1    2  502    0  0.23375471967E+02  0.39923300382E+03 -0.15122473070E+03  0.46087547266E+03  0.17205777546E+03 0.  0.
         24    2    3    3    0    0 -0.49346074717E+02  0.14853818639E+03 -0.53207147941E+02  0.18201018015E+03  0.76145106076E+02 0.  0.
         -6    2    1    2    0  501 -0.23375471967E+02 -0.39923300382E+03 -0.60282284250E+03  0.74417355374E+03  0.17454367542E+03 0.  0.
        -24    2    5    5    0    0  0.30696831970E+02 -0.24699126008E+03 -0.45728769592E+03  0.52667888374E+03  0.79571550761E+02 0.  0.
          5    1    3    3  502    0  0.72721546684E+02  0.25069481743E+03 -0.98017582756E+02  0.27886529251E+03  0.47000000000E+01 0. -1.
        -13    1    4    4    0    0 -0.25460839257E+02  0.51377953128E+02  0.16970509567E+02  0.59799219044E+02  0.00000000000E+00 0.  1.
         14    1    4    4    0    0 -0.23885235460E+02  0.97160233262E+02 -0.70177657509E+02  0.12221096110E+03  0.00000000000E+00 0. -1.
         -5    1    5    5    0  501 -0.54072303937E+02 -0.15224174374E+03 -0.14553514657E+03  0.21749467000E+03  0.47000000000E+01 0.  1.
         11    1    6    6    0    0  0.99884896593E+01 -0.18067324650E+03 -0.25412334681E+03  0.31196356730E+03  0.00000000000E+00 0. -1.
        -12    1    6    6    0    0  0.20708342311E+02 -0.66318013577E+02 -0.20316434911E+03  0.21471531645E+03  0.00000000000E+00 0.  1.
</event>
<event>
12    1  0.9656379E-001  0.2003929E+03  0.7818608E-02  0.1149408E+00
         -2   -1    0    0    0  501 -0.00000000000E+00  0.00000000000E+00  0.95639629166E+02  0.95639629166E+02  0.00000000000E+00 0.  1.
          2   -1    0    0  502    0  0.00000000000E+00 -0.00000000000E+00 -0.74115499882E+03  0.74115499882E+03  0.00000000000E+00 0. -1.
          6    2    1    2  502    0  0.93317801766E+02  0.43667587728E+02 -0.46907413019E+02  0.20540138359E+03  0.17138947646E+03 0.  0.
         24    2    3    3    0    0  0.35544972254E+02  0.71763426394E+02  0.15818229502E+02  0.11549213930E+03  0.81699347822E+02 0.  0.
         -6    2    1    2    0  501 -0.93317801766E+02 -0.43667587728E+02 -0.59860795663E+03  0.63139324439E+03  0.17236842220E+03 0.  0.
        -24    2    5    5    0    0 -0.11438948336E+03 -0.58121249891E+02 -0.34635104570E+03  0.37780191326E+03  0.79449387714E+02 0.  0.
          5    1    3    3  502    0  0.57772829512E+02 -0.28095838666E+02 -0.62725642521E+02  0.89909244296E+02  0.47000000000E+01 0. -1.
        -13    1    4    4    0    0  0.62042951579E+02  0.51759295366E+02  0.67761773879E+01  0.81081866514E+02  0.00000000000E+00 0.  1.
         14    1    4    4    0    0 -0.26497979326E+02  0.20004131028E+02  0.90420521138E+01  0.34410272783E+02  0.00000000000E+00 0. -1.
         -5    1    5    5    0  501  0.21071681592E+02  0.14453662163E+02 -0.25225691093E+03  0.25359133114E+03  0.47000000000E+01 0.  1.
         11    1    6    6    0    0 -0.43548102987E+02 -0.61214373269E+00 -0.20487654842E+03  0.20945455852E+03  0.00000000000E+00 0. -1.
        -12    1    6    6    0    0 -0.70841380371E+02 -0.57509106158E+02 -0.14147449729E+03  0.16834735474E+03  0.00000000000E+00 0.  1.
</event>
<event>
12    1  0.9656379E-001  0.9071035E+03  0.7818608E-02  0.9416745E-01
          1   -1    0    0  502    0  0.00000000000E+00  0.00000000000E+00  0.16259154193E+04  0.16259154193E+04  0.00000000000E+00 0. -1.
         -1   -1    0    0    0  501 -0.00000000000E+00 -0.00000000000E+00 -0.52627774597E+03  0.52627774597E+03  0.00000000000E+00 0.  1.
          6    2    1    2  502    0  0.38539946682E+03 -0.80291353460E+03  0.33901413869E+03  0.96842952559E+03  0.17240146966E+03 0.  0.
         24    2    3    3    0    0  0.13441727431E+03 -0.30264062346E+03  0.72224491323E+02  0.34837803377E+03  0.80570010927E+02 0.  0.
         -6    2    1    2    0  501 -0.38539946682E+03  0.80291353460E+03  0.76062353461E+03  0.11837636397E+04  0.17188746350E+03 0.  0.
        -24    2    5    5    0    0 -0.19259324873E+03  0.28150990641E+03  0.31599349477E+03  0.47189711878E+03  0.80591656582E+02 0.  0.
          5    1    3    3  502    0  0.25098219251E+03 -0.50027291113E+03  0.26678964737E+03  0.62005149182E+03  0.47000000000E+01 0. -1.
        -13    1    4    4    0    0  0.55726825750E+02 -0.72108710568E+02 -0.90599056096E+01  0.91581805712E+02  0.00000000000E+00 0.  1.
         14    1    4    4    0    0  0.78690448557E+02 -0.23053191290E+03  0.81284396933E+02  0.25679622805E+03  0.00000000000E+00 0. -1.
         -5    1    5    5    0  501 -0.19280621809E+03  0.52140362818E+03  0.44463003984E+03  0.71186652088E+03  0.47000000000E+01 0.  1.
         13    1    6    6    0    0 -0.97164165861E+02  0.17639664183E+03  0.13760052915E+03  0.24390685927E+03  0.00000000000E+00 0. -1.
        -14    1    6    6    0    0 -0.95429082867E+02  0.10511326458E+03  0.17839296562E+03  0.22799025950E+03  0.00000000000E+00 0.  1.
</event>
<event>
12    1  0.9656379E-001  0.3303979E+03  0.7818608E-02  0.1070961E+00
         -1   -1    0    0    0  501 -0.00000000000E+00  0.00000000000E+00  0.17930318162E+03  0.17930318162E+03  0.00000000000E+00 0.  1.
          1   -1    0    0  502    0  0.00000000000E+00 -0.00000000000E+00 -0.61558384922E+03  0.61558384922E+03  0.00000000000E+00 0. -1.
          6    2    1    2  502    0 -0.16508902225E+03 -0.22576906172E+03 -0.25916935839E+03  0.41916535519E+03  0.17408269347E+03 0.  0.
         24    2    3    3    0    0 -0.80674015150E+02 -0.68062546972E+02 -0.44748736777E+02  0.13988855488E+03  0.80159536698E+02 0.  0.
         -6    2    1    2    0  501  0.16508902225E+03  0.22576906172E+03 -0.17711130921E+03  0.37572167564E+03  0.17768597919E+03 0.  0.
        -24    2    5    5    0    0  0.93944750231E+02  0.21605028962E+03 -0.96241333952E+02  0.26747194183E+03  0.82313434893E+02 0.  0.
          5    1    3    3  502    0 -0.84415007104E+02 -0.15770651475E+03 -0.21442062161E+03  0.27927680031E+03  0.47000000000E+01 0. -1.
        -11    1    4    4    0    0 -0.79929839775E+02 -0.84066940923E+02 -0.43235558985E+02  0.12379557102E+03  0.00000000000E+00 0.  1.
         12    1    4    4    0    0 -0.74417537518E+00  0.16004393951E+02 -0.15131777923E+01  0.16092983867E+02  0.00000000000E+00 0. -1.
         -5    1    5    5    0  501  0.71144272023E+02  0.97187720995E+01 -0.80869975253E+02  0.10824973381E+03  0.47000000000E+01 0.  1.
         13    1    6    6    0    0  0.35691049290E+02  0.35902979167E+02 -0.52943742869E+02  0.73252404885E+02  0.00000000000E+00 0. -1.
        -14    1    6    6    0    0  0.58253700940E+02  0.18014731046E+03 -0.43297591083E+02  0.19421953695E+03  0.00000000000E+00 0.  1.
</event>
<event>
12    1  0.9656379E-001  0.2628283E+03  0.7818608E-02  0.1105456E+00
          2   -1    0    0  502    0  0.00000000000E+00  0.00000000000E+00  0.13076409176E+04  0.13076409176E+04  0.00000000000E+00 0. -1.
         -2   -1    0    0    0  501 -0.00000000000E+00 -0.00000000000E+00 -0.52839140873E+02  0.52839140873E+02  0.00000000000E+00 0.  1.
          6    2    1    2  502    0  0.12187978487E+03  0.15768505835E+03  0.61928288426E+03  0.67307360591E+03  0.17261960679E+03 0.  0.
         24    2    3    3    0    0  0.12119506907E+03  0.53741386029E+02  0.30139665643E+03  0.33859117036E+03  0.78915491486E+02 0.  0.
         -6    2    1    2    0  501 -0.12187978487E+03 -0.15768505835E+03  0.63551889251E+03  0.68740645260E+03  0.17007089333E+03 0.  0.
        -24    2    5    5    0    0 -0.12752240356E+03 -0.11023089488E+03  0.59799524691E+03  0.62646508115E+03  0.80295510277E+02 0.  0.
          5    1    3    3  502    0  0.68471580263E+00  0.10394367232E+03  0.31788622783E+03  0.33448243555E+03  0.47000000000E+01 0. -1.
        -13    1    4    4    0    0  0.62227094644E+02  0.62072374938E+02  0.12815458703E+03  0.15539880699E+03  0.00000000000E+00 0.  1.
         14    1    4    4    0    0  0.58967974427E+02 -0.83309889089E+01  0.17324206940E+03  0.18319236336E+03  0.00000000000E+00 0. -1.
         -5    1    5    5    0  501  0.56426186911E+01 -0.47454163467E+02  0.37523645595E+02  0.60941371455E+02  0.47000000000E+01 0.  1.
         13    1    6    6    0    0 -0.11588722067E+03 -0.58702718509E+02  0.36124366823E+03  0.38389170988E+03  0.00000000000E+00 0. -1.
        -14    1    6    6    0    0 -0.11635182890E+02 -0.51528176370E+02  0.23675157868E+03  0.24257337127E+03  0.00000000000E+00 0.  1.
</event>
<event>
12    1  0.9656379E-001  0.4455616E+03  0.7818608E-02  0.1029054E+00
          2   -1    0    0  502    0  0.00000000000E+00  0.00000000000E+00  0.16701015423E+04  0.16701015423E+04  0.00000000000E+00 0. -1.
         -2   -1    0    0    0  501 -0.00000000000E+00 -0.00000000000E+00 -0.26132403828E+03  0.26132403828E+03  0.00000000000E+00 0.  1.
          6    2    1    2  502    0 -0.35066417862E+03  0.21515933184E+03 -0.86071369297E+01  0.44566414512E+03  0.17112435010E+03 0.  0.
         24    2    3    3    0    0 -0.16590415340E+03  0.17998846771E+03 -0.10823003613E+02  0.25751458582E+03  0.79224919532E+02 0.  0.
         -6    2    1    2    0  501  0.35066417862E+03 -0.21515933184E+03  0.14173846409E+04  0.14857614355E+04  0.17102315176E+03 0.  0.
        -24    2    5    5    0    0  0.26823531382E+03 -0.22810443653E+03  0.11887397900E+04  0.12423222205E+04  0.79248935608E+02 0.  0.
          5    1    3    3  502    0 -0.18476002522E+03  0.35170864125E+02  0.22158666833E+01  0.18814955931E+03  0.47000000000E+01 0. -1.
        -11    1    4    4    0    0 -0.92974055758E+02  0.12094260762E+03 -0.42698555410E+02  0.15841229755E+03  0.00000000000E+00 0.  1.
         12    1    4    4    0    0 -0.72930097642E+02  0.59045860093E+02  0.31875551797E+02  0.99102288261E+02  0.00000000000E+00 0. -1.
         -5    1    5    5    0  501  0.82428864806E+02  0.12945104693E+02  0.22864485099E+03  0.24343921495E+03  0.47000000000E+01 0.  1.
         13    1    6    6    0    0  0.17105285861E+03 -0.12223891944E+03  0.82122129458E+03  0.84770622774E+03  0.00000000000E+00 0. -1.
        -14    1    6    6    0    0  0.97182455201E+02 -0.10586551710E+03  0.36751849537E+03  0.39461599277E+03  0.00000000000E+00 0.  1.
</event>
<event>
12    1  0.9656379E-001  0.5713765E+03  0.7818608E-02  0.9966637E-01
          2   -1    0    0  502    0  0.00000000000E+00  0.00000000000E+00  0.31640452624E+04  0.31640452624E+04  0.00000000000E+00 0. -1.
         -2   -1    0    0    0  501 -0.00000000000E+00 -0.00000000000E+00 -0.44376568082E+03  0.44376568082E+03  0.00000000000E+00 0.  1.
          6    2    1    2  502    0 -0.45054860018E+03  0.30667597323E+03 -0.22036136833E+03  0.61211671157E+03  0.17053897575E+03 0.  0.
         24    2    3    3    0    0 -0.38908329500E+03  0.31603810222E+03 -0.20888512466E+03  0.54871775756E+03  0.78691102753E+02 0.  0.
         -6    2    1    2    0  501  0.45054860018E+03 -0.30667597323E+03  0.29406409499E+04  0.29956942317E+04  0.17254141403E+03 0.  0.
        -24    2    5    5    0    0  0.25060478485E+03 -0.97157550238E+02  0.13349346482E+04  0.13640722422E+04  0.80001371323E+02 0.  0.
          5    1    3    3  502    0 -0.61465305180E+02 -0.93621289977E+01 -0.11476243664E+02  0.63398954005E+02  0.47000000000E+01 0. -1.
        -11    1    4    4    0    0 -0.12075964268E+03  0.90559929416E+02 -0.10245867711E+03  0.18243292639E+03  0.00000000000E+00 0.  1.
         12    1    4    4    0    0 -0.26832365232E+03  0.22547817281E+03 -0.10642644755E+03  0.36628483117E+03  0.00000000000E+00 0. -1.
         -5    1    5    5    0  501  0.19994381533E+03 -0.20951842299E+03  0.16057063018E+04  0.16316219894E+04  0.47000000000E+01 0.  1.
         11    1    6    6    0    0  0.15801874186E+03 -0.83613218127E+02  0.10193211877E+04  0.10348800785E+04  0.00000000000E+00 0. -1.
        -12    1    6    6    0    0  0.92586042993E+02 -0.13544332111E+02  0.31561346043E+03  0.32919216378E+03  0.00000000000E+00 0.  1.
</event>
<event>
12    1  0.9656379E-001  0.2550503E+03  0.7818608E-02  0.1110154E+00
          2   -1    0    0  502    0  0.00000000000E+00  0.00000000000E+00  0.29251471701E+04  0.29251471701E+04  0.00000000000E+00 0. -1.
         -2   -1    0    0    0  501 -0.00000000000E+00 -0.00000000000E+00 -0.10855008785E+03  0.10855008785E+03  0.00000000000E+00 0.  1.
          6    2    1    2  502    0 -0.16377890438E+03 -0.92055667040E+02  0.55683765783E+02  0.26102522830E+03  0.17244046128E+03 0.  0.
         24    2    3    3    0    0 -0.12869335600E+03 -0.12730380157E+03  0.19551665484E+02  0.19937260983E+03  0.81233811642E+02 0.  0.
         -6    2    1    2    0  501  0.16377890438E+03  0.92055667040E+02  0.27609133164E+04  0.27726720296E+04  0.17254004625E+03 0.  0.
        -24    2    5    5    0    0  0.10676976303E+03  0.56186313931E+02  0.97024691308E+03  0.98073316045E+03  0.76823014136E+02 0.  0.
          5    1    3    3  502    0 -0.35085548378E+02  0.35248134530E+02  0.36132100299E+02  0.61652618475E+02  0.47000000000E+01 0. -1.
        -11    1    4    4    0    0 -0.12119190407E+03 -0.88779809422E+02 -0.95176347531E+01  0.15053211466E+03  0.00000000000E+00 0.  1.
         12    1    4    4    0    0 -0.75014519326E+01 -0.38523992148E+02  0.29069300237E+02  0.48840495169E+02  0.00000000000E+00 0. -1.
         -5    1    5    5    0  501  0.57009141345E+02  0.35869353109E+02  0.17906664033E+04  0.17919388691E+04  0.47000000000E+01 0.  1.
         11    1    6    6    0    0  0.52473124438E+01 -0.75805575548E+01  0.28002508795E+03  0.28017681742E+03  0.00000000000E+00 0. -1.
        -12    1    6    6    0    0  0.10152245059E+03  0.63766871485E+02  0.69022182513E+03  0.70055634303E+03  0.00000000000E+00 0.  1.
</event>
<event>
12    1  0.9656379E-001  0.1914778E+03  0.7818608E-02  0.1157135E+00
         -2   -1    0    0    0  501 -0.00000000000E+00  0.00000000000E+00  0.16783724242E+04  0.16783724242E+04  0.00000000000E+00 0.  1.
          2   -1    0    0  502    0  0.00000000000E+00 -0.00000000000E+00 -0.14578996343E+03  0.14578996343E+03  0.00000000000E+00 0. -1.
          6    2    1    2  502    0 -0.12777140658E+02 -0.83043030867E+02  0.16071393470E+04  0.16184801880E+04  0.17181920127E+03 0.  0.
         24    2    3    3    0    0  0.17300813895E+02 -0.10747834775E+03  0.14613132252E+04  0.14675195446E+04  0.79538406783E+02 0.  0.
         -6    2    1    2    0  501  0.12777140658E+02  0.83043030867E+02 -0.74556886273E+02  0.20568219959E+03  0.17229926767E+03 0.  0.
        -24    2    5    5    0    0  0.59170012692E+02  0.93428504551E+01 -0.53202362988E+02  0.11589288602E+03  0.83739419302E+02 0.  0.
          5    1    3    3  502    0 -0.30077954554E+02  0.24435316882E+02  0.14582612181E+03  0.15096064342E+03  0.47000000000E+01 0. -1.
        -11    1    4    4    0    0  0.32067647133E+02 -0.70740319701E+02  0.12574742326E+04  0.12598706174E+04  0.00000000000E+00 0.  1.
         12    1    4    4    0    0 -0.14766833237E+02 -0.36738028048E+02  0.20383899258E+03  0.20764892719E+03  0.00000000000E+00 0. -1.
         -5    1    5    5    0  501 -0.46392872034E+02  0.73700180411E+02 -0.21354523284E+02  0.89789313579E+02  0.47000000000E+01 0.  1.
         11    1    6    6    0    0 -0.96448137768E+01  0.29971150007E+01 -0.45211242748E+02  0.46325604172E+02  0.00000000000E+00 0. -1.
        -12    1    6    6    0    0  0.68814826469E+02  0.63457354543E+01 -0.79911202404E+01  0.69567281844E+02  0.00000000000E+00 0.  1.
</event>
<event>
12    1  0.9656379E-001  0.3987034E+03  0.7818608E-02  0.1044230E+00
          2   -1    0    0  502    0  0.00000000000E+00  0.00000000000E+00  0.38346762364E+04  0.38346762364E+04  0.00000000000E+00 0. -1.
         -2   -1    0    0    0  501 -0.00000000000E+00 -0.00000000000E+00 -0.85577889563E+02  0.85577889563E+02  0.00000000000E+00 0.  1.
          6    2    1    2  502    0 -0.36038785771E+03 -0.38995281073E+01  0.46674900097E+03  0.61376074662E+03  0.17015583997E+03 0.  0.
         24    2    3    3    0    0 -0.14672908666E+03  0.49815159801E+02  0.16805464057E+03  0.24257918851E+03  0.81186978406E+02 0.  0.
         -6    2    1    2    0  501  0.36038785771E+03  0.38995281073E+01  0.32823493459E+04  0.33064933794E+04  0.17084093494E+03 0.  0.
        -24    2    5    5    0    0  0.13326034163E+03 -0.12580052887E+02  0.18036946180E+04  0.18103983358E+04  0.79443582512E+02 0.  0.
          5    1    3    3  502    0 -0.21365877105E+03 -0.53714687909E+02  0.29869436040E+03  0.37118155811E+03  0.47000000000E+01 0. -1.
        -11    1    4    4    0    0 -0.14490513671E+03  0.29236611517E+02  0.12044729836E+03  0.19068253664E+03  0.00000000000E+00 0.  1.
         12    1    4    4    0    0 -0.18239499498E+01  0.20578548284E+02  0.47607342206E+02  0.51896651865E+02  0.00000000000E+00 0. -1.
         -5    1    5    5    0  501  0.22712751608E+03  0.16479580995E+02  0.14786547279E+04  0.14960950436E+04  0.47000000000E+01 0.  1.
         13    1    6    6    0    0  0.31607514795E+02  0.31043378493E+02  0.59878538851E+03  0.60042207474E+03  0.00000000000E+00 0. -1.
        -14    1    6    6    0    0  0.10165282684E+03 -0.43623431380E+02  0.12049092295E+04  0.12099762611E+04  0.00000000000E+00 0.  1.
</event>
<event>
12    1  0.9656379E-001  0.1916191E+04  0.7818608E-02  0.8646839E-01
          2   -1    0    0  502    0  0.00000000000E+00  0.00000000000E+00  0.21748741187E+04  0.21748741187E+04  0.00000000000E+00 0. -1.
         -2   -1    0    0    0  501 -0.00000000000E+00 -0.00000000000E+00 -0.16949024522E+04  0.16949024522E+04  0.00000000000E+00 0.  1.
          6    2    1    2  502    0  0.58507763348E+03  0.18165218895E+04  0.36095149580E+03  0.19498009576E+04  0.17137730313E+03 0.  0.
         24    2    3    3    0    0  0.16642662576E+03  0.43305310165E+03  0.86312876270E+02  0.47850798395E+03  0.79291660864E+02 0.  0.
         -6    2    1    2    0  501 -0.58507763348E+03 -0.18165218895E+04  0.11902017072E+03  0.19199756133E+04  0.17341551960E+03 0.  0.
        -24    2    5    5    0    0 -0.48012078008E+03 -0.16163068631E+04  0.75271160627E+02  0.16896756703E+04  0.79839112943E+02 0.  0.
          5    1    3    3  502    0  0.41865100772E+03  0.13834687878E+04  0.27463861953E+03  0.14712929737E+04  0.47000000000E+01 0. -1.
        -13    1    4    4    0    0  0.16642794100E+03  0.37045192386E+03  0.89354200803E+02  0.41583297205E+03  0.00000000000E+00 0.  1.
         14    1    4    4    0    0 -0.13152419362E-02  0.62601177789E+02 -0.30413245324E+01  0.62675011905E+02  0.00000000000E+00 0. -1.
         -5    1    5    5    0  501 -0.10495685341E+03 -0.20021502635E+03  0.43749010094E+02  0.23029994299E+03  0.47000000000E+01 0.  1.
         13    1    6    6    0    0 -0.16198221065E+03 -0.46826416526E+03  0.51166642447E+02  0.49812407122E+03  0.00000000000E+00 0. -1.
        -14    1    6    6    0    0 -0.31813856943E+03 -0.11480426978E+04  0.24104518180E+02  0.11915515991E+04  0.00000000000E+00 0.  1.
</event>
<event>
12    1  0.9656379E-001  0.2199612E+03  0.7818608E-02  0.1133912E+00
          2   -1    0    0  502    0  0.00000000000E+00  0.00000000000E+00  0.48485060442E+03  0.48485060442E+03  0.00000000000E+00 0. -1.
         -2   -1    0    0    0  501 -0.00000000000E+00 -0.00000000000E+00 -0.10063988364E+03  0.10063988364E+03  0.00000000000E+00 0.  1.
          6    2    1    2  502    0  0.11920265690E+02  0.13800491861E+03  0.16456622365E+03  0.27411404988E+03  0.16990885816E+03 0.  0.
         24    2    3    3    0    0 -0.39353150760E+02  0.28241444889E+02  0.10725896676E+03  0.14001261406E+03  0.75847191516E+02 0.  0.
         -6    2    1    2    0  501 -0.11920265690E+02 -0.13800491861E+03  0.21964449712E+03  0.31137643817E+03  0.17182587359E+03 0.  0.
        -24    2    5    5    0    0 -0.41608151085E+02 -0.13422104599E+02  0.71846604888E+02  0.11575293489E+03  0.79532485017E+02 0.  0.
          5    1    3    3  502    0  0.51273416450E+02  0.10976347372E+03  0.57307256896E+02  0.13410143583E+03  0.47000000000E+01 0. -1.
        -11    1    4    4    0    0 -0.40558084104E+02 -0.17090729782E+02  0.61136723073E+02  0.75330937461E+02  0.00000000000E+00 0.  1.
         12    1    4    4    0    0  0.12049333438E+01  0.45332174671E+02  0.46122243686E+02  0.64681676597E+02  0.00000000000E+00 0. -1.
         -5    1    5    5    0  501  0.29687885395E+02 -0.12458281401E+03  0.14779789224E+03  0.19562350328E+03  0.47000000000E+01 0.  1.
         11    1    6    6    0    0 -0.16593210499E+01 -0.33506344230E+02  0.61196758424E+02  0.69788764795E+02  0.00000000000E+00 0. -1.
        -12    1    6    6    0    0 -0.39948830035E+02  0.20084239632E+02  0.10649846464E+02  0.45964170094E+02  0.00000000000E+00 0.  1.
</event>
<event>
12    1  0.9656379E-001  0.2281180E+03  0.7818608E-02  0.1127971E+00
          2   -1    0    0  502    0  0.00000000000E+00  0.00000000000E+00  0.20021157809E+03  0.20021157809E+03  0.00000000000E+00 0. -1.
         -2   -1    0    0    0  501 -0.00000000000E+00 -0.00000000000E+00 -0.11169953029E+04  0.11169953029E+04  0.00000000000E+00 0.  1.
          6    2    1    2  502    0 -0.14994979707E+03 -0.18495293619E+02 -0.10353671469E+04  0.10602288463E+04  0.17109371680E+03 0.  0.
         24    2    3    3    0    0 -0.13722489241E+03  0.25784458196E+02 -0.56092179596E+03  0.58352862527E+03  0.79855406445E+02 0.  0.
         -6    2    1    2    0  501  0.14994979707E+03  0.18495293619E+02  0.11858342211E+03  0.25697803475E+03  0.17072980061E+03 0.  0.
        -24    2    5    5    0    0  0.15183846359E+03 -0.29826110081E+02  0.69255982142E+02  0.18774067886E+03  0.80657644189E+02 0.  0.
          5    1    3    3  502    0 -0.12724904653E+02 -0.44279751814E+02 -0.47444535098E+03  0.47670022099E+03  0.47000000000E+01 0. -1.
        -11    1    4    4    0    0 -0.51654810014E+02  0.22948227555E+02 -0.36994848244E+03  0.37424152656E+03  0.00000000000E+00 0.  1.
         12    1    4    4    0    0 -0.85570082399E+02  0.28362306409E+01 -0.19097331353E+03  0.20928709871E+03  0.00000000000E+00 0. -1.
         -5    1    5    5    0  501 -0.18886665274E+01  0.48321403700E+02  0.49327439971E+02  0.69237355892E+02  0.47000000000E+01 0.  1.
         11    1    6    6    0    0  0.11751535471E+03 -0.27474244428E+02  0.87245461114E+02  0.14891763893E+03  0.00000000000E+00 0. -1.
        -12    1    6    6    0    0  0.34323108884E+02 -0.23518656525E+01 -0.17989478972E+02  0.38823039927E+02  0.00000000000E+00 0.  1.
</event>
<event>
12    1  0.9656379E-001  0.9181070E+03  0.7818608E-02  0.9403226E-01
         -2   -1    0    0    0  501 -0.00000000000E+00  0.00000000000E+00  0.14899710577E+04  0.14899710577E+04  0.00000000000E+00 0.  1.
          2   -1    0    0  502    0  0.00000000000E+00 -0.00000000000E+00 -0.11403962374E+04  0.11403962374E+04  0.00000000000E+00 0. -1.
          6    2    1    2  502    0  0.73742486011E+03 -0.51945740537E+03  0.11084078107E+04  0.14393211780E+04  0.17159882987E+03 0.  0.
         24    2    3    3    0    0  0.34665129741E+03 -0.18824768076E+03  0.41875865887E+03  0.58022752679E+03  0.75504020834E+02 0.  0.
         -6    2    1    2    0  501 -0.73742486011E+03  0.51945740537E+03 -0.75883299043E+03  0.11910461170E+04  0.17068076964E+03 0.  0.
        -24    2    5    5    0    0 -0.45756974857E+03  0.24656159187E+03 -0.46220140879E+03  0.70032889321E+03  0.81656126486E+02 0.  0.
          5    1    3    3  502    0  0.39077356270E+03 -0.33120972461E+03  0.68964915185E+03  0.85909365126E+03  0.47000000000E+01 0. -1.
        -11    1    4    4    0    0  0.10984218364E+03 -0.81662620719E+02  0.18989009284E+03  0.23407762877E+03  0.00000000000E+00 0.  1.
         12    1    4    4    0    0  0.23680911377E+03 -0.10658506004E+03  0.22886856603E+03  0.34614989803E+03  0.00000000000E+00 0. -1.
         -5    1    5    5    0  501 -0.27985511154E+03  0.27289581350E+03 -0.29663158164E+03  0.49071722378E+03  0.47000000000E+01 0.  1.
         13    1    6    6    0    0 -0.35280482167E+03  0.20046503600E+03 -0.40119961644E+03  0.57063000718E+03  0.00000000000E+00 0. -1.
        -14    1    6    6    0    0 -0.10476492689E+03  0.46096555865E+02 -0.61001792348E+02  0.12969888604E+03  0.00000000000E+00 0.  1.
</event>
<event>
12    1  0.9656379E-001  0.3249932E+03  0.7818608E-02  0.1073374E+00
         -2   -1    0    0    0  501 -0.00000000000E+00  0.00000000000E+00  0.15651189065E+04  0.15651189065E+04  0.00000000000E+00 0.  1.
          2   -1    0    0  502    0  0.00000000000E+00 -0.00000000000E+00 -0.16223718345E+03  0.16223718345E+03  0.00000000000E+00 0. -1.
          6    2    1    2  502    0 -0.63992235577E+02 -0.26735424647E+03  0.13605760711E+04  0.13986185417E+04  0.17144468609E+03 0.  0.
         24    2    3    3    0    0 -0.23883839627E+02 -0.26783357615E+03  0.11049396148E+04  0.11398116620E+04  0.77290426425E+02 0.  0.
         -6    2    1    2    0  501  0.63992235577E+02  0.26735424647E+03  0.42305651905E+02  0.32873754829E+03  0.17522930163E+03 0.  0.
        -24    2    5    5    0    0  0.10584379166E+03  0.15357486828E+03  0.41012101712E+02  0.20740716083E+03  0.80917176658E+02 0.  0.
          5    1    3    3  502    0 -0.40108395950E+02  0.47932967768E+00  0.25563645629E+03  0.25880687968E+03  0.47000000000E+01 0. -1.
        -11    1    4    4    0    0  0.94892849038E+01 -0.17683034205E+03  0.81779674802E+03  0.83674998504E+03  0.00000000000E+00 0.  1.
         12    1    4    4    0    0 -0.33373124531E+02 -0.91003234102E+02  0.28714286683E+03  0.30306167694E+03  0.00000000000E+00 0. -1.
         -5    1    5    5    0  501 -0.41851556079E+02  0.11377937819E+03  0.12935501920E+01  0.12133038746E+03  0.47000000000E+01 0.  1.
         11    1    6    6    0    0  0.56982860313E+02  0.14194402789E+03  0.27648280939E+02  0.15543352554E+03  0.00000000000E+00 0. -1.
        -12    1    6    6    0    0  0.48860931342E+02  0.11630840390E+02  0.13363820774E+02  0.51973635292E+02  0.00000000000E+00 0.  1.
</event>
<event>
12    1  0.9656379E-001  0.3124808E+03  0.7818608E-02  0.1079163E+00
          1   -1    0    0  502    0  0.00000000000E+00  0.00000000000E+00  0.27843473247E+04  0.27843473247E+04  0.00000000000E+00 0. -1.
         -1   -1    0    0    0  501 -0.00000000000E+00 -0.00000000000E+00 -0.66738666927E+02  0.66738666927E+02  0.00000000000E+00 0.  1.
          6    2    1    2  502    0 -0.14930625005E+03 -0.21287331714E+03  0.37620143897E+03  0.48888447109E+03  0.17283835780E+03 0.  0.
         24    2    3    3    0    0 -0.15833373246E+03 -0.22768013667E+03  0.35201350555E+03  0.45875336646E+03  0.98149516929E+02 0.  0.
         -6    2    1    2    0  501  0.14930625005E+03  0.21287331714E+03  0.23414072188E+04  0.23622015206E+04  0.17378392891E+03 0.  0.
        -24    2    5    5    0    0  0.16721073566E+03  0.12608971246E+03  0.16734833815E+04  0.16884090398E+04  0.79501018072E+02 0.  0.
          5    1    3    3  502    0  0.90274824036E+01  0.14806819530E+02  0.24187933420E+02  0.30131104631E+02  0.47000000000E+01 0. -1.
        -11    1    4    4    0    0 -0.62166792096E+02 -0.22681859155E+02  0.10047792361E+03  0.12031205221E+03  0.00000000000E+00 0.  1.
         12    1    4    4    0    0 -0.96166940360E+02 -0.20499827752E+03  0.25153558194E+03  0.33844131424E+03  0.00000000000E+00 0. -1.
         -5    1    5    5    0  501 -0.17904485612E+02  0.86783604682E+02  0.66792383731E+03  0.67379248073E+03  0.47000000000E+01 0.  1.
         13    1    6    6    0    0  0.14932966302E+03  0.12538023542E+03  0.13044994759E+04  0.13189914459E+04  0.00000000000E+00 0. -1.
        -14    1    6    6    0    0  0.17881072648E+02  0.70947703994E+00  0.36898390562E+03  0.36941759395E+03  0.00000000000E+00 0.  1.
</event>
<event>
12    1  0.9656379E-001  0.4031666E+03  0.7818608E-02  0.1042689E+00
         -1   -1    0    0    0  501 -0.00000000000E+00  0.00000000000E+00  0.95856114696E+03  0.95856114696E+03  0.00000000000E+00 0.  1.
          1   -1    0    0  502    0  0.00000000000E+00 -0.00000000000E+00 -0.16622708225E+04  0.16622708225E+04  0.00000000000E+00 0. -1.
          6    2    1    2  502    0  0.34699738829E+03  0.11133777239E+03  0.88990825260E+03  0.97705317663E+03  0.17289570522E+03 0.  0.
         24    2    3    3    0    0  0.19725116313E+03  0.13538894663E+03  0.55597331815E+03  0.61026029042E+03  0.77930118327E+02 0.  0.
         -6    2    1    2    0  501 -0.34699738829E+03 -0.11133777239E+03 -0.15936179281E+04  0.16437787928E+04  0.17200968532E+03 0.  0.
        -24    2    5    5    0    0 -0.34519236092E+03 -0.13464190525E+03 -0.15041289204E+04  0.15511682468E+04  0.80205436105E+02 0.  0.
          5    1    3    3  502    0  0.14974622515E+03 -0.24051174240E+02  0.33393493444E+03  0.36679288621E+03  0.47000000000E+01 0. -1.
        -11    1    4    4    0    0  0.21246437623E+02  0.51486779231E+02  0.14661555063E+03  0.15683883203E+03  0.00000000000E+00 0.  1.
         12    1    4    4    0    0  0.17600472551E+03  0.83902167396E+02  0.40935776752E+03  0.45342145839E+03  0.00000000000E+00 0. -1.
         -5    1    5    5    0  501 -0.18050273700E+01  0.23304132864E+02 -0.89489007736E+02  0.92610546040E+02  0.47000000000E+01 0.  1.
         13    1    6    6    0    0 -0.25782820457E+03 -0.13608236034E+03 -0.11361843670E+04  0.11729913502E+04  0.00000000000E+00 0. -1.
        -14    1    6    6    0    0 -0.87364156351E+02  0.14404550918E+01 -0.36794455336E+03  0.37817689654E+03  0.00000000000E+00 0.  1.
</event>
<event>
12    1  0.9656379E-001  0.4134424E+03  0.7818608E-02  0.1039222E+00
         -2   -1    0    0    0  501 -0.00000000000E+00  0.00000000000E+00  0.33400298575E+03  0.33400298575E+03  0.00000000000E+00 0.  1.
          2   -1    0    0  502    0  0.00000000000E+00 -0.00000000000E+00 -0.16641950811E+04  0.16641950811E+04  0.00000000000E+00 0. -1.
          6    2    1    2  502    0 -0.66779329077E+02  0.36961656172E+03  0.16635213058E+03  0.44556980791E+03  0.17257908589E+03 0.  0.
         24    2    3    3    0    0 -0.21255209776E+02  0.24881681141E+03  0.41210593420E+02  0.26571564634E+03  0.80900569325E+02 0.  0.
         -6    2    1    2    0  501  0.66779329077E+02 -0.36961656172E+03 -0.14965442259E+04  0.15526282589E+04  0.17301447573E+03 0.  0.
        -24    2    5    5    0    0  0.70982668319E+02 -0.14306829089E+03 -0.51181624462E+03  0.54215655016E+03  0.80441168341E+02 0.  0.
          5    1    3    3  502    0 -0.45524119301E+02  0.12079975031E+03  0.12514153716E+03  0.17985416158E+03  0.47000000000E+01 0. -1.
        -11    1    4    4    0    0  0.28103293011E+02  0.10441744396E+03  0.32296564706E+02  0.11285329315E+03  0.00000000000E+00 0.  1.
         12    1    4    4    0    0 -0.49358502787E+02  0.14439936744E+03  0.89140287137E+01  0.15286235319E+03  0.00000000000E+00 0. -1.
         -5    1    5    5    0  501 -0.42033392422E+01 -0.22654827083E+03 -0.98472798127E+03  0.10104717087E+04  0.47000000000E+01 0.  1.
         11    1    6    6    0    0  0.46304764069E+02 -0.11231785322E+03 -0.46663487873E+03  0.48219035803E+03  0.00000000000E+00 0. -1.
        -12    1    6    6    0    0  0.24677904250E+02 -0.30750437672E+02 -0.45181365892E+02  0.59966192134E+02  0.00000000000E+00 0.  1.
</event>
<event>
12    1  0.9656379E-001  0.8579988E+03  0.7818608E-02  0.9479664E-01
          2   -1    0    0  502    0  0.00000000000E+00  0.00000000000E+00  0.18361030459E+04  0.18361030459E+04  0.00000000000E+00 0. -1.
         -2   -1    0    0    0  501 -0.00000000000E+00 -0.00000000000E+00 -0.41354956940E+03  0.41354956940E+03  0.00000000000E+00 0.  1.
          6    2    1    2  502    0  0.83951767667E+03 -0.40200465789E+02  0.51505608466E+03  0.10009516472E+04  0.17382584048E+03 0.  0.
         24    2    3    3    0    0  0.58569581420E+03 -0.67132334345E+02  0.42240842149E+03  0.72937008874E+03  0.77495256087E+02 0.  0.
         -6    2    1    2    0  501 -0.83951767667E+03  0.40200465789E+02  0.90749739186E+03  0.12487009681E+04  0.17116245104E+03 0.  0.
        -24    2    5    5    0    0 -0.64168402759E+03  0.86063906710E+02  0.72908125804E+03  0.97833822155E+03  0.80129942113E+02 0.  0.
          5    1    3    3  502    0  0.25382186246E+03  0.26931868556E+02  0.92647663173E+02  0.27158155847E+03  0.47000000000E+01 0. -1.
        -11    1    4    4    0    0  0.42086581493E+03 -0.77929381852E+02  0.28191709916E+03  0.51252148592E+03  0.00000000000E+00 0.  1.
         12    1    4    4    0    0  0.16482999927E+03  0.10797047507E+02  0.14049132232E+03  0.21684860282E+03  0.00000000000E+00 0. -1.
         -5    1    5    5    0  501 -0.19783364908E+03 -0.45863440921E+02  0.17841613382E+03  0.27036274656E+03  0.47000000000E+01 0.  1.
         13    1    6    6    0    0 -0.12993126578E+03  0.33637524561E+02  0.19570073097E+03  0.23730232402E+03  0.00000000000E+00 0. -1.
        -14    1    6    6    0    0 -0.51175276182E+03  0.52426382149E+02  0.53338052707E+03  0.74103589753E+03  0.00000000000E+00 0.  1.
</event>
<event>
12    1  0.9656379E-001  0.1533052E+04  0.7818608E-02  0.8862767E-01
          2   -1    0    0  502    0  0.00000000000E+00  0.00000000000E+00  0.17665859733E+04  0.17665859733E+04  0.00000000000E+00 0. -1.
         -2   -1    0    0    0  501 -0.00000000000E+00 -0.00000000000E+00 -0.16445146003E+04  0.16445146003E+04  0.00000000000E+00 0.  1.
          6    2    1    2  502    0 -0.14581680390E+04 -0.44119199096E+03 -0.68437575857E+03  0.16789102566E+04  0.17165391885E+03 0.  0.
         24    2    3    3    0    0 -0.93380278738E+03 -0.29294947231E+03 -0.37953889998E+03  0.10545046498E+04  0.10061431686E+03 0.  0.
         -6    2    1    2    0  501  0.14581680390E+04  0.44119199096E+03  0.80644713155E+03  0.17321903171E+04  0.17094418899E+03 0.  0.
        -24    2    5    5    0    0  0.13939372389E+04  0.45082855243E+03  0.78215670518E+03  0.16626879876E+04  0.80341911766E+02 0.  0.
          5    1    3    3  502    0 -0.52436525161E+03 -0.14824251866E+03 -0.30483685859E+03  0.62440560679E+03  0.47000000000E+01 0. -1.
        -11    1    4    4    0    0 -0.48644006783E+03 -0.17707497175E+03 -0.24810289014E+03  0.57405098145E+03  0.00000000000E+00 0.  1.
         12    1    4    4    0    0 -0.44736271955E+03 -0.11587450055E+03 -0.13143600984E+03  0.48045366832E+03  0.00000000000E+00 0. -1.
         -5    1    5    5    0  501  0.64230800064E+02 -0.96365614609E+01  0.24290426368E+02  0.69502329506E+02  0.47000000000E+01 0.  1.
         11    1    6    6    0    0  0.37360228868E+03  0.96518171287E+02  0.17585440032E+03  0.42405093751E+03  0.00000000000E+00 0. -1.
        -12    1    6    6    0    0  0.10203349502E+04  0.35431038114E+03  0.60630230486E+03  0.12386370500E+04  0.00000000000E+00 0.  1.
</event>
<event>
12    1  0.9656379E-001  0.2248176E+03  0.7818608E-02  0.1130341E+00
          2   -1    0    0  502    0  0.00000000000E+00  0.00000000000E+00  0.33159924763E+04  0.33159924763E+04  0.00000000000E+00 0. -1.
         -2   -1    0    0    0  501 -0.00000000000E+00 -0.00000000000E+00 -0.17714532876E+02  0.17714532876E+02  0.00000000000E+00 0.  1.
          6    2    1    2  502    0 -0.14429179186E+03 -0.42295823250E+01  0.10221458443E+04  0.10464318604E+04  0.17146282693E+03 0.  0.
         24    2    3    3    0    0 -0.38961968532E+02 -0.47059154501E+02  0.36481507400E+03  0.37932274232E+03  0.84042284645E+02 0.  0.
         -6    2    1    2    0  501  0.14429179186E+03  0.42295823250E+01  0.22761320992E+04  0.22872751488E+04  0.17324047642E+03 0.  0.
        -24    2    5    5    0    0  0.90819344481E+02  0.50282053369E+02  0.19010155970E+04  0.19055493140E+04  0.80507452009E+02 0.  0.
          5    1    3    3  502    0 -0.10532982333E+03  0.42829572176E+02  0.65733077025E+03  0.66710911810E+03  0.47000000000E+01 0. -1.
        -13    1    4    4    0    0 -0.62176919489E+02 -0.22422127701E+02  0.18759195429E+03  0.19889560690E+03  0.00000000000E+00 0.  1.
         14    1    4    4    0    0  0.23214950957E+02 -0.24637026800E+02  0.17722311971E+03  0.18042713542E+03  0.00000000000E+00 0. -1.
         -5    1    5    5    0  501  0.53472447379E+02 -0.46052471044E+02  0.37511650222E+03  0.38172583480E+03  0.47000000000E+01 0.  1.
         13    1    6    6    0    0  0.69627026289E+02  0.68547491001E+02  0.11982325769E+04  0.12022096280E+04  0.00000000000E+00 0. -1.
        -14    1    6    6    0    0  0.21192318192E+02 -0.18265437632E+02  0.70278302014E+03  0.70333968604E+03  0.00000000000E+00 0.  1.
</event>
<event>
12    1  0.9656379E-001  0.4278116E+03  0.7818608E-02  0.1034553E+00
         -1   -1    0    0    0  501 -0.00000000000E+00  0.00000000000E+00  0.51103339606E+03  0.51103339606E+03  0.00000000000E+00 0.  1.
          1   -1    0    0  502    0  0.00000000000E+00 -0.00000000000E+00 -0.35816512259E+03  0.35816512259E+03  0.00000000000E+00 0. -1.
          6    2    1    2  502    0  0.54439988602E+02  0.38800576065E+03  0.79880061483E+02  0.43518041168E+03  0.17172356808E+03 0.  0.
         24    2    3    3    0    0  0.10020653391E+03  0.22177249581E+03  0.60177558351E+02  0.26157639780E+03  0.74675859689E+02 0.  0.
         -6    2    1    2    0  501 -0.54439988602E+02 -0.38800576065E+03  0.72988211984E+02  0.43401810698E+03  0.17184951394E+03 0.  0.
        -24    2    5    5    0    0 -0.86386050533E+02 -0.23323244427E+03  0.80773346906E+02  0.27572082760E+03  0.87394041048E+02 0.  0.
          5    1    3    3  502    0 -0.45766545304E+02  0.16623326483E+03  0.19702503131E+02  0.17360401388E+03  0.47000000000E+01 0. -1.
        -11    1    4    4    0    0  0.37393438166E+02  0.18821474024E+02  0.14229618529E+02  0.44215372279E+02  0.00000000000E+00 0.  1.
         12    1    4    4    0    0  0.62813095741E+02  0.20295102179E+03  0.45947939822E+02  0.21736102552E+03  0.00000000000E+00 0. -1.
         -5    1    5    5    0  501  0.31946061931E+02 -0.15477331637E+03 -0.77851349218E+01  0.15829727938E+03  0.47000000000E+01 0.  1.
         11    1    6    6    0    0 -0.48880051650E+02 -0.21233330527E+03  0.81898494497E+02  0.23277039197E+03  0.00000000000E+00 0. -1.
        -12    1    6    6    0    0 -0.37505998883E+02 -0.20899139000E+02 -0.11251475906E+01  0.42950435624E+02  0.00000000000E+00 0.  1.
</event>
<event>
12    1  0.9656379E-001  0.8322807E+03  0.7818608E-02  0.9514433E-01
         -2   -1    0    0    0  501 -0.00000000000E+00  0.00000000000E+00  0.66481398160E+03  0.66481398160E+03  0.00000000000E+00 0.  1.
          2   -1    0    0  502    0  0.00000000000E+00 -0.00000000000E+00 -0.19681278292E+04  0.19681278292E+04  0.00000000000E+00 0. -1.
          6    2    1    2  502    0  0.78621775800E+03  0.21176551259E+03  0.25147784321E+03  0.86936380459E+03  0.17195733131E+03 0.  0.
         24    2    3    3    0    0  0.21884999266E+03  0.99281535589E+02  0.72305739748E+02  0.26381978564E+03  0.81367172121E+02 0.  0.
         -6    2    1    2    0  501 -0.78621775800E+03 -0.21176551259E+03 -0.15547916908E+04  0.17635780062E+04  0.17276338399E+03 0.  0.
        -24    2    5    5    0    0 -0.67272360560E+03 -0.23213919217E+03 -0.13663735016E+04  0.15426266236E+04  0.79213003390E+02 0.  0.
          5    1    3    3  502    0  0.56736776534E+03  0.11248397700E+03  0.17917210346E+03  0.60554401895E+03  0.47000000000E+01 0. -1.
        -11    1    4    4    0    0  0.21955919295E+03  0.87894201214E+02  0.80443610075E+02  0.24980553280E+03  0.00000000000E+00 0.  1.
         12    1    4    4    0    0 -0.70920029034E+00  0.11387334375E+02 -0.81378703265E+01  0.14014252840E+02  0.00000000000E+00 0. -1.
         -5    1    5    5    0  501 -0.11349415240E+03  0.20373679578E+02 -0.18841818920E+03  0.22095138259E+03  0.47000000000E+01 0.  1.
         11    1    6    6    0    0 -0.55197045426E+03 -0.16031476857E+03 -0.11254444218E+04  0.12637236066E+04  0.00000000000E+00 0. -1.
        -12    1    6    6    0    0 -0.12075315133E+03 -0.71824423603E+02 -0.24092907987E+03  0.27890301704E+03  0.00000000000E+00 0.  1.
</event>
<event>
12    1  0.9656379E-001  0.3061716E+03  0.7818608E-02  0.1082196E+00
         -1   -1    0    0    0  501 -0.00000000000E+00  0.00000000000E+00  0.11886324851E+03  0.11886324851E+03  0.00000000000E+00 0.  1.
          1   -1    0    0  502    0  0.00000000000E+00 -0.00000000000E+00 -0.14122377990E+04  0.14122377990E+04  0.00000000000E+00 0. -1.
          6    2    1    2  502    0  0.25235799105E+03  0.30503800899E+02 -0.13905057621E+03  0.33709456539E+03  0.17228652227E+03 0.  0.
         24    2    3    3    0    0  0.16843703014E+03  0.90723283537E+01 -0.16231633856E+03  0.24728687422E+03  0.79692309147E+02 0.  0.
         -6    2    1    2    0  501 -0.25235799105E+03 -0.30503800899E+02 -0.11543239743E+04  0.11940064822E+04  0.16903432857E+03 0.  0.
        -24    2    5    5    0    0 -0.27053485094E+03 -0.20413602170E+02 -0.10432214494E+04  0.10808779209E+04  0.79876570511E+02 0.  0.
          5    1    3    3  502    0  0.83920960913E+02  0.21431472546E+02  0.23265762344E+02  0.89807691171E+02  0.47000000000E+01 0. -1.
        -11    1    4    4    0    0  0.80716988409E+02 -0.35369212091E+02 -0.72732329976E+02  0.11426375281E+03  0.00000000000E+00 0.  1.
         12    1    4    4    0    0  0.87720041730E+02  0.44441540444E+02 -0.89584008579E+02  0.13302312142E+03  0.00000000000E+00 0. -1.
         -5    1    5    5    0  501  0.18176859891E+02 -0.10090198730E+02 -0.11110252488E+03  0.11312856129E+03  0.47000000000E+01 0.  1.
         13    1    6    6    0    0 -0.12089299658E+03 -0.10633734506E+02 -0.31926006679E+03  0.34154821501E+03  0.00000000000E+00 0. -1.
        -14    1    6    6    0    0 -0.14964185436E+03 -0.97798676634E+01 -0.72396138265E+03  0.73932970585E+03  0.00000000000E+00 0.  1.
</event>
<event>
12    1  0.9656379E-001  0.1351294E+04  0.7818608E-02  0.8989849E-01
         -1   -1    0    0    0  501 -0.00000000000E+00  0.00000000000E+00  0.13541974912E+04  0.13541974912E+04  0.00000000000E+00 0.  1.
          1   -1    0    0  502    0  0.00000000000E+00 -0.00000000000E+00 -0.14998563960E+04  0.14998563960E+04  0.00000000000E+00 0. -1.
          6    2    1    2  502    0 -0.99700293398E+03  0.89592906682E+03  0.38064864530E+03  0.14038972395E+04  0.17126098462E+03 0.  0.
         24    2    3    3    0    0 -0.94435422220E+03  0.81249053699E+03  0.32328783192E+03  0.12896771536E+04  0.82500718925E+02 0.  0.
         -6    2    1    2    0  501  0.99700293398E+03 -0.89592906682E+03 -0.52630755011E+03  0.14501566476E+04  0.17102900957E+03 0.  0.
        -24    2    5    5    0    0  0.35606286815E+03 -0.27424526637E+03 -0.14206763698E+03  0.47806749707E+03  0.79837873672E+02 0.  0.
          5    1    3    3  502    0 -0.52648711776E+02  0.83438529834E+02  0.57360813387E+02  0.11422008591E+03  0.47000000000E+01 0. -1.
        -13    1    4    4    0    0 -0.32112726383E+03  0.32461079020E+03  0.10240551241E+03  0.46795488422E+03  0.00000000000E+00 0.  1.
         14    1    4    4    0    0 -0.62322695837E+03  0.48787974678E+03  0.22088231950E+03  0.82172226940E+03  0.00000000000E+00 0. -1.
         -5    1    5    5    0  501  0.64094006583E+03 -0.62168380045E+03 -0.38423991313E+03  0.97208915052E+03  0.47000000000E+01 0.  1.
         13    1    6    6    0    0  0.17353195598E+03 -0.11283329337E+03 -0.10332069905E+03  0.23134359445E+03  0.00000000000E+00 0. -1.
        -14    1    6    6    0    0  0.18253091217E+03 -0.16141197300E+03 -0.38746937933E+02  0.24672390262E+03  0.00000000000E+00 0.  1.
</event>
<event>
12    1  0.9656379E-001  0.5923879E+03  0.7818608E-02  0.9921326E-01
          1   -1    0    0  502    0  0.00000000000E+00  0.00000000000E+00  0.10483914632E+04  0.10483914632E+04  0.00000000000E+00 0. -1.
         -1   -1    0    0    0  501 -0.00000000000E+00 -0.00000000000E+00 -0.33619029407E+03  0.33619029407E+03  0.00000000000E+00 0.  1.
          6    2    1    2  502    0 -0.93104849659E+02  0.55933222470E+03  0.31029016675E+03  0.66856289872E+03  0.17080781991E+03 0.  0.
         24    2    3    3    0    0 -0.26374517871E+02  0.13076536579E+03  0.10917153446E+03  0.19044859859E+03  0.80975605491E+02 0.  0.
         -6    2    1    2    0  501  0.93104849659E+02 -0.55933222470E+03  0.40191100241E+03  0.71601885859E+03  0.17213222062E+03 0.  0.
        -24    2    5    5    0    0  0.37504639494E+02 -0.18585605437E+03  0.88371481884E+02  0.22519816413E+03  0.83400380021E+02 0.  0.
          5    1    3    3  502    0 -0.66730331788E+02  0.42856685891E+03  0.20111863229E+03  0.47811430013E+03  0.47000000000E+01 0. -1.
        -11    1    4    4    0    0 -0.31858183615E+02  0.36123487636E+02  0.32137514916E+01  0.48271921661E+02  0.00000000000E+00 0.  1.
         12    1    4    4    0    0  0.54836657434E+01  0.94641878157E+02  0.10595778297E+03  0.14217667693E+03  0.00000000000E+00 0. -1.
         -5    1    5    5    0  501  0.55600210165E+02 -0.37347617033E+03  0.31353952053E+03  0.49082069446E+03  0.47000000000E+01 0.  1.
         13    1    6    6    0    0  0.31338102027E+02 -0.14917860212E+03  0.10433815068E+03  0.18472352762E+03  0.00000000000E+00 0. -1.
        -14    1    6    6    0    0  0.61665374665E+01 -0.36677452250E+02 -0.15966668800E+02  0.40474636508E+02  0.00000000000E+00 0.  1.
</event>
<event>
12    1  0.9656379E-001  0.7876732E+03  0.7818608E-02  0.9578033E-01
          2   -1    0    0  502    0  0.00000000000E+00  0.00000000000E+00  0.76722505279E+03  0.76722505279E+03  0.00000000000E+00 0. -1.
         -2   -1    0    0    0  501 -0.00000000000E+00 -0.00000000000E+00 -0.97564477629E+03  0.97564477629E+03  0.00000000000E+00 0.  1.
          6    2    1    2  502    0  0.76698916503E+03 -0.49179890054E+02 -0.46474696966E+03  0.91475956693E+03  0.17350584611E+03 0.  0.
         24    2    3    3    0    0  0.23599587143E+03 -0.37534389853E+02 -0.10264471366E+03  0.27193017330E+03  0.79417883088E+02 0.  0.
         -6    2    1    2    0  501 -0.76698916503E+03  0.49179890054E+02  0.25632724617E+03  0.82811026214E+03  0.17138234530E+03 0.  0.
        -24    2    5    5    0    0 -0.41636524825E+03  0.49825474519E+02  0.74156718743E+02  0.43295745770E+03  0.78168685429E+02 0.  0.
          5    1    3    3  502    0  0.53099329360E+03 -0.11645500201E+02 -0.36210225601E+03  0.64282939364E+03  0.47000000000E+01 0. -1.
        -13    1    4    4    0    0  0.61892505273E+02  0.25054197130E+02 -0.29101486258E+02  0.72837432034E+02  0.00000000000E+00 0.  1.
         14    1    4    4    0    0  0.17410336616E+03 -0.62588586983E+02 -0.73543227397E+02  0.19909274126E+03  0.00000000000E+00 0. -1.
         -5    1    5    5    0  501 -0.35062391677E+03 -0.64558446523E+00  0.18217052743E+03  0.39515280444E+03  0.47000000000E+01 0.  1.
         13    1    6    6    0    0 -0.61832681355E+02 -0.19946911082E+02  0.16725947442E+02  0.67088874362E+02  0.00000000000E+00 0. -1.
        -14    1    6    6    0    0 -0.35453256690E+03  0.69772385601E+02  0.57430771300E+02  0.36586858334E+03  0.00000000000E+00 0.  1.
</event>
<event>
12    1  0.9656379E-001  0.4690262E+03  0.7818608E-02  0.1022195E+00
         -2   -1    0    0    0  501 -0.00000000000E+00  0.00000000000E+00  0.16277551266E+04  0.16277551266E+04  0.00000000000E+00 0.  1.
          2   -1    0    0  502    0  0.00000000000E+00 -0.00000000000E+00 -0.16836980476E+04  0.16836980476E+04  0.00000000000E+00 0. -1.
          6    2    1    2  502    0  0.40117728460E+03 -0.17138535439E+03  0.15599146800E+04  0.16288961560E+04  0.17219966535E+03 0.  0.
         24    2    3    3    0    0  0.21584591342E+03 -0.25304265736E+02  0.71103193079E+03  0.74781079491E+03  0.80154938574E+02 0.  0.
         -6    2    1    2    0  501 -0.40117728460E+03  0.17138535439E+03 -0.16158576009E+04  0.16825570182E+04  0.17229677778E+03 0.  0.
        -24    2    5    5    0    0 -0.38583187363E+03  0.12548647940E+03 -0.15173270819E+04  0.15726819003E+04  0.80210938803E+02 0.  0.
          5    1    3    3  502    0  0.18533137118E+03 -0.14608108865E+03  0.84888274918E+03  0.88108536105E+03  0.47000000000E+01 0. -1.
        -11    1    4    4    0    0  0.59829263327E+02 -0.44328113639E+02  0.22950308079E+03  0.24128030691E+03  0.00000000000E+00 0.  1.
         12    1    4    4    0    0  0.15601665009E+03  0.19023847903E+02  0.48152885000E+03  0.50653048800E+03  0.00000000000E+00 0. -1.
         -5    1    5    5    0  501 -0.15345410972E+02  0.45898874988E+02 -0.98530519023E+02  0.10987511794E+03  0.47000000000E+01 0.  1.
         13    1    6    6    0    0 -0.15294098801E+03  0.11480239755E+02 -0.61513720249E+03  0.63396886327E+03  0.00000000000E+00 0. -1.
        -14    1    6    6    0    0 -0.23289088562E+03  0.11400623964E+03 -0.90218987942E+03  0.93871303699E+03  0.00000000000E+00 0.  1.
</event>
<event>
12    1  0.9656379E-001  0.7899180E+03  0.7818608E-02  0.9574726E-01
         -1   -1    0    0    0  501 -0.00000000000E+00  0.00000000000E+00  0.13005326790E+04  0.13005326790E+04  0.00000000000E+00 0.  1.
          1   -1    0    0  502    0  0.00000000000E+00 -0.00000000000E+00 -0.62910265126E+03  0.62910265126E+03  0.00000000000E+00 0. -1.
          6    2    1    2  502    0  0.62435009602E+03 -0.45189528325E+03  0.80580015168E+03  0.11284693939E+04  0.17351339714E+03 0.  0.
         24    2    3    3    0    0  0.32029972978E+03 -0.29523748363E+03  0.38773047247E+03  0.58829105472E+03  0.77423233880E+02 0.  0.
         -6    2    1    2    0  501 -0.62435009602E+03  0.45189528325E+03 -0.13437012397E+03  0.80116593638E+03  0.17259530116E+03 0.  0.
        -24    2    5    5    0    0 -0.50655463680E+03  0.29307101185E+03 -0.12088576055E+03  0.60291145988E+03  0.80004020511E+02 0.  0.
          5    1    3    3  502    0  0.30405036624E+03 -0.15665779962E+03  0.41806967922E+03  0.54017833913E+03  0.47000000000E+01 0. -1.
        -13    1    4    4    0    0  0.19320717321E+03 -0.12597902834E+03  0.19519578926E+03  0.30216075772E+03  0.00000000000E+00 0.  1.
         14    1    4    4    0    0  0.12709255657E+03 -0.16925845529E+03  0.19253468320E+03  0.28613029699E+03  0.00000000000E+00 0. -1.
         -5    1    5    5    0  501 -0.11779545922E+03  0.15882427139E+03 -0.13484363427E+02  0.19825447650E+03  0.47000000000E+01 0.  1.
         11    1    6    6    0    0 -0.29623935687E+03  0.20884012632E+03 -0.52331019285E+02  0.36621099178E+03  0.00000000000E+00 0. -1.
        -12    1    6    6    0    0 -0.21031527993E+03  0.84230885536E+02 -0.68554741260E+02  0.23670046810E+03  0.00000000000E+00 0.  1.
</event>
<event>
12    1  0.9656379E-001  0.3342047E+03  0.7818608E-02  0.1069291E+00
         -2   -1    0    0    0  501 -0.00000000000E+00  0.00000000000E+00  0.21641622640E+03  0.21641622640E+03  0.00000000000E+00 0.  1.
          2   -1    0    0  502    0  0.00000000000E+00 -0.00000000000E+00 -0.74713838587E+03  0.74713838587E+03  0.00000000000E+00 0. -1.
          6    2    1    2  502    0 -0.24838424207E+03  0.14079294628E+03  0.20162127929E+01  0.33517454074E+03  0.17555774610E+03 0.  0.
         24    2    3    3    0    0 -0.63434222634E+02  0.75011039268E+02 -0.43330006756E+02  0.13365000475E+03  0.79588175448E+02 0.  0.
         -6    2    1    2    0  501  0.24838424207E+03 -0.14079294628E+03 -0.53273837227E+03  0.62838007153E+03  0.17185446044E+03 0.  0.
        -24    2    5    5    0    0  0.66816899903E+02 -0.22147116313E+01 -0.15389604608E+03  0.18598406683E+03  0.80228904114E+02 0.  0.
          5    1    3    3  502    0 -0.18495001943E+03  0.65781907016E+02  0.45346219549E+02  0.20152453599E+03  0.47000000000E+01 0. -1.
        -11    1    4    4    0    0 -0.18806081840E+02  0.77160094234E+02 -0.15222932854E+02  0.80864618598E+02  0.00000000000E+00 0.  1.
         12    1    4    4    0    0 -0.44628140795E+02 -0.21490549651E+01 -0.28107073902E+02  0.52785386153E+02  0.00000000000E+00 0. -1.
         -5    1    5    5    0  501  0.18156734216E+03 -0.13857823465E+03 -0.37884232619E+03  0.44239600470E+03  0.47000000000E+01 0.  1.
         13    1    6    6    0    0  0.82374192336E+02 -0.28532232280E+01 -0.98474282120E+02  0.12841663710E+03  0.00000000000E+00 0. -1.
        -14    1    6    6    0    0 -0.15557292433E+02  0.63851159668E+00 -0.55421763964E+02  0.57567429731E+02  0.00000000000E+00 0.  1.
</event>
<event>
12    1  0.9656379E-001  0.2386313E+03  0.7818608E-02  0.1120708E+00
          2   -1    0    0  502    0  0.00000000000E+00  0.00000000000E+00  0.16307937525E+03  0.16307937525E+03  0.00000000000E+00 0. -1.
         -2   -1    0    0    0  501 -0.00000000000E+00 -0.00000000000E+00 -0.62055610217E+03  0.62055610217E+03  0.00000000000E+00 0.  1.
          6    2    1    2  502    0  0.15961006938E+03  0.31480201858E+02 -0.48661974622E+03  0.54100801489E+03  0.17153576130E+03 0.  0.
         24    2    3    3    0    0  0.12679764897E+03  0.57453794822E+02 -0.46844211513E+03  0.49514082905E+03  0.79673352128E+02 0.  0.
         -6    2    1    2    0  501 -0.15961006938E+03 -0.31480201858E+02  0.29143019300E+02  0.24262746253E+03  0.17762993172E+03 0.  0.
        -24    2    5    5    0    0 -0.11102222760E+03 -0.84346646108E+02 -0.88674638518E+01  0.16124855786E+03  0.80511947961E+02 0.  0.
          5    1    3    3  502    0  0.32812420417E+02 -0.25973592964E+02 -0.18177631093E+02  0.45867185843E+02  0.47000000000E+01 0. -1.
        -11    1    4    4    0    0  0.12797017412E+03  0.42904341143E+02 -0.33904163090E+03  0.36491968354E+03  0.00000000000E+00 0.  1.
         12    1    4    4    0    0 -0.11725251544E+01  0.14549453678E+02 -0.12940048423E+03  0.13022114550E+03  0.00000000000E+00 0. -1.
         -5    1    5    5    0  501 -0.48587841782E+02  0.52866444251E+02  0.38010483151E+02  0.81378904675E+02  0.47000000000E+01 0. -1.
         11    1    6    6    0    0 -0.83121171943E+01 -0.52256990959E+02 -0.88094993192E+01  0.53642256428E+02  0.00000000000E+00 0. -1.
        -12    1    6    6    0    0 -0.10271011041E+03 -0.32089655149E+02 -0.57964532528E-01  0.10760630143E+03  0.00000000000E+00 0.  1.
</event>
<event>
12    1  0.9656379E-001  0.6146086E+03  0.7818608E-02  0.9875553E-01
         -2   -1    0    0    0  501 -0.00000000000E+00  0.00000000000E+00  0.27904091041E+03  0.27904091041E+03  0.00000000000E+00 0.  1.
          2   -1    0    0  502    0  0.00000000000E+00 -0.00000000000E+00 -0.13718863827E+04  0.13718863827E+04  0.00000000000E+00 0. -1.
          6    2    1    2  502    0 -0.35945618360E+03 -0.46782080577E+03 -0.64139761100E+03  0.88832457576E+03  0.17223414952E+03 0.  0.
         24    2    3    3    0    0 -0.86907371291E+02 -0.90709445922E+02 -0.17950185995E+03  0.23268320454E+03  0.78354713866E+02 0.  0.
         -6    2    1    2    0  501  0.35945618360E+03  0.46782080577E+03 -0.45144786134E+03  0.76260271740E+03  0.17231563725E+03 0.  0.
        -24    2    5    5    0    0  0.14979563916E+03  0.21778802945E+03 -0.28333748531E+03  0.39550992034E+03  0.79231352496E+02 0.  0.
          5    1    3    3  502    0 -0.27254881231E+03 -0.37711135985E+03 -0.46189575105E+03  0.65564137122E+03  0.47000000000E+01 0. -1.
        -13    1    4    4    0    0 -0.84905020672E+02 -0.95036128980E+02 -0.12682970232E+03  0.17979572225E+03  0.00000000000E+00 0.  1.
         14    1    4    4    0    0 -0.20023506196E+01  0.43266830585E+01 -0.52672157623E+02  0.52887482290E+02  0.00000000000E+00 0. -1.
         -5    1    5    5    0  501  0.20966054444E+03  0.25003277632E+03 -0.16811037602E+03  0.36709279707E+03  0.47000000000E+01 0.  1.
         13    1    6    6    0    0  0.11663106324E+03  0.11067348935E+03 -0.19515858269E+03  0.25286023522E+03  0.00000000000E+00 0. -1.
        -14    1    6    6    0    0  0.33164575922E+02  0.10711454010E+03 -0.88178902625E+02  0.14264968512E+03  0.00000000000E+00 0.  1.
</event>
<event>
12    1  0.9656379E-001  0.1770039E+03  0.7818608E-02  0.1170735E+00
         -1   -1    0    0    0  501 -0.00000000000E+00  0.00000000000E+00  0.11591335475E+03  0.11591335475E+03  0.00000000000E+00 0.  1.
          1   -1    0    0  502    0  0.00000000000E+00 -0.00000000000E+00 -0.28580924706E+03  0.28580924706E+03  0.00000000000E+00 0. -1.
          6    2    1    2  502    0  0.92334020530E+01 -0.40548728677E+02 -0.13107161307E+03  0.21910377212E+03  0.17057913147E+03 0.  0.
         24    2    3    3    0    0  0.61533918314E+02 -0.50520663119E+02 -0.53373428066E+02  0.12479639472E+03  0.79916561533E+02 0.  0.
         -6    2    1    2    0  501 -0.92334020530E+01  0.40548728677E+02 -0.38824279236E+02  0.18261882969E+03  0.17353056557E+03 0.  0.
        -24    2    5    5    0    0  0.57003470920E+02  0.32915815014E+02 -0.49073046240E+02  0.11499699936E+03  0.80518938261E+02 0.  0.
          5    1    3    3  502    0 -0.52300516261E+02  0.99719344424E+01 -0.77698185007E+02  0.94307377394E+02  0.47000000000E+01 0. -1.
        -11    1    4    4    0    0  0.43710456565E+01 -0.34738239254E+02  0.11548170807E+02  0.36867486429E+02  0.00000000000E+00 0.  1.
         12    1    4    4    0    0  0.57162872657E+02 -0.15782423866E+02 -0.64921598874E+02  0.87928908294E+02  0.00000000000E+00 0. -1.
         -5    1    5    5    0  501 -0.66236872973E+02  0.76329136625E+01  0.10248767004E+02  0.67621830331E+02  0.47000000000E+01 0.  1.
         13    1    6    6    0    0  0.36185108683E+02 -0.16098474721E+02 -0.47332627439E+02  0.61716291196E+02  0.00000000000E+00 0. -1.
        -14    1    6    6    0    0  0.20818362237E+02  0.49014289735E+02 -0.17404188008E+01  0.53280708160E+02  0.00000000000E+00 0.  1.
</event>
<event>
12    1  0.9656379E-001  0.1740685E+03  0.7818608E-02  0.1173670E+00
          2   -1    0    0  502    0  0.00000000000E+00  0.00000000000E+00  0.29654304825E+04  0.29654304825E+04  0.00000000000E+00 0. -1.
         -2   -1    0    0    0  501 -0.00000000000E+00 -0.00000000000E+00 -0.53056410449E+03  0.53056410449E+03  0.00000000000E+00 0.  1.
          6    2    1    2  502    0 -0.31385316496E+02  0.25129394938E+02 -0.51352335921E+03  0.54252593634E+03  0.17032799703E+03 0.  0.
         24    2    3    3    0    0  0.25551813068E+02  0.58384838008E+02 -0.38050025057E+03  0.39398301780E+03  0.79877989290E+02 0.  0.
         -6    2    1    2    0  501  0.31385316496E+02 -0.25129394938E+02  0.29483897373E+04  0.29534686507E+04  0.16839983142E+03 0.  0.
        -24    2    5    5    0    0  0.50650946735E+02 -0.70801574316E+02  0.23187220515E+04  0.23218353734E+04  0.82880442530E+02 0.  0.
          5    1    3    3  502    0 -0.56937129564E+02 -0.33255443070E+02 -0.13302310864E+03  0.14854291854E+03  0.47000000000E+01 0. -1.
        -13    1    4    4    0    0  0.36526366233E+01  0.11516590818E+02 -0.28595444780E+03  0.28620957328E+03  0.00000000000E+00 0.  1.
         14    1    4    4    0    0  0.21899176445E+02  0.46868247191E+02 -0.94545802766E+02  0.10777344452E+03  0.00000000000E+00 0. -1.
         -5    1    5    5    0  501 -0.19265630239E+02  0.45672179378E+02  0.62966768580E+03  0.63163327732E+03  0.47000000000E+01 0.  1.
         11    1    6    6    0    0  0.56136285388E+02 -0.10108117836E+02  0.13442981753E+04  0.13455077260E+04  0.00000000000E+00 0. -1.
        -12    1    6    6    0    0 -0.54853386528E+01 -0.60693456480E+02  0.97442387615E+03  0.97632764737E+03  0.00000000000E+00 0.  1.
</event>
<event>
12    1  0.9656379E-001  0.1472063E+04  0.7818608E-02  0.8903246E-01
          1   -1    0    0  502    0  0.00000000000E+00  0.00000000000E+00  0.19303554450E+04  0.19303554450E+04  0.00000000000E+00 0. -1.
         -1   -1    0    0    0  501 -0.00000000000E+00 -0.00000000000E+00 -0.11311934987E+04  0.11311934987E+04  0.00000000000E+00 0.  1.
          6    2    1    2  502    0  0.92619085622E+02  0.14590955995E+04  0.26594006329E+03  0.14957889369E+04  0.17065216958E+03 0.  0.
         24    2    3    3    0    0  0.39644702220E+02  0.12255241444E+04  0.26088583800E+03  0.12561860464E+04  0.80379299702E+02 0.  0.
         -6    2    1    2    0  501 -0.92619085622E+02 -0.14590955995E+04  0.53322188307E+03  0.15657600068E+04  0.17245451274E+03 0.  0.
        -24    2    5    5    0    0 -0.10271640498E+03 -0.98789657246E+03  0.30623204604E+03  0.10426185775E+04  0.82371927785E+02 0.  0.
          5    1    3    3  502    0  0.52974383402E+02  0.23357145511E+03  0.50542252908E+01  0.23960289049E+03  0.47000000000E+01 0. -1.
        -11    1    4    4    0    0  0.63892262915E+02  0.96273643775E+03  0.20894588561E+03  0.98721935402E+03  0.00000000000E+00 0.  1.
         12    1    4    4    0    0 -0.24247560695E+02  0.26278770664E+03  0.51939952381E+02  0.26896669238E+03  0.00000000000E+00 0. -1.
         -5    1    5    5    0  501  0.10097319359E+02 -0.47119902703E+03  0.22698983703E+03  0.52314142930E+03  0.47000000000E+01 0.  1.
         11    1    6    6    0    0 -0.81112125216E+02 -0.72350950003E+03  0.26164085050E+03  0.77362853369E+03  0.00000000000E+00 0. -1.
        -12    1    6    6    0    0 -0.21604279764E+02 -0.26438707242E+03  0.44591195539E+02  0.26899004384E+03  0.00000000000E+00 0.  1.
</event>
<event>
12    1  0.9656379E-001  0.3747152E+03  0.7818608E-02  0.1052905E+00
         -2   -1    0    0    0  501 -0.00000000000E+00  0.00000000000E+00  0.90854400207E+02  0.90854400207E+02  0.00000000000E+00 0.  1.
          2   -1    0    0  502    0  0.00000000000E+00 -0.00000000000E+00 -0.15548559592E+04  0.15548559592E+04  0.00000000000E+00 0. -1.
          6    2    1    2  502    0 -0.33125233268E+03  0.15770156792E+02 -0.66758693397E+03  0.76545106680E+03  0.17397188136E+03 0.  0.
         24    2    3    3    0    0 -0.71877112222E+02 -0.11892714216E+02 -0.13906349045E+03  0.17604470462E+03  0.79657565477E+02 0.  0.
         -6    2    1    2    0  501  0.33125233268E+03 -0.15770156792E+02 -0.79641462499E+03  0.88025929258E+03  0.17493816485E+03 0.  0.
        -24    2    5    5    0    0  0.23500498724E+03 -0.68447757289E+02 -0.55399592041E+03  0.61412511697E+03  0.10161564817E+03 0.  0.
          5    1    3    3  502    0 -0.25937522045E+03  0.27662871008E+02 -0.52852344353E+03  0.58940636218E+03  0.47000000000E+01 0. -1.
        -11    1    4    4    0    0 -0.31605068628E+02 -0.27253284813E+02 -0.14411262738E+02  0.44150950044E+02  0.00000000000E+00 0.  1.
         12    1    4    4    0    0 -0.40272043594E+02  0.15360570597E+02 -0.12465222771E+03  0.13189375458E+03  0.00000000000E+00 0. -1.
         -5    1    5    5    0  501  0.96247345431E+02  0.52677600498E+02 -0.24241870458E+03  0.26613417561E+03  0.47000000000E+01 0.  1.
         13    1    6    6    0    0  0.95014598256E+02  0.19063550404E+02 -0.25124456571E+03  0.26928613895E+03  0.00000000000E+00 0. -1.
        -14    1    6    6    0    0  0.13999038899E+03 -0.87511307694E+02 -0.30275135470E+03  0.34483897802E+03  0.00000000000E+00 0.  1.
</event>
<event>
12    1  0.9656379E-001  0.2133201E+03  0.7818608E-02  0.1138963E+00
          2   -1    0    0  502    0  0.00000000000E+00  0.00000000000E+00  0.51148517175E+03  0.51148517175E+03  0.00000000000E+00 0. -1.
         -2   -1    0    0    0  501 -0.00000000000E+00 -0.00000000000E+00 -0.34189527096E+03  0.34189527096E+03  0.00000000000E+00 0.  1.
          6    2    1    2  502    0  0.11882105725E+03  0.40320115029E+02 -0.28223054430E+03  0.35362215637E+03  0.17219289770E+03 0.  0.
         24    2    3    3    0    0  0.10490752920E+03  0.71325473301E+02 -0.28166864485E+03  0.31930999766E+03  0.80800595845E+02 0.  0.
         -6    2    1    2    0  501 -0.11882105725E+03 -0.40320115029E+02  0.45182044509E+03  0.49975828633E+03  0.17283655527E+03 0.  0.
        -24    2    5    5    0    0 -0.83145321097E+02  0.43156926415E+02  0.26717463892E+03  0.29394930127E+03  0.79045805177E+02 0.  0.
          5    1    3    3  502    0  0.13913528053E+02 -0.31005358271E+02 -0.56189944653E+00  0.34312158711E+02  0.47000000000E+01 0. -1.
        -11    1    4    4    0    0  0.11587572196E+03  0.70964132308E+02 -0.23581444242E+03  0.27216087571E+03  0.00000000000E+00 0.  1.
         12    1    4    4    0    0 -0.10968192763E+02  0.36134099241E+00 -0.45854202432E+02  0.47149121949E+02  0.00000000000E+00 0. -1.
         -5    1    5    5    0  501 -0.35675736154E+02 -0.83477041444E+02  0.18464580617E+03  0.20580898507E+03  0.47000000000E+01 0.  1.
         11    1    6    6    0    0 -0.40287112285E+02  0.89597574295E+01  0.21267159561E+03  0.21663918447E+03  0.00000000000E+00 0. -1.
        -12    1    6    6    0    0 -0.42858208812E+02  0.34197168985E+02  0.54503043315E+02  0.77310116801E+02  0.00000000000E+00 0.  1.
</event>
<event>
12    1  0.9656379E-001  0.1068168E+04  0.7818608E-02  0.9236785E-01
          2   -1    0    0  502    0  0.00000000000E+00  0.00000000000E+00  0.15089954358E+04  0.15089954358E+04  0.00000000000E+00 0. -1.
         -2   -1    0    0    0  501 -0.00000000000E+00 -0.00000000000E+00 -0.11966462047E+04  0.11966462047E+04  0.00000000000E+00 0.  1.
          6    2    1    2  502    0 -0.52462669954E+03  0.91432209022E+03 -0.66463440969E+03  0.12580743481E+04  0.17260969933E+03 0.  0.
         24    2    3    3    0    0 -0.35455178090E+03  0.50500798039E+03 -0.32667231834E+03  0.70066607436E+03  0.58975576264E+02 0.  0.
         -6    2    1    2    0  501  0.52462669954E+03 -0.91432209022E+03  0.97698364082E+03  0.14475672923E+04  0.17244121561E+03 0.  0.
        -24    2    5    5    0    0  0.38528845121E+03 -0.78153809648E+03  0.78181264210E+03  0.11734130562E+04  0.80113708179E+02 0.  0.
          5    1    3    3  502    0 -0.17007491864E+03  0.40931410983E+03 -0.33796209136E+03  0.55740827375E+03  0.47000000000E+01 0. -1.
        -13    1    4    4    0    0 -0.14309613285E+03  0.15577892555E+03 -0.11644994508E+03  0.24146255733E+03  0.00000000000E+00 0.  1.
         14    1    4    4    0    0 -0.21145564804E+03  0.34922905485E+03 -0.21022237326E+03  0.45920351703E+03  0.00000000000E+00 0. -1.
         -5    1    5    5    0  501  0.13933824833E+03 -0.13278399374E+03  0.19517099872E+03  0.27415423612E+03  0.47000000000E+01 0.  1.
         13    1    6    6    0    0  0.68524456058E+02 -0.19369277667E+03  0.21681766651E+03  0.29870117730E+03  0.00000000000E+00 0. -1.
        -14    1    6    6    0    0  0.31676399515E+03 -0.58784531981E+03  0.56499497559E+03  0.87471187890E+03  0.00000000000E+00 0.  1.
</event>
<event>
12    1  0.9656379E-001  0.1517432E+04  0.7818608E-02  0.8872943E-01
          2   -1    0    0  502    0  0.00000000000E+00  0.00000000000E+00  0.21799291701E+04  0.21799291701E+04  0.00000000000E+00 0. -1.
         -2   -1    0    0    0  501 -0.00000000000E+00 -0.00000000000E+00 -0.12351265985E+04  0.12351265985E+04  0.00000000000E+00 0.  1.
          6    2    1    2  502    0 -0.76157736790E+03  0.13011770953E+04 -0.17737822573E+03  0.15277335783E+04  0.17159525226E+03 0.  0.
         24    2    3    3    0    0 -0.45829843092E+03  0.81553715576E+03 -0.44178046844E+02  0.93986570014E+03  0.79104552729E+02 0.  0.
         -6    2    1    2    0  501  0.76157736790E+03 -0.13011770953E+04  0.11221807974E+04  0.18873221903E+04  0.17214350799E+03 0.  0.
        -24    2    5    5    0    0  0.20879406139E+03 -0.33536013918E+03  0.33385535435E+03  0.52355869511E+03  0.81196838425E+02 0.  0.
          5    1    3    3  502    0 -0.30327893698E+03  0.48563993954E+03 -0.13320017889E+03  0.58786787814E+03  0.47000000000E+01 0. -1.
        -11    1    4    4    0    0 -0.35144465823E+03  0.68664732161E+03 -0.32846463544E+02  0.77206008978E+03  0.00000000000E+00 0.  1.
         12    1    4    4    0    0 -0.10685377269E+03  0.12888983415E+03 -0.11331583300E+02  0.16780561035E+03  0.00000000000E+00 0. -1.
         -5    1    5    5    0  501  0.55278330651E+03 -0.96581695612E+03  0.78832544307E+03  0.13637634952E+04  0.47000000000E+01 0.  1.
         13    1    6    6    0    0  0.16896749055E+03 -0.31147751056E+03  0.31241279580E+03  0.47240872920E+03  0.00000000000E+00 0. -1.
        -14    1    6    6    0    0  0.39826570840E+02 -0.23882628618E+02  0.21442558552E+02  0.51149965903E+02  0.00000000000E+00 0.  1.
</event>
<event>
12    1  0.9656379E-001  0.7272522E+03  0.7818608E-02  0.9671730E-01
          2   -1    0    0  502    0  0.00000000000E+00  0.00000000000E+00  0.81644366021E+03  0.81644366021E+03  0.00000000000E+00 0. -1.
         -2   -1    0    0    0  501 -0.00000000000E+00 -0.00000000000E+00 -0.14670321558E+04  0.14670321558E+04  0.00000000000E+00 0.  1.
          6    2    1    2  502    0 -0.27100144185E+03 -0.65221071410E+03 -0.11785420866E+04  0.13850044575E+04  0.17451447006E+03 0.  0.
         24    2    3    3    0    0 -0.23212300511E+03 -0.54583650614E+03 -0.86694033179E+03  0.10534252836E+04  0.79377000758E+02 0.  0.
         -6    2    1    2    0  501  0.27100144185E+03  0.65221071410E+03  0.52795359099E+03  0.89847135855E+03  0.17232292599E+03 0.  0.
        -24    2    5    5    0    0  0.88729583779E+02  0.38693190286E+03  0.28211197334E+03  0.49343300369E+03  0.79370820458E+02 0.  0.
          5    1    3    3  502    0 -0.38878436742E+02 -0.10637420796E+03 -0.31160175483E+03  0.33157917392E+03  0.47000000000E+01 0. -1.
        -11    1    4    4    0    0 -0.13769358246E+03 -0.38525273159E+03 -0.54500925208E+03  0.68147947489E+03  0.00000000000E+00 0.  1.
         12    1    4    4    0    0 -0.94429422650E+02 -0.16058377455E+03 -0.32193107971E+03  0.37194580868E+03  0.00000000000E+00 0. -1.
         -5    1    5    5    0  501  0.18227185807E+03  0.26527881124E+03  0.24584161765E+03  0.40503835486E+03  0.47000000000E+01 0.  1.
         11    1    6    6    0    0  0.68746867687E+02  0.20204026146E+03  0.11024575156E+03  0.24020933538E+03  0.00000000000E+00 0. -1.
        -12    1    6    6    0    0  0.19982716092E+02  0.18489164140E+03  0.17186622178E+03  0.25322366831E+03  0.00000000000E+00 0.  1.
</event>
<event>
12    1  0.9656379E-001  0.3316174E+03  0.7818608E-02  0.1070423E+00
         -2   -1    0    0    0  501 -0.00000000000E+00  0.00000000000E+00  0.60169304005E+03  0.60169304005E+03  0.00000000000E+00 0.  1.
          2   -1    0    0  502    0  0.00000000000E+00 -0.00000000000E+00 -0.22676021288E+03  0.22676021288E+03  0.00000000000E+00 0. -1.
          6    2    1    2  502    0  0.28845681010E+02 -0.28103456853E+03  0.36921367162E+03  0.49526212087E+03  0.17074346556E+03 0.  0.
         24    2    3    3    0    0  0.54814260205E+02 -0.20065875552E+03  0.33868416944E+03  0.40532448177E+03  0.79450799906E+02 0.  0.
         -6    2    1    2    0  501 -0.28845681010E+02  0.28103456853E+03  0.57191555535E+01  0.33319113206E+03  0.17655344720E+03 0.  0.
        -24    2    5    5    0    0  0.28631843069E+02  0.58775445982E+02  0.69922304989E+01  0.10356862869E+03  0.80020210410E+02 0.  0.
          5    1    3    3  502    0 -0.25968579195E+02 -0.80375813009E+02  0.30529502176E+02  0.89937639091E+02  0.47000000000E+01 0. -1.
        -13    1    4    4    0    0  0.15654017447E+02 -0.14905054816E+03  0.18193081051E+03  0.23571154826E+03  0.00000000000E+00 0.  1.
         14    1    4    4    0    0  0.39160242758E+02 -0.51608207361E+02  0.15675335893E+03  0.16961293351E+03  0.00000000000E+00 0. -1.
         -5    1    5    5    0  501 -0.57477524079E+02  0.22225912255E+03 -0.12730749454E+01  0.22962250336E+03  0.47000000000E+01 0.  1.
         13    1    6    6    0    0 -0.94242876923E+01  0.55994587364E+02  0.24183098254E+02  0.61717365901E+02  0.00000000000E+00 0. -1.
        -14    1    6    6    0    0  0.38056130761E+02  0.27808586183E+01 -0.17190867755E+02  0.41851262792E+02  0.00000000000E+00 0.  1.
</event>
<event>
12    1  0.9656379E-001  0.4589840E+03  0.7818608E-02  0.1025076E+00
          2   -1    0    0  502    0  0.00000000000E+00  0.00000000000E+00  0.49830691312E+03  0.49830691312E+03  0.00000000000E+00 0. -1.
         -2   -1    0    0    0  501 -0.00000000000E+00 -0.00000000000E+00 -0.55718659568E+03  0.55718659568E+03  0.00000000000E+00 0.  1.
          6    2    1    2  502    0  0.33158017582E+03  0.26791059078E+03  0.22980979758E+03  0.51265185535E+03  0.16816029281E+03 0.  0.
         24    2    3    3    0    0  0.76623720286E+02  0.44091557443E+02  0.50010583583E+02  0.12866279137E+03  0.78979715520E+02 0.  0.
         -6    2    1    2    0  501 -0.33158017582E+03 -0.26791059078E+03 -0.28868948014E+03  0.54284165346E+03  0.17208703362E+03 0.  0.
        -24    2    5    5    0    0 -0.77749448253E+02 -0.64841862644E+02 -0.12318144111E+03  0.17803766830E+03  0.79210479393E+02 0.  0.
          5    1    3    3  502    0  0.25495645553E+03  0.22381903334E+03  0.17979921400E+03  0.38398906398E+03  0.47000000000E+01 0. -1.
        -11    1    4    4    0    0  0.70744462332E+02  0.60025136758E+02  0.21122767792E+02  0.95152337400E+02  0.00000000000E+00 0.  1.
         12    1    4    4    0    0  0.58792579545E+01 -0.15933579315E+02  0.28887815791E+02  0.33510453967E+02  0.00000000000E+00 0. -1.
         -5    1    5    5    0  501 -0.25383072757E+03 -0.20306872814E+03 -0.16550803902E+03  0.36480398516E+03  0.47000000000E+01 0.  1.
         13    1    6    6    0    0  0.12011781145E+02 -0.26273470810E+01  0.13853026944E+01  0.12373556583E+02  0.00000000000E+00 0. -1.
        -14    1    6    6    0    0 -0.89761229398E+02 -0.62214515563E+02 -0.12456674381E+03  0.16566411172E+03  0.00000000000E+00 0.  1.
</event>
<event>
12    1  0.9656379E-001  0.2740419E+03  0.7818608E-02  0.1098988E+00
          1   -1    0    0  502    0  0.00000000000E+00  0.00000000000E+00  0.13800002377E+04  0.13800002377E+04  0.00000000000E+00 0. -1.
         -1   -1    0    0    0  501 -0.00000000000E+00 -0.00000000000E+00 -0.58036228924E+02  0.58036228924E+02  0.00000000000E+00 0.  1.
          6    2    1    2  502    0  0.11050260001E+03  0.18238266627E+03  0.48246123937E+03  0.55507016667E+03  0.17279982891E+03 0.  0.
         24    2    3    3    0    0  0.69077490578E+02  0.87866959446E+02  0.39933754947E+03  0.42247719419E+03  0.80772513457E+02 0.  0.
         -6    2    1    2    0  501 -0.11050260001E+03 -0.18238266627E+03  0.83950276938E+03  0.88296629992E+03  0.17143606807E+03 0.  0.
        -24    2    5    5    0    0 -0.10379107153E+03 -0.11719653105E+03  0.37692590191E+03  0.41574715952E+03  0.79151447862E+02 0.  0.
          5    1    3    3  502    0  0.41425109431E+02  0.94515706828E+02  0.83123689897E+02  0.13259297248E+03  0.47000000000E+01 0. -1.
        -13    1    4    4    0    0  0.61014725988E+02  0.65267786011E+02  0.17148168331E+03  0.19336144494E+03  0.00000000000E+00 0.  1.
         14    1    4    4    0    0  0.80627645897E+01  0.22599173434E+02  0.22785586616E+03  0.22911574925E+03  0.00000000000E+00 0. -1.
         -5    1    5    5    0  501 -0.67115284812E+01 -0.65186135219E+02  0.46257686747E+03  0.46721914041E+03  0.47000000000E+01 0.  1.
         11    1    6    6    0    0 -0.13865108583E+02 -0.61534440731E+02  0.19905442331E+03  0.20880946356E+03  0.00000000000E+00 0. -1.
        -12    1    6    6    0    0 -0.89925962945E+02 -0.55662090324E+02  0.17787147859E+03  0.20693769596E+03  0.00000000000E+00 0.  1.
</event>
<event>
12    1  0.9656379E-001  0.3270490E+03  0.7818608E-02  0.1072450E+00
          2   -1    0    0  502    0  0.00000000000E+00  0.00000000000E+00  0.32422408124E+04  0.32422408124E+04  0.00000000000E+00 0. -1.
         -2   -1    0    0    0  501 -0.00000000000E+00 -0.00000000000E+00 -0.37858968133E+02  0.37858968133E+02  0.00000000000E+00 0.  1.
          6    2    1    2  502    0 -0.62107760397E+02  0.27024629733E+03  0.10214960418E+04  0.10731056751E+04  0.17666689407E+03 0.  0.
         24    2    3    3    0    0 -0.66680217912E+02  0.25759278436E+03  0.72469903479E+03  0.77596669733E+03  0.78328349429E+02 0.  0.
         -6    2    1    2    0  501  0.62107760397E+02 -0.27024629733E+03  0.21828858026E+04  0.22069941055E+04  0.17012383592E+03 0.  0.
        -24    2    5    5    0    0  0.96918974958E+02 -0.21592259582E+03  0.19076051717E+04  0.19242143308E+04  0.87335244740E+02 0.  0.
          5    1    3    3  502    0  0.45724575149E+01  0.12653512966E+02  0.29679700697E+03  0.29713897776E+03  0.47000000000E+01 0. -1.
        -11    1    4    4    0    0 -0.17544600867E+02  0.91837264486E+02  0.36635644450E+03  0.37809911477E+03  0.00000000000E+00 0.  1.
         12    1    4    4    0    0 -0.49135617045E+02  0.16575551988E+03  0.35834259029E+03  0.39786758255E+03  0.00000000000E+00 0. -1.
         -5    1    5    5    0  501 -0.34811214561E+02 -0.54323701511E+02  0.27528063089E+03  0.28277977464E+03  0.47000000000E+01 0.  1.
         11    1    6    6    0    0  0.10186338465E+03 -0.13759186972E+03  0.14287124868E+04  0.14389326049E+04  0.00000000000E+00 0. -1.
        -12    1    6    6    0    0 -0.49444096898E+01 -0.78330726102E+02  0.47889268491E+03  0.48528172591E+03  0.00000000000E+00 0.  1.
</event>
<event>
12    1  0.9656379E-001  0.2084371E+03  0.7818608E-02  0.1142810E+00
          3   -1    0    0  502    0  0.00000000000E+00  0.00000000000E+00  0.33729957988E+03  0.33729957988E+03  0.00000000000E+00 0. -1.
         -3   -1    0    0    0  501 -0.00000000000E+00 -0.00000000000E+00 -0.49318600067E+03  0.49318600067E+03  0.00000000000E+00 0.  1.
          6    2    1    2  502    0 -0.76026882523E+00 -0.11858114968E+03 -0.43488199736E+03  0.48232449016E+03  0.17161729259E+03 0.  0.
         24    2    3    3    0    0 -0.16968401808E+02 -0.65366456834E+00 -0.25052515466E+03  0.26282703968E+03  0.77632761964E+02 0.  0.
         -6    2    1    2    0  501  0.76026882523E+00  0.11858114968E+03  0.27899557657E+03  0.34816109039E+03  0.17121783214E+03 0.  0.
        -24    2    5    5    0    0 -0.33160483045E+02  0.14212927242E+02  0.74197892160E+02  0.11576589938E+03  0.81208320519E+02 0.  0.
          5    1    3    3  502    0  0.16208132983E+02 -0.11792748511E+03 -0.18435684270E+03  0.21949745048E+03  0.47000000000E+01 0. -1.
        -11    1    4    4    0    0 -0.45181504660E+01 -0.10874910346E+02 -0.24574120816E+03  0.24602320774E+03  0.00000000000E+00 0.  1.
         12    1    4    4    0    0 -0.12450251342E+02  0.10221245778E+02 -0.47839465047E+01  0.16803831941E+02  0.00000000000E+00 0. -1.
         -5    1    5    5    0  501  0.33920751870E+02  0.10436822244E+03  0.20479768441E+03  0.23239519101E+03  0.47000000000E+01 0.  1.
         13    1    6    6    0    0 -0.29817011354E+02 -0.25411323608E+02  0.63456602040E+02  0.74575665442E+02  0.00000000000E+00 0. -1.
        -14    1    6    6    0    0 -0.33434716905E+01  0.39624250850E+02  0.10741290120E+02  0.41190233938E+02  0.00000000000E+00 0.  1.
</event>
<event>
12    1  0.1643930E+000  0.1534682E+04  0.7818608E-02  0.8861712E-01
         -2   -1    0    0    0  501 -0.00000000000E+00  0.00000000000E+00  0.12124188949E+04  0.12124188949E+04  0.00000000000E+00 0.  1.
          2   -1    0    0  502    0  0.00000000000E+00 -0.00000000000E+00 -0.21359132932E+04  0.21359132932E+04  0.00000000000E+00 0. -1.
          6    2    1    2  502    0  0.14122348652E+04  0.57548386659E+03  0.41917424465E+02  0.15352261719E+04  0.17196898855E+03 0.  0.
         24    2    3    3    0    0  0.13149734456E+04  0.51711505011E+03  0.71950764055E+00  0.14144534065E+04  0.64146582117E+02 0.  0.
         -6    2    1    2    0  501 -0.14122348652E+04 -0.57548386659E+03 -0.96541182274E+03  0.18131060163E+04  0.17246577478E+03 0.  0.
        -24    2    5    5    0    0 -0.81840739867E+03 -0.28192228865E+03 -0.60271788277E+03  0.10578719836E+04  0.80953321978E+02 0.  0.
          5    1    3    3  502    0  0.97261419658E+02  0.58368816476E+02  0.41197916824E+02  0.12077276531E+03  0.47000000000E+01 0. -1.
        -11    1    4    4    0    0  0.65491289701E+03  0.28702362520E+03 -0.16248824950E+02  0.71523247158E+03  0.00000000000E+00 0.  1.
         12    1    4    4    0    0  0.66006054856E+03  0.23009142491E+03  0.16968332591E+02  0.69922093496E+03  0.00000000000E+00 0. -1.
         -5    1    5    5    0  501 -0.59382746655E+03 -0.29356157794E+03 -0.36269393997E+03  0.75523403271E+03  0.47000000000E+01 0.  1.
         13    1    6    6    0    0 -0.55045742518E+03 -0.19721266795E+03 -0.36087630882E+03  0.68711565519E+03  0.00000000000E+00 0. -1.
        -14    1    6    6    0    0 -0.26794997349E+03 -0.84709620699E+02 -0.24184157395E+03  0.37075632837E+03  0.00000000000E+00 0.  1.
</event>
<event>
12    1  0.1167462E+000  0.9208764E+03  0.7818608E-02  0.9399855E-01
          2   -1    0    0  502    0  0.00000000000E+00  0.00000000000E+00  0.22364197128E+04  0.22364197128E+04  0.00000000000E+00 0. -1.
         -2   -1    0    0    0  501 -0.00000000000E+00 -0.00000000000E+00 -0.37948984612E+03  0.37948984612E+03  0.00000000000E+00 0.  1.
          6    2    1    2  502    0 -0.22994123920E+03 -0.87506735264E+03  0.96581504812E+03  0.13345996752E+04  0.17245793928E+03 0.  0.
         24    2    3    3    0    0 -0.29187225946E+02 -0.30897809357E+03  0.33018850515E+03  0.46006985001E+03  0.79501330144E+02 0.  0.
         -6    2    1    2    0  501  0.22994123920E+03  0.87506735264E+03  0.89111481855E+03  0.12813098837E+04  0.17045102822E+03 0.  0.
        -24    2    5    5    0    0  0.16704371925E+03  0.74126399668E+03  0.80645577604E+03  0.11108731518E+04  0.79324169287E+02 0.  0.
          5    1    3    3  502    0 -0.20075401325E+03 -0.56608925907E+03  0.63562654298E+03  0.87452982523E+03  0.47000000000E+01 0. -1.
        -13    1    4    4    0    0 -0.56731108732E+02 -0.19992628128E+03  0.21907575633E+03  0.30196543454E+03  0.00000000000E+00 0.  1.
         14    1    4    4    0    0  0.27543882786E+02 -0.10905181229E+03  0.11111274882E+03  0.15810441547E+03  0.00000000000E+00 0. -1.
         -5    1    5    5    0  501  0.62897519951E+02  0.13380335597E+03  0.84659042502E+02  0.17043673184E+03  0.47000000000E+01 0.  1.
         13    1    6    6    0    0  0.15193645394E+03  0.51045074849E+03  0.55431294896E+03  0.76870507872E+03  0.00000000000E+00 0. -1.
        -14    1    6    6    0    0  0.15107265304E+02  0.23081324819E+03  0.25214282709E+03  0.34216807311E+03  0.00000000000E+00 0.  1.
</event>
<event>
12    1  0.9656379E-001  0.4020148E+03  0.7818608E-02  0.1043084E+00
          1   -1    0    0  502    0  0.00000000000E+00  0.00000000000E+00  0.61779310436E+03  0.61779310436E+03  0.00000000000E+00 0. -1.
         -1   -1    0    0    0  501 -0.00000000000E+00 -0.00000000000E+00 -0.27495169201E+03  0.27495169201E+03  0.00000000000E+00 0.  1.
          6    2    1    2  502    0  0.34545780784E+03 -0.11138464732E+03  0.73152104325E+02  0.40882932175E+03  0.17332786072E+03 0.  0.
         24    2    3    3    0    0  0.35172730070E+03 -0.86050710354E+02  0.83622414474E+02  0.38031910784E+03  0.80827574348E+02 0.  0.
         -6    2    1    2    0  501 -0.34545780784E+03  0.11138464732E+03  0.26968930802E+03  0.48391547462E+03  0.17232012958E+03 0.  0.
        -24    2    5    5    0    0 -0.11572904346E+03 -0.11295235794E+02  0.79736939412E+02  0.16153425425E+03  0.78832366057E+02 0.  0.
          5    1    3    3  502    0 -0.62694928556E+01 -0.25333936971E+02 -0.10470310149E+02  0.28510213919E+02  0.47000000000E+01 0. -1.
        -13    1    4    4    0    0  0.20371901218E+03 -0.11164411268E+02  0.31459702201E+02  0.20643592920E+03  0.00000000000E+00 0.  1.
         14    1    4    4    0    0  0.14800828851E+03 -0.74886299085E+02  0.52162712274E+02  0.17388317863E+03  0.00000000000E+00 0. -1.
         -5    1    5    5    0  501 -0.22972876438E+03  0.12267988312E+03  0.18995236861E+03  0.32238122037E+03  0.47000000000E+01 0.  1.
         13    1    6    6    0    0 -0.52643852953E+01 -0.87577290587E+01  0.44350443767E+02  0.45512343745E+02  0.00000000000E+00 0. -1.
        -14    1    6    6    0    0 -0.11046465816E+03 -0.25375067358E+01  0.35386495645E+02  0.11602191051E+03  0.00000000000E+00 0.  1.
</event>
<event>
12    1  0.1776192E+000  0.8290477E+03  0.7818608E-02  0.9518898E-01
         -2   -1    0    0    0  501 -0.00000000000E+00  0.00000000000E+00  0.71565892318E+03  0.71565892318E+03  0.00000000000E+00 0.  1.
          2   -1    0    0  502    0  0.00000000000E+00 -0.00000000000E+00 -0.21965325983E+04  0.21965325983E+04  0.00000000000E+00 0. -1.
          6    2    1    2  502    0  0.43218140153E+03  0.68611526151E+03  0.35191821430E+03  0.90058558328E+03  0.17225866405E+03 0.  0.
         24    2    3    3    0    0  0.41389607098E+03  0.69164483485E+03  0.34361983427E+03  0.87923417569E+03  0.72770942344E+02 0.  0.
         -6    2    1    2    0  501 -0.43218140153E+03 -0.68611526151E+03 -0.18327918895E+04  0.20116059382E+04  0.17290871810E+03 0.  0.
        -24    2    5    5    0    0 -0.36481912296E+03 -0.64894445998E+03 -0.17069915776E+04  0.18640689818E+04  0.81920804371E+02 0.  0.
          5    1    3    3  502    0  0.18285330550E+02 -0.55295733421E+01  0.82983800297E+01  0.21351407584E+02  0.47000000000E+01 0. -1.
        -11    1    4    4    0    0  0.27718108741E+03  0.40018955742E+03  0.22298022761E+03  0.53544487951E+03  0.00000000000E+00 0.  1.
         12    1    4    4    0    0  0.13671498357E+03  0.29145527743E+03  0.12063960665E+03  0.34378929618E+03  0.00000000000E+00 0. -1.
         -5    1    5    5    0  501 -0.67362278574E+02 -0.37170801536E+02 -0.12580031186E+03  0.14753695647E+03  0.47000000000E+01 0.  1.
         11    1    6    6    0    0 -0.15291864559E+03 -0.20080040307E+03 -0.61825366080E+03  0.66778926551E+03  0.00000000000E+00 0. -1.
        -12    1    6    6    0    0 -0.21190047737E+03 -0.44814405690E+03 -0.10887379168E+04  0.11962797163E+04  0.00000000000E+00 0.  1.
</event>
<event>
12    1  0.1058964E+000  0.9465217E+03  0.7818608E-02  0.9369225E-01
          2   -1    0    0  502    0  0.00000000000E+00  0.00000000000E+00  0.26493775026E+04  0.26493775026E+04  0.00000000000E+00 0. -1.
         -2   -1    0    0    0  501 -0.00000000000E+00 -0.00000000000E+00 -0.33903482113E+03  0.33903482113E+03  0.00000000000E+00 0.  1.
          6    2    1    2  502    0  0.74802743936E+03  0.55414796001E+03  0.10791717868E+04  0.14354868426E+04  0.17142263057E+03 0.  0.
         24    2    3    3    0    0  0.66968295524E+03  0.52164847142E+03  0.10307637232E+04  0.13377141185E+04  0.80080094779E+02 0.  0.
         -6    2    1    2    0  501 -0.74802743936E+03 -0.55414796001E+03  0.12311708947E+04  0.15529254811E+04  0.17079451510E+03 0.  0.
        -24    2    5    5    0    0 -0.54633121580E+03 -0.35665630808E+03  0.94274903783E+03  0.11493247171E+04  0.80560769861E+02 0.  0.
          5    1    3    3  502    0  0.78344484125E+02  0.32499488590E+02  0.48408063560E+02  0.97772724054E+02  0.47000000000E+01 0. -1.
        -13    1    4    4    0    0  0.29795704852E+03  0.28279795749E+03  0.49507400055E+03  0.64331279604E+03  0.00000000000E+00 0.  1.
         14    1    4    4    0    0  0.37172590672E+03  0.23885051393E+03  0.53568972264E+03  0.69440132249E+03  0.00000000000E+00 0. -1.
         -5    1    5    5    0  501 -0.20169622356E+03 -0.19749165193E+03  0.28842185685E+03  0.40360076399E+03  0.47000000000E+01 0.  1.
         11    1    6    6    0    0 -0.39661103455E+03 -0.26060838379E+03  0.61971657461E+03  0.78055472279E+03  0.00000000000E+00 0. -1.
        -12    1    6    6    0    0 -0.14972018125E+03 -0.96047924290E+02  0.32303246322E+03  0.36876999434E+03  0.00000000000E+00 0.  1.
</event>
<event>
12    1  0.9656379E-001  0.3470399E+03  0.7818608E-02  0.1063837E+00
          2   -1    0    0  502    0  0.00000000000E+00  0.00000000000E+00  0.17585465214E+04  0.17585465214E+04  0.00000000000E+00 0. -1.
         -2   -1    0    0    0  501 -0.00000000000E+00 -0.00000000000E+00 -0.17491103541E+03  0.17491103541E+03  0.00000000000E+00 0.  1.
          6    2    1    2  502    0 -0.12863610029E+03 -0.27272366499E+03  0.37621935512E+02  0.34894336424E+03  0.17152439381E+03 0.  0.
         24    2    3    3    0    0 -0.65182492266E+02 -0.14967466578E+03 -0.45186620415E+02  0.18755326692E+03  0.80517913496E+02 0.  0.
         -6    2    1    2    0  501  0.12863610029E+03  0.27272366499E+03  0.15460135505E+04  0.15845141925E+04  0.17205198180E+03 0.  0.
        -24    2    5    5    0    0  0.12738381212E+02  0.14047368580E+03  0.54171781712E+03  0.56492881197E+03  0.76100239496E+02 0.  0.
          5    1    3    3  502    0 -0.63453608028E+02 -0.12304899920E+03  0.82808555927E+02  0.16139009731E+03  0.47000000000E+01 0. -1.
        -11    1    4    4    0    0 -0.89315062946E+01 -0.86885993875E+02  0.82667176671E+01  0.87734180097E+02  0.00000000000E+00 0.  1.
         12    1    4    4    0    0 -0.56250985971E+02 -0.62788671909E+02 -0.53453338082E+02  0.99819086827E+02  0.00000000000E+00 0. -1.
         -5    1    5    5    0  501  0.11589771908E+03  0.13224997918E+03  0.10042957333E+04  0.10195853806E+04  0.47000000000E+01 0.  1.
         11    1    6    6    0    0  0.38987115946E+02  0.10017203665E+03  0.30535525315E+03  0.32372250889E+03  0.00000000000E+00 0. -1.
        -12    1    6    6    0    0 -0.26248734734E+02  0.40301649157E+02  0.23636256397E+03  0.24120630308E+03  0.00000000000E+00 0.  1.
</event>
<event>
12    1  0.9656379E-001  0.6798411E+03  0.7818608E-02  0.9752341E-01
          2   -1    0    0  502    0  0.00000000000E+00  0.00000000000E+00  0.24587320905E+04  0.24587320905E+04  0.00000000000E+00 0. -1.
         -2   -1    0    0    0  501 -0.00000000000E+00 -0.00000000000E+00 -0.19719446639E+03  0.19719446639E+03  0.00000000000E+00 0.  1.
          6    2    1    2  502    0  0.62523783057E+03 -0.20447261461E+03  0.84387952051E+03  0.10837480721E+04  0.17217968449E+03 0.  0.
         24    2    3    3    0    0  0.27292571195E+03 -0.11828074378E+03  0.47743245884E+03  0.56813348103E+03  0.79719012275E+02 0.  0.
         -6    2    1    2    0  501 -0.62523783057E+03  0.20447261461E+03  0.14176581035E+04  0.15721784847E+04  0.17105348415E+03 0.  0.
        -24    2    5    5    0    0 -0.26002290382E+03  0.48936086079E+02  0.48041743319E+03  0.55432991123E+03  0.80461725945E+02 0.  0.
          5    1    3    3  502    0  0.35231211861E+03 -0.86191870824E+02  0.36644706167E+03  0.51561459107E+03  0.47000000000E+01 0. -1.
        -13    1    4    4    0    0  0.24052030740E+03 -0.86173956807E+02  0.35421426977E+03  0.43674216422E+03  0.00000000000E+00 0.  1.
         14    1    4    4    0    0  0.32405404557E+02 -0.32106786978E+02  0.12321818907E+03  0.13139131681E+03  0.00000000000E+00 0. -1.
         -5    1    5    5    0  501 -0.36521492674E+03  0.15553652853E+03  0.93724067036E+03  0.10178485735E+04  0.47000000000E+01 0.  1.
         11    1    6    6    0    0 -0.19961289231E+03  0.60247689861E+02  0.41580933885E+03  0.46515857209E+03  0.00000000000E+00 0. -1.
        -12    1    6    6    0    0 -0.60410011511E+02 -0.11311603783E+02  0.64608094335E+02  0.89171339142E+02  0.00000000000E+00 0.  1.
</event>
<event>
12    1  0.9656379E-001  0.4651990E+03  0.7818608E-02  0.1023284E+00
         -2   -1    0    0    0  501 -0.00000000000E+00  0.00000000000E+00  0.29665248154E+03  0.29665248154E+03  0.00000000000E+00 0.  1.
          2   -1    0    0  502    0  0.00000000000E+00 -0.00000000000E+00 -0.11787700478E+04  0.11787700478E+04  0.00000000000E+00 0. -1.
          6    2    1    2  502    0 -0.31735503908E+03  0.29176674202E+03  0.14829029046E+02  0.46465451080E+03  0.17274797171E+03 0.  0.
         24    2    3    3    0    0 -0.33162812339E+03  0.26190138236E+03  0.18425535661E+02  0.43102884347E+03  0.82926577386E+02 0.  0.
         -6    2    1    2    0  501  0.31735503908E+03 -0.29176674202E+03 -0.89694659529E+03  0.10107680185E+04  0.17690884633E+03 0.  0.
        -24    2    5    5    0    0  0.19933439652E+03 -0.16350781175E+03 -0.38823899712E+03  0.47300902446E+03  0.80864158952E+02 0.  0.
          5    1    3    3  502    0  0.14273084313E+02  0.29865359660E+02 -0.35965066146E+01  0.33625667328E+02  0.47000000000E+01 0. -1.
        -11    1    4    4    0    0 -0.18822523540E+03  0.13203497126E+03  0.49217661956E+02  0.23512624508E+03  0.00000000000E+00 0.  1.
         12    1    4    4    0    0 -0.14340288799E+03  0.12986641110E+03 -0.30792126296E+02  0.19590259839E+03  0.00000000000E+00 0. -1.
         -5    1    5    5    0  501  0.11802064256E+03 -0.12825893027E+03 -0.50870759817E+03  0.53775899407E+03  0.47000000000E+01 0.  1.
         13    1    6    6    0    0  0.16876970768E+03 -0.16754149643E+03 -0.35827755828E+03  0.43001880892E+03  0.00000000000E+00 0. -1.
        -14    1    6    6    0    0  0.30564688833E+02  0.40336846733E+01 -0.29961438839E+02  0.42990215548E+02  0.00000000000E+00 0.  1.
</event>
<event>
12    1  0.9656379E-001  0.4775921E+03  0.7818608E-02  0.1019799E+00
         -1   -1    0    0    0  501 -0.00000000000E+00  0.00000000000E+00  0.84248361802E+02  0.84248361802E+02  0.00000000000E+00 0.  1.
          1   -1    0    0  502    0  0.00000000000E+00 -0.00000000000E+00 -0.27138370426E+04  0.27138370426E+04  0.00000000000E+00 0. -1.
          6    2    1    2  502    0 -0.43759004359E+03 -0.83764722674E+02 -0.13825838824E+04  0.14627084161E+04  0.17168617755E+03 0.  0.
         24    2    3    3    0    0 -0.19979837605E+03  0.17626893079E+02 -0.71274291544E+03  0.74470134932E+03  0.79671436083E+02 0.  0.
         -6    2    1    2    0  501  0.43759004359E+03  0.83764722674E+02 -0.12470047984E+04  0.13353769883E+04  0.17236344944E+03 0.  0.
        -24    2    5    5    0    0  0.41932975133E+03  0.39432948659E+02 -0.11420371516E+04  0.12198822207E+04  0.80444882377E+02 0.  0.
          5    1    3    3  502    0 -0.23779166755E+03 -0.10139161575E+03 -0.66984096694E+03  0.71800706674E+03  0.47000000000E+01 0. -1.
        -13    1    4    4    0    0 -0.40056154810E+02  0.33518558032E+02 -0.12605064307E+03  0.13644322588E+03  0.00000000000E+00 0.  1.
         14    1    4    4    0    0 -0.15974222124E+03 -0.15891664953E+02 -0.58669227237E+03  0.60825812343E+03  0.00000000000E+00 0. -1.
         -5    1    5    5    0  501  0.18260292265E+02  0.44331774015E+02 -0.10496764681E+03  0.11549476757E+03  0.47000000000E+01 0.  1.
         11    1    6    6    0    0  0.36036349323E+03  0.31481177619E+02 -0.88553494182E+03  0.95656941462E+03  0.00000000000E+00 0. -1.
        -12    1    6    6    0    0  0.58966258096E+02  0.79517710396E+01 -0.25650220974E+03  0.26331280610E+03  0.00000000000E+00 0.  1.
</event>
<event>
12    1  0.9656379E-001  0.2378351E+03  0.7818608E-02  0.1121243E+00
          2   -1    0    0  502    0  0.00000000000E+00  0.00000000000E+00  0.21066803004E+04  0.21066803004E+04  0.00000000000E+00 0. -1.
         -2   -1    0    0    0  501 -0.00000000000E+00 -0.00000000000E+00 -0.22969652370E+03  0.22969652370E+03  0.00000000000E+00 0.  1.
          6    2    1    2  502    0 -0.16266552066E+03  0.21763671542E+02 -0.15877715599E+03  0.28689942343E+03  0.17368754962E+03 0.  0.
         24    2    3    3    0    0 -0.13912747933E+03  0.19291046869E+02 -0.41052143756E+02  0.16672695667E+03  0.79899934799E+02 0.  0.
         -6    2    1    2    0  501  0.16266552066E+03 -0.21763671542E+02  0.20357609326E+04  0.20494774006E+04  0.17059106581E+03 0.  0.
        -24    2    5    5    0    0  0.66317935901E+02 -0.32011450791E+02  0.15718823225E+04  0.15755646143E+04  0.78530353908E+02 0.  0.
          5    1    3    3  502    0 -0.23538041330E+02  0.24726246727E+01 -0.11772501223E+03  0.12017246676E+03  0.47000000000E+01 0. -1.
        -11    1    4    4    0    0 -0.62171578736E+02  0.40446416331E+02 -0.45113859483E+02  0.86812891404E+02  0.00000000000E+00 0.  1.
         12    1    4    4    0    0 -0.76955900594E+02 -0.21155369462E+02  0.40617157278E+01  0.79914065270E+02  0.00000000000E+00 0. -1.
         -5    1    5    5    0  501  0.96347584759E+02  0.10247779250E+02  0.46387861012E+03  0.47391278628E+03  0.47000000000E+01 0.  1.
         11    1    6    6    0    0  0.73442863468E+02 -0.11987367649E+02  0.81668024657E+03  0.82006351968E+03  0.00000000000E+00 0. -1.
        -12    1    6    6    0    0 -0.71249275674E+01 -0.20024083142E+02  0.75520207596E+03  0.75550109466E+03  0.00000000000E+00 0.  1.
</event>
<event>
12    1  0.9656379E-001  0.1935485E+03  0.7818608E-02  0.1155299E+00
         -2   -1    0    0    0  501 -0.00000000000E+00  0.00000000000E+00  0.76364387509E+02  0.76364387509E+02  0.00000000000E+00 0.  1.
          2   -1    0    0  502    0  0.00000000000E+00 -0.00000000000E+00 -0.23076741090E+04  0.23076741090E+04  0.00000000000E+00 0. -1.
          6    2    1    2  502    0 -0.59334195058E+02  0.63934611888E+02 -0.57149377151E+02  0.20122586900E+03  0.17209769825E+03 0.  0.
         24    2    3    3    0    0 -0.44985894946E+02  0.11624248193E+02  0.31952596462E+02  0.96806045362E+02  0.78686645041E+02 0.  0.
         -6    2    1    2    0  501  0.59334195058E+02 -0.63934611888E+02 -0.21741603443E+04  0.21828126275E+04  0.17346349077E+03 0.  0.
        -24    2    5    5    0    0  0.33259760951E+02 -0.99917789910E+02 -0.11572043398E+04  0.11648753650E+04  0.81993631014E+02 0.  0.
          5    1    3    3  502    0 -0.14348300112E+02  0.52310363695E+02 -0.89101973613E+02  0.10441982363E+03  0.47000000000E+01 0. -1.
        -11    1    4    4    0    0 -0.16835741922E+02  0.30144697159E+02  0.48285379608E+02  0.59360111664E+02  0.00000000000E+00 0.  1.
         12    1    4    4    0    0 -0.28150153025E+02 -0.18520448966E+02 -0.16332783146E+02  0.37445933698E+02  0.00000000000E+00 0. -1.
         -5    1    5    5    0  501  0.26074434107E+02  0.35983178021E+02 -0.10169560045E+04  0.10179372624E+04  0.47000000000E+01 0.  1.
         11    1    6    6    0    0  0.58070724308E+02 -0.60905575730E+02 -0.85844103895E+03  0.86255592023E+03  0.00000000000E+00 0. -1.
        -12    1    6    6    0    0 -0.24810963357E+02 -0.39012214179E+02 -0.29876330088E+03  0.30231944481E+03  0.00000000000E+00 0.  1.
</event>
<event>
12    1  0.9656379E-001  0.1170907E+04  0.7818608E-02  0.9138709E-01
         -3   -1    0    0    0  501 -0.00000000000E+00  0.00000000000E+00  0.27338985588E+04  0.27338985588E+04  0.00000000000E+00 0.  1.
          3   -1    0    0  502    0  0.00000000000E+00 -0.00000000000E+00 -0.55787506773E+03  0.55787506773E+03  0.00000000000E+00 0. -1.
          6    2    1    2  502    0 -0.11553082859E+04  0.76205115835E+02  0.16110371912E+04  0.19914385214E+04  0.17274865528E+03 0.  0.
         24    2    3    3    0    0 -0.50665046793E+03  0.90020585250E+02  0.67565331805E+03  0.85305681381E+03  0.80000743571E+02 0.  0.
         -6    2    1    2    0  501  0.11553082859E+04 -0.76205115835E+02  0.56498629995E+03  0.13003351052E+04  0.17640127964E+03 0.  0.
        -24    2    5    5    0    0  0.85814451176E+03  0.64588785448E+01  0.43663461975E+03  0.96621553311E+03  0.80429752389E+02 0.  0.
          5    1    3    3  502    0 -0.64865781800E+03 -0.13815469414E+02  0.93538387311E+03  0.11383817076E+04  0.47000000000E+01 0. -1.
        -13    1    4    4    0    0 -0.31388456127E+03  0.25690996356E+02  0.36822675634E+03  0.48453533326E+03  0.00000000000E+00 0.  1.
         14    1    4    4    0    0 -0.19276590666E+03  0.64329588894E+02  0.30742656171E+03  0.36852148055E+03  0.00000000000E+00 0. -1.
         -5    1    5    5    0  501  0.29716377417E+03 -0.82663994380E+02  0.12835168020E+03  0.33411957210E+03  0.47000000000E+01 0.  1.
         13    1    6    6    0    0  0.35140379974E+03  0.35815583986E+02  0.20343659765E+03  0.40761971958E+03  0.00000000000E+00 0. -1.
        -14    1    6    6    0    0  0.50674071203E+03 -0.29356705441E+02  0.23319802211E+03  0.55859581353E+03  0.00000000000E+00 0.  1.
</event>
<event>
12    1  0.9656379E-001  0.2174620E+03  0.7818608E-02  0.1135789E+00
          1   -1    0    0  502    0  0.00000000000E+00  0.00000000000E+00  0.14236364809E+04  0.14236364809E+04  0.00000000000E+00 0. -1.
         -1   -1    0    0    0  501 -0.00000000000E+00 -0.00000000000E+00 -0.35588039343E+02  0.35588039343E+02  0.00000000000E+00 0.  1.
          6    2    1    2  502    0  0.89159684975E+01 -0.13315493333E+03  0.50500264986E+03  0.54973849983E+03  0.17139139730E+03 0.  0.
         24    2    3    3    0    0 -0.16942977148E+01 -0.41655879380E+02  0.39898942367E+03  0.40921964434E+03  0.80808874379E+02 0.  0.
         -6    2    1    2    0  501 -0.89159684975E+01  0.13315493333E+03  0.88304579167E+03  0.90948602038E+03  0.17200354741E+03 0.  0.
        -24    2    5    5    0    0 -0.63510900155E+02  0.11078933154E+03  0.50690284545E+03  0.52871518024E+03  0.79254884250E+02 0.  0.
          5    1    3    3  502    0  0.10610266212E+02 -0.91499053947E+02  0.10601322618E+03  0.14051885549E+03  0.47000000000E+01 0. -1.
        -13    1    4    4    0    0 -0.21572007952E+02 -0.47846757896E+02  0.14201425110E+03  0.15140248111E+03  0.00000000000E+00 0.  1.
         14    1    4    4    0    0  0.19877710237E+02  0.61908785154E+01  0.25697517257E+03  0.25781716323E+03  0.00000000000E+00 0. -1.
         -5    1    5    5    0  501  0.54594931658E+02  0.22365601787E+02  0.37614294622E+03  0.38077084014E+03  0.47000000000E+01 0.  1.
         13    1    6    6    0    0 -0.94152435057E+01  0.61622729072E+02  0.12278251911E+03  0.13770096059E+03  0.00000000000E+00 0. -1.
        -14    1    6    6    0    0 -0.54095656649E+02  0.49166602468E+02  0.38412032634E+03  0.39101421965E+03  0.00000000000E+00 0.  1.
</event>
<event>
12    1  0.9656379E-001  0.5334397E+03  0.7818608E-02  0.1005401E+00
         -1   -1    0    0    0  501 -0.00000000000E+00  0.00000000000E+00  0.12821384298E+04  0.12821384298E+04  0.00000000000E+00 0.  1.
          1   -1    0    0  502    0  0.00000000000E+00 -0.00000000000E+00 -0.53833205166E+03  0.53833205166E+03  0.00000000000E+00 0. -1.
          6    2    1    2  502    0  0.50067094951E+03 -0.63782079720E+02  0.10695875486E+04  0.11950257430E+04  0.17125842768E+03 0.  0.
         24    2    3    3    0    0  0.40536735582E+03 -0.71334334739E+02  0.71915753860E+03  0.83175849510E+03  0.72272735949E+02 0.  0.
         -6    2    1    2    0  501 -0.50067094951E+03  0.63782079720E+02 -0.32578117049E+03  0.62544473839E+03  0.17409249370E+03 0.  0.
        -24    2    5    5    0    0 -0.19662866408E+03  0.26880958894E+02 -0.72291809394E+02  0.22784902635E+03  0.85461427640E+02 0.  0.
          5    1    3    3  502    0  0.95303593684E+02  0.75522550190E+01  0.35043000998E+03  0.36326724793E+03  0.47000000000E+01 0. -1.
        -11    1    4    4    0    0  0.11174068940E+03 -0.17098993729E+02  0.26655796133E+03  0.28953670580E+03  0.00000000000E+00 0.  1.
         12    1    4    4    0    0  0.29362666642E+03 -0.54235341010E+02  0.45259957727E+03  0.54222178930E+03  0.00000000000E+00 0. -1.
         -5    1    5    5    0  501 -0.30404228543E+03  0.36901120825E+02 -0.25348936109E+03  0.39759571204E+03  0.47000000000E+01 0.  1.
         13    1    6    6    0    0 -0.27959020947E+02  0.22034056321E+02 -0.44256697557E+02  0.56796670403E+02  0.00000000000E+00 0. -1.
        -14    1    6    6    0    0 -0.16866964313E+03  0.48469025731E+01 -0.28035111838E+02  0.17105235595E+03  0.00000000000E+00 0.  1.
</event>
<event>
12    1  0.9810470E-001  0.3834326E+03  0.7818608E-02  0.1049672E+00
         -1   -1    0    0    0  501 -0.00000000000E+00  0.00000000000E+00  0.22334453072E+03  0.22334453072E+03  0.00000000000E+00 0.  1.
          1   -1    0    0  502    0  0.00000000000E+00 -0.00000000000E+00 -0.16932291264E+04  0.16932291264E+04  0.00000000000E+00 0. -1.
          6    2    1    2  502    0 -0.20057241252E+02  0.34232119341E+03  0.14557157141E+02  0.38331131947E+03  0.17067385396E+03 0.  0.
         24    2    3    3    0    0  0.57575987433E+01  0.29347531275E+03 -0.34021036017E+02  0.30959390720E+03  0.92358255428E+02 0.  0.
         -6    2    1    2    0  501  0.20057241252E+02 -0.34232119341E+03 -0.14844417528E+04  0.15332623376E+04  0.17245285192E+03 0.  0.
        -24    2    5    5    0    0 -0.13414389097E+02 -0.14622847886E+03 -0.45638139415E+03  0.48612199661E+03  0.80423285208E+02 0.  0.
          5    1    3    3  502    0 -0.25814839996E+02  0.48845880656E+02  0.48578193159E+02  0.73717412269E+02  0.47000000000E+01 0. -1.
        -11    1    4    4    0    0 -0.99863401576E+01  0.18589437262E+03  0.21695680906E+02  0.18742237681E+03  0.00000000000E+00 0.  1.
         12    1    4    4    0    0  0.15743938901E+02  0.10758094014E+03 -0.55716716923E+02  0.12217153039E+03  0.00000000000E+00 0. -1.
         -5    1    5    5    0  501  0.33471630350E+02 -0.19609271455E+03 -0.10280603586E+04  0.10471403410E+04  0.47000000000E+01 0.  1.
         11    1    6    6    0    0  0.18576474155E+02 -0.13012407844E+03 -0.36723713091E+03  0.39005188309E+03  0.00000000000E+00 0. -1.
        -12    1    6    6    0    0 -0.31990863252E+02 -0.16104400414E+02 -0.89144263232E+02  0.96070113518E+02  0.00000000000E+00 0.  1.
</event>
<event>
12    1  0.9656379E-001  0.3493244E+03  0.7818608E-02  0.1062893E+00
          2   -1    0    0  502    0  0.00000000000E+00  0.00000000000E+00  0.27746899432E+04  0.27746899432E+04  0.00000000000E+00 0. -1.
         -2   -1    0    0    0  501 -0.00000000000E+00 -0.00000000000E+00 -0.75148709542E+02  0.75148709542E+02  0.00000000000E+00 0.  1.
          6    2    1    2  502    0 -0.27449593770E+03 -0.13067437011E+03  0.43183629148E+03  0.55536964869E+03  0.17184019680E+03 0.  0.
         24    2    3    3    0    0 -0.10821488076E+03 -0.93667514712E+02  0.29271622867E+03  0.33538015095E+03  0.79454335260E+02 0.  0.
         -6    2    1    2    0  501  0.27449593770E+03  0.13067437011E+03  0.22677049422E+04  0.22944690040E+04  0.17227447562E+03 0.  0.
        -24    2    5    5    0    0  0.24778103248E+03  0.12609052258E+03  0.22246379519E+04  0.22433656434E+04  0.79881993935E+02 0.  0.
          5    1    3    3  502    0 -0.16628105694E+03 -0.37006855394E+02  0.13912006281E+03  0.21998949774E+03  0.47000000000E+01 0. -1.
        -11    1    4    4    0    0 -0.10447677930E+03 -0.47063905381E+02  0.23193775948E+03  0.25869969632E+03  0.00000000000E+00 0.  1.
         12    1    4    4    0    0 -0.37381014656E+01 -0.46603609331E+02  0.60778469194E+02  0.76680454634E+02  0.00000000000E+00 0. -1.
         -5    1    5    5    0  501  0.26714905218E+02  0.45838475286E+01  0.43066990251E+02  0.51103360635E+02  0.47000000000E+01 0.  1.
         13    1    6    6    0    0  0.21484363545E+03  0.77261862766E+02  0.16509877451E+04  0.16666996483E+04  0.00000000000E+00 0. -1.
        -14    1    6    6    0    0  0.32937397027E+02  0.48828659811E+02  0.57365020683E+03  0.57666599513E+03  0.00000000000E+00 0.  1.
</event>
<event>
12    1  0.9656379E-001  0.4454305E+03  0.7818608E-02  0.1029094E+00
         -2   -1    0    0    0  501 -0.00000000000E+00  0.00000000000E+00  0.87162067720E+02  0.87162067720E+02  0.00000000000E+00 0.  1.
          2   -1    0    0  502    0  0.00000000000E+00 -0.00000000000E+00 -0.25858690308E+04  0.25858690308E+04  0.00000000000E+00 0. -1.
          6    2    1    2  502    0  0.32684018595E+03 -0.24846314466E+03 -0.78780611653E+03  0.90518637946E+03  0.17368207421E+03 0.  0.
         24    2    3    3    0    0  0.33381341766E+03 -0.24329105785E+03 -0.79001931126E+03  0.89506883661E+03  0.79973579767E+02 0.  0.
         -6    2    1    2    0  501 -0.32684018595E+03  0.24846314466E+03 -0.17109008466E+04  0.17678447191E+04  0.17185692478E+03 0.  0.
        -24    2    5    5    0    0 -0.30069130147E+03  0.15484750427E+03 -0.13308382010E+04  0.13755216929E+04  0.80849255732E+02 0.  0.
          5    1    3    3  502    0 -0.69732317051E+01 -0.51720868120E+01  0.22131947310E+01  0.10117542850E+02  0.47000000000E+01 0. -1.
        -13    1    4    4    0    0  0.23996304608E+03 -0.20774555733E+03 -0.55176901307E+03  0.63654498966E+03  0.00000000000E+00 0.  1.
         14    1    4    4    0    0  0.93850371582E+02 -0.35545500514E+02 -0.23825029819E+03  0.25852384695E+03  0.00000000000E+00 0. -1.
         -5    1    5    5    0  501 -0.26148884479E+02  0.93615640385E+02 -0.38006264561E+03  0.39232302618E+03  0.47000000000E+01 0.  1.
         13    1    6    6    0    0 -0.18467945833E+03  0.12971893353E+03 -0.95893710265E+03  0.98513647323E+03  0.00000000000E+00 0. -1.
        -14    1    6    6    0    0 -0.11601184314E+03  0.25128570741E+02 -0.37190109834E+03  0.39038521970E+03  0.00000000000E+00 0.  1.
</event>
<event>
12    1  0.9656379E-001  0.8914715E+03  0.7818608E-02  0.9436306E-01
          1   -1    0    0  502    0  0.00000000000E+00  0.00000000000E+00  0.10358012798E+04  0.10358012798E+04  0.00000000000E+00 0. -1.
         -1   -1    0    0    0  501 -0.00000000000E+00 -0.00000000000E+00 -0.89716496412E+03  0.89716496412E+03  0.00000000000E+00 0.  1.
          6    2    1    2  502    0  0.50881715814E+03  0.71155258624E+03 -0.29844600053E+03  0.94026443582E+03  0.17269977024E+03 0.  0.
         24    2    3    3    0    0  0.32536004513E+03  0.34524636425E+03 -0.14263840053E+03  0.50193253099E+03  0.80847642888E+02 0.  0.
         -6    2    1    2    0  501 -0.50881715814E+03 -0.71155258624E+03  0.43708231625E+03  0.99270180814E+03  0.17092087439E+03 0.  0.
        -24    2    5    5    0    0 -0.21019099710E+03 -0.22713883212E+03  0.19234062285E+03  0.37322230426E+03  0.80793990375E+02 0.  0.
          5    1    3    3  502    0  0.18345711301E+03  0.36630622199E+03 -0.15580760000E+03  0.43833190483E+03  0.47000000000E+01 0. -1.
        -11    1    4    4    0    0  0.32055003564E+03  0.34768955962E+03 -0.13361561455E+03  0.49141986902E+03  0.00000000000E+00 0.  1.
         12    1    4    4    0    0  0.48100094948E+01 -0.24431953618E+01 -0.90227859793E+01  0.10512661972E+02  0.00000000000E+00 0. -1.
         -5    1    5    5    0  501 -0.29862616104E+03 -0.48441375412E+03  0.24474169340E+03  0.61947950388E+03  0.47000000000E+01 0.  1.
         13    1    6    6    0    0 -0.12452367312E+03 -0.18044311904E+03  0.10868062543E+03  0.24469847306E+03  0.00000000000E+00 0. -1.
        -14    1    6    6    0    0 -0.85667323973E+02 -0.46695713085E+02  0.83659997414E+02  0.12852383119E+03  0.00000000000E+00 0.  1.
</event>
<event>
12    1  0.9656379E-001  0.6124693E+03  0.7818608E-02  0.9879869E-01
          2   -1    0    0  502    0  0.00000000000E+00  0.00000000000E+00  0.17823562831E+04  0.17823562831E+04  0.00000000000E+00 0. -1.
         -2   -1    0    0    0  501 -0.00000000000E+00 -0.00000000000E+00 -0.10499225649E+04  0.10499225649E+04  0.00000000000E+00 0.  1.
          6    2    1    2  502    0  0.25438985552E+03  0.53000775972E+03 -0.90006010693E+03  0.10886643027E+04  0.17163724490E+03 0.  0.
         24    2    3    3    0    0  0.23701961011E+03  0.35354814350E+03 -0.60405761818E+03  0.74358563781E+03  0.82821551143E+02 0.  0.
         -6    2    1    2    0  501 -0.25438985552E+03 -0.53000775972E+03  0.16324938252E+04  0.17436145453E+04  0.17185217326E+03 0.  0.
        -24    2    5    5    0    0 -0.16444829743E+03 -0.46481676783E+03  0.13884600444E+04  0.14754468264E+04  0.77615543137E+02 0.  0.
          5    1    3    3  502    0  0.17370245404E+02  0.17645961622E+03 -0.29600248876E+03  0.34507866485E+03  0.47000000000E+01 0. -1.
        -13    1    4    4    0    0  0.13503553788E+03  0.12803508865E+03 -0.25409056663E+03  0.31494379890E+03  0.00000000000E+00 0.  1.
         14    1    4    4    0    0  0.10198407223E+03  0.22551305485E+03 -0.34996705154E+03  0.42864183891E+03  0.00000000000E+00 0. -1.
         -5    1    5    5    0  501 -0.89941558089E+02 -0.65190991884E+02  0.24403378078E+03  0.26816771889E+03  0.47000000000E+01 0.  1.
         11    1    6    6    0    0 -0.62155575700E+02 -0.24540285196E+03  0.80130895037E+03  0.84034630319E+03  0.00000000000E+00 0. -1.
        -12    1    6    6    0    0 -0.10229272173E+03 -0.21941391588E+03  0.58715109401E+03  0.63510052322E+03  0.00000000000E+00 0.  1.
</event>
<event>
12    1  0.9656379E-001  0.4298761E+03  0.7818608E-02  0.1033899E+00
          1   -1    0    0  502    0  0.00000000000E+00  0.00000000000E+00  0.10021699303E+04  0.10021699303E+04  0.00000000000E+00 0. -1.
         -1   -1    0    0    0  501 -0.00000000000E+00 -0.00000000000E+00 -0.41102877204E+03  0.41102877204E+03  0.00000000000E+00 0.  1.
          6    2    1    2  502    0  0.69438838536E+02 -0.38764536524E+03 -0.22913401893E+03  0.48708241618E+03  0.17220975592E+03 0.  0.
         24    2    3    3    0    0  0.10595780908E+03 -0.34437964986E+03 -0.17528816159E+03  0.40880710916E+03  0.81073499759E+02 0.  0.
         -6    2    1    2    0  501 -0.69438838536E+02  0.38764536524E+03  0.82027517719E+03  0.92611628615E+03  0.17247993409E+03 0.  0.
        -24    2    5    5    0    0 -0.58548823365E+02  0.39835415221E+03  0.75229439022E+03  0.85628256975E+03  0.71826140098E+02 0.  0.
          5    1    3    3  502    0 -0.36518970539E+02 -0.43265715377E+02 -0.53845857346E+02  0.78275307024E+02  0.47000000000E+01 0. -1.
        -11    1    4    4    0    0  0.94315568106E+02 -0.16885854040E+03 -0.91985725254E+02  0.21417284306E+03  0.00000000000E+00 0.  1.
         12    1    4    4    0    0  0.11642240969E+02 -0.17552110946E+03 -0.83302436334E+02  0.19463426610E+03  0.00000000000E+00 0. -1.
         -5    1    5    5    0  501 -0.10890015172E+02 -0.10708786970E+02  0.67980786969E+02  0.69833716396E+02  0.47000000000E+01 0.  1.
         13    1    6    6    0    0 -0.47956300679E+02  0.14978058339E+03  0.34234792753E+03  0.37674412194E+03  0.00000000000E+00 0. -1.
        -14    1    6    6    0    0 -0.10592522686E+02  0.24857356882E+03  0.40994646269E+03  0.47953844781E+03  0.00000000000E+00 0.  1.
</event>
<event>
12    1  0.9656379E-001  0.3877784E+03  0.7818608E-02  0.1048096E+00
         -2   -1    0    0    0  501 -0.00000000000E+00  0.00000000000E+00  0.89447703540E+02  0.89447703540E+02  0.00000000000E+00 0.  1.
          2   -1    0    0  502    0  0.00000000000E+00 -0.00000000000E+00 -0.18410023513E+04  0.18410023513E+04  0.00000000000E+00 0. -1.
          6    2    1    2  502    0  0.29307424085E+02  0.34598421997E+03 -0.59171802674E+03  0.70756557229E+03  0.17307458031E+03 0.  0.
         24    2    3    3    0    0  0.12353891487E+02  0.35698819315E+03 -0.53924427530E+03  0.65113779293E+03  0.74852176041E+02 0.  0.
         -6    2    1    2    0  501 -0.29307424085E+02 -0.34598421997E+03 -0.11598366210E+04  0.12228844825E+04  0.17222504062E+03 0.  0.
        -24    2    5    5    0    0 -0.28271389829E+02 -0.19100181434E+03 -0.86234112289E+03  0.88740530162E+03  0.81086327844E+02 0.  0.
          5    1    3    3  502    0  0.16953532598E+02 -0.11003973179E+02 -0.52473751435E+02  0.56427779356E+02  0.47000000000E+01 0. -1.
        -13    1    4    4    0    0  0.20023001302E+02  0.17666270581E+03 -0.20567348728E+03  0.27186801131E+03  0.00000000000E+00 0.  1.
         14    1    4    4    0    0 -0.76691098150E+01  0.18032548734E+03 -0.33357078802E+03  0.37926978162E+03  0.00000000000E+00 0. -1.
         -5    1    5    5    0  501 -0.10360342558E+01 -0.15498240563E+03 -0.29749549811E+03  0.33547918090E+03  0.47000000000E+01 0.  1.
         13    1    6    6    0    0 -0.44700592603E+02 -0.18540554538E+03 -0.75765992735E+03  0.78129503054E+03  0.00000000000E+00 0. -1.
        -14    1    6    6    0    0  0.16429202774E+02 -0.55962689608E+01 -0.10468119554E+03  0.10611027109E+03  0.00000000000E+00 0.  1.
</event>
<event>
12    1  0.9656379E-001  0.4978965E+03  0.7818608E-02  0.1014329E+00
         -2   -1    0    0    0  501 -0.00000000000E+00  0.00000000000E+00  0.83477867974E+02  0.83477867974E+02  0.00000000000E+00 0.  1.
          2   -1    0    0  502    0  0.00000000000E+00 -0.00000000000E+00 -0.31592910862E+04  0.31592910862E+04  0.00000000000E+00 0. -1.
          6    2    1    2  502    0 -0.34066966541E+03 -0.31975208013E+03 -0.11405840515E+04  0.12445088779E+04  0.17196847076E+03 0.  0.
         24    2    3    3    0    0 -0.69261472168E+02 -0.56099253411E+02 -0.30454240045E+03  0.32681451010E+03  0.78213634209E+02 0.  0.
         -6    2    1    2    0  501  0.34066966541E+03  0.31975208013E+03 -0.19352291668E+04  0.19982600763E+04  0.17214584233E+03 0.  0.
        -24    2    5    5    0    0  0.15640751158E+03  0.22106850222E+03 -0.12706160411E+04  0.13015365396E+04  0.78725139096E+02 0.  0.
          5    1    3    3  502    0 -0.27140819325E+03 -0.26365282672E+03 -0.83604165103E+03  0.91769436778E+03  0.47000000000E+01 0. -1.
        -11    1    4    4    0    0 -0.59878058118E+02 -0.12258927136E+02 -0.98274412225E+02  0.11573039029E+03  0.00000000000E+00 0.  1.
         12    1    4    4    0    0 -0.93834140502E+01 -0.43840326275E+02 -0.20626798823E+03  0.21108411981E+03  0.00000000000E+00 0. -1.
         -5    1    5    5    0  501  0.18426215383E+03  0.98683577908E+02 -0.66461312567E+03  0.69672353678E+03  0.47000000000E+01 0.  1.
         13    1    6    6    0    0  0.16193338974E+03  0.18721153827E+03 -0.11305852954E+04  0.11573649783E+04  0.00000000000E+00 0. -1.
        -14    1    6    6    0    0 -0.55258781549E+01  0.33856963954E+02 -0.14003074568E+03  0.14417156125E+03  0.00000000000E+00 0.  1.
</event>
<event>
12    1  0.9656379E-001  0.1911807E+03  0.7818608E-02  0.1157401E+00
          1   -1    0    0  502    0  0.00000000000E+00  0.00000000000E+00  0.17568098162E+04  0.17568098162E+04  0.00000000000E+00 0. -1.
         -1   -1    0    0    0  501 -0.00000000000E+00 -0.00000000000E+00 -0.28486486951E+02  0.28486486951E+02  0.00000000000E+00 0.  1.
          6    2    1    2  502    0 -0.26304389838E+02  0.64919613551E+02  0.13399151188E+04  0.13540317924E+04  0.18199750583E+03 0.  0.
         24    2    3    3    0    0  0.42923060680E+02  0.55568899385E+01  0.41642348344E+03  0.42603649962E+03  0.78900654544E+02 0.  0.
         -6    2    1    2    0  501  0.26304389838E+02 -0.64919613551E+02  0.38840821049E+03  0.43126451078E+03  0.17384378945E+03 0.  0.
        -24    2    5    5    0    0 -0.47451029365E+02 -0.93853227651E+01  0.16452153484E+03  0.18904301535E+03  0.79562816405E+02 0.  0.
          5    1    3    3  502    0 -0.69227450519E+02  0.59362723613E+02  0.92349163533E+03  0.92799529276E+03  0.47000000000E+01 0. -1.
        -13    1    4    4    0    0  0.28503175588E+02  0.26665616135E+02  0.37722346655E+03  0.37923743198E+03  0.00000000000E+00 0.  1.
         14    1    4    4    0    0  0.14419885092E+02 -0.21108726197E+02  0.39200016891E+02  0.46799067640E+02  0.00000000000E+00 0. -1.
         -5    1    5    5    0  501  0.73755419203E+02 -0.55534290786E+02  0.22388667565E+03  0.24222149543E+03  0.47000000000E+01 0.  1.
         13    1    6    6    0    0 -0.47449220818E+02 -0.37740687993E+02  0.13561740508E+03  0.14855257873E+03  0.00000000000E+00 0. -1.
        -14    1    6    6    0    0 -0.18085470007E-02  0.28355365228E+02  0.28904129768E+02  0.40490436626E+02  0.00000000000E+00 0.  1.
</event>
<event>
12    1  0.9656379E-001  0.2832482E+03  0.7818608E-02  0.1093928E+00
          2   -1    0    0  502    0  0.00000000000E+00  0.00000000000E+00  0.17335927925E+04  0.17335927925E+04  0.00000000000E+00 0. -1.
         -2   -1    0    0    0  501 -0.00000000000E+00 -0.00000000000E+00 -0.30127894113E+03  0.30127894113E+03  0.00000000000E+00 0.  1.
          6    2    1    2  502    0  0.22191435654E+03 -0.36615095150E+02 -0.21982148312E+03  0.35865658235E+03  0.17241349364E+03 0.  0.
         24    2    3    3    0    0  0.22038853868E+03 -0.69867449689E+02 -0.21450488568E+03  0.32462125642E+03  0.76902832432E+02 0.  0.
         -6    2    1    2    0  501 -0.22191435654E+03  0.36615095150E+02  0.16521353345E+04  0.16762151513E+04  0.17192854069E+03 0.  0.
        -24    2    5    5    0    0 -0.22761900062E+03  0.53167866513E+02  0.12796468628E+04  0.13032858165E+04  0.80128612513E+02 0.  0.
          5    1    3    3  502    0  0.15258178659E+01  0.33252354539E+02 -0.53165974445E+01  0.34035325927E+02  0.47000000000E+01 0. -1.
        -11    1    4    4    0    0  0.80022242451E+02 -0.47646522085E+02 -0.45033512440E+02  0.10344934797E+03  0.00000000000E+00 0.  1.
         12    1    4    4    0    0  0.14036629622E+03 -0.22220927604E+02 -0.16947137324E+03  0.22117190845E+03  0.00000000000E+00 0. -1.
         -5    1    5    5    0  501  0.57046440767E+01 -0.16552771363E+02  0.37248847164E+03  0.37292933474E+03  0.47000000000E+01 0.  1.
         13    1    6    6    0    0 -0.41981645093E+02  0.23224332137E+02  0.45242014153E+03  0.45495693488E+03  0.00000000000E+00 0. -1.
        -14    1    6    6    0    0 -0.18563735553E+03  0.29943534376E+02  0.82722672130E+03  0.84832888166E+03  0.00000000000E+00 0.  1.
</event>
<event>
12    1  0.9656379E-001  0.3161549E+03  0.7818608E-02  0.1077433E+00
          1   -1    0    0  502    0  0.00000000000E+00  0.00000000000E+00  0.11989407626E+04  0.11989407626E+04  0.00000000000E+00 0. -1.
         -1   -1    0    0    0  501 -0.00000000000E+00 -0.00000000000E+00 -0.18341499751E+03  0.18341499751E+03  0.00000000000E+00 0.  1.
          6    2    1    2  502    0 -0.28222868031E+02  0.26336103406E+03 -0.27273868104E+01  0.31614386302E+03  0.17258023916E+03 0.  0.
         24    2    3    3    0    0 -0.75923723081E+02  0.17906789181E+03 -0.33051812072E+02  0.21454481691E+03  0.84305009223E+02 0.  0.
         -6    2    1    2    0  501  0.28222868031E+02 -0.26336103406E+03  0.10182531519E+04  0.10662118971E+04  0.17266372976E+03 0.  0.
        -24    2    5    5    0    0  0.75735484223E+02 -0.22967986994E+03  0.88101459237E+03  0.91705298271E+03  0.79440259934E+02 0.  0.
          5    1    3    3  502    0  0.47700855050E+02  0.84293142252E+02  0.30324425262E+02  0.10159904611E+03  0.47000000000E+01 0. -1.
        -11    1    4    4    0    0  0.35690932805E+00  0.10597565961E+03 -0.10296060728E+02  0.10647523975E+03  0.00000000000E+00 0.  1.
         12    1    4    4    0    0 -0.76280632409E+02  0.73092232199E+02 -0.22755751344E+02  0.10806957716E+03  0.00000000000E+00 0. -1.
         -5    1    5    5    0  501 -0.47512616193E+02 -0.33681164118E+02  0.13723855952E+03  0.14915891436E+03  0.47000000000E+01 0.  1.
         13    1    6    6    0    0  0.51028532143E+02 -0.12691303870E+03  0.35326018426E+03  0.37881867466E+03  0.00000000000E+00 0. -1.
        -14    1    6    6    0    0  0.24706952080E+02 -0.10276683124E+03  0.52775440811E+03  0.53823430805E+03  0.00000000000E+00 0.  1.
</event>
<event>
12    1  0.9656379E-001  0.1954154E+03  0.7818608E-02  0.1153666E+00
         -2   -1    0    0    0  501 -0.00000000000E+00  0.00000000000E+00  0.33205219049E+02  0.33205219049E+02  0.00000000000E+00 0.  1.
          2   -1    0    0  502    0  0.00000000000E+00 -0.00000000000E+00 -0.11505681874E+04  0.11505681874E+04  0.00000000000E+00 0. -1.
          6    2    1    2  502    0 -0.71663058530E+02 -0.60052391056E+02 -0.54238628060E+03  0.57598928065E+03  0.16982017083E+03 0.  0.
         24    2    3    3    0    0  0.20388999448E+01  0.16064847346E+02 -0.30584203366E+03  0.31675756303E+03  0.80831724887E+02 0.  0.
         -6    2    1    2    0  501  0.71663058530E+02  0.60052391056E+02 -0.57497668773E+03  0.60778412577E+03  0.17338243417E+03 0.  0.
        -24    2    5    5    0    0  0.23099010402E+02  0.74005625780E+02 -0.19643859081E+03  0.22585960397E+03  0.80087725772E+02 0.  0.
          5    1    3    3  502    0 -0.73701958475E+02 -0.76117238402E+02 -0.23654424693E+03  0.25923171762E+03  0.47000000000E+01 0. -1.
        -13    1    4    4    0    0 -0.10284173348E+02 -0.31429721557E+02 -0.13662223522E+03  0.14056751679E+03  0.00000000000E+00 0.  1.
         14    1    4    4    0    0  0.12323073293E+02  0.47494568903E+02 -0.16921979844E+03  0.17619004624E+03  0.00000000000E+00 0. -1.
         -5    1    5    5    0  501  0.48564048128E+02 -0.13953234723E+02 -0.37853809693E+03  0.38192452180E+03  0.47000000000E+01 0.  1.
         13    1    6    6    0    0  0.41474518490E+02  0.18243729514E+02 -0.46916517779E+02  0.65223684280E+02  0.00000000000E+00 0. -1.
        -14    1    6    6    0    0 -0.18375508088E+02  0.55761896266E+02 -0.14952207303E+03  0.16063591969E+03  0.00000000000E+00 0.  1.
</event>
<event>
12    1  0.9656379E-001  0.2192348E+04  0.7818608E-02  0.8521620E-01
         -2   -1    0    0    0  501 -0.00000000000E+00  0.00000000000E+00  0.20202064362E+04  0.20202064362E+04  0.00000000000E+00 0.  1.
          2   -1    0    0  502    0  0.00000000000E+00 -0.00000000000E+00 -0.31871351613E+04  0.31871351613E+04  0.00000000000E+00 0. -1.
          6    2    1    2  502    0 -0.10753205457E+04  0.19026400090E+04  0.72746176356E+03  0.23099907686E+04  0.17465237963E+03 0.  0.
         24    2    3    3    0    0 -0.31521117264E+03  0.64337503691E+03  0.26916508197E+03  0.76935049024E+03  0.78490852996E+02 0.  0.
         -6    2    1    2    0  501  0.10753205457E+04 -0.19026400090E+04 -0.18943904887E+04  0.28973508288E+04  0.17196866520E+03 0.  0.
        -24    2    5    5    0    0  0.85718528727E+03 -0.15465755666E+04 -0.14576663237E+04  0.22931033924E+04  0.82882188731E+02 0.  0.
          5    1    3    3  502    0 -0.76010937301E+03  0.12592649721E+04  0.45829668159E+03  0.15406402784E+04  0.47000000000E+01 0. -1.
        -13    1    4    4    0    0 -0.18416509484E+03  0.35223178799E+03  0.18923831178E+03  0.44022170923E+03  0.00000000000E+00 0.  1.
         14    1    4    4    0    0 -0.13104607780E+03  0.29114324892E+03  0.79926770186E+02  0.32912878101E+03  0.00000000000E+00 0. -1.
         -5    1    5    5    0  501  0.21813525838E+03 -0.35606444247E+03 -0.43672416499E+03  0.60424743642E+03  0.47000000000E+01 0.  1.
         13    1    6    6    0    0  0.56730498421E+03 -0.98367698268E+03 -0.89053616806E+03  0.14430904400E+04  0.00000000000E+00 0. -1.
        -14    1    6    6    0    0  0.28988030306E+03 -0.56289858389E+03 -0.56713015564E+03  0.85001295242E+03  0.00000000000E+00 0.  1.
</event>
<event>
12    1  0.9656379E-001  0.9138544E+03  0.7818608E-02  0.9408427E-01
          2   -1    0    0  502    0  0.00000000000E+00  0.00000000000E+00  0.68157617461E+03  0.68157617461E+03  0.00000000000E+00 0. -1.
         -2   -1    0    0    0  501 -0.00000000000E+00 -0.00000000000E+00 -0.14576858066E+04  0.14576858066E+04  0.00000000000E+00 0.  1.
          6    2    1    2  502    0  0.21990910623E+03  0.87019376668E+03 -0.81514677222E+03  0.12245941425E+04  0.17195739914E+03 0.  0.
         24    2    3    3    0    0  0.23993922404E+03  0.78269084058E+03 -0.75456544879E+03  0.11161960132E+04  0.79678982301E+02 0.  0.
         -6    2    1    2    0  501 -0.21990910623E+03 -0.87019376668E+03  0.39037140243E+02  0.91466783866E+03  0.17174443273E+03 0.  0.
        -24    2    5    5    0    0 -0.19873023609E+03 -0.69845179162E+03  0.85190891502E+02  0.73551396821E+03  0.79966852434E+02 0.  0.
          5    1    3    3  502    0 -0.20030117814E+02  0.87502926105E+02 -0.60581323431E+02  0.10839812934E+03  0.47000000000E+01 0. -1.
        -11    1    4    4    0    0  0.22013046459E+03  0.74529556350E+03 -0.73471929760E+03  0.10694556301E+04  0.00000000000E+00 0.  1.
         12    1    4    4    0    0  0.19808759448E+02  0.37395277084E+02 -0.19846151196E+02  0.46740383143E+02  0.00000000000E+00 0. -1.
         -5    1    5    5    0  501 -0.21178870137E+02 -0.17174197507E+03 -0.46153751259E+02  0.17915387045E+03  0.47000000000E+01 0.  1.
         13    1    6    6    0    0 -0.69773366571E+02 -0.18794155737E+03 -0.86932238194E+01  0.20066370825E+03  0.00000000000E+00 0. -1.
        -14    1    6    6    0    0 -0.12895686952E+03 -0.51051023425E+03  0.93884115321E+02  0.53485025996E+03  0.00000000000E+00 0.  1.
</event>
<event>
12    1  0.9656379E-001  0.7360733E+03  0.7818608E-02  0.9657456E-01
         -1   -1    0    0    0  501 -0.00000000000E+00  0.00000000000E+00  0.89719826152E+03  0.89719826152E+03  0.00000000000E+00 0.  1.
          1   -1    0    0  502    0  0.00000000000E+00 -0.00000000000E+00 -0.62286900420E+03  0.62286900420E+03  0.00000000000E+00 0. -1.
          6    2    1    2  502    0  0.54170141113E+03 -0.46820966458E+03  0.26983960348E+03  0.78390022212E+03  0.17036853526E+03 0.  0.
         24    2    3    3    0    0  0.21940085277E+03 -0.22880431822E+03  0.17822656895E+03  0.37206577980E+03  0.78613512743E+02 0.  0.
         -6    2    1    2    0  501 -0.54170141113E+03  0.46820966458E+03  0.44896538422E+01  0.73616704360E+03  0.17105861646E+03 0.  0.
        -24    2    5    5    0    0 -0.47801468839E+03  0.39575230946E+03  0.49111195935E+02  0.62977513139E+03  0.95325095309E+02 0.  0.
          5    1    3    3  502    0  0.32230055836E+03 -0.23940534636E+03  0.91613034530E+02  0.41183444232E+03  0.47000000000E+01 0. -1.
        -11    1    4    4    0    0  0.14775898243E+03 -0.18305275142E+03  0.96896625912E+02  0.25442087730E+03  0.00000000000E+00 0.  1.
         12    1    4    4    0    0  0.71641870337E+02 -0.45751566803E+02  0.81329943039E+02  0.11764490250E+03  0.00000000000E+00 0. -1.
         -5    1    5    5    0  501 -0.63686722735E+02  0.72457355122E+02 -0.44621542093E+02  0.10639191221E+03  0.47000000000E+01 0.  1.
         13    1    6    6    0    0 -0.24486168901E+03  0.15603898384E+03  0.54038070927E+02  0.29533967619E+03  0.00000000000E+00 0. -1.
        -14    1    6    6    0    0 -0.23315299938E+03  0.23971332562E+03 -0.49268749920E+01  0.33443545520E+03  0.00000000000E+00 0.  1.
</event>
<event>
12    1  0.9656379E-001  0.1463827E+04  0.7818608E-02  0.8908870E-01
         -1   -1    0    0    0  501 -0.00000000000E+00  0.00000000000E+00  0.10602154009E+04  0.10602154009E+04  0.00000000000E+00 0.  1.
          1   -1    0    0  502    0  0.00000000000E+00 -0.00000000000E+00 -0.21823170459E+04  0.21823170459E+04  0.00000000000E+00 0. -1.
          6    2    1    2  502    0  0.12786757500E+04  0.69134858076E+03 -0.10017223021E+04  0.17737598051E+04  0.17263181037E+03 0.  0.
         24    2    3    3    0    0  0.11933022349E+04  0.64884383184E+03 -0.97648640403E+03  0.16749962931E+04  0.84370270635E+02 0.  0.
         -6    2    1    2    0  501 -0.12786757500E+04 -0.69134858076E+03 -0.12037934293E+03  0.14687726416E+04  0.17270597219E+03 0.  0.
        -24    2    5    5    0    0 -0.94202027939E+03 -0.45838870170E+03 -0.13383264977E+03  0.10591260957E+04  0.79463826836E+02 0.  0.
          5    1    3    3  502    0  0.85373515109E+02  0.42504748922E+02 -0.25235898062E+02  0.98763512058E+02  0.47000000000E+01 0. -1.
        -11    1    4    4    0    0  0.66879015282E+03  0.31991039725E+03 -0.51116969571E+03  0.90050951610E+03  0.00000000000E+00 0.  1.
         12    1    4    4    0    0  0.52451208210E+03  0.32893343458E+03 -0.46531670832E+03  0.77448677697E+03  0.00000000000E+00 0. -1.
         -5    1    5    5    0  501 -0.33665547064E+03 -0.23295987906E+03  0.13453306837E+02  0.40964654597E+03  0.47000000000E+01 0.  1.
         13    1    6    6    0    0 -0.62860858638E+03 -0.26397413761E+03 -0.91091823625E+02  0.68784360179E+03  0.00000000000E+00 0. -1.
        -14    1    6    6    0    0 -0.31341169301E+03 -0.19441456409E+03 -0.42740826145E+02  0.37128249389E+03  0.00000000000E+00 0.  1.
</event>
<event>
12    1  0.9656379E-001  0.3505738E+03  0.7818608E-02  0.1062380E+00
          1   -1    0    0  502    0  0.00000000000E+00  0.00000000000E+00  0.28964271216E+04  0.28964271216E+04  0.00000000000E+00 0. -1.
         -1   -1    0    0    0  501 -0.00000000000E+00 -0.00000000000E+00 -0.55657620233E+02  0.55657620233E+02  0.00000000000E+00 0.  1.
          6    2    1    2  502    0  0.30321726976E+03  0.33767057369E+02  0.70236230712E+03  0.78520921056E+03  0.17366567609E+03 0.  0.
         24    2    3    3    0    0  0.20643128309E+03  0.47077301535E+02  0.60880967943E+03  0.64986197578E+03  0.82711636696E+02 0.  0.
         -6    2    1    2    0  501 -0.30321726976E+03 -0.33767057369E+02  0.21384071942E+04  0.21668755312E+04  0.17170705502E+03 0.  0.
        -24    2    5    5    0    0 -0.16390987178E+03 -0.84392726704E+02  0.12972579122E+04  0.13127539274E+04  0.80350511569E+02 0.  0.
          5    1    3    3  502    0  0.96785986670E+02 -0.13310244166E+02  0.93552627689E+02  0.13534723478E+03  0.47000000000E+01 0. -1.
        -11    1    4    4    0    0  0.15116992626E+03  0.38603619620E+02  0.32390020504E+03  0.35951902436E+03  0.00000000000E+00 0.  1.
         12    1    4    4    0    0  0.55261356833E+02  0.84736819144E+01  0.28490947439E+03  0.29034295142E+03  0.00000000000E+00 0. -1.
         -5    1    5    5    0  501 -0.13930739798E+03  0.50625669335E+02  0.84114928204E+03  0.85412160387E+03  0.47000000000E+01 0.  1.
         13    1    6    6    0    0 -0.10108362550E+03 -0.22808764613E+02  0.89554863244E+03  0.90152398313E+03  0.00000000000E+00 0. -1.
        -14    1    6    6    0    0 -0.62826246284E+02 -0.61583962091E+02  0.40170927975E+03  0.41122994425E+03  0.00000000000E+00 0.  1.
</event>
<event>
12    1  0.9656379E-001  0.8160011E+03  0.7818608E-02  0.9537141E-01
          2   -1    0    0  502    0  0.00000000000E+00  0.00000000000E+00  0.84251522895E+03  0.84251522895E+03  0.00000000000E+00 0. -1.
         -2   -1    0    0    0  501 -0.00000000000E+00 -0.00000000000E+00 -0.79604369946E+03  0.79604369946E+03  0.00000000000E+00 0.  1.
          6    2    1    2  502    0 -0.55193907172E+03 -0.57545764394E+03  0.92693597770E+02  0.82108716663E+03  0.17263775163E+03 0.  0.
         24    2    3    3    0    0 -0.40856653403E+03 -0.32930421023E+03  0.51717082281E+02  0.53325325218E+03  0.79476403771E+02 0.  0.
         -6    2    1    2    0  501  0.55193907172E+03  0.57545764394E+03 -0.46222068284E+02  0.81747176177E+03  0.17417049936E+03 0.  0.
        -24    2    5    5    0    0  0.25363995900E+03  0.30042904124E+03  0.38815032625E+02  0.40289186419E+03  0.78894929180E+02 0.  0.
          5    1    3    3  502    0 -0.14337253769E+03 -0.24615343371E+03  0.40976515489E+02  0.28783391446E+03  0.47000000000E+01 0. -1.
        -13    1    4    4    0    0 -0.25490942032E+03 -0.20235329573E+03 -0.67705519506E+01  0.32553265463E+03  0.00000000000E+00 0.  1.
         14    1    4    4    0    0 -0.15365711371E+03 -0.12695091450E+03  0.58487634231E+02  0.20772059754E+03  0.00000000000E+00 0. -1.
         -5    1    5    5    0  501  0.29829911272E+03  0.27502860269E+03 -0.85037100910E+02  0.41457989758E+03  0.47000000000E+01 0.  1.
         11    1    6    6    0    0  0.28410491767E+02  0.76344863063E+02  0.23619434093E+02  0.84814926902E+02  0.00000000000E+00 0. -1.
        -12    1    6    6    0    0  0.22522946723E+03  0.22408417818E+03  0.15195598532E+02  0.31807693729E+03  0.00000000000E+00 0.  1.
</event>
<event>
12    1  0.9656379E-001  0.1836056E+03  0.7818608E-02  0.1164358E+00
          2   -1    0    0  502    0  0.00000000000E+00  0.00000000000E+00  0.18694909285E+04  0.18694909285E+04  0.00000000000E+00 0. -1.
         -2   -1    0    0    0  501 -0.00000000000E+00 -0.00000000000E+00 -0.51162669290E+02  0.51162669290E+02  0.00000000000E+00 0.  1.
          6    2    1    2  502    0 -0.65179692368E+02 -0.30202147459E+02  0.14191379296E+03  0.23454769605E+03  0.17237324352E+03 0.  0.
         24    2    3    3    0    0 -0.56832812726E+02 -0.33199113220E+02  0.11985722590E+02  0.10423251784E+03  0.79928783974E+02 0.  0.
         -6    2    1    2    0  501  0.65179692368E+02  0.30202147459E+02  0.16764144663E+04  0.16861059018E+04  0.16561125328E+03 0.  0.
        -24    2    5    5    0    0  0.60941162027E+02  0.57985400515E+02  0.72079890800E+03  0.73006559952E+03  0.79803395478E+02 0.  0.
          5    1    3    3  502    0 -0.83468796428E+01  0.29969657611E+01  0.12992807037E+03  0.13031517822E+03  0.47000000000E+01 0. -1.
        -13    1    4    4    0    0  0.13562338269E+02 -0.26746980694E+02  0.14891184962E+02  0.33482613177E+02  0.00000000000E+00 0.  1.
         14    1    4    4    0    0 -0.70395150995E+02 -0.64521325256E+01 -0.29054623721E+01  0.70749904659E+02  0.00000000000E+00 0. -1.
         -5    1    5    5    0  501  0.42385303417E+01 -0.27783253057E+02  0.95561555827E+03  0.95604030223E+03  0.47000000000E+01 0.  1.
         13    1    6    6    0    0  0.69669193681E+01  0.48246135078E+02  0.50722100099E+03  0.50955801570E+03  0.00000000000E+00 0. -1.
        -14    1    6    6    0    0  0.53974242659E+02  0.97392654369E+01  0.21357790701E+03  0.22050758382E+03  0.00000000000E+00 0.  1.
</event>
<event>
12    1  0.9656379E-001  0.5976584E+03  0.7818608E-02  0.9910276E-01
          1   -1    0    0  502    0  0.00000000000E+00  0.00000000000E+00  0.87697797796E+03  0.87697797796E+03  0.00000000000E+00 0. -1.
         -1   -1    0    0    0  501 -0.00000000000E+00 -0.00000000000E+00 -0.97593112556E+03  0.97593112556E+03  0.00000000000E+00 0.  1.
          6    2    1    2  502    0 -0.17944078267E+03 -0.54237908866E+03 -0.75666232051E+03  0.96436475015E+03  0.17631628894E+03 0.  0.
         24    2    3    3    0    0 -0.17905547491E+03 -0.33301868040E+03 -0.52752470293E+03  0.65394879244E+03  0.80027534913E+02 0.  0.
         -6    2    1    2    0  501  0.17944078267E+03  0.54237908866E+03  0.65770917291E+03  0.88854435337E+03  0.17480172049E+03 0.  0.
        -24    2    5    5    0    0  0.42519729082E+02  0.13287701905E+03  0.22368120526E+03  0.27630119365E+03  0.82733538978E+02 0.  0.
          5    1    3    3  502    0 -0.38530776501E+00 -0.20936040826E+03 -0.22913761759E+03  0.31041595771E+03  0.47000000000E+01 0. -1.
        -11    1    4    4    0    0 -0.15203172832E+03 -0.22158634152E+03 -0.33021861342E+03  0.42574462511E+03  0.00000000000E+00 0.  1.
         12    1    4    4    0    0 -0.27023746586E+02 -0.11143233888E+03 -0.19730608951E+03  0.22820416732E+03  0.00000000000E+00 0. -1.
         -5    1    5    5    0  501  0.13692105359E+03  0.40950206961E+03  0.43402796765E+03  0.61224315972E+03  0.47000000000E+01 0.  1.
         13    1    6    6    0    0 -0.11303784867E+02  0.96676759202E+02  0.13461189901E+03  0.16611602775E+03  0.00000000000E+00 0. -1.
        -14    1    6    6    0    0  0.53823513949E+02  0.36200259847E+02  0.89069306255E+02  0.11018516590E+03  0.00000000000E+00 0.  1.
</event>
<event>
12    1  0.9656379E-001  0.7409286E+03  0.7818608E-02  0.9649690E-01
          2   -1    0    0  502    0  0.00000000000E+00  0.00000000000E+00  0.81961222204E+03  0.81961222204E+03  0.00000000000E+00 0. -1.
         -2   -1    0    0    0  501 -0.00000000000E+00 -0.00000000000E+00 -0.70973847995E+03  0.70973847995E+03  0.00000000000E+00 0.  1.
          6    2    1    2  502    0 -0.62460381074E+03  0.35929657209E+03 -0.12646496965E+03  0.75157918171E+03  0.17220316698E+03 0.  0.
         24    2    3    3    0    0 -0.42962075711E+03  0.21453725873E+03 -0.14458261170E+03  0.50801401802E+03  0.81079470742E+02 0.  0.
         -6    2    1    2    0  501  0.62460381074E+03 -0.35929657209E+03  0.23633871174E+03  0.77777152029E+03  0.17276748535E+03 0.  0.
        -24    2    5    5    0    0  0.24679079090E+03 -0.15486642509E+03  0.15878394337E+03  0.34122691196E+03  0.79587440462E+02 0.  0.
          5    1    3    3  502    0 -0.19498305364E+03  0.14475931336E+03  0.18117642051E+02  0.24356516369E+03  0.47000000000E+01 0. -1.
        -13    1    4    4    0    0 -0.11010767468E+03  0.27210824724E+02 -0.59121944093E+02  0.12790439116E+03  0.00000000000E+00 0.  1.
         14    1    4    4    0    0 -0.31951308243E+03  0.18732643400E+03 -0.85460667605E+02  0.38010962685E+03  0.00000000000E+00 0. -1.
         -5    1    5    5    0  501  0.37781301984E+03 -0.20443014699E+03  0.77554768369E+02  0.43654460832E+03  0.47000000000E+01 0.  1.
         11    1    6    6    0    0  0.13982069142E+03 -0.42302147053E+02  0.88311918402E+02  0.17069942099E+03  0.00000000000E+00 0. -1.
        -12    1    6    6    0    0  0.10697009948E+03 -0.11256427804E+03  0.70472024969E+02  0.17052749097E+03  0.00000000000E+00 0.  1.
</event>
<event>
12    1  0.9656379E-001  0.2617024E+03  0.7818608E-02  0.1106125E+00
          1   -1    0    0  502    0  0.00000000000E+00  0.00000000000E+00  0.24079291436E+03  0.24079291436E+03  0.00000000000E+00 0.  1.
         -1   -1    0    0    0  501 -0.00000000000E+00 -0.00000000000E+00 -0.52530013158E+03  0.52530013158E+03  0.00000000000E+00 0. -1.
          6    2    1    2  502    0  0.15798065661E+03  0.11994542445E+03  0.11702021869E+03  0.28701118429E+03  0.17128016703E+03 0.  0.
         24    2    3    3    0    0  0.37837002217E+02 -0.41175840496E+01  0.38808606170E+02  0.97366057538E+02  0.80780245187E+02 0.  0.
         -6    2    1    2    0  501 -0.15798065661E+03 -0.11994542445E+03 -0.40152743591E+03  0.47908186165E+03  0.17014804043E+03 0.  0.
        -24    2    5    5    0    0 -0.22079386428E+02 -0.54214002137E+02 -0.91890585416E+02  0.13457229095E+03  0.78988381875E+02 0.  0.
          5    1    3    3  502    0  0.12014365440E+03  0.12406300850E+03  0.78211612524E+02  0.18964512676E+03  0.47000000000E+01 0. -1.
        -11    1    4    4    0    0  0.46256282690E+02 -0.55749507113E+01 -0.10136322828E+02  0.47680906075E+02  0.00000000000E+00 0.  1.
         12    1    4    4    0    0 -0.84192804724E+01  0.14573666617E+01  0.48944928998E+02  0.49685151463E+02  0.00000000000E+00 0. -1.
         -5    1    5    5    0  501 -0.13590127019E+03 -0.65731422309E+02 -0.30963685050E+03  0.34450957070E+03  0.47000000000E+01 0.  1.
         13    1    6    6    0    0 -0.19160854882E+02  0.13084806387E+01 -0.73565427349E+02  0.76031063273E+02  0.00000000000E+00 0. -1.
        -14    1    6    6    0    0 -0.29185315458E+01 -0.55522482776E+02 -0.18325158067E+02  0.58541227679E+02  0.00000000000E+00 0.  1.
</event>
<event>
12    1  0.9656379E-001  0.4567810E+03  0.7818608E-02  0.1025719E+00
         -1   -1    0    0    0  501 -0.00000000000E+00  0.00000000000E+00  0.44549654115E+03  0.44549654115E+03  0.00000000000E+00 0.  1.
          1   -1    0    0  502    0  0.00000000000E+00 -0.00000000000E+00 -0.64314183360E+03  0.64314183360E+03  0.00000000000E+00 0. -1.
          6    2    1    2  502    0 -0.37056985849E+03 -0.20647382232E+03  0.18469345675E+03  0.49414395530E+03  0.17353131207E+03 0.  0.
         24    2    3    3    0    0 -0.15006943913E+03 -0.15916642271E+03  0.98046900974E+02  0.25250757430E+03  0.79322718097E+02 0.  0.
         -6    2    1    2    0  501  0.37056985849E+03  0.20647382232E+03 -0.38233874920E+03  0.59449441945E+03  0.16518848717E+03 0.  0.
        -24    2    5    5    0    0  0.20768566929E+03  0.48741441008E+02 -0.18181153050E+03  0.29176678832E+03  0.81014571827E+02 0.  0.
          5    1    3    3  502    0 -0.22050041936E+03 -0.47307399605E+02  0.86646555775E+02  0.24163638100E+03  0.47000000000E+01 0. -1.
        -13    1    4    4    0    0 -0.15657214442E+03 -0.13340452679E+03  0.91572412492E+02  0.22516018944E+03  0.00000000000E+00 0.  1.
         14    1    4    4    0    0  0.65027052926E+01 -0.25761895920E+02  0.64744884817E+01  0.27347384858E+02  0.00000000000E+00 0. -1.
         -5    1    5    5    0  501  0.16288418921E+03  0.15773238131E+03 -0.20052721870E+03  0.30272763113E+03  0.47000000000E+01 0.  1.
         11    1    6    6    0    0  0.19658525488E+03  0.48827293620E+02 -0.19019495757E+03  0.27785605793E+03  0.00000000000E+00 0. -1.
        -12    1    6    6    0    0  0.11100414402E+02 -0.85852611890E-01  0.83834270778E+01  0.13910730396E+02  0.00000000000E+00 0.  1.
</event>
<event>
12    1  0.9656379E-001  0.1425745E+04  0.7818608E-02  0.8935391E-01
         -2   -1    0    0    0  501 -0.00000000000E+00  0.00000000000E+00  0.13192075076E+04  0.13192075076E+04  0.00000000000E+00 0.  1.
          2   -1    0    0  502    0  0.00000000000E+00 -0.00000000000E+00 -0.21635154552E+04  0.21635154552E+04  0.00000000000E+00 0. -1.
          6    2    1    2  502    0 -0.12660140000E+04  0.63231575737E+03  0.51203082792E+03  0.15148118025E+04  0.17281366596E+03 0.  0.
         24    2    3    3    0    0 -0.70879347042E+03  0.40800097137E+03  0.34600514239E+03  0.89159557997E+03  0.79813177629E+02 0.  0.
         -6    2    1    2    0  501  0.12660140000E+04 -0.63231575737E+03 -0.13563387755E+04  0.19679111602E+04  0.17436970906E+03 0.  0.
        -24    2    5    5    0    0  0.12278675833E+04 -0.63833369580E+03 -0.13075838855E+04  0.19055373357E+04  0.78537957434E+02 0.  0.
          5    1    3    3  502    0 -0.55722052959E+03  0.22431478600E+03  0.16602568553E+03  0.62321622257E+03  0.47000000000E+01 0. -1.
        -11    1    4    4    0    0 -0.55436601282E+03  0.28470650786E+03  0.24456914180E+03  0.66947258115E+03  0.00000000000E+00 0.  1.
         12    1    4    4    0    0 -0.15442745760E+03  0.12329446351E+03  0.10143600059E+03  0.22212299883E+03  0.00000000000E+00 0. -1.
         -5    1    5    5    0  501  0.38146416701E+02  0.60179384311E+01 -0.48754889998E+02  0.62373824549E+02  0.47000000000E+01 0.  1.
         13    1    6    6    0    0  0.11847772266E+04 -0.62135081732E+03 -0.12436702260E+04  0.18266060182E+04  0.00000000000E+00 0. -1.
        -14    1    6    6    0    0  0.43090356718E+02 -0.16982878474E+02 -0.63913659507E+02  0.78931317453E+02  0.00000000000E+00 0.  1.
</event>
<event>
12    1  0.9656379E-001  0.3248575E+03  0.7818608E-02  0.1073435E+00
         -2   -1    0    0    0  501 -0.00000000000E+00  0.00000000000E+00  0.57939932884E+02  0.57939932884E+02  0.00000000000E+00 0.  1.
          2   -1    0    0  502    0  0.00000000000E+00 -0.00000000000E+00 -0.32805751308E+04  0.32805751308E+04  0.00000000000E+00 0. -1.
          6    2    1    2  502    0 -0.30710389844E+02 -0.27587949265E+03 -0.50080995268E+03  0.59749015097E+03  0.17067878980E+03 0.  0.
         24    2    3    3    0    0  0.38207535483E+02 -0.20797728625E+03 -0.31301486437E+03  0.38618592654E+03  0.80292572372E+02 0.  0.
         -6    2    1    2    0  501  0.30710389844E+02  0.27587949265E+03 -0.27218252452E+04  0.27410249127E+04  0.16683010531E+03 0.  0.
        -24    2    5    5    0    0  0.18333997157E+02  0.18529438527E+03 -0.23206798318E+04  0.23295658388E+04  0.81559616244E+02 0.  0.
          5    1    3    3  502    0 -0.68917925327E+02 -0.67902206399E+02 -0.18779508831E+03  0.21130422442E+03  0.47000000000E+01 0. -1.
        -11    1    4    4    0    0  0.68989614440E+01 -0.49590279125E+02 -0.24899351181E+02  0.55917520885E+02  0.00000000000E+00 0.  1.
         12    1    4    4    0    0  0.31308574039E+02 -0.15838700713E+03 -0.28811551319E+03  0.33026840566E+03  0.00000000000E+00 0. -1.
         -5    1    5    5    0  501  0.12376392687E+02  0.90585107384E+02 -0.40114541344E+03  0.41145907391E+03  0.47000000000E+01 0.  1.
         11    1    6    6    0    0  0.72435552480E+01  0.96242667216E+02 -0.72942288140E+03  0.73578044279E+03  0.00000000000E+00 0. -1.
        -12    1    6    6    0    0  0.11090441909E+02  0.89051718051E+02 -0.15912569504E+04  0.15937853960E+04  0.00000000000E+00 0.  1.
</event>
<event>
12    1  0.9656379E-001  0.8224075E+03  0.7818608E-02  0.9528138E-01
         -2   -1    0    0    0  501 -0.00000000000E+00  0.00000000000E+00  0.53000402136E+03  0.53000402136E+03  0.00000000000E+00 0.  1.
          2   -1    0    0  502    0  0.00000000000E+00 -0.00000000000E+00 -0.35065502099E+04  0.35065502099E+04  0.00000000000E+00 0. -1.
          6    2    1    2  502    0  0.74236310835E+03  0.30945499035E+03  0.12130541088E+03  0.83142776013E+03  0.17231291859E+03 0.  0.
         24    2    3    3    0    0  0.65724366774E+03  0.22335852828E+03  0.12583372134E+03  0.71018207754E+03  0.81646720037E+02 0.  0.
         -6    2    1    2    0  501 -0.74236310835E+03 -0.30945499035E+03 -0.30978515994E+04  0.32051264711E+04  0.17113090968E+03 0.  0.
        -24    2    5    5    0    0 -0.17766491988E+03 -0.11586110127E+03 -0.73873474813E+03  0.77164808701E+03  0.68724984915E+02 0.  0.
          5    1    3    3  502    0  0.85119440604E+02  0.86096462069E+02 -0.45283104632E+01  0.12124568258E+03  0.47000000000E+01 0. -1.
        -11    1    4    4    0    0  0.26045731206E+03  0.12729332424E+03  0.35576930520E+02  0.29207416830E+03  0.00000000000E+00 0.  1.
         12    1    4    4    0    0  0.39678635568E+03  0.96065204038E+02  0.90256790820E+02  0.41810790925E+03  0.00000000000E+00 0. -1.
         -5    1    5    5    0  501 -0.56469818846E+03 -0.19359388908E+03 -0.23591168513E+04  0.24334783841E+04  0.47000000000E+01 0.  1.
         11    1    6    6    0    0 -0.98633196124E+02 -0.28395466613E+02 -0.28760398846E+03  0.30537004450E+03  0.00000000000E+00 0. -1.
        -12    1    6    6    0    0 -0.79031723759E+02 -0.87465634660E+02 -0.45113075967E+03  0.46627804251E+03  0.00000000000E+00 0.  1.
</event>
<event>
12    1  0.9656379E-001  0.3908246E+03  0.7818608E-02  0.1047004E+00
          1   -1    0    0  502    0  0.00000000000E+00  0.00000000000E+00  0.42364375515E+03  0.42364375515E+03  0.00000000000E+00 0. -1.
         -1   -1    0    0    0  501 -0.00000000000E+00 -0.00000000000E+00 -0.53562547026E+03  0.53562547026E+03  0.00000000000E+00 0.  1.
          6    2    1    2  502    0  0.32984144866E+03 -0.11784959389E+03 -0.33012177736E+03  0.51092029382E+03  0.17139209641E+03 0.  0.
         24    2    3    3    0    0  0.22317787468E+03 -0.37748555566E+02 -0.13750783285E+03  0.27657969559E+03  0.79715787178E+02 0.  0.
         -6    2    1    2    0  501 -0.32984144866E+03  0.11784959389E+03  0.21814006226E+03  0.44834893159E+03  0.17535041963E+03 0.  0.
        -24    2    5    5    0    0 -0.33868474155E+03  0.13206841129E+03  0.21650682978E+03  0.43088078785E+03  0.81447078382E+02 0.  0.
          5    1    3    3  502    0  0.10666357398E+03 -0.80101038327E+02 -0.19261394451E+03  0.23434059822E+03  0.47000000000E+01 0. -1.
        -13    1    4    4    0    0  0.60121011537E+02 -0.47292243719E+02 -0.39384272100E+02  0.86036115864E+02  0.00000000000E+00 0.  1.
         14    1    4    4    0    0  0.16305686314E+03  0.95436881527E+01 -0.98123560753E+02  0.19054357973E+03  0.00000000000E+00 0. -1.
         -5    1    5    5    0  501  0.88432928960E+01 -0.14218817400E+02  0.16332324850E+01  0.17468143743E+02  0.47000000000E+01 0.  1.
         13    1    6    6    0    0 -0.17609470216E+03  0.11114678723E+03  0.11161452984E+03  0.23626416510E+03  0.00000000000E+00 0. -1.
        -14    1    6    6    0    0 -0.16259003939E+03  0.20921624058E+02  0.10489229994E+03  0.19461662275E+03  0.00000000000E+00 0.  1.
</event>
<event>
12    1  0.9656379E-001  0.3677337E+03  0.7818608E-02  0.1055563E+00
          2   -1    0    0  502    0  0.00000000000E+00  0.00000000000E+00  0.12452791151E+04  0.12452791151E+04  0.00000000000E+00 0. -1.
         -2   -1    0    0    0  501 -0.00000000000E+00 -0.00000000000E+00 -0.25019594815E+03  0.25019594815E+03  0.00000000000E+00 0.  1.
          6    2    1    2  502    0 -0.31079272568E+03  0.94995653669E+02 -0.65011661340E+02  0.37339752467E+03  0.17199681035E+03 0.  0.
         24    2    3    3    0    0 -0.26227923962E+03  0.99649785133E+02 -0.10527607414E+03  0.31000563081E+03  0.79372288210E+02 0.  0.
         -6    2    1    2    0  501  0.31079272568E+03 -0.94995653669E+02  0.10600948283E+04  0.11220775386E+04  0.17216464524E+03 0.  0.
        -24    2    5    5    0    0  0.28304603020E+03 -0.28490994668E+02  0.82138427237E+03  0.87268313550E+03  0.77310672655E+02 0.  0.
          5    1    3    3  502    0 -0.48513486061E+02 -0.46541314644E+01  0.40264412798E+02  0.63391893863E+02  0.47000000000E+01 0. -1.
        -13    1    4    4    0    0 -0.49433167113E+02  0.25173451697E+02  0.10597267136E+02  0.56476922295E+02  0.00000000000E+00 0.  1.
         14    1    4    4    0    0 -0.21284607250E+03  0.74476333436E+02 -0.11587334127E+03  0.25352870851E+03  0.00000000000E+00 0. -1.
         -5    1    5    5    0  501  0.27746695478E+02 -0.66504659000E+02  0.23871055596E+03  0.24939440311E+03  0.47000000000E+01 0.  1.
         13    1    6    6    0    0  0.21049437218E+03 -0.50276308739E+02  0.55382965051E+03  0.59461152842E+03  0.00000000000E+00 0. -1.
        -14    1    6    6    0    0  0.72551658026E+02  0.21785314071E+02  0.26755462185E+03  0.27807160709E+03  0.00000000000E+00 0.  1.
</event>
<event>
12    1  0.9656379E-001  0.2222024E+03  0.7818608E-02  0.1132252E+00
          1   -1    0    0  502    0  0.00000000000E+00  0.00000000000E+00  0.26301494581E+04  0.26301494581E+04  0.00000000000E+00 0. -1.
         -1   -1    0    0    0  501 -0.00000000000E+00 -0.00000000000E+00 -0.29411455648E+02  0.29411455648E+02  0.00000000000E+00 0.  1.
          6    2    1    2  502    0 -0.94810819903E+02 -0.10357472891E+03  0.50057071459E+03  0.54767134295E+03  0.17220930155E+03 0.  0.
         24    2    3    3    0    0 -0.81259957528E+02 -0.10073983073E+03  0.50862249384E+03  0.53098051709E+03  0.80571546428E+02 0.  0.
         -6    2    1    2    0  501  0.94810819903E+02  0.10357472891E+03  0.21001672879E+04  0.21118895708E+04  0.17221529030E+03 0.  0.
        -24    2    5    5    0    0  0.91699868609E+02  0.54912283148E+02  0.87176095184E+03  0.88250682811E+03  0.86179578591E+02 0.  0.
          5    1    3    3  502    0 -0.13550862375E+02 -0.28348981862E+01 -0.80517792494E+01  0.16690825861E+02  0.47000000000E+01 0. -1.
        -11    1    4    4    0    0 -0.22880822851E+02 -0.25720972282E+02  0.39819669007E+02  0.52637500979E+02  0.00000000000E+00 0.  1.
         12    1    4    4    0    0 -0.58379134677E+02 -0.75018858446E+02  0.46880282484E+03  0.47834301611E+03  0.00000000000E+00 0. -1.
         -5    1    5    5    0  501  0.31109512948E+01  0.48662445766E+02  0.12284063360E+04  0.12293827427E+04  0.47000000000E+01 0.  1.
         13    1    6    6    0    0  0.76476210789E+02  0.60366782225E+02  0.84907687018E+03  0.85464863581E+03  0.00000000000E+00 0. -1.
        -14    1    6    6    0    0  0.15223657820E+02 -0.54544990769E+01  0.22684081653E+02  0.27858192297E+02  0.00000000000E+00 0.  1.
</event>
<event>
12    1  0.9656379E-001  0.3154456E+03  0.7818608E-02  0.1077765E+00
          2   -1    0    0  502    0  0.00000000000E+00  0.00000000000E+00  0.53638864018E+03  0.53638864018E+03  0.00000000000E+00 0. -1.
         -2   -1    0    0    0  501 -0.00000000000E+00 -0.00000000000E+00 -0.20034547099E+03  0.20034547099E+03  0.00000000000E+00 0.  1.
          6    2    1    2  502    0  0.22782340866E+02 -0.26376503158E+03  0.67697240032E+02  0.32245496057E+03  0.17118194515E+03 0.  0.
         24    2    3    3    0    0  0.40085878365E+02 -0.24228991460E+03  0.10196950899E+03  0.27821389956E+03  0.81816335667E+02 0.  0.
         -6    2    1    2    0  501 -0.22782340866E+02  0.26376503158E+03  0.26834592916E+03  0.41427915060E+03  0.17183320396E+03 0.  0.
        -24    2    5    5    0    0  0.32664029963E+02  0.21751355614E+03  0.24343168247E+03  0.33775262770E+03  0.80241931240E+02 0.  0.
          5    1    3    3  502    0 -0.17303537499E+02 -0.21475116981E+02 -0.34272268962E+02  0.44241061008E+02  0.47000000000E+01 0. -1.
        -13    1    4    4    0    0  0.59759642940E+02 -0.11234869747E+03  0.55321670621E+02  0.13875853843E+03  0.00000000000E+00 0.  1.
         14    1    4    4    0    0 -0.19673764575E+02 -0.12994121714E+03  0.46647838373E+02  0.13945536113E+03  0.00000000000E+00 0. -1.
         -5    1    5    5    0  501 -0.55446370828E+02  0.46251475440E+02  0.24914246685E+02  0.76526522895E+02  0.47000000000E+01 0.  1.
         13    1    6    6    0    0 -0.20352204910E+02  0.10859162922E+03  0.14087401901E+03  0.17903028631E+03  0.00000000000E+00 0. -1.
        -14    1    6    6    0    0  0.53016234872E+02  0.10892192692E+03  0.10255766346E+03  0.15872234140E+03  0.00000000000E+00 0.  1.
</event>
<event>
12    1  0.9656379E-001  0.2960170E+03  0.7818608E-02  0.1087249E+00
          1   -1    0    0  502    0  0.00000000000E+00  0.00000000000E+00  0.19591924949E+03  0.19591924949E+03  0.00000000000E+00 0. -1.
         -1   -1    0    0    0  501 -0.00000000000E+00 -0.00000000000E+00 -0.48362028956E+03  0.48362028956E+03  0.00000000000E+00 0.  1.
          6    2    1    2  502    0  0.12539062096E+02 -0.24013533269E+03 -0.50712488599E+02  0.30039680951E+03  0.17275497265E+03 0.  0.
         24    2    3    3    0    0  0.14153164355E+02 -0.20971004732E+03 -0.97483093852E+02  0.24438000103E+03  0.77717535389E+02 0.  0.
         -6    2    1    2    0  501 -0.12539062096E+02  0.24013533269E+03 -0.23698855148E+03  0.37914272955E+03  0.17252080963E+03 0.  0.
        -24    2    5    5    0    0  0.10783801219E+01  0.25413869384E+03 -0.24017715081E+03  0.35880099851E+03  0.80408047784E+02 0.  0.
          5    1    3    3  502    0 -0.16141022593E+01 -0.30425285370E+02  0.46770605253E+02  0.56016808475E+02  0.47000000000E+01 0. -1.
        -13    1    4    4    0    0  0.13375044583E+01 -0.10933678681E+03 -0.85735695747E+01  0.10968057240E+03  0.00000000000E+00 0.  1.
         14    1    4    4    0    0  0.12815659897E+02 -0.10037326052E+03 -0.88909524278E+02  0.13469942863E+03  0.00000000000E+00 0. -1.
         -5    1    5    5    0  501 -0.13617442218E+02 -0.14003361148E+02  0.31885993365E+01  0.20341731040E+02  0.47000000000E+01 0.  1.
         13    1    6    6    0    0 -0.97796243769E+01  0.18502423077E+03 -0.12321656842E+03  0.22251276314E+03  0.00000000000E+00 0. -1.
        -14    1    6    6    0    0  0.10858004499E+02  0.69114463069E+02 -0.11696058240E+03  0.13628823537E+03  0.00000000000E+00 0.  1.
</event>
<event>
12    1  0.1835783E+000  0.3459820E+03  0.7818608E-02  0.1064276E+00
         -2   -1    0    0    0  501 -0.00000000000E+00  0.00000000000E+00  0.26049570219E+03  0.26049570219E+03  0.00000000000E+00 0.  1.
          2   -1    0    0  502    0  0.00000000000E+00 -0.00000000000E+00 -0.13050249801E+04  0.13050249801E+04  0.00000000000E+00 0. -1.
          6    2    1    2  502    0 -0.16606862798E+03 -0.25045314649E+03  0.10784740702E+03  0.36229465815E+03  0.17123314029E+03 0.  0.
         24    2    3    3    0    0 -0.15563344289E+03 -0.23252632760E+03  0.43216146027E+02  0.29425383349E+03  0.80171202262E+02 0.  0.
         -6    2    1    2    0  501  0.16606862798E+03  0.25045314649E+03 -0.11523766849E+04  0.12032260241E+04  0.17168364338E+03 0.  0.
        -24    2    5    5    0    0  0.17692918869E+03  0.23670437946E+03 -0.91138283323E+03  0.96155040077E+03  0.81410094256E+02 0.  0.
          5    1    3    3  502    0 -0.10435185091E+02 -0.17926818898E+02  0.64631260991E+02  0.68040824664E+02  0.47000000000E+01 0. -1.
        -13    1    4    4    0    0 -0.79988367359E+02 -0.14226117014E+03  0.62788123142E+02  0.17486774388E+03  0.00000000000E+00 0.  1.
         14    1    4    4    0    0 -0.75645075534E+02 -0.90265157460E+02 -0.19571977115E+02  0.11938608961E+03  0.00000000000E+00 0. -1.
         -5    1    5    5    0  501 -0.10860560710E+02  0.13748767037E+02 -0.24099385168E+03  0.24167562335E+03  0.47000000000E+01 0.  1.
         13    1    6    6    0    0  0.15139195271E+02  0.79286785391E+02 -0.23075829859E+03  0.24446877498E+03  0.00000000000E+00 0. -1.
        -14    1    6    6    0    0  0.16178999342E+03  0.15741759407E+03 -0.68062453464E+03  0.71708162579E+03  0.00000000000E+00 0.  1.
</event>
<event>
12    1  0.9656379E-001  0.5592020E+03  0.7818608E-02  0.9993862E-01
          2   -1    0    0  502    0  0.00000000000E+00  0.00000000000E+00  0.11276209955E+04  0.11276209955E+04  0.00000000000E+00 0. -1.
         -2   -1    0    0    0  501 -0.00000000000E+00 -0.00000000000E+00 -0.68142648565E+03  0.68142648565E+03  0.00000000000E+00 0.  1.
          6    2    1    2  502    0 -0.36411293320E+03 -0.38811336854E+03 -0.47345220749E+03  0.73277630346E+03  0.17202878587E+03 0.  0.
         24    2    3    3    0    0 -0.14778051601E+03 -0.13193946072E+03 -0.25370976883E+03  0.33186033331E+03  0.80718844229E+02 0.  0.
         -6    2    1    2    0  501  0.36411293320E+03  0.38811336854E+03  0.91964671735E+03  0.10762711777E+04  0.17146238157E+03 0.  0.
        -24    2    5    5    0    0  0.11093629854E+03  0.11537203545E+03  0.38767039025E+03  0.42703536100E+03  0.80332429139E+02 0.  0.
          5    1    3    3  502    0 -0.21633241719E+03 -0.25617390782E+03 -0.21974243866E+03  0.40091597015E+03  0.47000000000E+01 0. -1.
        -11    1    4    4    0    0 -0.12187035983E+03 -0.13539746788E+03 -0.24278759055E+03  0.30353034945E+03  0.00000000000E+00 0.  1.
         12    1    4    4    0    0 -0.25910156182E+02  0.34580071568E+01 -0.10922178282E+02  0.28329983857E+02  0.00000000000E+00 0. -1.
         -5    1    5    5    0  501  0.25317663466E+03  0.27274133309E+03  0.53197632710E+03  0.64923581672E+03  0.47000000000E+01 0.  1.
         11    1    6    6    0    0  0.12071125408E+03  0.88340517720E+02  0.30961989379E+03  0.34386004793E+03  0.00000000000E+00 0. -1.
        -12    1    6    6    0    0 -0.97749555416E+01  0.27031517729E+02  0.78050496462E+02  0.83175313071E+02  0.00000000000E+00 0.  1.
</event>
<event>
12    1  0.9656379E-001  0.5482661E+03  0.7818608E-02  0.1001896E+00
          2   -1    0    0  502    0  0.00000000000E+00  0.00000000000E+00  0.10840627247E+04  0.10840627247E+04  0.00000000000E+00 0. -1.
         -2   -1    0    0    0  501 -0.00000000000E+00 -0.00000000000E+00 -0.27906277926E+03  0.27906277926E+03  0.00000000000E+00 0.  1.
          6    2    1    2  502    0  0.17162972660E+03  0.49121991713E+03  0.45688738729E+03  0.71368935331E+03  0.17277916057E+03 0.  0.
         24    2    3    3    0    0  0.77134082224E+02  0.11769820018E+03  0.15749894462E+03  0.22573092327E+03  0.79661780045E+02 0.  0.
         -6    2    1    2    0  501 -0.17162972660E+03 -0.49121991713E+03  0.34811255811E+03  0.64943615060E+03  0.17271708239E+03 0.  0.
        -24    2    5    5    0    0 -0.40492084306E+02 -0.12490721077E+03  0.14182961108E+03  0.20903085510E+03  0.79604268792E+02 0.  0.
          5    1    3    3  502    0  0.94495644377E+02  0.37352171695E+03  0.29938844267E+03  0.48795843004E+03  0.47000000000E+01 0. -1.
        -13    1    4    4    0    0  0.58878084343E+02  0.12732804251E+03  0.12926990654E+03  0.19076102317E+03  0.00000000000E+00 0.  1.
         14    1    4    4    0    0  0.18255997882E+02 -0.96298423344E+01  0.28229038077E+02  0.34969900097E+02  0.00000000000E+00 0. -1.
         -5    1    5    5    0  501 -0.13113764230E+03 -0.36631270637E+03  0.20628294703E+03  0.44040529550E+03  0.47000000000E+01 0.  1.
         13    1    6    6    0    0  0.13658005914E+01 -0.10847183793E+03  0.10370766096E+03  0.15007759319E+03  0.00000000000E+00 0. -1.
        -14    1    6    6    0    0 -0.41857884898E+02 -0.16435372832E+02  0.38121950118E+02  0.58953261903E+02  0.00000000000E+00 0.  1.
</event>
<event>
12    1  0.9656379E-001  0.8978109E+03  0.7818608E-02  0.9428322E-01
         -2   -1    0    0    0  501 -0.00000000000E+00  0.00000000000E+00  0.32531099224E+03  0.32531099224E+03  0.00000000000E+00 0.  1.
          2   -1    0    0  502    0  0.00000000000E+00 -0.00000000000E+00 -0.27645719046E+04  0.27645719046E+04  0.00000000000E+00 0. -1.
          6    2    1    2  502    0 -0.18082051182E+03 -0.86239078597E+03 -0.72196325550E+03  0.11520146174E+04  0.17173471176E+03 0.  0.
         24    2    3    3    0    0 -0.19693109808E+03 -0.70153703327E+03 -0.56475520133E+03  0.92647095636E+03  0.91999614676E+02 0.  0.
         -6    2    1    2    0  501  0.18082051182E+03  0.86239078597E+03 -0.17172976569E+04  0.19378682794E+04  0.17265080639E+03 0.  0.
        -24    2    5    5    0    0  0.16111012385E+03  0.46521528897E+03 -0.10076578196E+04  0.11243895376E+04  0.80596611118E+02 0.  0.
          5    1    3    3  502    0  0.16110586269E+02 -0.16085375270E+03 -0.15720805416E+03  0.22554366105E+03  0.47000000000E+01 0. -1.
        -13    1    4    4    0    0 -0.18999085359E+03 -0.60578004862E+03 -0.51949234929E+03  0.82032816160E+03  0.00000000000E+00 0.  1.
         14    1    4    4    0    0 -0.69402444982E+01 -0.95756984653E+02 -0.45262852049E+02  0.10614279476E+03  0.00000000000E+00 0. -1.
         -5    1    5    5    0  501  0.19710387963E+02  0.39717549700E+03 -0.70963983721E+03  0.81347874180E+03  0.47000000000E+01 0.  1.
         11    1    6    6    0    0  0.73252312772E+02  0.22245588566E+03 -0.57030577986E+03  0.61652348288E+03  0.00000000000E+00 0. -1.
        -12    1    6    6    0    0  0.87857811081E+02  0.24275940331E+03 -0.43735203978E+03  0.50786605474E+03  0.00000000000E+00 0.  1.
</event>
<event>
12    1  0.9656379E-001  0.5099625E+03  0.7818608E-02  0.1011211E+00
          1   -1    0    0  502    0  0.00000000000E+00  0.00000000000E+00  0.15668564845E+04  0.15668564845E+04  0.00000000000E+00 0. -1.
         -1   -1    0    0    0  501 -0.00000000000E+00 -0.00000000000E+00 -0.28086286335E+03  0.28086286335E+03  0.00000000000E+00 0.  1.
          6    2    1    2  502    0  0.81403177175E+02  0.47273526310E+03  0.51892267998E+02  0.51228377437E+03  0.17215327987E+03 0.  0.
         24    2    3    3    0    0  0.27112041686E+02  0.14281626821E+03 -0.22037617026E+02  0.16981948647E+03  0.84979127748E+02 0.  0.
         -6    2    1    2    0  501 -0.81403177175E+02 -0.47273526310E+03  0.12341013532E+04  0.13354355735E+04  0.17400262874E+03 0.  0.
        -24    2    5    5    0    0 -0.68628429403E+01 -0.21163579964E+03  0.41663165573E+03  0.47403671844E+03  0.79322528766E+02 0.  0.
          5    1    3    3  502    0  0.54291135489E+02  0.32991899489E+03  0.73929885024E+02  0.34246428790E+03  0.47000000000E+01 0. -1.
        -11    1    4    4    0    0  0.57204077514E+02  0.10096600387E+03 -0.22821106601E+02  0.11826767660E+03  0.00000000000E+00 0.  1.
         12    1    4    4    0    0 -0.30092035828E+02  0.41850264334E+02  0.78348957445E+00  0.51551809871E+02  0.00000000000E+00 0. -1.
         -5    1    5    5    0  501 -0.74540334235E+02 -0.26109946347E+03  0.81746969743E+03  0.86139885504E+03  0.47000000000E+01 0.  1.
         11    1    6    6    0    0 -0.19503531481E+02 -0.78013949214E+02  0.23369689514E+03  0.24714530707E+03  0.00000000000E+00 0. -1.
        -12    1    6    6    0    0  0.12640688541E+02 -0.13362185042E+03  0.18293476059E+03  0.22689141136E+03  0.00000000000E+00 0.  1.
</event>
<event>
12    1  0.9656379E-001  0.2839514E+03  0.7818608E-02  0.1093550E+00
          1   -1    0    0  502    0  0.00000000000E+00  0.00000000000E+00  0.16977454513E+03  0.16977454513E+03  0.00000000000E+00 0. -1.
         -1   -1    0    0    0  501 -0.00000000000E+00 -0.00000000000E+00 -0.56688510615E+03  0.56688510615E+03  0.00000000000E+00 0.  1.
          6    2    1    2  502    0 -0.16241618853E+03  0.15166617177E+03 -0.34505453535E+03  0.44492502137E+03  0.17179638040E+03 0.  0.
         24    2    3    3    0    0 -0.15813114684E+03  0.17956240527E+03 -0.31719037035E+03  0.40498678008E+03  0.78463010483E+02 0.  0.
         -6    2    1    2    0  501  0.16241618853E+03 -0.15166617177E+03 -0.52056025666E+02  0.29173462991E+03  0.18170750816E+03 0.  0.
        -24    2    5    5    0    0  0.88654665238E+01 -0.23708974182E+02 -0.46292498498E+02  0.91719188280E+02  0.75024676794E+02 0.  0.
          5    1    3    3  502    0 -0.42850416909E+01 -0.27896233499E+02 -0.27864165006E+02  0.39938241289E+02  0.47000000000E+01 0. -1.
        -13    1    4    4    0    0 -0.63752882740E+02  0.10387704622E+03 -0.10565247554E+03  0.16129884183E+03  0.00000000000E+00 0.  1.
         14    1    4    4    0    0 -0.94378264104E+02  0.75685359047E+02 -0.21153789480E+03  0.24368793825E+03  0.00000000000E+00 0. -1.
         -5    1    5    5    0  501  0.15355072201E+03 -0.12795719759E+03 -0.57635271675E+01  0.20001544163E+03  0.47000000000E+01 0.  1.
         11    1    6    6    0    0  0.27573380130E+02  0.16606162353E+02 -0.82785587240E+01  0.33235379559E+02  0.00000000000E+00 0. -1.
        -12    1    6    6    0    0 -0.18707913606E+02 -0.40315136535E+02 -0.38013939774E+02  0.58483808721E+02  0.00000000000E+00 0.  1.
</event>
<event>
12    1  0.9656379E-001  0.4157107E+03  0.7818608E-02  0.1038471E+00
          1   -1    0    0  502    0  0.00000000000E+00  0.00000000000E+00  0.27808377269E+03  0.27808377269E+03  0.00000000000E+00 0. -1.
         -1   -1    0    0    0  501 -0.00000000000E+00 -0.00000000000E+00 -0.65462818098E+03  0.65462818098E+03  0.00000000000E+00 0.  1.
          6    2    1    2  502    0  0.42627850180E+02  0.37250317376E+03 -0.84839881083E+02  0.42767796363E+03  0.18744302356E+03 0.  0.
         24    2    3    3    0    0  0.43175782237E+02  0.31475016540E+03 -0.13192379408E+03  0.35301408302E+03  0.79266894564E+02 0.  0.
         -6    2    1    2    0  501 -0.42627850180E+02 -0.37250317376E+03 -0.29170452721E+03  0.50503399004E+03  0.17144110310E+03 0.  0.
        -24    2    5    5    0    0 -0.79866037528E+02 -0.32575085572E+03 -0.21111616269E+03  0.40458979492E+03  0.81428889514E+02 0.  0.
          5    1    3    3  502    0 -0.54793205702E+00  0.57753008361E+02  0.47083913002E+02  0.74663880611E+02  0.47000000000E+01 0. -1.
        -13    1    4    4    0    0 -0.87257682479E+01  0.20421718679E+03 -0.95302415392E+02  0.22552904202E+03  0.00000000000E+00 0.  1.
         14    1    4    4    0    0  0.51901550485E+02  0.11053297860E+03 -0.36621378692E+02  0.12748504100E+03  0.00000000000E+00 0. -1.
         -5    1    5    5    0  501  0.37238187348E+02 -0.46752318037E+02 -0.80588364515E+02  0.10044419512E+03  0.47000000000E+01 0.  1.
         11    1    6    6    0    0 -0.15297515965E+02 -0.14617290854E+03 -0.51274261476E+02  0.15565854642E+03  0.00000000000E+00 0. -1.
        -12    1    6    6    0    0 -0.64568521564E+02 -0.17957794718E+03 -0.15984190122E+03  0.24893124849E+03  0.00000000000E+00 0.  1.
</event>
<event>
12    1  0.9656379E-001  0.1920521E+03  0.7818608E-02  0.1156623E+00
         -2   -1    0    0    0  501 -0.00000000000E+00  0.00000000000E+00  0.63481827443E+02  0.63481827443E+02  0.00000000000E+00 0.  1.
          2   -1    0    0  502    0  0.00000000000E+00 -0.00000000000E+00 -0.64637175111E+03  0.64637175111E+03  0.00000000000E+00 0. -1.
          6    2    1    2  502    0  0.86104922878E+02  0.69775074299E+00 -0.17900616435E+03  0.26276484794E+03  0.17201050502E+03 0.  0.
         24    2    3    3    0    0  0.13342340344E+02  0.55072068176E+02 -0.67257264605E+02  0.11867853212E+03  0.79687537322E+02 0.  0.
         -6    2    1    2    0  501 -0.86104922878E+02 -0.69775074299E+00 -0.40388375931E+03  0.44708873061E+03  0.17132337085E+03 0.  0.
        -24    2    5    5    0    0 -0.48546240062E+02 -0.19519815246E+02 -0.39164040532E+03  0.40307833997E+03  0.79700567516E+02 0.  0.
          5    1    3    3  502    0  0.72762582534E+02 -0.54374317433E+02 -0.11174889975E+03  0.14408631582E+03  0.47000000000E+01 0. -1.
        -11    1    4    4    0    0 -0.32877866079E+02  0.29998542297E+02 -0.23854923354E+02  0.50496772036E+02  0.00000000000E+00 0.  1.
         12    1    4    4    0    0  0.46220206423E+02  0.25073525879E+02 -0.43402341251E+02  0.68181760082E+02  0.00000000000E+00 0. -1.
         -5    1    5    5    0  501 -0.37558682816E+02  0.18822064503E+02 -0.12243353991E+02  0.44010390637E+02  0.47000000000E+01 0.  1.
         13    1    6    6    0    0  0.17112880254E+02 -0.18788239083E+02 -0.17087895948E+03  0.17275840759E+03  0.00000000000E+00 0. -1.
        -14    1    6    6    0    0 -0.65659120316E+02 -0.73157616294E+00 -0.22076144584E+03  0.23031993238E+03  0.00000000000E+00 0.  1.
</event>
<event>
12    1  0.9656379E-001  0.7868449E+03  0.7818608E-02  0.9579256E-01
         -1   -1    0    0    0  501 -0.00000000000E+00  0.00000000000E+00  0.17903242974E+03  0.17903242974E+03  0.00000000000E+00 0.  1.
          1   -1    0    0  502    0  0.00000000000E+00 -0.00000000000E+00 -0.34626740766E+04  0.34626740766E+04  0.00000000000E+00 0. -1.
          6    2    1    2  502    0  0.45191564473E+02  0.76670878492E+03 -0.15766777040E+04  0.17622210827E+04  0.17212182783E+03 0.  0.
         24    2    3    3    0    0  0.35203057247E+02  0.74407335446E+03 -0.15638023003E+04  0.17339368290E+04  0.78580406307E+02 0.  0.
         -6    2    1    2    0  501 -0.45191564473E+02 -0.76670878492E+03 -0.17069639428E+04  0.18794854236E+04  0.16986735140E+03 0.  0.
        -24    2    5    5    0    0 -0.20933228075E+02 -0.30726827229E+03 -0.55513042618E+03  0.63915619651E+03  0.74154313891E+02 0.  0.
          5    1    3    3  502    0  0.99885072259E+01  0.22635430459E+02 -0.12875403644E+02  0.28284253705E+02  0.47000000000E+01 0. -1.
        -13    1    4    4    0    0 -0.14517816628E+02  0.42099318736E+03 -0.92270388870E+03  0.10143118342E+04  0.00000000000E+00 0.  1.
         14    1    4    4    0    0  0.49720873875E+02  0.32308016710E+03 -0.64109841164E+03  0.71962499476E+03  0.00000000000E+00 0. -1.
         -5    1    5    5    0  501 -0.24258336398E+02 -0.45944051263E+03 -0.11518335166E+04  0.12403292271E+04  0.47000000000E+01 0.  1.
         13    1    6    6    0    0 -0.78009723696E+01 -0.28577065278E+03 -0.53618861742E+03  0.60763801281E+03  0.00000000000E+00 0. -1.
        -14    1    6    6    0    0 -0.13132255706E+02 -0.21497619514E+02 -0.18941808764E+02  0.31518183703E+02  0.00000000000E+00 0.  1.
</event>
<event>
12    1  0.9656379E-001  0.5642016E+03  0.7818608E-02  0.9982592E-01
         -2   -1    0    0    0  501 -0.00000000000E+00  0.00000000000E+00  0.16385117579E+03  0.16385117579E+03  0.00000000000E+00 0.  1.
          2   -1    0    0  502    0  0.00000000000E+00 -0.00000000000E+00 -0.21278008207E+04  0.21278008207E+04  0.00000000000E+00 0. -1.
          6    2    1    2  502    0 -0.50046048791E+03 -0.19556257338E+03 -0.64415279482E+03  0.85633589168E+03  0.17225828350E+03 0.  0.
         24    2    3    3    0    0 -0.15884930968E+03 -0.93456654299E+02 -0.17366894470E+03  0.26599619369E+03  0.81399160209E+02 0.  0.
         -6    2    1    2    0  501  0.50046048791E+03  0.19556257338E+03 -0.13197968501E+04  0.14353161048E+04  0.17193945192E+03 0.  0.
        -24    2    5    5    0    0  0.30194990525E+03  0.70818060738E+02 -0.89093059222E+03  0.94652575915E+03  0.77231791199E+02 0.  0.
          5    1    3    3  502    0 -0.34161117823E+03 -0.10210591908E+03 -0.47048385012E+03  0.59033969799E+03  0.47000000000E+01 0. -1.
        -11    1    4    4    0    0 -0.16310108299E+03 -0.74745403617E+02 -0.14132653899E+03  0.22839008134E+03  0.00000000000E+00 0.  1.
         12    1    4    4    0    0  0.42517733041E+01 -0.18711250682E+02 -0.32342405713E+02  0.37606112344E+02  0.00000000000E+00 0. -1.
         -5    1    5    5    0  501  0.19851058266E+03  0.12474451265E+03 -0.42886625785E+03  0.48879034564E+03  0.47000000000E+01 0.  1.
         11    1    6    6    0    0  0.14301990128E+03  0.33429432812E+02 -0.53750171150E+03  0.55720759956E+03  0.00000000000E+00 0. -1.
        -12    1    6    6    0    0  0.15893000397E+03  0.37388627926E+02 -0.35342888072E+03  0.38931815959E+03  0.00000000000E+00 0.  1.
</event>
<event>
12    1  0.9656379E-001  0.2954030E+03  0.7818608E-02  0.1087561E+00
          2   -1    0    0  502    0  0.00000000000E+00  0.00000000000E+00  0.45017397055E+04  0.45017397055E+04  0.00000000000E+00 0. -1.
         -2   -1    0    0    0  501 -0.00000000000E+00 -0.00000000000E+00 -0.93353521758E+02  0.93353521758E+02  0.00000000000E+00 0.  1.
          6    2    1    2  502    0  0.13894889323E+02  0.23957401371E+03  0.15916306500E+03  0.33561963430E+03  0.17239165198E+03 0.  0.
         24    2    3    3    0    0  0.48479653186E+02  0.61655188760E+02  0.35596980779E+02  0.11620705186E+03  0.78008299475E+02 0.  0.
         -6    2    1    2    0  501 -0.13894889323E+02 -0.23957401371E+03  0.42492231188E+04  0.42594735930E+04  0.17213192685E+03 0.  0.
        -24    2    5    5    0    0  0.13829847594E+01 -0.22996533773E+03  0.41976960637E+04  0.42046751669E+04  0.75862027701E+02 0.  0.
          5    1    3    3  502    0 -0.34584763862E+02  0.17791882495E+03  0.12356608422E+03  0.21941258244E+03  0.47000000000E+01 0. -1.
        -11    1    4    4    0    0  0.52035384009E+01  0.48923301163E+02 -0.11987641559E+02  0.50638619242E+02  0.00000000000E+00 0.  1.
         12    1    4    4    0    0  0.43276114785E+02  0.12731887596E+02  0.47584622338E+02  0.65568432616E+02  0.00000000000E+00 0. -1.
         -5    1    5    5    0  501 -0.15277874083E+02 -0.96086759856E+01  0.51527055101E+02  0.54798426055E+02  0.47000000000E+01 0.  1.
         11    1    6    6    0    0 -0.28275740948E+02 -0.14884568439E+03  0.22744092465E+04  0.22794499283E+04  0.00000000000E+00 0. -1.
        -12    1    6    6    0    0  0.29658725707E+02 -0.81119653332E+02  0.19232868172E+04  0.19252252386E+04  0.00000000000E+00 0.  1.
</event>
<event>
12    1  0.9656379E-001  0.1123959E+04  0.7818608E-02  0.9182149E-01
         -1   -1    0    0    0  501 -0.00000000000E+00  0.00000000000E+00  0.66081447397E+03  0.66081447397E+03  0.00000000000E+00 0.  1.
          1   -1    0    0  502    0  0.00000000000E+00 -0.00000000000E+00 -0.19176336755E+04  0.19176336755E+04  0.00000000000E+00 0. -1.
          6    2    1    2  502    0 -0.81156133340E+03  0.75814716878E+03 -0.55661461131E+03  0.12540366923E+04  0.17137465596E+03 0.  0.
         24    2    3    3    0    0 -0.17863267972E+03  0.16796663222E+03 -0.11171990450E+03  0.28096673771E+03  0.79614991250E+02 0.  0.
         -6    2    1    2    0  501  0.81156133340E+03 -0.75814716878E+03 -0.70020459020E+03  0.13244114571E+04  0.17424210829E+03 0.  0.
        -24    2    5    5    0    0  0.51089699497E+03 -0.40541893074E+03 -0.46286958324E+03  0.80367519969E+03  0.79153816251E+02 0.  0.
          5    1    3    3  502    0 -0.63292865368E+03  0.59018053656E+03 -0.44489470681E+03  0.97306995459E+03  0.47000000000E+01 0. -1.
        -13    1    4    4    0    0 -0.17314119042E+03  0.15999679902E+03 -0.12316160492E+03  0.26598050388E+03  0.00000000000E+00 0.  1.
         14    1    4    4    0    0 -0.54914893033E+01  0.79698332004E+01  0.11441700416E+02  0.14986233831E+02  0.00000000000E+00 0. -1.
         -5    1    5    5    0  501  0.30066433843E+03 -0.35272823803E+03 -0.23733500696E+03  0.52073625746E+03  0.47000000000E+01 0.  1.
         13    1    6    6    0    0  0.52334998727E+02 -0.55172001103E+02 -0.27616735244E+02  0.80904795056E+02  0.00000000000E+00 0. -1.
        -14    1    6    6    0    0  0.45856199624E+03 -0.35024692964E+03 -0.43525284799E+03  0.72277040463E+03  0.00000000000E+00 0.  1.
</event>
<event>
12    1  0.9656379E-001  0.2048181E+04  0.7818608E-02  0.8584420E-01
          2   -1    0    0  502    0  0.00000000000E+00  0.00000000000E+00  0.28688608033E+04  0.28688608033E+04  0.00000000000E+00 0. -1.
         -2   -1    0    0    0  501 -0.00000000000E+00 -0.00000000000E+00 -0.17439580688E+04  0.17439580688E+04  0.00000000000E+00 0.  1.
          6    2    1    2  502    0  0.59038968431E+03 -0.19536299726E+04  0.14894208094E+04  0.25325598445E+04  0.17393955635E+03 0.  0.
         24    2    3    3    0    0  0.30643346733E+03 -0.89328567262E+03  0.62305460504E+03  0.11341415745E+04  0.78862585795E+02 0.  0.
         -6    2    1    2    0  501 -0.59038968431E+03  0.19536299726E+04 -0.36451807491E+03  0.20802590276E+04  0.17138887289E+03 0.  0.
        -24    2    5    5    0    0 -0.42069043274E+03  0.15740345943E+04 -0.31696204709E+03  0.16617209134E+04  0.79284996284E+02 0.  0.
          5    1    3    3  502    0  0.28395621698E+03 -0.10603443000E+04  0.86636620434E+03  0.13984182699E+04  0.47000000000E+01 0. -1.
        -11    1    4    4    0    0  0.27362374500E+03 -0.84396908832E+03  0.56936326459E+03  0.10541955715E+04  0.00000000000E+00 0.  1.
         12    1    4    4    0    0  0.32809722330E+02 -0.49316584300E+02  0.53691340441E+02  0.79946003057E+02  0.00000000000E+00 0. -1.
         -5    1    5    5    0  501 -0.16969925157E+03  0.37959537833E+03 -0.47556027818E+02  0.41853811417E+03  0.47000000000E+01 0.  1.
         13    1    6    6    0    0 -0.21957943172E+03  0.75064240177E+03 -0.11634369965E+03  0.79070538042E+03  0.00000000000E+00 0. -1.
        -14    1    6    6    0    0 -0.20111100102E+03  0.82339219248E+03 -0.20061834744E+03  0.87101553299E+03  0.00000000000E+00 0.  1.
</event>
<event>
12    1  0.9656379E-001  0.2340835E+03  0.7818608E-02  0.1123798E+00
          2   -1    0    0  502    0  0.00000000000E+00  0.00000000000E+00  0.14417865630E+04  0.14417865630E+04  0.00000000000E+00 0. -1.
         -2   -1    0    0    0  501 -0.00000000000E+00 -0.00000000000E+00 -0.89030942498E+02  0.89030942498E+02  0.00000000000E+00 0.  1.
          6    2    1    2  502    0  0.14517497733E+03 -0.63642064008E+02  0.95755076854E+02  0.25203164162E+03  0.17095270480E+03 0.  0.
         24    2    3    3    0    0  0.14858222141E+03 -0.70585777656E+02  0.29795271862E+02  0.18545378985E+03  0.80288986904E+02 0.  0.
         -6    2    1    2    0  501 -0.14517497733E+03  0.63642064008E+02  0.12570005437E+04  0.12787858639E+04  0.17354201965E+03 0.  0.
        -24    2    5    5    0    0 -0.17262073523E+03  0.34511113068E+02  0.10186216496E+04  0.10370246820E+04  0.82711492101E+02 0.  0.
          5    1    3    3  502    0 -0.34072440744E+01  0.69437136487E+01  0.65959804993E+02  0.66577851768E+02  0.47000000000E+01 0. -1.
        -13    1    4    4    0    0  0.11857333867E+03 -0.16081627849E+02  0.29466622705E+02  0.12323366931E+03  0.00000000000E+00 0.  1.
         14    1    4    4    0    0  0.30008882732E+02 -0.54504149807E+02  0.32864915686E+00  0.62220120534E+02  0.00000000000E+00 0. -1.
         -5    1    5    5    0  501  0.27445757898E+02  0.29130950940E+02  0.23837889406E+03  0.24176118188E+03  0.47000000000E+01 0.  1.
         11    1    6    6    0    0 -0.15004857474E+03  0.53689402812E+02  0.93076318333E+03  0.94430780480E+03  0.00000000000E+00 0. -1.
        -12    1    6    6    0    0 -0.22572160486E+02 -0.19178289745E+02  0.87858466275E+02  0.92716877227E+02  0.00000000000E+00 0.  1.
</event>
<event>
12    1  0.9656379E-001  0.4887954E+03  0.7818608E-02  0.1016746E+00
          2   -1    0    0  502    0  0.00000000000E+00  0.00000000000E+00  0.22857178293E+04  0.22857178293E+04  0.00000000000E+00 0. -1.
         -2   -1    0    0    0  501 -0.00000000000E+00 -0.00000000000E+00 -0.23113053744E+03  0.23113053744E+03  0.00000000000E+00 0.  1.
          6    2    1    2  502    0 -0.45375613610E+03 -0.52843171857E+02  0.96628550825E+02  0.49897678226E+03  0.17593669470E+03 0.  0.
         24    2    3    3    0    0 -0.10124092006E+03 -0.15100902227E+02 -0.50617049860E+01  0.13012118100E+03  0.80175680504E+02 0.  0.
         -6    2    1    2    0  501  0.45375613610E+03  0.52843171857E+02  0.19579587410E+04  0.20178715844E+04  0.17180299184E+03 0.  0.
        -24    2    5    5    0    0  0.19282083646E+03 -0.11806529768E+01  0.10969019292E+04  0.11165133164E+04  0.78910547331E+02 0.  0.
          5    1    3    3  502    0 -0.35251521605E+03 -0.37742269630E+02  0.10169025581E+03  0.36885560127E+03  0.47000000000E+01 0. -1.
        -11    1    4    4    0    0 -0.43138861410E+02  0.31407764006E+02 -0.13987758198E+02  0.55163995351E+02  0.00000000000E+00 0.  1.
         12    1    4    4    0    0 -0.58102058647E+02 -0.46508666233E+02  0.89260532124E+01  0.74957185645E+02  0.00000000000E+00 0. -1.
         -5    1    5    5    0  501  0.26093529965E+03  0.54023824834E+02  0.86105681181E+03  0.90135826807E+03  0.47000000000E+01 0.  1.
         11    1    6    6    0    0  0.42250166505E+02  0.18876684960E+02  0.13546925565E+03  0.14315489873E+03  0.00000000000E+00 0. -1.
        -12    1    6    6    0    0  0.15057066995E+03 -0.20057337937E+02  0.96143267354E+03  0.97335841765E+03  0.00000000000E+00 0.  1.
</event>
<event>
12    1  0.9656379E-001  0.2704988E+03  0.7818608E-02  0.1100994E+00
          2   -1    0    0  502    0  0.00000000000E+00  0.00000000000E+00  0.19943067489E+04  0.19943067489E+04  0.00000000000E+00 0. -1.
         -2   -1    0    0    0  501 -0.00000000000E+00 -0.00000000000E+00 -0.64660607019E+02  0.64660607019E+02  0.00000000000E+00 0.  1.
          6    2    1    2  502    0 -0.64486920971E+01  0.20835499163E+03  0.28671652530E+03  0.39383794171E+03  0.17160585738E+03 0.  0.
         24    2    3    3    0    0  0.56576228436E+01  0.22551166549E+03  0.28436838469E+03  0.37219266315E+03  0.82307231295E+02 0.  0.
         -6    2    1    2    0  501  0.64486920971E+01 -0.20835499163E+03  0.16429296166E+04  0.16651294142E+04  0.17316134917E+03 0.  0.
        -24    2    5    5    0    0  0.51336694575E+02 -0.16792739125E+03  0.14557520823E+04  0.14683888668E+04  0.78209169527E+02 0.  0.
          5    1    3    3  502    0 -0.12106314941E+02 -0.17156673866E+02  0.23481406087E+01  0.21645278559E+02  0.47000000000E+01 0. -1.
        -13    1    4    4    0    0  0.39655721079E+02  0.74813887290E+02  0.85027871619E+02  0.11999763705E+03  0.00000000000E+00 0.  1.
         14    1    4    4    0    0 -0.33998098235E+02  0.15069777820E+03  0.19934051307E+03  0.25219502610E+03  0.00000000000E+00 0. -1.
         -5    1    5    5    0  501 -0.44888002478E+02 -0.40427600381E+02  0.18717753434E+03  0.19674054742E+03  0.47000000000E+01 0.  1.
         13    1    6    6    0    0  0.66522149028E+02 -0.85279606274E+02  0.80422298228E+03  0.81146313089E+03  0.00000000000E+00 0. -1.
        -14    1    6    6    0    0 -0.15185454453E+02 -0.82647784974E+02  0.65152909999E+03  0.65692573593E+03  0.00000000000E+00 0.  1.
</event>
<event>
12    1  0.9656379E-001  0.5796773E+03  0.7818608E-02  0.9948490E-01
         -1   -1    0    0    0  501 -0.00000000000E+00  0.00000000000E+00  0.30978036345E+03  0.30978036345E+03  0.00000000000E+00 0.  1.
          1   -1    0    0  502    0  0.00000000000E+00 -0.00000000000E+00 -0.12677415129E+04  0.12677415129E+04  0.00000000000E+00 0. -1.
          6    2    1    2  502    0  0.27976209191E+03  0.47773769214E+03 -0.17909740720E+03  0.60645789442E+03  0.17092444493E+03 0.  0.
         24    2    3    3    0    0  0.24207931551E+03  0.46263342595E+03 -0.19390019901E+03  0.56299131945E+03  0.82035704355E+02 0.  0.
         -6    2    1    2    0  501 -0.27976209191E+03 -0.47773769214E+03 -0.77886374226E+03  0.97106398196E+03  0.17273215532E+03 0.  0.
        -24    2    5    5    0    0 -0.58678538045E+02 -0.11650244647E+03 -0.26131560614E+03  0.30229869898E+03  0.77991451685E+02 0.  0.
          5    1    3    3  502    0  0.37682776402E+02  0.15104266182E+02  0.14802791805E+02  0.43466574968E+02  0.47000000000E+01 0. -1.
        -11    1    4    4    0    0  0.11498637552E+03  0.29618554529E+03 -0.96705120892E+02  0.33211387234E+03  0.00000000000E+00 0.  1.
         12    1    4    4    0    0  0.12709293999E+03  0.16644788067E+03 -0.97195078118E+02  0.23087744711E+03  0.00000000000E+00 0. -1.
         -5    1    5    5    0  501 -0.22108355387E+03 -0.36123524567E+03 -0.51754813612E+03  0.66876528297E+03  0.47000000000E+01 0.  1.
         11    1    6    6    0    0 -0.63585111417E+02 -0.12073784633E+03 -0.26236767116E+03  0.29573212339E+03  0.00000000000E+00 0. -1.
        -12    1    6    6    0    0  0.49065733719E+01  0.42353998629E+01  0.10520650266E+01  0.65665755971E+01  0.00000000000E+00 0.  1.
</event>
<event>
12    1  0.9656379E-001  0.4215157E+03  0.7818608E-02  0.1036574E+00
          1   -1    0    0  502    0  0.00000000000E+00  0.00000000000E+00  0.71252073571E+03  0.71252073571E+03  0.00000000000E+00 0. -1.
         -1   -1    0    0    0  501 -0.00000000000E+00 -0.00000000000E+00 -0.62494178102E+03  0.62494178102E+03  0.00000000000E+00 0.  1.
          6    2    1    2  502    0 -0.16205381164E+03 -0.34912405254E+03 -0.47464060367E+03  0.63465312950E+03  0.17132381678E+03 0.  0.
         24    2    3    3    0    0 -0.17585290005E+03 -0.25740091548E+03 -0.40456158433E+03  0.51830577171E+03  0.88268475253E+02 0.  0.
         -6    2    1    2    0  501  0.16205381164E+03  0.34912405254E+03  0.56221955836E+03  0.70280938723E+03  0.17234024790E+03 0.  0.
        -24    2    5    5    0    0  0.13954407879E+03  0.15219097807E+03  0.34436132012E+03  0.40823575321E+03  0.73736474492E+02 0.  0.
          5    1    3    3  502    0  0.13799088405E+02 -0.91723137059E+02 -0.70079019346E+02  0.11634735779E+03  0.47000000000E+01 0. -1.
        -13    1    4    4    0    0 -0.10705483463E+03 -0.80020452706E+02 -0.16126288564E+03  0.20945101755E+03  0.00000000000E+00 0.  1.
         14    1    4    4    0    0 -0.68798065419E+02 -0.17738046278E+03 -0.24329869868E+03  0.30885475415E+03  0.00000000000E+00 0. -1.
         -5    1    5    5    0  501  0.22509732851E+02  0.19693307447E+03  0.21785823824E+03  0.29457363403E+03  0.47000000000E+01 0.  1.
         11    1    6    6    0    0  0.59282154496E+02  0.11628766088E+03  0.18842646262E+03  0.22921981967E+03  0.00000000000E+00 0. -1.
        -12    1    6    6    0    0  0.80261924298E+02  0.35903317197E+02  0.15593485750E+03  0.17901593354E+03  0.00000000000E+00 0.  1.
</event>
<event>
12    1  0.9656379E-001  0.1965243E+03  0.7818608E-02  0.1152705E+00
          2   -1    0    0  502    0  0.00000000000E+00  0.00000000000E+00  0.21427684785E+04  0.21427684785E+04  0.00000000000E+00 0.  1.
         -2   -1    0    0    0  501 -0.00000000000E+00 -0.00000000000E+00 -0.21265926184E+02  0.21265926184E+02  0.00000000000E+00 0. -1.
          6    2    1    2  502    0 -0.93401312322E+02  0.24272352880E+02  0.64127848552E+03  0.67090638256E+03  0.17194279835E+03 0.  0.
         24    2    3    3    0    0 -0.86647256874E+02  0.78253574398E+02  0.47597645809E+03  0.49681893380E+03  0.81511320051E+02 0.  0.
         -6    2    1    2    0  501  0.93401312322E+02 -0.24272352880E+02  0.14802240668E+04  0.14931280221E+04  0.17045542024E+03 0.  0.
        -24    2    5    5    0    0  0.53144590570E+02 -0.71056371401E+02  0.12039979876E+04  0.12100515574E+04  0.82099099173E+02 0.  0.
          5    1    3    3  502    0 -0.67540554487E+01 -0.53981221518E+02  0.16530202743E+03  0.17408744876E+03  0.47000000000E+01 0. -1.
        -13    1    4    4    0    0 -0.86184480888E+02  0.39685620924E+02  0.40576191848E+03  0.41670786859E+03  0.00000000000E+00 0.  1.
         14    1    4    4    0    0 -0.46277598599E+00  0.38567953474E+02  0.70214539605E+02  0.80111065208E+02  0.00000000000E+00 0. -1.
         -5    1    5    5    0  501  0.40256721752E+02  0.46784018521E+02  0.27622607919E+03  0.28307646468E+03  0.47000000000E+01 0.  1.
         11    1    6    6    0    0 -0.54167706671E+01 -0.25728158095E+02  0.94631196865E+02  0.98215797830E+02  0.00000000000E+00 0. -1.
        -12    1    6    6    0    0  0.58561361237E+02 -0.45328213307E+02  0.11093667907E+04  0.11118357596E+04  0.00000000000E+00 0.  1.
</event>
<event>
12    1  0.9656379E-001  0.2612222E+03  0.7818608E-02  0.1106411E+00
          1   -1    0    0  502    0  0.00000000000E+00  0.00000000000E+00  0.15967008937E+03  0.15967008937E+03  0.00000000000E+00 0.  1.
         -1   -1    0    0    0  501 -0.00000000000E+00 -0.00000000000E+00 -0.60179305185E+03  0.60179305185E+03  0.00000000000E+00 0. -1.
          6    2    1    2  502    0  0.82610557970E+02  0.18024590437E+03 -0.15814509273E+02  0.26125183360E+03  0.16937925353E+03 0.  0.
         24    2    3    3    0    0  0.63372141520E+02  0.93909058936E+02 -0.72314575888E+02  0.15618749581E+03  0.79562530701E+02 0.  0.
         -6    2    1    2    0  501 -0.82610557970E+02 -0.18024590437E+03 -0.42630845321E+03  0.50021130763E+03  0.17076113337E+03 0.  0.
        -24    2    5    5    0    0 -0.57989671286E+02 -0.14825717852E+03 -0.42368732653E+03  0.45948751915E+03  0.79213866457E+02 0.  0.
          5    1    3    3  502    0  0.19238416450E+02  0.86336845430E+02  0.56500066615E+02  0.10506433778E+03  0.47000000000E+01 0. -1.
        -13    1    4    4    0    0  0.58474826231E+02  0.18599773002E+02 -0.20708787903E+02  0.64761954533E+02  0.00000000000E+00 0.  1.
         14    1    4    4    0    0  0.48973152891E+01  0.75309285934E+02 -0.51605787985E+02  0.91425541281E+02  0.00000000000E+00 0. -1.
         -5    1    5    5    0  501 -0.24620886684E+02 -0.31988725848E+02 -0.26211266811E+01  0.40723788473E+02  0.47000000000E+01 0.  1.
         13    1    6    6    0    0  0.18815768183E+02 -0.47433227264E+02 -0.11729175907E+03  0.12791130102E+03  0.00000000000E+00 0. -1.
        -14    1    6    6    0    0 -0.76805439469E+02 -0.10082395125E+03 -0.30639556746E+03  0.33157621814E+03  0.00000000000E+00 0.  1.
</event>
<event>
12    1  0.9656379E-001  0.1957678E+03  0.7818608E-02  0.1153360E+00
          1   -1    0    0  502    0  0.00000000000E+00  0.00000000000E+00  0.68523869014E+03  0.68523869014E+03  0.00000000000E+00 0. -1.
         -1   -1    0    0    0  501 -0.00000000000E+00 -0.00000000000E+00 -0.59709080896E+03  0.59709080896E+03  0.00000000000E+00 0.  1.
          6    2    1    2  502    0  0.68635474721E+02  0.66451555785E+02 -0.56630535039E+03  0.59945691322E+03  0.17181444432E+03 0.  0.
         24    2    3    3    0    0  0.96346256096E+02  0.90472973269E+02 -0.39427264475E+03  0.42349595815E+03  0.80186957876E+02 0.  0.
         -6    2    1    2    0  501 -0.68635474721E+02 -0.66451555785E+02  0.65445323157E+03  0.68287258588E+03  0.16993910256E+03 0.  0.
        -24    2    5    5    0    0 -0.82528016983E+02 -0.99790886395E+02  0.44445854672E+03  0.46974264580E+03  0.79659644312E+02 0.  0.
          5    1    3    3  502    0 -0.27710781375E+02 -0.24021417484E+02 -0.17203270563E+03  0.17596095507E+03  0.47000000000E+01 0. -1.
        -11    1    4    4    0    0  0.20556045842E+02 -0.58814814285E+01 -0.13523400149E+03  0.13691376120E+03  0.00000000000E+00 0.  1.
         12    1    4    4    0    0  0.75790210254E+02  0.96354454697E+02 -0.25903864326E+03  0.28658219696E+03  0.00000000000E+00 0. -1.
         -5    1    5    5    0  501  0.13892542262E+02  0.33339330610E+02  0.20999468484E+03  0.21312994008E+03  0.47000000000E+01 0.  1.
         13    1    6    6    0    0 -0.78130897770E+02 -0.34298145707E+02  0.22325319546E+03  0.23900374321E+03  0.00000000000E+00 0. -1.
        -14    1    6    6    0    0 -0.43971192122E+01 -0.65492740689E+02  0.22120535126E+03  0.23073890259E+03  0.00000000000E+00 0.  1.
</event>
<event>
12    1  0.9656379E-001  0.2804473E+03  0.7818608E-02  0.1095445E+00
         -2   -1    0    0    0  501 -0.00000000000E+00  0.00000000000E+00  0.30553254246E+02  0.30553254246E+02  0.00000000000E+00 0.  1.
          2   -1    0    0  502    0  0.00000000000E+00 -0.00000000000E+00 -0.26090204416E+04  0.26090204416E+04  0.00000000000E+00 0. -1.
          6    2    1    2  502    0  0.40214834154E+02 -0.21753339662E+03 -0.14416005759E+04  0.14686233239E+04  0.17234916797E+03 0.  0.
         24    2    3    3    0    0 -0.26897021542E+02 -0.13243078844E+03 -0.10676096125E+04  0.10792163571E+04  0.81586134480E+02 0.  0.
         -6    2    1    2    0  501 -0.40214834154E+02  0.21753339662E+03 -0.11368666115E+04  0.11709503719E+04  0.17239799785E+03 0.  0.
        -24    2    5    5    0    0  0.50394880748E+01  0.76677602555E+02 -0.74622102298E+03  0.75320119572E+03  0.67537951680E+02 0.  0.
          5    1    3    3  502    0  0.67111855696E+02 -0.85102608174E+02 -0.37399096340E+03  0.38940696681E+03  0.47000000000E+01 0. -1.
        -13    1    4    4    0    0 -0.29045440392E+02 -0.10396995783E+03 -0.53173860508E+03  0.54258578480E+03  0.00000000000E+00 0.  1.
         14    1    4    4    0    0  0.21484188501E+01 -0.28460830618E+02 -0.53587100740E+03  0.53663057232E+03  0.00000000000E+00 0. -1.
         -5    1    5    5    0  501 -0.45254322229E+02  0.14085579406E+03 -0.39064558851E+03  0.41774917621E+03  0.47000000000E+01 0.  1.
         13    1    6    6    0    0 -0.14000315843E+01  0.86004141184E+02 -0.71142212044E+03  0.71660317181E+03  0.00000000000E+00 0. -1.
        -14    1    6    6    0    0  0.64395196591E+01 -0.93265386288E+01 -0.34798902542E+02  0.36598023913E+02  0.00000000000E+00 0.  1.
</event>
<event>
12    1  0.9656379E-001  0.2461765E+03  0.7818608E-02  0.1115745E+00
         -2   -1    0    0    0  501 -0.00000000000E+00  0.00000000000E+00  0.95616289293E+02  0.95616289293E+02  0.00000000000E+00 0.  1.
          2   -1    0    0  502    0  0.00000000000E+00 -0.00000000000E+00 -0.13333753762E+04  0.13333753762E+04  0.00000000000E+00 0. -1.
          6    2    1    2  502    0  0.49382479649E+02 -0.16890934527E+03 -0.10155205906E+03  0.26645762521E+03  0.17238865717E+03 0.  0.
         24    2    3    3    0    0  0.87589647811E+02 -0.12795665015E+03 -0.31608916566E+02  0.17673001453E+03  0.78673526106E+02 0.  0.
         -6    2    1    2    0  501 -0.49382479649E+02  0.16890934527E+03 -0.11362070278E+04  0.11625340403E+04  0.17190110080E+03 0.  0.
        -24    2    5    5    0    0 -0.98853897255E+02  0.11830740026E+03 -0.86473423566E+03  0.88194974832E+03  0.79380893588E+02 0.  0.
          5    1    3    3  502    0 -0.38207168162E+02 -0.40952695124E+02 -0.69943142493E+02  0.89727610682E+02  0.47000000000E+01 0. -1.
        -11    1    4    4    0    0 -0.38927551012E+01 -0.57761198553E+02 -0.32476016506E+01  0.57983243416E+02  0.00000000000E+00 0.  1.
         12    1    4    4    0    0  0.91482402912E+02 -0.70195451593E+02 -0.28361314915E+02  0.11874677112E+03  0.00000000000E+00 0. -1.
         -5    1    5    5    0  501  0.49471417606E+02  0.50601945010E+02 -0.27147279217E+03  0.28058429195E+03  0.47000000000E+01 0.  1.
         11    1    6    6    0    0 -0.80416489745E+02  0.12662965668E+03 -0.69434199017E+03  0.71036095127E+03  0.00000000000E+00 0. -1.
        -12    1    6    6    0    0 -0.18437407510E+02 -0.83222564226E+01 -0.17039224549E+03  0.17158879704E+03  0.00000000000E+00 0.  1.
</event>
<event>
12    1  0.9656379E-001  0.3487469E+03  0.7818608E-02  0.1063131E+00
         -2   -1    0    0    0  501 -0.00000000000E+00  0.00000000000E+00  0.16964851129E+03  0.16964851129E+03  0.00000000000E+00 0.  1.
          2   -1    0    0  502    0  0.00000000000E+00 -0.00000000000E+00 -0.74591087075E+03  0.74591087075E+03  0.00000000000E+00 0. -1.
          6    2    1    2  502    0  0.16597357516E+03  0.25360411665E+03 -0.37824214495E+03  0.51436404840E+03  0.17216555531E+03 0.  0.
         24    2    3    3    0    0  0.16069615154E+03  0.17957532882E+03 -0.20672960416E+03  0.32742353841E+03  0.79990577116E+02 0.  0.
         -6    2    1    2    0  501 -0.16597357516E+03 -0.25360411665E+03 -0.19802021451E+03  0.40119533365E+03  0.17286820052E+03 0.  0.
        -24    2    5    5    0    0 -0.11924908078E+03 -0.26105949978E+03 -0.14965302105E+03  0.33337029022E+03  0.79795476054E+02 0.  0.
          5    1    3    3  502    0  0.52774236208E+01  0.74028787833E+02 -0.17151254079E+03  0.18694050999E+03  0.47000000000E+01 0. -1.
        -11    1    4    4    0    0  0.85269457578E+02  0.13733664482E+03 -0.10003735661E+03  0.19010446371E+03  0.00000000000E+00 0.  1.
         12    1    4    4    0    0  0.75426693960E+02  0.42238684000E+02 -0.10669224755E+03  0.13731907470E+03  0.00000000000E+00 0. -1.
         -5    1    5    5    0  501 -0.46724494380E+02  0.74553831318E+01 -0.48367193460E+02  0.67825043427E+02  0.47000000000E+01 0.  1.
         13    1    6    6    0    0 -0.59246990943E+02 -0.96724611563E+02 -0.18970193727E+02  0.11500315069E+03  0.00000000000E+00 0. -1.
        -14    1    6    6    0    0 -0.60002089836E+02 -0.16433488822E+03 -0.13068282732E+03  0.21836713953E+03  0.00000000000E+00 0.  1.
</event>
<event>
12    1  0.9656379E-001  0.2671441E+03  0.7818608E-02  0.1102925E+00
          2   -1    0    0  502    0  0.00000000000E+00  0.00000000000E+00  0.19722134383E+04  0.19722134383E+04  0.00000000000E+00 0. -1.
         -2   -1    0    0    0  501 -0.00000000000E+00 -0.00000000000E+00 -0.42495748214E+02  0.42495748214E+02  0.00000000000E+00 0.  1.
          6    2    1    2  502    0  0.17192812442E+03 -0.10823156183E+03  0.57440654593E+03  0.63317629266E+03  0.17232523504E+03 0.  0.
         24    2    3    3    0    0  0.43424000997E+02 -0.88426032737E+02  0.36781762357E+03  0.38903157828E+03  0.79692895274E+02 0.  0.
         -6    2    1    2    0  501 -0.17192812442E+03  0.10823156183E+03  0.13553111441E+04  0.13815328938E+04  0.17461812159E+03 0.  0.
        -24    2    5    5    0    0 -0.15858653173E+03  0.14404887792E+03  0.11122223578E+04  0.11354127479E+04  0.78890857968E+02 0.  0.
          5    1    3    3  502    0  0.12850412342E+03 -0.19805529093E+02  0.20658892236E+03  0.24414471438E+03  0.47000000000E+01 0. -1.
        -11    1    4    4    0    0  0.62030577735E+02 -0.88217314719E+02  0.30430382761E+03  0.32284811706E+03  0.00000000000E+00 0.  1.
         12    1    4    4    0    0 -0.18606576738E+02 -0.20871801790E+00  0.63513795958E+02  0.66183461212E+02  0.00000000000E+00 0. -1.
         -5    1    5    5    0  501 -0.13341592696E+02 -0.35817316090E+02  0.24308878631E+03  0.24612014598E+03  0.47000000000E+01 0.  1.
         11    1    6    6    0    0 -0.10833372989E+03  0.51915948860E+02  0.68749155603E+03  0.69790837679E+03  0.00000000000E+00 0. -1.
        -12    1    6    6    0    0 -0.50252801838E+02  0.92132929060E+02  0.42473080179E+03  0.43750437106E+03  0.00000000000E+00 0.  1.
</event>
<event>
12    1  0.9656379E-001  0.1876898E+03  0.7818608E-02  0.1160562E+00
          1   -1    0    0  502    0  0.00000000000E+00  0.00000000000E+00  0.48918460312E+03  0.48918460312E+03  0.00000000000E+00 0. -1.
         -1   -1    0    0    0  501 -0.00000000000E+00 -0.00000000000E+00 -0.13346107269E+04  0.13346107269E+04  0.00000000000E+00 0.  1.
          6    2    1    2  502    0 -0.67086794610E+02 -0.36582488103E+02 -0.13096266898E+04  0.13229602615E+04  0.17106393669E+03 0.  0.
         24    2    3    3    0    0 -0.16386078167E+02 -0.77553432444E+02 -0.10193912627E+04  0.10254575320E+04  0.78240430681E+02 0.  0.
         -6    2    1    2    0  501  0.67086794610E+02  0.36582488103E+02  0.46420056605E+03  0.50083506847E+03  0.17179838136E+03 0.  0.
        -24    2    5    5    0    0  0.11100561434E+03  0.12255400215E+02  0.34283396372E+03  0.36940975853E+03  0.80349248701E+02 0.  0.
          5    1    3    3  502    0 -0.50700716442E+02  0.40970944341E+02 -0.29023542711E+03  0.29750272953E+03  0.47000000000E+01 0. -1.
        -13    1    4    4    0    0 -0.39194801725E+02 -0.77947301393E+02 -0.73696156283E+03  0.74210805100E+03  0.00000000000E+00 0.  1.
         14    1    4    4    0    0  0.22808723558E+02  0.39386894864E+00 -0.28242969987E+03  0.28334948098E+03  0.00000000000E+00 0. -1.
         -5    1    5    5    0  501 -0.43918819730E+02  0.24327087889E+02  0.12136660234E+03  0.13142530994E+03  0.47000000000E+01 0.  1.
         11    1    6    6    0    0  0.36256181757E+02  0.90468833341E+01  0.30486253712E+02  0.48226221903E+02  0.00000000000E+00 0. -1.
        -12    1    6    6    0    0  0.74749432583E+02  0.32085168808E+01  0.31234771001E+03  0.32118353662E+03  0.00000000000E+00 0.  1.
</event>
<event>
12    1  0.9656379E-001  0.9168362E+03  0.7818608E-02  0.9404777E-01
         -1   -1    0    0    0  501 -0.00000000000E+00  0.00000000000E+00  0.24090718205E+04  0.24090718205E+04  0.00000000000E+00 0.  1.
          1   -1    0    0  502    0  0.00000000000E+00 -0.00000000000E+00 -0.73898033851E+03  0.73898033851E+03  0.00000000000E+00 0. -1.
          6    2    1    2  502    0  0.27123759675E+03 -0.85869421064E+03 -0.30852845779E+03  0.96731870412E+03  0.17201768747E+03 0.  0.
         24    2    3    3    0    0  0.16423370280E+03 -0.69520427439E+03 -0.27237177014E+03  0.76855203529E+03  0.78766474601E+02 0.  0.
         -6    2    1    2    0  501 -0.27123759675E+03  0.85869421064E+03  0.19786199398E+04  0.21807334549E+04  0.17244116067E+03 0.  0.
        -24    2    5    5    0    0 -0.23249622311E+03  0.69753035671E+03  0.14684250433E+04  0.16442676086E+04  0.82102183806E+02 0.  0.
          5    1    3    3  502    0  0.10700389395E+03 -0.16348993625E+03 -0.36156687656E+02  0.19876666883E+03  0.47000000000E+01 0. -1.
        -13    1    4    4    0    0  0.11817034839E+03 -0.52015576507E+03 -0.16619438343E+03  0.55870101508E+03  0.00000000000E+00 0.  1.
         14    1    4    4    0    0  0.46063354404E+02 -0.17504850932E+03 -0.10617738671E+03  0.20985102021E+03  0.00000000000E+00 0. -1.
         -5    1    5    5    0  501 -0.38741373635E+02  0.16116385392E+03  0.51019489649E+03  0.53646584630E+03  0.47000000000E+01 0.  1.
         13    1    6    6    0    0 -0.41630781955E+02  0.51676312282E+02  0.13089951853E+03  0.14675914693E+03  0.00000000000E+00 0. -1.
        -14    1    6    6    0    0 -0.19086544116E+03  0.64585404443E+03  0.13375255248E+04  0.14975084617E+04  0.00000000000E+00 0.  1.
</event>
<event>
12    1  0.9656379E-001  0.1028091E+04  0.7818608E-02  0.9278261E-01
          2   -1    0    0  502    0  0.00000000000E+00  0.00000000000E+00  0.15272962960E+04  0.15272962960E+04  0.00000000000E+00 0. -1.
         -2   -1    0    0    0  501 -0.00000000000E+00 -0.00000000000E+00 -0.75412715343E+03  0.75412715343E+03  0.00000000000E+00 0.  1.
          6    2    1    2  502    0  0.84792396288E+03 -0.55512887998E+03  0.59249710590E+02  0.10296121292E+04  0.17160270443E+03 0.  0.
         24    2    3    3    0    0  0.31651036556E+03 -0.20927099650E+03  0.78135745434E+02  0.39526454364E+03  0.78458289970E+02 0.  0.
         -6    2    1    2    0  501 -0.84792396288E+03  0.55512887998E+03  0.71391943194E+03  0.12518113202E+04  0.17380306628E+03 0.  0.
        -24    2    5    5    0    0 -0.74998556164E+03  0.42952923779E+03  0.58361958974E+03  0.10459780395E+04  0.80526547425E+02 0.  0.
          5    1    3    3  502    0  0.53141359732E+03 -0.34585788348E+03 -0.18886034844E+02  0.63434758555E+03  0.47000000000E+01 0. -1.
        -13    1    4    4    0    0  0.19539194530E+03 -0.82444698894E+02  0.40701276942E+02  0.21594382281E+03  0.00000000000E+00 0.  1.
         14    1    4    4    0    0  0.12111842026E+03 -0.12682629760E+03  0.37434468492E+02  0.17932072084E+03  0.00000000000E+00 0. -1.
         -5    1    5    5    0  501 -0.97938401236E+02  0.12559964219E+03  0.13029984221E+03  0.20583328068E+03  0.47000000000E+01 0.  1.
         11    1    6    6    0    0 -0.19473672534E+03  0.11958862592E+03  0.19743160979E+03  0.30199846388E+03  0.00000000000E+00 0. -1.
        -12    1    6    6    0    0 -0.55524883630E+03  0.30994061186E+03  0.38618797995E+03  0.74397957563E+03  0.00000000000E+00 0.  1.
</event>
<event>
12    1  0.9656379E-001  0.3831557E+03  0.7818608E-02  0.1049774E+00
         -2   -1    0    0    0  501 -0.00000000000E+00  0.00000000000E+00  0.50445271234E+02  0.50445271234E+02  0.00000000000E+00 0.  1.
          2   -1    0    0  502    0  0.00000000000E+00 -0.00000000000E+00 -0.41566728786E+04  0.41566728786E+04  0.00000000000E+00 0. -1.
          6    2    1    2  502    0 -0.31938276901E+03 -0.11881359457E+03 -0.90677190898E+03  0.98497609029E+03  0.17838323948E+03 0.  0.
         24    2    3    3    0    0 -0.88232651301E+02 -0.99475562429E+01 -0.40240199470E+03  0.41956182477E+03  0.78872078934E+02 0.  0.
         -6    2    1    2    0  501  0.31938276901E+03  0.11881359457E+03 -0.31994556983E+04  0.32221420595E+04  0.17193214523E+03 0.  0.
        -24    2    5    5    0    0  0.31069763364E+03  0.14607810361E+03 -0.29153967797E+04  0.29366068703E+04  0.79055015858E+02 0.  0.
          5    1    3    3  502    0 -0.23115011771E+03 -0.10886603833E+03 -0.50436991428E+03  0.56541426551E+03  0.47000000000E+01 0. -1.
        -13    1    4    4    0    0 -0.31763984874E+02  0.31171846005E+02 -0.10454575456E+03  0.11362415903E+03  0.00000000000E+00 0.  1.
         14    1    4    4    0    0 -0.56468666426E+02 -0.41119402248E+02 -0.29785624014E+03  0.30593766574E+03  0.00000000000E+00 0. -1.
         -5    1    5    5    0  501  0.86851353734E+01 -0.27264509039E+02 -0.28405891864E+03  0.28553518923E+03  0.47000000000E+01 0.  1.
         11    1    6    6    0    0  0.27215422842E+03  0.13292401548E+03 -0.22989176525E+04  0.23187839681E+04  0.00000000000E+00 0. -1.
        -12    1    6    6    0    0  0.38543405212E+02  0.13154088130E+02 -0.61647912720E+03  0.61782290213E+03  0.00000000000E+00 0.  1.
</event>
<event>
12    1  0.9656379E-001  0.1233172E+04  0.7818608E-02  0.9084307E-01
         -2   -1    0    0    0  501 -0.00000000000E+00  0.00000000000E+00  0.97244591036E+03  0.97244591036E+03  0.00000000000E+00 0.  1.
          2   -1    0    0  502    0  0.00000000000E+00 -0.00000000000E+00 -0.15967174488E+04  0.15967174488E+04  0.00000000000E+00 0. -1.
          6    2    1    2  502    0  0.56551238989E+03 -0.10812179074E+04 -0.12749087488E+03  0.12388951195E+04  0.17254207422E+03 0.  0.
         24    2    3    3    0    0  0.50230426863E+03 -0.84398776852E+03 -0.12637168784E+03  0.99334115801E+03  0.78306583498E+02 0.  0.
         -6    2    1    2    0  501 -0.56551238989E+03  0.10812179074E+04 -0.49678066356E+03  0.13302682397E+04  0.18435328944E+03 0.  0.
        -24    2    5    5    0    0 -0.26483325914E+03  0.37818633184E+03 -0.16657483103E+03  0.49737009597E+03  0.80425625858E+02 0.  0.
          5    1    3    3  502    0  0.63208121256E+02 -0.23723013893E+03 -0.11191870348E+01  0.24555396146E+03  0.47000000000E+01 0. -1.
        -13    1    4    4    0    0  0.19947231975E+03 -0.32245073035E+03 -0.10991608119E+02  0.37932109788E+03  0.00000000000E+00 0.  1.
         14    1    4    4    0    0  0.30283194888E+03 -0.52153703817E+03 -0.11538007973E+03  0.61402006013E+03  0.00000000000E+00 0. -1.
         -5    1    5    5    0  501 -0.30067913075E+03  0.70303157561E+03 -0.33020583253E+03  0.83289814372E+03  0.47000000000E+01 0.  1.
         13    1    6    6    0    0 -0.19681145343E+03  0.31760983248E+03 -0.15868040003E+03  0.40594362076E+03  0.00000000000E+00 0. -1.
        -14    1    6    6    0    0 -0.68021805716E+02  0.60576499366E+02 -0.78944310022E+01  0.91426475209E+02  0.00000000000E+00 0.  1.
</event>
<event>
12    1  0.9656379E-001  0.2680127E+03  0.7818608E-02  0.1102422E+00
          1   -1    0    0  502    0  0.00000000000E+00  0.00000000000E+00  0.10552767313E+04  0.10552767313E+04  0.00000000000E+00 0. -1.
         -1   -1    0    0    0  501 -0.00000000000E+00 -0.00000000000E+00 -0.11042483654E+03  0.11042483654E+03  0.00000000000E+00 0.  1.
          6    2    1    2  502    0 -0.14769114145E+03 -0.14106782098E+03  0.11151827877E+03  0.29035055617E+03  0.17364998010E+03 0.  0.
         24    2    3    3    0    0 -0.12528683609E+03 -0.26882743464E+02  0.51883001273E+02  0.15951233107E+03  0.79579298482E+02 0.  0.
         -6    2    1    2    0  501  0.14769114145E+03  0.14106782098E+03  0.83333361601E+03  0.87535101170E+03  0.17344069515E+03 0.  0.
        -24    2    5    5    0    0  0.17678340466E+03  0.13933256165E+03  0.75087335619E+03  0.78776587967E+03  0.78091928101E+02 0.  0.
          5    1    3    3  502    0 -0.22404305359E+02 -0.11418507752E+03  0.59635277501E+02  0.13083822511E+03  0.47000000000E+01 0. -1.
        -11    1    4    4    0    0 -0.35975545917E+02 -0.46300274320E+02  0.12294737650E+02  0.59909230341E+02  0.00000000000E+00 0.  1.
         12    1    4    4    0    0 -0.89311290177E+02  0.19417530856E+02  0.39588263623E+02  0.99603100727E+02  0.00000000000E+00 0. -1.
         -5    1    5    5    0  501 -0.29092263207E+02  0.17352593255E+01  0.82460259821E+02  0.87585132032E+02  0.47000000000E+01 0.  1.
         11    1    6    6    0    0  0.36501395794E+02  0.33550166716E+02  0.29631835941E+03  0.30043724088E+03  0.00000000000E+00 0. -1.
        -12    1    6    6    0    0  0.14028200887E+03  0.10578239494E+03  0.45455499677E+03  0.48732863879E+03  0.00000000000E+00 0.  1.
</event>
<event>
12    1  0.9656379E-001  0.7481092E+03  0.7818608E-02  0.9638321E-01
         -1   -1    0    0    0  501 -0.00000000000E+00  0.00000000000E+00  0.44631323986E+03  0.44631323986E+03  0.00000000000E+00 0.  1.
          1   -1    0    0  502    0  0.00000000000E+00 -0.00000000000E+00 -0.20356283544E+04  0.20356283544E+04  0.00000000000E+00 0. -1.
          6    2    1    2  502    0  0.63057494785E+03  0.36387868145E+03 -0.25624574206E+02  0.74847582747E+03  0.17183418120E+03 0.  0.
         24    2    3    3    0    0  0.56463931167E+03  0.29691497195E+03 -0.66202838050E+02  0.64600469980E+03  0.77221781574E+02 0.  0.
         -6    2    1    2    0  501 -0.63057494785E+03 -0.36387868145E+03 -0.15636905403E+04  0.17334657668E+04  0.17246158705E+03 0.  0.
        -24    2    5    5    0    0 -0.35873447302E+03 -0.23619216470E+03 -0.77625914733E+03  0.89068977104E+03  0.79201285456E+02 0.  0.
          5    1    3    3  502    0  0.65935636190E+02  0.66963709502E+02  0.40578263844E+02  0.10247112767E+03  0.47000000000E+01 0. -1.
        -13    1    4    4    0    0  0.32277058348E+03  0.21000443897E+03 -0.26974453754E+02  0.38601856834E+03  0.00000000000E+00 0.  1.
         14    1    4    4    0    0  0.24186872819E+03  0.86910532980E+02 -0.39228384296E+02  0.25998613146E+03  0.00000000000E+00 0. -1.
         -5    1    5    5    0  501 -0.27184047483E+03 -0.12768651675E+03 -0.78743139301E+03  0.84277599575E+03  0.47000000000E+01 0.  1.
         11    1    6    6    0    0 -0.32038471447E+03 -0.23345210300E+03 -0.72855548242E+03  0.82942108764E+03  0.00000000000E+00 0. -1.
        -12    1    6    6    0    0 -0.38349758558E+02 -0.27400617044E+01 -0.47703664907E+02  0.61268683396E+02  0.00000000000E+00 0.  1.
</event>
<event>
12    1  0.9656379E-001  0.2080134E+03  0.7818608E-02  0.1143149E+00
         -2   -1    0    0    0  501 -0.00000000000E+00  0.00000000000E+00  0.71076720848E+03  0.71076720848E+03  0.00000000000E+00 0.  1.
          2   -1    0    0  502    0  0.00000000000E+00 -0.00000000000E+00 -0.32457099210E+03  0.32457099210E+03  0.00000000000E+00 0. -1.
          6    2    1    2  502    0 -0.75481106755E+02 -0.97415212508E+02  0.66030618038E+03  0.69341086894E+03  0.17212571051E+03 0.  0.
         24    2    3    3    0    0 -0.68614832363E+02 -0.11749504074E+03  0.65061061771E+03  0.66961088657E+03  0.81064688405E+02 0.  0.
         -6    2    1    2    0  501  0.75481106755E+02  0.97415212508E+02 -0.27410996400E+03  0.34192733163E+03  0.16306718447E+03 0.  0.
        -24    2    5    5    0    0 -0.13427536077E+02  0.36854097682E+02 -0.81384813063E+02  0.12116168847E+03  0.80735021608E+02 0.  0.
          5    1    3    3  502    0 -0.68662743919E+01  0.20079828231E+02  0.96955626626E+01  0.23799982377E+02  0.47000000000E+01 0. -1.
        -13    1    4    4    0    0 -0.22796046403E+02 -0.75393303566E+02  0.50724693620E+03  0.51332569022E+03  0.00000000000E+00 0.  1.
         14    1    4    4    0    0 -0.45818785960E+02 -0.42101737173E+02  0.14336368151E+03  0.15628519634E+03  0.00000000000E+00 0. -1.
         -5    1    5    5    0  501  0.88908642832E+02  0.60561114826E+02 -0.19272515094E+03  0.22076564317E+03  0.47000000000E+01 0.  1.
         11    1    6    6    0    0  0.37806883856E+01  0.60439235920E+02 -0.54253494957E+02  0.81305821184E+02  0.00000000000E+00 0. -1.
        -12    1    6    6    0    0 -0.17208224462E+02 -0.23585138238E+02 -0.27131318106E+02  0.39855867284E+02  0.00000000000E+00 0.  1.
</event>
<event>
12    1  0.9656379E-001  0.1857353E+03  0.7818608E-02  0.1162365E+00
          2   -1    0    0  502    0  0.00000000000E+00  0.00000000000E+00  0.28545196014E+03  0.28545196014E+03  0.00000000000E+00 0. -1.
         -2   -1    0    0    0  501 -0.00000000000E+00 -0.00000000000E+00 -0.11121777955E+04  0.11121777955E+04  0.00000000000E+00 0.  1.
          6    2    1    2  502    0 -0.48979817371E+02 -0.46389268912E+02 -0.10728195665E+04  0.10885716431E+04  0.17174228703E+03 0.  0.
         24    2    3    3    0    0 -0.69058979244E+02  0.12841330525E+02 -0.86371169732E+03  0.87026079225E+03  0.80136808418E+02 0.  0.
         -6    2    1    2    0  501  0.48979817371E+02  0.46389268912E+02  0.24609373110E+03  0.30905811256E+03  0.17436687091E+03 0.  0.
        -24    2    5    5    0    0 -0.12007118413E+02  0.27220287330E+02  0.22632377468E+03  0.24197758358E+03  0.80284400935E+02 0.  0.
          5    1    3    3  502    0  0.20079161873E+02 -0.59230599437E+02 -0.20910786914E+03  0.21831085083E+03  0.47000000000E+01 0. -1.
        -11    1    4    4    0    0 -0.24359897457E+02  0.19243148662E+02 -0.69247299616E+03  0.69316848875E+03  0.00000000000E+00 0.  1.
         12    1    4    4    0    0 -0.44699081787E+02 -0.64018181373E+01 -0.17123870115E+03  0.17709230350E+03  0.00000000000E+00 0. -1.
         -5    1    5    5    0  501  0.60986935784E+02  0.19168981582E+02  0.19769956414E+02  0.67080528976E+02  0.47000000000E+01 0.  1.
         13    1    6    6    0    0  0.86318419197E+01  0.13467258380E+02  0.21342278548E+03  0.21402140338E+03  0.00000000000E+00 0. -1.
        -14    1    6    6    0    0 -0.20638960333E+02  0.13753028951E+02  0.12900989204E+02  0.27956180200E+02  0.00000000000E+00 0.  1.
</event>
<event>
12    1  0.9656379E-001  0.2720719E+03  0.7818608E-02  0.1100100E+00
         -2   -1    0    0    0  501 -0.00000000000E+00  0.00000000000E+00  0.70450285276E+02  0.70450285276E+02  0.00000000000E+00 0.  1.
          2   -1    0    0  502    0  0.00000000000E+00 -0.00000000000E+00 -0.30630240795E+04  0.30630240795E+04  0.00000000000E+00 0. -1.
          6    2    1    2  502    0  0.20877096822E+03 -0.30851128070E+02 -0.22449104489E+03  0.35195368900E+03  0.17011190637E+03 0.  0.
         24    2    3    3    0    0  0.67144390129E+02 -0.28198510827E+02 -0.16359014871E+03  0.19769373582E+03  0.83770825986E+02 0.  0.
         -6    2    1    2    0  501 -0.20877096822E+03  0.30851128070E+02 -0.27680827493E+04  0.27815206758E+04  0.17331489650E+03 0.  0.
        -24    2    5    5    0    0 -0.64670472857E+02  0.10526871731E+02 -0.63286754841E+03  0.64134683414E+03  0.80692891558E+02 0.  0.
          5    1    3    3  502    0  0.14162657809E+03 -0.26526172432E+01 -0.60900896180E+02  0.15425995318E+03  0.47000000000E+01 0. -1.
        -11    1    4    4    0    0  0.54578364662E+02  0.22220327772E+02 -0.82515270263E+02  0.10139679818E+03  0.00000000000E+00 0.  1.
         12    1    4    4    0    0  0.12566025468E+02 -0.50418838598E+02 -0.81074878451E+02  0.96296937633E+02  0.00000000000E+00 0. -1.
         -5    1    5    5    0  501 -0.14410049537E+03  0.20324256339E+02 -0.21352152009E+04  0.21401738416E+04  0.47000000000E+01 0.  1.
         11    1    6    6    0    0 -0.22207581871E+02 -0.12530924810E+02 -0.48735249851E+03  0.48801911702E+03  0.00000000000E+00 0. -1.
        -12    1    6    6    0    0 -0.42462890985E+02  0.23057796541E+02 -0.14551504989E+03  0.15332771712E+03  0.00000000000E+00 0.  1.
</event>
<event>
12    1  0.9656379E-001  0.1791901E+03  0.7818608E-02  0.1168589E+00
         -2   -1    0    0    0  501 -0.00000000000E+00  0.00000000000E+00  0.34186307523E+02  0.34186307523E+02  0.00000000000E+00 0.  1.
          2   -1    0    0  502    0  0.00000000000E+00 -0.00000000000E+00 -0.10457890212E+04  0.10457890212E+04  0.00000000000E+00 0. -1.
          6    2    1    2  502    0 -0.47324035114E+02  0.73414128838E+01 -0.33021927389E+03  0.37509430314E+03  0.17134032438E+03 0.  0.
         24    2    3    3    0    0 -0.40135005965E+01  0.21585471954E+01 -0.45335331918E+02  0.86852018093E+02  0.73940605986E+02 0.  0.
         -6    2    1    2    0  501  0.47324035114E+02 -0.73414128838E+01 -0.68138343982E+03  0.70488102561E+03  0.17401266496E+03 0.  0.
        -24    2    5    5    0    0  0.37145084069E+02 -0.63051655411E+02 -0.57892618469E+03  0.58771950764E+03  0.70024451521E+02 0.  0.
          5    1    3    3  502    0 -0.43310534518E+02  0.51828656884E+01 -0.28488394197E+03  0.28824228505E+03  0.47000000000E+01 0. -1.
        -11    1    4    4    0    0  0.83489946228E+01  0.29711373704E+02  0.17529829756E+01  0.30911881016E+02  0.00000000000E+00 0.  1.
         12    1    4    4    0    0 -0.12362495219E+02 -0.27552826509E+02 -0.47088314894E+02  0.55940137077E+02  0.00000000000E+00 0. -1.
         -5    1    5    5    0  501  0.10178951045E+02  0.55710242528E+02 -0.10245725512E+03  0.11716151798E+03  0.47000000000E+01 0.  1.
         13    1    6    6    0    0  0.55943307972E+02 -0.49341021405E+02 -0.36586980211E+03  0.37339644106E+03  0.00000000000E+00 0. -1.
        -14    1    6    6    0    0 -0.18798223903E+02 -0.13710634007E+02 -0.21305638259E+03  0.21432306658E+03  0.00000000000E+00 0.  1.
</event>
<event>
12    1  0.9656379E-001  0.3942396E+03  0.7818608E-02  0.1045793E+00
         -1   -1    0    0    0  501 -0.00000000000E+00  0.00000000000E+00  0.31247480814E+03  0.31247480814E+03  0.00000000000E+00 0.  1.
          1   -1    0    0  502    0  0.00000000000E+00 -0.00000000000E+00 -0.77629809619E+03  0.77629809619E+03  0.00000000000E+00 0. -1.
          6    2    1    2  502    0  0.30726684336E+03  0.17676282440E+03  0.94665288644E+02  0.40472671548E+03  0.17083380296E+03 0.  0.
         24    2    3    3    0    0  0.11772838247E+03  0.14135908242E+03  0.34270797204E+02  0.20261823545E+03  0.77700061622E+02 0.  0.
         -6    2    1    2    0  501 -0.30726684336E+03 -0.17676282440E+03 -0.55848857670E+03  0.68404618884E+03  0.17421736152E+03 0.  0.
        -24    2    5    5    0    0 -0.27883363594E+03 -0.20030954424E+03 -0.53261730937E+03  0.63872171673E+03  0.80075733752E+02 0.  0.
          5    1    3    3  502    0  0.18953846089E+03  0.35403741976E+02  0.60394491440E+02  0.20210848003E+03  0.47000000000E+01 0. -1.
        -11    1    4    4    0    0  0.45275497862E+02  0.80907526500E+02  0.52451709377E+02  0.10652267537E+03  0.00000000000E+00 0.  1.
         12    1    4    4    0    0  0.72452884603E+02  0.60451555924E+02 -0.18180912172E+02  0.96095560087E+02  0.00000000000E+00 0. -1.
         -5    1    5    5    0  501 -0.28433207411E+02  0.23546719844E+02 -0.25871267328E+02  0.45324472112E+02  0.47000000000E+01 0.  1.
         11    1    6    6    0    0 -0.10148922710E+03 -0.11304884212E+03 -0.27306307867E+03  0.31247967751E+03  0.00000000000E+00 0. -1.
        -12    1    6    6    0    0 -0.17734440885E+03 -0.87260702121E+02 -0.25955423070E+03  0.32624203922E+03  0.00000000000E+00 0.  1.
</event>
<event>
12    1  0.9656379E-001  0.3156277E+03  0.7818608E-02  0.1077679E+00
         -2   -1    0    0    0  501 -0.00000000000E+00  0.00000000000E+00  0.32258776930E+03  0.32258776930E+03  0.00000000000E+00 0.  1.
          2   -1    0    0  502    0  0.00000000000E+00 -0.00000000000E+00 -0.39330100996E+03  0.39330100996E+03  0.00000000000E+00 0. -1.
          6    2    1    2  502    0 -0.98621112564E+01  0.26713352595E+03  0.13032246138E+03  0.34357278246E+03  0.17204862971E+03 0.  0.
         24    2    3    3    0    0 -0.52906198418E+02  0.23770393996E+03  0.13826931216E+03  0.29061868528E+03  0.77708356332E+02 0.  0.
         -6    2    1    2    0  501  0.98621112564E+01 -0.26713352595E+03 -0.20103570204E+03  0.37231599680E+03  0.16354285694E+03 0.  0.
        -24    2    5    5    0    0 -0.14829234400E+02 -0.12282449747E+03 -0.40374242297E+02  0.15490175418E+03  0.84016133176E+02 0.  0.
          5    1    3    3  502    0  0.43044087161E+02  0.29429585992E+02 -0.79468507880E+01  0.52954097185E+02  0.47000000000E+01 0. -1.
        -11    1    4    4    0    0  0.13109286052E+02  0.11888951388E+03  0.68485096863E+02  0.13782880100E+03  0.00000000000E+00 0.  1.
         12    1    4    4    0    0 -0.66015484469E+02  0.11881442608E+03  0.69784215301E+02  0.15278988428E+03  0.00000000000E+00 0. -1.
         -5    1    5    5    0  501  0.24691345656E+02 -0.14430902848E+03 -0.16066145974E+03  0.21741424262E+03  0.47000000000E+01 0.  1.
         11    1    6    6    0    0  0.30198203372E+02 -0.21721165327E+02 -0.32003227959E+00  0.37200039391E+02  0.00000000000E+00 0. -1.
        -12    1    6    6    0    0 -0.45027437772E+02 -0.10110333215E+03 -0.40054210018E+02  0.11770171479E+03  0.00000000000E+00 0.  1.
</event>
<event>
12    1  0.9656379E-001  0.2207187E+03  0.7818608E-02  0.1133348E+00
         -1   -1    0    0    0  501 -0.00000000000E+00  0.00000000000E+00  0.81088414234E+02  0.81088414234E+02  0.00000000000E+00 0.  1.
          1   -1    0    0  502    0  0.00000000000E+00 -0.00000000000E+00 -0.26910920931E+04  0.26910920931E+04  0.00000000000E+00 0. -1.
          6    2    1    2  502    0  0.36063135046E+02  0.13253271503E+03 -0.84516194668E+02  0.23713985660E+03  0.17385871898E+03 0.  0.
         24    2    3    3    0    0  0.16529841335E+02  0.93288131226E+02  0.18311483732E+02  0.12525907914E+03  0.79866234340E+02 0.  0.
         -6    2    1    2    0  501 -0.36063135046E+02 -0.13253271503E+03 -0.25254874842E+04  0.25350406508E+04  0.17169332469E+03 0.  0.
        -24    2    5    5    0    0 -0.41774695572E+02 -0.14458297937E+03 -0.25007367906E+04  0.25065359559E+04  0.79928963778E+02 0.  0.
          5    1    3    3  502    0  0.19533293711E+02  0.39244583806E+02 -0.10282767840E+03  0.11188077747E+03  0.47000000000E+01 0. -1.
        -13    1    4    4    0    0  0.33810127944E+02  0.24895237073E+02 -0.18277259787E+02  0.45792530022E+02  0.00000000000E+00 0.  1.
         14    1    4    4    0    0 -0.17280286609E+02  0.68392894153E+02  0.36588743519E+02  0.79466549115E+02  0.00000000000E+00 0. -1.
         -5    1    5    5    0  501  0.57115605258E+01  0.12050264334E+02 -0.24750693666E+02  0.28504694896E+02  0.47000000000E+01 0.  1.
         11    1    6    6    0    0 -0.62755534132E+02 -0.12238271459E+03 -0.18641167543E+04  0.18691835275E+04  0.00000000000E+00 0. -1.
        -12    1    6    6    0    0  0.20980838560E+02 -0.22200264779E+02 -0.63662003631E+03  0.63735242839E+03  0.00000000000E+00 0.  1.
</event>
<event>
12    1  0.9656379E-001  0.6370440E+03  0.7818608E-02  0.9831399E-01
          2   -1    0    0  502    0  0.00000000000E+00  0.00000000000E+00  0.84595679886E+03  0.84595679886E+03  0.00000000000E+00 0. -1.
         -2   -1    0    0    0  501 -0.00000000000E+00 -0.00000000000E+00 -0.73966476690E+03  0.73966476690E+03  0.00000000000E+00 0.  1.
          6    2    1    2  502    0  0.30022668068E+03 -0.53455008672E+03 -0.41683648819E+03  0.76143861519E+03  0.17365555510E+03 0.  0.
         24    2    3    3    0    0  0.26610128687E+03 -0.36599809607E+03 -0.33416709218E+03  0.57057050604E+03  0.95491128732E+02 0.  0.
         -6    2    1    2    0  501 -0.30022668068E+03  0.53455008672E+03  0.52312852016E+03  0.82418295056E+03  0.17243616906E+03 0.  0.
        -24    2    5    5    0    0 -0.31070968667E+03  0.45648353659E+03  0.46039225399E+03  0.72337516934E+03  0.79955484553E+02 0.  0.
          5    1    3    3  502    0  0.34125393809E+02 -0.16855199065E+03 -0.82669396015E+02  0.19086810916E+03  0.47000000000E+01 0. -1.
        -13    1    4    4    0    0  0.14443670002E+03 -0.19993847739E+03 -0.12283544202E+03  0.27554654937E+03  0.00000000000E+00 0.  1.
         14    1    4    4    0    0  0.12166458684E+03 -0.16605961868E+03 -0.21133165016E+03  0.29502395667E+03  0.00000000000E+00 0. -1.
         -5    1    5    5    0  501  0.10483005995E+02  0.78066550125E+02  0.62736266168E+02  0.10080778123E+03  0.47000000000E+01 0.  1.
         13    1    6    6    0    0 -0.21646676190E+03  0.37663274565E+03  0.35580914556E+03  0.56152491679E+03  0.00000000000E+00 0. -1.
        -14    1    6    6    0    0 -0.94242924768E+02  0.79850790939E+02  0.10458310843E+03  0.16185025255E+03  0.00000000000E+00 0.  1.
</event>
<event>
12    1  0.9656379E-001  0.1155942E+04  0.7818608E-02  0.9152319E-01
          2   -1    0    0  502    0  0.00000000000E+00  0.00000000000E+00  0.33454018361E+04  0.33454018361E+04  0.00000000000E+00 0. -1.
         -2   -1    0    0    0  501 -0.00000000000E+00 -0.00000000000E+00 -0.57969665093E+03  0.57969665093E+03  0.00000000000E+00 0.  1.
          6    2    1    2  502    0  0.10112556539E+04  0.53295306659E+03  0.28847635628E+03  0.11914825759E+04  0.17243883526E+03 0.  0.
         24    2    3    3    0    0  0.24616862272E+03  0.14610553845E+03  0.52315196441E+02  0.30221132445E+03  0.81541312662E+02 0.  0.
         -6    2    1    2    0  501 -0.10112556539E+04 -0.53295306659E+03  0.24772288289E+04  0.27336159111E+04  0.17122006291E+03 0.  0.
        -24    2    5    5    0    0 -0.92279714253E+03 -0.49120667720E+03  0.21489978319E+04  0.23910880339E+04  0.79194307818E+02 0.  0.
          5    1    3    3  502    0  0.76508703118E+03  0.38684752813E+03  0.23616115984E+03  0.88927125149E+03  0.47000000000E+01 0. -1.
        -11    1    4    4    0    0  0.12971588254E+03  0.48985115096E+02  0.58397988992E+02  0.15045290560E+03  0.00000000000E+00 0.  1.
         12    1    4    4    0    0  0.11645274017E+03  0.97120423358E+02 -0.60827925516E+01  0.15175841885E+03  0.00000000000E+00 0. -1.
         -5    1    5    5    0  501 -0.88458511370E+02 -0.41746389392E+02  0.32823099703E+03  0.34252787722E+03  0.47000000000E+01 0.  1.
         13    1    6    6    0    0 -0.73889361179E+03 -0.42050841385E+03  0.17876754204E+04  0.19795389626E+04  0.00000000000E+00 0. -1.
        -14    1    6    6    0    0 -0.18390353073E+03 -0.70698263349E+02  0.36132241151E+03  0.41154907134E+03  0.00000000000E+00 0.  1.
</event>
<event>
12    1  0.9656379E-001  0.5982576E+03  0.7818608E-02  0.9909028E-01
         -1   -1    0    0    0  501 -0.00000000000E+00  0.00000000000E+00  0.34461948499E+03  0.34461948499E+03  0.00000000000E+00 0.  1.
          1   -1    0    0  502    0  0.00000000000E+00 -0.00000000000E+00 -0.10409543394E+04  0.10409543394E+04  0.00000000000E+00 0. -1.
          6    2    1    2  502    0  0.39630669870E+03 -0.41403690477E+03 -0.38105669194E+03  0.70894385796E+03  0.17003421221E+03 0.  0.
         24    2    3    3    0    0  0.30050877426E+03 -0.36022562695E+03 -0.24862162811E+03  0.53679847731E+03  0.79195110698E+02 0.  0.
         -6    2    1    2    0  501 -0.39630669870E+03  0.41403690477E+03 -0.31527816249E+03  0.67662996644E+03  0.17303824374E+03 0.  0.
        -24    2    5    5    0    0 -0.22989479773E+03  0.24113116295E+03 -0.26091374571E+03  0.43052654073E+03  0.79254424462E+02 0.  0.
          5    1    3    3  502    0  0.95797924445E+02 -0.53811277821E+02 -0.13243506383E+03  0.17214538066E+03  0.47000000000E+01 0. -1.
        -11    1    4    4    0    0  0.52454505503E+02 -0.11664841579E+03 -0.73849897032E+02  0.14768932035E+03  0.00000000000E+00 0.  1.
         12    1    4    4    0    0  0.24805426876E+03 -0.24357721116E+03 -0.17477173108E+03  0.38910915696E+03  0.00000000000E+00 0. -1.
         -5    1    5    5    0  501 -0.16641190097E+03  0.17290574182E+03 -0.54364416776E+02  0.24610342572E+03  0.47000000000E+01 0.  1.
         11    1    6    6    0    0 -0.12932424073E+03  0.16460854461E+03 -0.12017414880E+03  0.24137638294E+03  0.00000000000E+00 0. -1.
        -12    1    6    6    0    0 -0.10057055700E+03  0.76522618344E+02 -0.14073959691E+03  0.18915015779E+03  0.00000000000E+00 0.  1.
</event>
<event>
12    1  0.9656379E-001  0.1107825E+04  0.7818608E-02  0.9197598E-01
          1   -1    0    0  502    0  0.00000000000E+00  0.00000000000E+00  0.24105996838E+04  0.24105996838E+04  0.00000000000E+00 0. -1.
         -1   -1    0    0    0  501 -0.00000000000E+00 -0.00000000000E+00 -0.66440716391E+03  0.66440716391E+03  0.00000000000E+00 0.  1.
          6    2    1    2  502    0  0.27631292953E+03  0.10590162789E+04  0.12973431315E+03  0.11153141489E+04  0.17096884128E+03 0.  0.
         24    2    3    3    0    0  0.29274244742E+03  0.98289371870E+03  0.12784747477E+03  0.10372742656E+04  0.88400918606E+02 0.  0.
         -6    2    1    2    0  501 -0.27631292953E+03 -0.10590162789E+04  0.16164582067E+04  0.19596926988E+04  0.17202914107E+03 0.  0.
        -24    2    5    5    0    0 -0.27951477272E+03 -0.92438282734E+03  0.14697812484E+04  0.17605127846E+04  0.80846935782E+02 0.  0.
          5    1    3    3  502    0 -0.16429517891E+02  0.76122560247E+02  0.18868383803E+01  0.78039883366E+02  0.47000000000E+01 0. -1.
        -13    1    4    4    0    0  0.17314919860E+03  0.70968825390E+03  0.10715831914E+03  0.73832307837E+03  0.00000000000E+00 0.  1.
         14    1    4    4    0    0  0.11959324882E+03  0.27320546480E+03  0.20689155622E+02  0.29895118719E+03  0.00000000000E+00 0. -1.
         -5    1    5    5    0  501  0.32018431853E+01 -0.13463345160E+03  0.14667695832E+03  0.19917991413E+03  0.47000000000E+01 0.  1.
         11    1    6    6    0    0 -0.87360069786E+01 -0.11906407987E+03  0.18904406619E+03  0.22358495453E+03  0.00000000000E+00 0. -1.
        -12    1    6    6    0    0 -0.27077876574E+03 -0.80531874748E+03  0.12807371822E+04  0.15369278301E+04  0.00000000000E+00 0.  1.
</event>
<event>
12    1  0.9656379E-001  0.4431693E+03  0.7818608E-02  0.1029779E+00
         -2   -1    0    0    0  501 -0.00000000000E+00  0.00000000000E+00  0.72979349454E+02  0.72979349454E+02  0.00000000000E+00 0.  1.
          2   -1    0    0  502    0  0.00000000000E+00 -0.00000000000E+00 -0.34735932065E+04  0.34735932065E+04  0.00000000000E+00 0. -1.
          6    2    1    2  502    0 -0.28759653187E+03  0.29000196171E+03 -0.85978130746E+03  0.96744381926E+03  0.17294722847E+03 0.  0.
         24    2    3    3    0    0 -0.46567947107E+02  0.86832606827E+02 -0.19050463022E+03  0.22762902749E+03  0.76252768561E+02 0.  0.
         -6    2    1    2    0  501  0.28759653187E+03 -0.29000196171E+03 -0.25408325496E+04  0.25791287367E+04  0.17106166271E+03 0.  0.
        -24    2    5    5    0    0  0.20532107555E+03 -0.27170745314E+03 -0.22211668731E+04  0.22485048197E+04  0.78803311755E+02 0.  0.
          5    1    3    3  502    0 -0.24102858476E+03  0.20316935488E+03 -0.66927667724E+03  0.73981479177E+03  0.47000000000E+01 0. -1.
        -11    1    4    4    0    0 -0.22836620590E+02 -0.87911601112E+01 -0.53966611371E+02  0.59255302538E+02  0.00000000000E+00 0.  1.
         12    1    4    4    0    0 -0.23731326517E+02  0.95623766939E+02 -0.13653801885E+03  0.16837372495E+03  0.00000000000E+00 0. -1.
         -5    1    5    5    0  501  0.82275456326E+02 -0.18294508563E+02 -0.31966567653E+03  0.33062391703E+03  0.47000000000E+01 0.  1.
         11    1    6    6    0    0  0.16278154480E+03 -0.16303856682E+03 -0.13430519389E+04  0.13626694083E+04  0.00000000000E+00 0. -1.
        -12    1    6    6    0    0  0.42539530746E+02 -0.10866888632E+03 -0.87811493415E+03  0.88583541141E+03  0.00000000000E+00 0.  1.
</event>
<event>
12    1  0.9656379E-001  0.2992805E+03  0.7818608E-02  0.1085601E+00
         -1   -1    0    0    0  501 -0.00000000000E+00  0.00000000000E+00  0.35200634078E+03  0.35200634078E+03  0.00000000000E+00 0.  1.
          1   -1    0    0  502    0  0.00000000000E+00 -0.00000000000E+00 -0.65780685235E+03  0.65780685235E+03  0.00000000000E+00 0. -1.
          6    2    1    2  502    0  0.16618399513E+02  0.24524512223E+03  0.24247566785E+03  0.38516210089E+03  0.17068700385E+03 0.  0.
         24    2    3    3    0    0 -0.20770439892E+02  0.19851707138E+03  0.11320517873E+03  0.24263355847E+03  0.78836491563E+02 0.  0.
         -6    2    1    2    0  501 -0.16618399513E+02 -0.24524512223E+03 -0.54827617942E+03  0.62465109224E+03  0.17076556133E+03 0.  0.
        -24    2    5    5    0    0 -0.73647478198E+02 -0.18834356686E+03 -0.42853202126E+03  0.48025283660E+03  0.78139897570E+02 0.  0.
          5    1    3    3  502    0  0.37388839405E+02  0.46728050852E+02  0.12927048912E+03  0.14252854242E+03  0.47000000000E+01 0. -1.
        -11    1    4    4    0    0  0.11797509456E+02  0.76182763385E+02  0.81385095834E+02  0.11210052850E+03  0.00000000000E+00 0.  1.
         12    1    4    4    0    0 -0.32567949348E+02  0.12233430800E+03  0.31820082897E+02  0.13053302997E+03  0.00000000000E+00 0. -1.
         -5    1    5    5    0  501  0.57029078686E+02 -0.56901555368E+02 -0.11974415815E+03  0.14439825564E+03  0.47000000000E+01 0.  1.
         13    1    6    6    0    0 -0.11106813802E+02 -0.94749853971E+02 -0.26563752689E+03  0.28224845763E+03  0.00000000000E+00 0. -1.
        -14    1    6    6    0    0 -0.62540664396E+02 -0.93593712894E+02 -0.16289449437E+03  0.19800437898E+03  0.00000000000E+00 0.  1.
</event>
<event>
12    1  0.9656379E-001  0.8291813E+03  0.7818608E-02  0.9518713E-01
         -1   -1    0    0    0  501 -0.00000000000E+00  0.00000000000E+00  0.77389348346E+03  0.77389348346E+03  0.00000000000E+00 0.  1.
          1   -1    0    0  502    0  0.00000000000E+00 -0.00000000000E+00 -0.10049326981E+04  0.10049326981E+04  0.00000000000E+00 0. -1.
          6    2    1    2  502    0  0.77116131734E+03  0.25184523002E+03  0.18734481367E+03  0.84994562829E+03  0.17086162411E+03 0.  0.
         24    2    3    3    0    0  0.25518730750E+03  0.61389710138E+02  0.11070721832E+03  0.29460978854E+03  0.75163694021E+02 0.  0.
         -6    2    1    2    0  501 -0.77116131734E+03 -0.25184523002E+03 -0.41838402835E+03  0.92888055330E+03  0.17221524283E+03 0.  0.
        -24    2    5    5    0    0 -0.43011821018E+03 -0.82699506099E+02 -0.26698131322E+03  0.51916656890E+03  0.80087587126E+02 0.  0.
          5    1    3    3  502    0  0.51597400984E+03  0.19045551989E+03  0.76637595353E+02  0.55533583975E+03  0.47000000000E+01 0. -1.
        -13    1    4    4    0    0  0.14912502389E+03  0.73521299750E+02  0.67183775773E+02  0.17932460510E+03  0.00000000000E+00 0.  1.
         14    1    4    4    0    0  0.10606228361E+03 -0.12131589612E+02  0.43523442543E+02  0.11528518344E+03  0.00000000000E+00 0. -1.
         -5    1    5    5    0  501 -0.34104310716E+03 -0.16914572393E+03 -0.15140271513E+03  0.40971398440E+03  0.47000000000E+01 0.  1.
         11    1    6    6    0    0 -0.15058853638E+03 -0.27870110712E+02 -0.13923053269E+03  0.20697534054E+03  0.00000000000E+00 0. -1.
        -12    1    6    6    0    0 -0.27952967381E+03 -0.54829395388E+02 -0.12775078053E+03  0.31219122836E+03  0.00000000000E+00 0.  1.
</event>
<event>
12    1  0.9656379E-001  0.4906416E+03  0.7818608E-02  0.1016251E+00
          2   -1    0    0  502    0  0.00000000000E+00  0.00000000000E+00  0.64130076568E+03  0.64130076568E+03  0.00000000000E+00 0. -1.
         -2   -1    0    0    0  501 -0.00000000000E+00 -0.00000000000E+00 -0.11621513768E+04  0.11621513768E+04  0.00000000000E+00 0.  1.
          6    2    1    2  502    0  0.15350539956E+03  0.43337702985E+03 -0.10023346727E+04  0.11158992660E+04  0.17081223049E+03 0.  0.
         24    2    3    3    0    0  0.17251058708E+03  0.35637633317E+03 -0.89881171559E+03  0.98540253390E+03  0.79947859516E+02 0.  0.
         -6    2    1    2    0  501 -0.15350539956E+03 -0.43337702985E+03  0.48148406158E+03  0.68755287648E+03  0.17182112413E+03 0.  0.
        -24    2    5    5    0    0 -0.15331558203E+03 -0.38315444014E+03  0.35042593733E+03  0.54712258601E+03  0.78941711919E+02 0.  0.
          5    1    3    3  502    0 -0.19005187517E+02  0.77000696677E+02 -0.10352295712E+03  0.13049673211E+03  0.47000000000E+01 0. -1.
        -13    1    4    4    0    0  0.55679848999E+02  0.13009707969E+03 -0.41816266360E+03  0.44145838870E+03  0.00000000000E+00 0.  1.
         14    1    4    4    0    0  0.11683073808E+03  0.22627925348E+03 -0.48064905199E+03  0.54394414520E+03  0.00000000000E+00 0. -1.
         -5    1    5    5    0  501 -0.18981753881E+00 -0.50222589712E+02  0.13105812425E+03  0.14043029046E+03  0.47000000000E+01 0.  1.
         11    1    6    6    0    0 -0.63029112913E+02 -0.24027632225E+03  0.23880042482E+03  0.34457368298E+03  0.00000000000E+00 0. -1.
        -12    1    6    6    0    0 -0.90286469112E+02 -0.14287811789E+03  0.11162551252E+03  0.20254890303E+03  0.00000000000E+00 0.  1.
</event>
<event>
12    1  0.9656379E-001  0.3064706E+03  0.7818608E-02  0.1082050E+00
          1   -1    0    0  502    0  0.00000000000E+00  0.00000000000E+00  0.11119624818E+04  0.11119624818E+04  0.00000000000E+00 0. -1.
         -1   -1    0    0    0  501 -0.00000000000E+00 -0.00000000000E+00 -0.17162583462E+03  0.17162583462E+03  0.00000000000E+00 0.  1.
          6    2    1    2  502    0 -0.25091390288E+03  0.28140347594E+02  0.12009549506E+02  0.30564771781E+03  0.17183315251E+03 0.  0.
         24    2    3    3    0    0 -0.78353455394E+02 -0.28181371077E+02  0.37020822272E+02  0.12235315216E+03  0.81647406047E+02 0.  0.
         -6    2    1    2    0  501  0.25091390288E+03 -0.28140347594E+02  0.92832709764E+03  0.97794059858E+03  0.17557604707E+03 0.  0.
        -24    2    5    5    0    0  0.24089074333E+03 -0.42361234817E+02  0.92471697487E+03  0.95956070883E+03  0.76370451581E+02 0.  0.
          5    1    3    3  502    0 -0.17256044748E+03  0.56321718671E+02 -0.25011272766E+02  0.18329456564E+03  0.47000000000E+01 0. -1.
        -11    1    4    4    0    0 -0.24698778327E+02  0.26089455763E+02 -0.32333512554E+01  0.36071372489E+02  0.00000000000E+00 0.  1.
         12    1    4    4    0    0 -0.53654677067E+02 -0.54270826841E+02  0.40254173528E+02  0.86281779673E+02  0.00000000000E+00 0. -1.
         -5    1    5    5    0  501  0.10023159549E+02  0.14220887224E+02  0.36101227738E+01  0.18379889750E+02  0.47000000000E+01 0.  1.
         13    1    6    6    0    0  0.60799264753E+02 -0.19342164203E+02  0.13607371693E+03  0.15028880980E+03  0.00000000000E+00 0. -1.
        -14    1    6    6    0    0  0.18009147857E+03 -0.23019070615E+02  0.78864325794E+03  0.80927189903E+03  0.00000000000E+00 0.  1.
</event>
<event>
12    1  0.9656379E-001  0.1691466E+04  0.7818608E-02  0.8766247E-01
         -2   -1    0    0    0  501 -0.00000000000E+00  0.00000000000E+00  0.17515455823E+04  0.17515455823E+04  0.00000000000E+00 0.  1.
          2   -1    0    0  502    0  0.00000000000E+00 -0.00000000000E+00 -0.17055356640E+04  0.17055356640E+04  0.00000000000E+00 0. -1.
          6    2    1    2  502    0  0.16531351182E+04 -0.31354174526E+03  0.37837762568E+03  0.17333076739E+04  0.17326776933E+03 0.  0.
         24    2    3    3    0    0  0.15637987043E+04 -0.27504694414E+03  0.38373059631E+03  0.16357700461E+04  0.85891000286E+02 0.  0.
         -6    2    1    2    0  501 -0.16531351182E+04  0.31354174526E+03 -0.33236770740E+03  0.17237735724E+04  0.17251924863E+03 0.  0.
        -24    2    5    5    0    0 -0.76725409690E+03  0.19859492521E+03 -0.19546975637E+03  0.82002521460E+03  0.78192924229E+02 0.  0.
          5    1    3    3  502    0  0.89336413824E+02 -0.38494801113E+02 -0.53529706321E+01  0.97537627828E+02  0.47000000000E+01 0. -1.
        -13    1    4    4    0    0  0.59708937281E+03 -0.14586143987E+03  0.13657531428E+03  0.62963806686E+03  0.00000000000E+00 0.  1.
         14    1    4    4    0    0  0.96670933154E+03 -0.12918550427E+03  0.24715528203E+03  0.10061319792E+04  0.00000000000E+00 0. -1.
         -5    1    5    5    0  501 -0.88588102127E+03  0.11494682005E+03 -0.13689795103E+03  0.90374835783E+03  0.47000000000E+01 0.  1.
         13    1    6    6    0    0 -0.48389327693E+03  0.12045890945E+03 -0.16134923841E+03  0.52411509143E+03  0.00000000000E+00 0. -1.
        -14    1    6    6    0    0 -0.28336081997E+03  0.78136015760E+02 -0.34120517958E+02  0.29591012317E+03  0.00000000000E+00 0.  1.
</event>
<event>
12    1  0.9656379E-001  0.4974777E+03  0.7818608E-02  0.1014439E+00
          2   -1    0    0  502    0  0.00000000000E+00  0.00000000000E+00  0.14558006522E+04  0.14558006522E+04  0.00000000000E+00 0. -1.
         -2   -1    0    0    0  501 -0.00000000000E+00 -0.00000000000E+00 -0.17371034516E+03  0.17371034516E+03  0.00000000000E+00 0.  1.
          6    2    1    2  502    0 -0.20212978356E+03  0.42072147942E+03  0.52257793395E+03  0.72185015330E+03  0.17354231217E+03 0.  0.
         24    2    3    3    0    0 -0.21508716709E+03  0.36769909139E+03  0.50334081242E+03  0.66378618629E+03  0.76125005090E+02 0.  0.
         -6    2    1    2    0  501  0.20212978356E+03 -0.42072147942E+03  0.75951237314E+03  0.90766084411E+03  0.17066385187E+03 0.  0.
        -24    2    5    5    0    0  0.20025750107E+03 -0.30363178881E+03  0.50198481734E+03  0.62471909554E+03  0.77394196042E+02 0.  0.
          5    1    3    3  502    0  0.12957383532E+02  0.53022388023E+02  0.19237121531E+02  0.58063967005E+02  0.47000000000E+01 0. -1.
        -11    1    4    4    0    0 -0.95803784485E+02  0.22891815868E+03  0.26141802199E+03  0.36044593314E+03  0.00000000000E+00 0.  1.
         12    1    4    4    0    0 -0.11928338261E+03  0.13878093271E+03  0.24192279043E+03  0.30334025315E+03  0.00000000000E+00 0. -1.
         -5    1    5    5    0  501  0.18722824871E+01 -0.11708969060E+03  0.25752755580E+03  0.28294174856E+03  0.47000000000E+01 0.  1.
         11    1    6    6    0    0  0.89160422687E+02 -0.19632212984E+03  0.26190391761E+03  0.33924271797E+03  0.00000000000E+00 0. -1.
        -12    1    6    6    0    0  0.11109707839E+03 -0.10730965898E+03  0.24008089973E+03  0.28547637757E+03  0.00000000000E+00 0.  1.
</event>
<event>
12    1  0.9656379E-001  0.8125089E+03  0.7818608E-02  0.9542085E-01
         -2   -1    0    0    0  501 -0.00000000000E+00  0.00000000000E+00  0.61877296498E+03  0.61877296498E+03  0.00000000000E+00 0.  1.
          2   -1    0    0  502    0  0.00000000000E+00 -0.00000000000E+00 -0.12756522633E+04  0.12756522633E+04  0.00000000000E+00 0. -1.
          6    2    1    2  502    0  0.79180033899E+03  0.62490597429E+02 -0.71164136284E+03  0.10801608106E+04  0.17164234846E+03 0.  0.
         24    2    3    3    0    0  0.41791968454E+03  0.87867418223E+02 -0.33259261645E+03  0.54712162913E+03  0.79666069531E+02 0.  0.
         -6    2    1    2    0  501 -0.79180033899E+03 -0.62490597429E+02  0.54762064525E+02  0.81426441772E+03  0.17080634257E+03 0.  0.
        -24    2    5    5    0    0 -0.26116931970E+03 -0.34164922134E+02  0.66857848614E+02  0.28271948030E+03  0.77997930471E+02 0.  0.
          5    1    3    3  502    0  0.37388065445E+03 -0.25376820794E+02 -0.37904874639E+03  0.53303918144E+03  0.47000000000E+01 0. -1.
        -13    1    4    4    0    0  0.46129014059E+02 -0.40567846682E+01 -0.65430380888E+02  0.80159080478E+02  0.00000000000E+00 0.  1.
         14    1    4    4    0    0  0.37179067048E+03  0.91924202892E+02 -0.26716223556E+03  0.46696254865E+03  0.00000000000E+00 0. -1.
         -5    1    5    5    0  501 -0.53063101928E+03 -0.28325675295E+02 -0.12095784089E+02  0.53154493742E+03  0.47000000000E+01 0.  1.
         13    1    6    6    0    0 -0.26155971869E+03 -0.21955527954E+02  0.64242989975E+02  0.27022711449E+03  0.00000000000E+00 0. -1.
        -14    1    6    6    0    0  0.39039898139E+00 -0.12209394180E+02  0.26148586388E+01  0.12492365801E+02  0.00000000000E+00 0.  1.
</event>
<event>
12    1  0.9656379E-001  0.2340184E+03  0.7818608E-02  0.1123843E+00
          1   -1    0    0  502    0  0.00000000000E+00  0.00000000000E+00  0.26457269794E+04  0.26457269794E+04  0.00000000000E+00 0. -1.
         -1   -1    0    0    0  501 -0.00000000000E+00 -0.00000000000E+00 -0.98936663274E+02  0.98936663274E+02  0.00000000000E+00 0.  1.
          6    2    1    2  502    0  0.13790485437E+03 -0.82132742847E+02  0.53699500791E+02  0.24066782639E+03  0.17109596713E+03 0.  0.
         24    2    3    3    0    0  0.14499178548E+03 -0.10284317378E+03  0.14715998795E+02  0.19571284925E+03  0.80545778833E+02 0.  0.
         -6    2    1    2    0  501 -0.13790485437E+03  0.82132742847E+02  0.24930908153E+04  0.25039958162E+04  0.16949837212E+03 0.  0.
        -24    2    5    5    0    0 -0.69294350022E+02  0.35114542978E+02  0.20617936969E+04  0.20647266428E+04  0.77898156129E+02 0.  0.
          5    1    3    3  502    0 -0.70869311173E+01  0.20710430937E+02  0.38983501996E+02  0.44954977146E+02  0.47000000000E+01 0. -1.
        -13    1    4    4    0    0  0.97762579604E+02 -0.51981137691E+02 -0.28006161195E+02  0.11420991950E+03  0.00000000000E+00 0.  1.
         14    1    4    4    0    0  0.47229205879E+02 -0.50862036093E+02  0.42722159990E+02  0.81502929749E+02  0.00000000000E+00 0. -1.
         -5    1    5    5    0  501 -0.68610504344E+02  0.47018199869E+02  0.43129711838E+03  0.43926917346E+03  0.47000000000E+01 0.  1.
         13    1    6    6    0    0 -0.53967335039E+02 -0.92201066637E+01  0.14924007677E+04  0.14934046789E+04  0.00000000000E+00 0. -1.
        -14    1    6    6    0    0 -0.15327014983E+02  0.44334649642E+02  0.56939292923E+03  0.57132196387E+03  0.00000000000E+00 0.  1.
</event>
<event>
12    1  0.9656379E-001  0.9781135E+03  0.7818608E-02  0.9332881E-01
          2   -1    0    0  502    0  0.00000000000E+00  0.00000000000E+00  0.32367814383E+04  0.32367814383E+04  0.00000000000E+00 0. -1.
         -2   -1    0    0    0  501 -0.00000000000E+00 -0.00000000000E+00 -0.61058131745E+03  0.61058131745E+03  0.00000000000E+00 0.  1.
          6    2    1    2  502    0  0.66503708905E+03 -0.69482140943E+03 -0.68992687479E+02  0.97998182987E+03  0.17479495169E+03 0.  0.
         24    2    3    3    0    0  0.23461121000E+03 -0.18855900495E+03 -0.46840820762E+02  0.31509021859E+03  0.80565905684E+02 0.  0.
         -6    2    1    2    0  501 -0.66503708905E+03  0.69482140943E+03  0.26951928083E+04  0.28673809259E+04  0.18099165505E+03 0.  0.
        -24    2    5    5    0    0 -0.31753172683E+03  0.36629733391E+03  0.15664127556E+04  0.16414712463E+04  0.76018400736E+02 0.  0.
          5    1    3    3  502    0  0.43042587905E+03 -0.50626240448E+03 -0.22151866716E+02  0.66489161127E+03  0.47000000000E+01 0. -1.
        -11    1    4    4    0    0  0.14391684210E+03 -0.10005118009E+03  0.11348003018E+02  0.17564473591E+03  0.00000000000E+00 0.  1.
         12    1    4    4    0    0  0.90694367894E+02 -0.88507824857E+02 -0.58188823781E+02  0.13944548269E+03  0.00000000000E+00 0. -1.
         -5    1    5    5    0  501 -0.34750536222E+03  0.32852407552E+03  0.11287800528E+04  0.12259096796E+04  0.47000000000E+01 0.  1.
         11    1    6    6    0    0 -0.13606112089E+03  0.21397275998E+03  0.83299416153E+03  0.87073316450E+03  0.00000000000E+00 0. -1.
        -12    1    6    6    0    0 -0.18147060594E+03  0.15232457393E+03  0.73341859404E+03  0.77073808179E+03  0.00000000000E+00 0.  1.
</event>
<event>
12    1  0.9656379E-001  0.3121300E+03  0.7818608E-02  0.1079329E+00
          2   -1    0    0  502    0  0.00000000000E+00  0.00000000000E+00  0.15490823794E+03  0.15490823794E+03  0.00000000000E+00 0. -1.
         -2   -1    0    0    0  501 -0.00000000000E+00 -0.00000000000E+00 -0.11243539418E+04  0.11243539418E+04  0.00000000000E+00 0.  1.
          6    2    1    2  502    0  0.25312625703E+03  0.63911638855E+02 -0.90936833820E+03  0.96146526375E+03  0.17119310530E+03 0.  0.
         24    2    3    3    0    0  0.18446572866E+03 -0.43530504293E+01 -0.73560627446E+03  0.76249370610E+03  0.78952559926E+02 0.  0.
         -6    2    1    2    0  501 -0.25312625703E+03 -0.63911638855E+02 -0.60077365630E+02  0.31779691597E+03  0.17096195587E+03 0.  0.
        -24    2    5    5    0    0 -0.18917561554E+03 -0.69313044267E+02 -0.10385801556E+03  0.23996572019E+03  0.78774030291E+02 0.  0.
          5    1    3    3  502    0  0.68660528369E+02  0.68264689284E+02 -0.17376206373E+03  0.19897155765E+03  0.47000000000E+01 0. -1.
        -13    1    4    4    0    0  0.25045414802E+02  0.27346454156E+02 -0.16987864255E+03  0.17387885022E+03  0.00000000000E+00 0.  1.
         14    1    4    4    0    0  0.15942031386E+03 -0.31699504585E+02 -0.56572763191E+03  0.58861485589E+03  0.00000000000E+00 0. -1.
         -5    1    5    5    0  501 -0.63950641496E+02  0.54014054120E+01  0.43780649931E+02  0.77831195781E+02  0.47000000000E+01 0.  1.
         11    1    6    6    0    0 -0.16794502772E+03 -0.63078842078E+02 -0.57152702787E+02  0.18828410472E+03  0.00000000000E+00 0. -1.
        -12    1    6    6    0    0 -0.21230587818E+02 -0.62342021886E+01 -0.46705312774E+02  0.51681615467E+02  0.00000000000E+00 0.  1.
</event>
<event>
12    1  0.9656379E-001  0.3059185E+03  0.7818608E-02  0.1082319E+00
          2   -1    0    0  502    0  0.00000000000E+00  0.00000000000E+00  0.36427245409E+03  0.36427245409E+03  0.00000000000E+00 0. -1.
         -2   -1    0    0    0  501 -0.00000000000E+00 -0.00000000000E+00 -0.38554454575E+03  0.38554454575E+03  0.00000000000E+00 0.  1.
          6    2    1    2  502    0 -0.23900310527E+03  0.87255915273E+02 -0.22712753110E+03  0.37937045835E+03  0.16612931771E+03 0.  0.
         24    2    3    3    0    0 -0.50049956055E+02  0.60900580634E+02 -0.10161949310E+03  0.15095799401E+03  0.79043758478E+02 0.  0.
         -6    2    1    2    0  501  0.23900310527E+03 -0.87255915273E+02  0.20585543945E+03  0.37044654149E+03  0.17354566854E+03 0.  0.
        -24    2    5    5    0    0  0.12613713721E+03 -0.16395422228E+01  0.47253367041E+02  0.15773641608E+03  0.82064796215E+02 0.  0.
          5    1    3    3  502    0 -0.18895314922E+03  0.26355334639E+02 -0.12550803801E+03  0.22841246435E+03  0.47000000000E+01 0. -1.
        -11    1    4    4    0    0 -0.28943753174E+02  0.20927423041E+02  0.41276099096E+01  0.35954624828E+02  0.00000000000E+00 0.  1.
         12    1    4    4    0    0 -0.21106202880E+02  0.39973157593E+02 -0.10574710301E+03  0.11500336918E+03  0.00000000000E+00 0. -1.
         -5    1    5    5    0  501  0.11286596806E+03 -0.85616373050E+02  0.15860207240E+03  0.21271012541E+03  0.47000000000E+01 0.  1.
         11    1    6    6    0    0  0.11115227334E+03  0.56316243469E+01  0.68540873172E+02  0.13070728502E+03  0.00000000000E+00 0. -1.
        -12    1    6    6    0    0  0.14984863866E+02 -0.72711665697E+01 -0.21287506131E+02  0.27029131056E+02  0.00000000000E+00 0.  1.
</event>
<event>
12    1  0.9656379E-001  0.2176670E+03  0.7818608E-02  0.1135634E+00
         -2   -1    0    0    0  501 -0.00000000000E+00  0.00000000000E+00  0.15990659273E+03  0.15990659273E+03  0.00000000000E+00 0.  1.
          2   -1    0    0  502    0  0.00000000000E+00 -0.00000000000E+00 -0.41026028421E+03  0.41026028421E+03  0.00000000000E+00 0. -1.
          6    2    1    2  502    0 -0.11454839641E+03 -0.69858251409E+02  0.25159883267E+02  0.21892613261E+03  0.17115525526E+03 0.  0.
         24    2    3    3    0    0 -0.12836780985E+03 -0.67680814191E+01  0.58915769866E+01  0.15136354411E+03  0.79700127197E+02 0.  0.
         -6    2    1    2    0  501  0.11454839641E+03  0.69858251409E+02 -0.27551357475E+03  0.35124074434E+03  0.17164154567E+03 0.  0.
        -24    2    5    5    0    0  0.44366672246E+01  0.46639983229E+02 -0.19282596950E+03  0.21151597580E+03  0.73226917535E+02 0.  0.
          5    1    3    3  502    0  0.13819413439E+02 -0.63090169990E+02  0.19268306281E+02  0.67562588494E+02  0.47000000000E+01 0. -1.
        -11    1    4    4    0    0 -0.12671750726E+02  0.23910438631E+01  0.30154805779E+02  0.32796381946E+02  0.00000000000E+00 0.  1.
         12    1    4    4    0    0 -0.11569605913E+03 -0.91591252822E+01 -0.24263228792E+02  0.11856716217E+03  0.00000000000E+00 0. -1.
         -5    1    5    5    0  501  0.11011172919E+03  0.23218268180E+02 -0.82687605246E+02  0.13972476854E+03  0.47000000000E+01 0.  1.
         11    1    6    6    0    0  0.21467517882E+02  0.46253330511E+02 -0.65270108377E+02  0.82827603822E+02  0.00000000000E+00 0. -1.
        -12    1    6    6    0    0 -0.17030850657E+02  0.38665271786E+00 -0.12755586112E+03  0.12868837198E+03  0.00000000000E+00 0.  1.
</event>
<event>
12    1  0.9656379E-001  0.3363181E+03  0.7818608E-02  0.1068375E+00
         -2   -1    0    0    0  501 -0.00000000000E+00  0.00000000000E+00  0.29974809642E+03  0.29974809642E+03  0.00000000000E+00 0.  1.
          2   -1    0    0  502    0  0.00000000000E+00 -0.00000000000E+00 -0.46729486621E+03  0.46729486621E+03  0.00000000000E+00 0. -1.
          6    2    1    2  502    0 -0.12270422698E+03 -0.26147841525E+03  0.84547644377E+02  0.34649076490E+03  0.17169815675E+03 0.  0.
         24    2    3    3    0    0 -0.58571413080E+02 -0.63213247505E+02  0.71558333756E+02  0.13765373095E+03  0.80008933398E+02 0.  0.
         -6    2    1    2    0  501  0.12270422698E+03  0.26147841525E+03 -0.25209441416E+03  0.42055219773E+03  0.17287356189E+03 0.  0.
        -24    2    5    5    0    0  0.28398566961E+02  0.20046563509E+03 -0.12489403719E+03  0.25079312505E+03  0.79408573769E+02 0.  0.
          5    1    3    3  502    0 -0.64132813903E+02 -0.19826516774E+03  0.12989310621E+02  0.20883703395E+03  0.47000000000E+01 0. -1.
        -11    1    4    4    0    0 -0.41941772145E+02 -0.24428372873E+02 -0.64487768424E+01  0.48963704666E+02  0.00000000000E+00 0.  1.
         12    1    4    4    0    0 -0.16629640935E+02 -0.38784874631E+02  0.78007110598E+02  0.88690026281E+02  0.00000000000E+00 0. -1.
         -5    1    5    5    0  501  0.94305660021E+02  0.61012780159E+02 -0.12720037697E+03  0.16975907268E+03  0.47000000000E+01 0.  1.
         11    1    6    6    0    0  0.23290267526E+02  0.40801906010E+02  0.16331830236E+01  0.47009566922E+02  0.00000000000E+00 0. -1.
        -12    1    6    6    0    0  0.51082994356E+01  0.15966372908E+03 -0.12652722022E+03  0.20378355813E+03  0.00000000000E+00 0.  1.
</event>
<event>
12    1  0.9656379E-001  0.4953773E+03  0.7818608E-02  0.1014993E+00
          1   -1    0    0  502    0  0.00000000000E+00  0.00000000000E+00  0.59328764626E+03  0.59328764626E+03  0.00000000000E+00 0. -1.
         -1   -1    0    0    0  501 -0.00000000000E+00 -0.00000000000E+00 -0.47553932179E+03  0.47553932179E+03  0.00000000000E+00 0.  1.
          6    2    1    2  502    0  0.25022868796E+03  0.39225441031E+03 -0.13395765190E+03  0.51317249622E+03  0.17006892630E+03 0.  0.
         24    2    3    3    0    0  0.22150507110E+03  0.27426934957E+03 -0.14958114444E+03  0.39065023604E+03  0.77103278167E+02 0.  0.
         -6    2    1    2    0  501 -0.25022868796E+03 -0.39225441031E+03  0.25170597637E+03  0.55565447184E+03  0.17005315300E+03 0.  0.
        -24    2    5    5    0    0 -0.22620629351E+03 -0.39750443039E+03  0.21539922891E+03  0.51155336010E+03  0.78172584720E+02 0.  0.
          5    1    3    3  502    0  0.28723616854E+02  0.11798506073E+03  0.15623492541E+02  0.12252226018E+03  0.47000000000E+01 0. -1.
        -11    1    4    4    0    0  0.26965966460E+02  0.78493631693E+02 -0.18149281885E+02  0.84957695333E+02  0.00000000000E+00 0.  1.
         12    1    4    4    0    0  0.19453910464E+03  0.19577571788E+03 -0.13143186256E+03  0.30569254071E+03  0.00000000000E+00 0. -1.
         -5    1    5    5    0  501 -0.24022394444E+02  0.52500200851E+01  0.36306747458E+02  0.44101111739E+02  0.47000000000E+01 0.  1.
         11    1    6    6    0    0 -0.11926246882E+03 -0.26845076120E+03  0.11060875859E+03  0.31388476411E+03  0.00000000000E+00 0. -1.
        -12    1    6    6    0    0 -0.10694382469E+03 -0.12905366919E+03  0.10479047032E+03  0.19766859599E+03  0.00000000000E+00 0.  1.
</event>
<event>
12    1  0.9656379E-001  0.6150412E+03  0.7818608E-02  0.9874683E-01
         -2   -1    0    0    0  501 -0.00000000000E+00  0.00000000000E+00  0.15874823570E+03  0.15874823570E+03  0.00000000000E+00 0.  1.
          2   -1    0    0  502    0  0.00000000000E+00 -0.00000000000E+00 -0.26950491888E+04  0.26950491888E+04  0.00000000000E+00 0. -1.
          6    2    1    2  502    0 -0.58238622483E+03  0.96753365043E+02 -0.78241448731E+03  0.99518030065E+03  0.17226860516E+03 0.  0.
         24    2    3    3    0    0 -0.58813656924E+03  0.99603305746E+02 -0.78248792924E+03  0.98722517548E+03  0.80627198236E+02 0.  0.
         -6    2    1    2    0  501  0.58238622483E+03 -0.96753365043E+02 -0.17538864658E+04  0.18586171239E+04  0.17264110076E+03 0.  0.
        -24    2    5    5    0    0  0.56201715065E+03 -0.83363179387E+02 -0.15448354766E+04  0.16480972855E+04  0.83038035998E+02 0.  0.
          5    1    3    3  502    0  0.57503444057E+01 -0.28499407030E+01  0.73441930879E-01  0.79551251726E+01  0.47000000000E+01 0. -1.
        -11    1    4    4    0    0 -0.13544343472E+03  0.44607406290E+02 -0.14448905424E+03  0.20300697402E+03  0.00000000000E+00 0.  1.
         12    1    4    4    0    0 -0.45269313452E+03  0.54995899455E+02 -0.63799887500E+03  0.78421820146E+03  0.00000000000E+00 0. -1.
         -5    1    5    5    0  501  0.20369074181E+02 -0.13390185656E+02 -0.20905098926E+03  0.21051983841E+03  0.47000000000E+01 0.  1.
         11    1    6    6    0    0  0.43148441716E+03 -0.60822141548E+02 -0.12769272587E+04  0.13492299134E+04  0.00000000000E+00 0. -1.
        -12    1    6    6    0    0  0.13053273349E+03 -0.22541037839E+02 -0.26790821785E+03  0.29886737208E+03  0.00000000000E+00 0.  1.
</event>
<event>
12    1  0.9656379E-001  0.7412406E+03  0.7818608E-02  0.9649194E-01
          1   -1    0    0  502    0  0.00000000000E+00  0.00000000000E+00  0.10512308109E+04  0.10512308109E+04  0.00000000000E+00 0. -1.
         -1   -1    0    0    0  501 -0.00000000000E+00 -0.00000000000E+00 -0.52279516970E+03  0.52279516970E+03  0.00000000000E+00 0.  1.
          6    2    1    2  502    0 -0.39534573627E+03  0.60319904896E+03  0.27665335417E+03  0.79079034677E+03  0.16930726597E+03 0.  0.
         24    2    3    3    0    0 -0.24313564968E+03  0.30704657548E+03  0.92978952031E+02  0.41048445146E+03  0.80373227538E+02 0.  0.
         -6    2    1    2    0  501  0.39534573627E+03 -0.60319904896E+03  0.25178228704E+03  0.78323563384E+03  0.17296356319E+03 0.  0.
        -24    2    5    5    0    0  0.13047497920E+03 -0.14319919808E+03  0.92401070950E+02  0.22899665758E+03  0.79823434792E+02 0.  0.
          5    1    3    3  502    0 -0.15221008659E+03  0.29615247348E+03  0.18367440214E+03  0.38030589531E+03  0.47000000000E+01 0. -1.
        -11    1    4    4    0    0 -0.50585918456E+02  0.11370566031E+03  0.80672889179E+01  0.12471164133E+03  0.00000000000E+00 0.  1.
         12    1    4    4    0    0 -0.19254973123E+03  0.19334091517E+03  0.84911663113E+02  0.28577281013E+03  0.00000000000E+00 0. -1.
         -5    1    5    5    0  501  0.26487075707E+03 -0.45999985088E+03  0.15938121609E+03  0.55423897625E+03  0.47000000000E+01 0.  1.
         11    1    6    6    0    0  0.10830904177E+03 -0.13627189844E+03  0.50766477933E+02  0.18132323104E+03  0.00000000000E+00 0. -1.
        -12    1    6    6    0    0  0.22165937433E+02 -0.69272996438E+01  0.41634593016E+02  0.47673426542E+02  0.00000000000E+00 0.  1.
</event>
<event>
12    1  0.9656379E-001  0.2076059E+03  0.7818608E-02  0.1143476E+00
          2   -1    0    0  502    0  0.00000000000E+00  0.00000000000E+00  0.52661713628E+03  0.52661713628E+03  0.00000000000E+00 0. -1.
         -2   -1    0    0    0  501 -0.00000000000E+00 -0.00000000000E+00 -0.82102786759E+02  0.82102786759E+02  0.00000000000E+00 0.  1.
          6    2    1    2  502    0  0.55930181072E+02 -0.10275706400E+03  0.23912510517E+03  0.31652889262E+03  0.17123821006E+03 0.  0.
         24    2    3    3    0    0  0.20153657328E+02 -0.48951839590E+02  0.33357499698E+02  0.10080369871E+03  0.79032970238E+02 0.  0.
         -6    2    1    2    0  501 -0.55930181072E+02  0.10275706400E+03  0.20538924435E+03  0.29219103042E+03  0.17176628659E+03 0.  0.
        -24    2    5    5    0    0  0.33067704560E+02  0.70994693362E+02  0.13165382576E+03  0.17223906591E+03  0.78739103489E+02 0.  0.
          5    1    3    3  502    0  0.35776523744E+02 -0.53805224405E+02  0.20576760547E+03  0.21572519391E+03  0.47000000000E+01 0. -1.
        -13    1    4    4    0    0 -0.33926240917E+01 -0.65783484788E+02  0.26878983311E+02  0.71143914096E+02  0.00000000000E+00 0.  1.
         14    1    4    4    0    0  0.23546281420E+02  0.16831645198E+02  0.64785163861E+01  0.29659784614E+02  0.00000000000E+00 0. -1.
         -5    1    5    5    0  501 -0.88997885632E+02  0.31762370633E+02  0.73735418589E+02  0.11995196451E+03  0.47000000000E+01 0.  1.
         13    1    6    6    0    0 -0.11960255712E+01  0.68278860357E+02  0.53132449459E+02  0.86524507710E+02  0.00000000000E+00 0. -1.
        -14    1    6    6    0    0  0.34263730131E+02  0.27158330050E+01  0.78521376305E+02  0.85714558205E+02  0.00000000000E+00 0.  1.
</event>
<event>
12    1  0.9656379E-001  0.2007943E+03  0.7818608E-02  0.1149071E+00
         -2   -1    0    0    0  501 -0.00000000000E+00  0.00000000000E+00  0.13584076631E+03  0.13584076631E+03  0.00000000000E+00 0.  1.
          2   -1    0    0  502    0  0.00000000000E+00 -0.00000000000E+00 -0.14768595920E+04  0.14768595920E+04  0.00000000000E+00 0. -1.
          6    2    1    2  502    0 -0.89292186984E+01 -0.10220648712E+03  0.50768834776E+02  0.20639681561E+03  0.17174479309E+03 0.  0.
         24    2    3    3    0    0  0.25456140424E+01 -0.56535073289E+02  0.99308780444E+02  0.13860473530E+03  0.78398623142E+02 0.  0.
         -6    2    1    2    0  501  0.89292186984E+01  0.10220648712E+03 -0.13917876605E+04  0.14063035427E+04  0.17346718829E+03 0.  0.
        -24    2    5    5    0    0 -0.27749282675E+02  0.11665096845E+03 -0.12712991468E+04  0.12794432753E+04  0.79975640474E+02 0.  0.
          5    1    3    3  502    0 -0.11474832741E+02 -0.45671413835E+02 -0.48539945668E+02  0.67792080316E+02  0.47000000000E+01 0. -1.
        -11    1    4    4    0    0 -0.17892436212E+02 -0.53014556475E+02  0.24690520938E+02  0.61158027241E+02  0.00000000000E+00 0.  1.
         12    1    4    4    0    0  0.20438050254E+02 -0.35205168134E+01  0.74618259506E+02  0.77446708055E+02  0.00000000000E+00 0. -1.
         -5    1    5    5    0  501  0.36678501373E+02 -0.14444481331E+02 -0.12048851367E+03  0.12686026735E+03  0.47000000000E+01 0.  1.
         13    1    6    6    0    0 -0.35887012779E+02  0.90241605512E+02 -0.11815876290E+04  0.11855719085E+04  0.00000000000E+00 0. -1.
        -14    1    6    6    0    0  0.81377301041E+01  0.26409362942E+02 -0.89711517745E+02  0.93871366872E+02  0.00000000000E+00 0.  1.
</event>
<event>
12    1  0.9656379E-001  0.2032832E+03  0.7818608E-02  0.1146998E+00
          2   -1    0    0  502    0  0.00000000000E+00  0.00000000000E+00  0.57212590498E+03  0.57212590498E+03  0.00000000000E+00 0. -1.
         -2   -1    0    0    0  501 -0.00000000000E+00 -0.00000000000E+00 -0.77629366830E+02  0.77629366830E+02  0.00000000000E+00 0.  1.
          6    2    1    2  502    0  0.18816149953E+02 -0.10914171917E+03  0.16223514817E+03  0.26054851024E+03  0.17117044289E+03 0.  0.
         24    2    3    3    0    0 -0.42263492990E+02 -0.78673314790E+02  0.14852889184E+03  0.19077030511E+03  0.79729444382E+02 0.  0.
         -6    2    1    2    0  501 -0.18816149953E+02  0.10914171917E+03  0.33226138997E+03  0.38920676157E+03  0.16975956415E+03 0.  0.
        -24    2    5    5    0    0 -0.21397457150E+02  0.18670884142E+02  0.65559798058E+02  0.10752704226E+03  0.80358724538E+02 0.  0.
          5    1    3    3  502    0  0.61079642943E+02 -0.30468404384E+02  0.13706256334E+02  0.69778205125E+02  0.47000000000E+01 0. -1.
        -13    1    4    4    0    0 -0.20170732701E+02 -0.79903845853E+02  0.14708210662E+03  0.16859605312E+03  0.00000000000E+00 0.  1.
         14    1    4    4    0    0 -0.22092760289E+02  0.12305310623E+01  0.14467852185E+01  0.22174251991E+02  0.00000000000E+00 0. -1.
         -5    1    5    5    0  501  0.25813071968E+01  0.90470835032E+02  0.26670159191E+03  0.28167971931E+03  0.47000000000E+01 0.  1.
         11    1    6    6    0    0  0.15780336701E+02  0.22925874807E+02  0.64323004387E+02  0.70086115996E+02  0.00000000000E+00 0. -1.
        -12    1    6    6    0    0 -0.37177793851E+02 -0.42549906652E+01  0.12367936713E+01  0.37440926268E+02  0.00000000000E+00 0.  1.
</event>
<event>
12    1  0.9656379E-001  0.2963389E+03  0.7818608E-02  0.1087085E+00
         -2   -1    0    0    0  501 -0.00000000000E+00  0.00000000000E+00  0.14351048513E+03  0.14351048513E+03  0.00000000000E+00 0.  1.
          2   -1    0    0  502    0  0.00000000000E+00 -0.00000000000E+00 -0.21526284723E+04  0.21526284723E+04  0.00000000000E+00 0. -1.
          6    2    1    2  502    0 -0.22958861230E+03 -0.73989316906E+02 -0.33285749158E+02  0.29820847795E+03  0.17214820739E+03 0.  0.
         24    2    3    3    0    0 -0.24476109277E+03 -0.45448730004E+02 -0.18758897023E+02  0.26246090884E+03  0.80995387905E+02 0.  0.
         -6    2    1    2    0  501  0.22958861230E+03  0.73989316906E+02 -0.19758322380E+04  0.19979304794E+04  0.17212733114E+03 0.  0.
        -24    2    5    5    0    0  0.79896842896E+02  0.50518244010E+02 -0.53389026798E+03  0.54804177614E+03  0.79845924610E+02 0.  0.
          5    1    3    3  502    0  0.15172480463E+02 -0.28540586902E+02 -0.14526852136E+02  0.35747569108E+02  0.47000000000E+01 0. -1.
        -11    1    4    4    0    0 -0.15915708231E+03 -0.43986815829E+02  0.23833992727E+02  0.16683487653E+03  0.00000000000E+00 0.  1.
         12    1    4    4    0    0 -0.85604010454E+02 -0.14619141744E+01 -0.42592889750E+02  0.95626032314E+02  0.00000000000E+00 0. -1.
         -5    1    5    5    0  501  0.14969176941E+03  0.23471072896E+02 -0.14419419700E+04  0.14498887033E+04  0.47000000000E+01 0.  1.
         11    1    6    6    0    0  0.14495256426E+02  0.54418176939E+02 -0.29515273641E+03  0.30047726744E+03  0.00000000000E+00 0. -1.
        -12    1    6    6    0    0  0.65401586470E+02 -0.38999329287E+01 -0.23873753157E+03  0.24756450870E+03  0.00000000000E+00 0.  1.
</event>
<event>
12    1  0.9656379E-001  0.2154288E+03  0.7818608E-02  0.1137338E+00
         -1   -1    0    0    0  501 -0.00000000000E+00  0.00000000000E+00  0.48018158661E+03  0.48018158661E+03  0.00000000000E+00 0.  1.
          1   -1    0    0  502    0  0.00000000000E+00 -0.00000000000E+00 -0.10491412921E+03  0.10491412921E+03  0.00000000000E+00 0. -1.
          6    2    1    2  502    0  0.12844122227E+03  0.48033501107E+01  0.26941375085E+03  0.34470186052E+03  0.17238150639E+03 0.  0.
         24    2    3    3    0    0  0.12879901858E+03 -0.77058391538E+01  0.14743551643E+03  0.22199331352E+03  0.10438023088E+03 0.  0.
         -6    2    1    2    0  501 -0.12844122227E+03 -0.48033501107E+01  0.10585370656E+03  0.24039385530E+03  0.17338967306E+03 0.  0.
        -24    2    5    5    0    0 -0.13430969838E+03  0.45947555732E+02  0.96702412978E+02  0.18827927356E+03  0.77119745981E+02 0.  0.
          5    1    3    3  502    0 -0.35779631023E+00  0.12509189265E+02  0.12197823442E+03  0.12270854700E+03  0.47000000000E+01 0. -1.
        -11    1    4    4    0    0 -0.10806513946E+02  0.16895873040E+02  0.42406983815E+01  0.20499629075E+02  0.00000000000E+00 0.  1.
         12    1    4    4    0    0  0.13960553253E+03 -0.24601712194E+02  0.14319481805E+03  0.20149368444E+03  0.00000000000E+00 0. -1.
         -5    1    5    5    0  501  0.58684761105E+01 -0.50750905843E+02  0.91512935808E+01  0.52114581740E+02  0.47000000000E+01 0.  1.
         13    1    6    6    0    0 -0.90341627194E+02 -0.90067271216E+01  0.48046802509E+02  0.10271916067E+03  0.00000000000E+00 0. -1.
        -14    1    6    6    0    0 -0.43968071187E+02  0.54954282853E+02  0.48655610468E+02  0.85560112891E+02  0.00000000000E+00 0.  1.
</event>
<event>
12    1  0.9656379E-001  0.2065217E+03  0.7818608E-02  0.1144350E+00
          2   -1    0    0  502    0  0.00000000000E+00  0.00000000000E+00  0.66267347628E+03  0.66267347628E+03  0.00000000000E+00 0. -1.
         -2   -1    0    0    0  501 -0.00000000000E+00 -0.00000000000E+00 -0.15266090317E+03  0.15266090317E+03  0.00000000000E+00 0.  1.
          6    2    1    2  502    0  0.84470660469E+02 -0.76828490545E+02 -0.54960397182E+02  0.21384694599E+03  0.17225551257E+03 0.  0.
         24    2    3    3    0    0  0.11175456474E+03 -0.53097256556E+02 -0.81957572036E+02  0.16847602635E+03  0.79741623049E+02 0.  0.
         -6    2    1    2    0  501 -0.84470660469E+02  0.76828490545E+02  0.56497297029E+03  0.60148743347E+03  0.17191499649E+03 0.  0.
        -24    2    5    5    0    0 -0.12461749715E+03  0.64803305113E+02  0.48444439262E+03  0.51058465352E+03  0.79254841627E+02 0.  0.
          5    1    3    3  502    0 -0.27283904272E+02 -0.23731233990E+02  0.26997174854E+02  0.45370919641E+02  0.47000000000E+01 0. -1.
        -13    1    4    4    0    0  0.56601388031E+02 -0.23928344607E+02 -0.86289080340E+02  0.10593435792E+03  0.00000000000E+00 0.  1.
         14    1    4    4    0    0  0.55153176710E+02 -0.29168911948E+02  0.43315083034E+01  0.62541668427E+02  0.00000000000E+00 0. -1.
         -5    1    5    5    0  501  0.40146836680E+02  0.12025185432E+02  0.80528577676E+02  0.90902779949E+02  0.47000000000E+01 0.  1.
         11    1    6    6    0    0 -0.60763453741E+02  0.20027314358E+02  0.34437148292E+03  0.35026419868E+03  0.00000000000E+00 0. -1.
        -12    1    6    6    0    0 -0.63854043408E+02  0.44775990755E+02  0.14007290970E+03  0.16032045484E+03  0.00000000000E+00 0.  1.
</event>
<event>
12    1  0.9656379E-001  0.1138717E+04  0.7818608E-02  0.9168256E-01
          1   -1    0    0  502    0  0.00000000000E+00  0.00000000000E+00  0.14588184818E+04  0.14588184818E+04  0.00000000000E+00 0. -1.
         -1   -1    0    0    0  501 -0.00000000000E+00 -0.00000000000E+00 -0.16833071725E+04  0.16833071725E+04  0.00000000000E+00 0.  1.
          6    2    1    2  502    0 -0.18674713829E+03 -0.11100227880E+04 -0.11915566061E+04  0.16482052775E+04  0.17247726656E+03 0.  0.
         24    2    3    3    0    0 -0.13329481632E+03 -0.92068577344E+03 -0.10544391002E+04  0.14083533310E+04  0.78660582709E+02 0.  0.
         -6    2    1    2    0  501  0.18674713829E+03  0.11100227880E+04  0.96706791537E+03  0.14939203768E+04  0.17190885848E+03 0.  0.
        -24    2    5    5    0    0  0.89138535677E+02  0.78818410639E+03  0.61333905988E+03  0.10058079210E+04  0.79277408041E+02 0.  0.
          5    1    3    3  502    0 -0.53452321972E+02 -0.18933701461E+03 -0.13711750587E+03  0.23985194650E+03  0.47000000000E+01 0. -1.
        -13    1    4    4    0    0 -0.67692616933E+02 -0.32229277914E+03 -0.32637041774E+03  0.46365135118E+03  0.00000000000E+00 0.  1.
         14    1    4    4    0    0 -0.65602199387E+02 -0.59839299430E+03 -0.72806868247E+03  0.94470197977E+03  0.00000000000E+00 0. -1.
         -5    1    5    5    0  501  0.97608602616E+02  0.32183868166E+03  0.35372885549E+03  0.48811245581E+03  0.47000000000E+01 0.  1.
         13    1    6    6    0    0  0.18015672670E+02  0.36831941976E+02  0.46096710742E+02  0.61693299091E+02  0.00000000000E+00 0. -1.
        -14    1    6    6    0    0  0.71122863007E+02  0.75135216441E+03  0.56724234914E+03  0.94411462189E+03  0.00000000000E+00 0.  1.
</event>
<event>
12    1  0.9656379E-001  0.3373246E+03  0.7818608E-02  0.1067941E+00
         -1   -1    0    0    0  501 -0.00000000000E+00  0.00000000000E+00  0.25090657773E+03  0.25090657773E+03  0.00000000000E+00 0.  1.
          1   -1    0    0  502    0  0.00000000000E+00 -0.00000000000E+00 -0.50390824151E+03  0.50390824151E+03  0.00000000000E+00 0. -1.
          6    2    1    2  502    0 -0.25762375587E+03  0.12887478234E+03 -0.83103158106E+01  0.34073723591E+03  0.18180784768E+03 0.  0.
         24    2    3    3    0    0 -0.14724645221E+03  0.26989591262E+02  0.53496358278E+02  0.17823832427E+03  0.80604492214E+02 0.  0.
         -6    2    1    2    0  501  0.25762375587E+03 -0.12887478234E+03 -0.24469134796E+03  0.41407758333E+03  0.16913805053E+03 0.  0.
        -24    2    5    5    0    0  0.25284461525E+03 -0.13247916010E+03 -0.26168582510E+03  0.39545678911E+03  0.80159052311E+02 0.  0.
          5    1    3    3  502    0 -0.11037730366E+03  0.10188519108E+03 -0.61806674089E+02  0.16249891164E+03  0.47000000000E+01 0. -1.
        -13    1    4    4    0    0 -0.11141473176E+03 -0.94593523715E+01  0.12105942505E+02  0.11246899859E+03  0.00000000000E+00 0.  1.
         14    1    4    4    0    0 -0.35831720450E+02  0.36448943634E+02  0.41390415773E+02  0.65769325679E+02  0.00000000000E+00 0. -1.
         -5    1    5    5    0  501  0.47791406112E+01  0.36043777655E+01  0.16994477141E+02  0.18620794219E+02  0.47000000000E+01 0.  1.
         13    1    6    6    0    0  0.12891851657E+03 -0.95835006107E+02 -0.10306832834E+03  0.19085966734E+03  0.00000000000E+00 0. -1.
        -14    1    6    6    0    0  0.12392609868E+03 -0.36644153998E+02 -0.15861749676E+03  0.20459712176E+03  0.00000000000E+00 0.  1.
</event>
<event>
12    1  0.9656379E-001  0.5670044E+03  0.7818608E-02  0.9976330E-01
          2   -1    0    0  502    0  0.00000000000E+00  0.00000000000E+00  0.42901618848E+03  0.42901618848E+03  0.00000000000E+00 0. -1.
         -2   -1    0    0    0  501 -0.00000000000E+00 -0.00000000000E+00 -0.14000655563E+04  0.14000655563E+04  0.00000000000E+00 0.  1.
          6    2    1    2  502    0 -0.28459929394E+02 -0.53945796803E+03 -0.11089055268E+04  0.12453684744E+04  0.17159925100E+03 0.  0.
         24    2    3    3    0    0 -0.64500939596E+02 -0.33884272512E+03 -0.80420407728E+03  0.87874810753E+03  0.80493943851E+02 0.  0.
         -6    2    1    2    0  501  0.28459929394E+02  0.53945796803E+03  0.13785615893E+03  0.58371327038E+03  0.17289301492E+03 0.  0.
        -24    2    5    5    0    0 -0.40205976660E+02  0.23045749212E+03  0.26198698285E+02  0.24802624459E+03  0.78124707860E+02 0.  0.
          5    1    3    3  502    0  0.36041010201E+02 -0.20061524291E+03 -0.30470144951E+03  0.36662036692E+03  0.47000000000E+01 0. -1.
        -11    1    4    4    0    0 -0.24443449223E+02 -0.17035228414E+02 -0.73957166413E+02  0.79732952290E+02  0.00000000000E+00 0.  1.
         12    1    4    4    0    0 -0.40057490373E+02 -0.32180749670E+03 -0.73024691087E+03  0.79901515524E+03  0.00000000000E+00 0. -1.
         -5    1    5    5    0  501  0.68665906055E+02  0.30900047591E+03  0.11165746064E+03  0.33568702579E+03  0.47000000000E+01 0.  1.
         13    1    6    6    0    0 -0.56896338794E+02  0.20768101549E+03  0.35617847698E+02  0.21825954421E+03  0.00000000000E+00 0. -1.
        -14    1    6    6    0    0  0.16690362134E+02  0.22776476634E+02 -0.94191494122E+01  0.29766700383E+02  0.00000000000E+00 0.  1.
</event>
<event>
12    1  0.9656379E-001  0.3172703E+03  0.7818608E-02  0.1076913E+00
         -2   -1    0    0    0  501 -0.00000000000E+00  0.00000000000E+00  0.34584073660E+03  0.34584073660E+03  0.00000000000E+00 0.  1.
          2   -1    0    0  502    0  0.00000000000E+00 -0.00000000000E+00 -0.11780189409E+04  0.11780189409E+04  0.00000000000E+00 0. -1.
          6    2    1    2  502    0 -0.24331564599E+03  0.10845760728E+03  0.24508406130E+03  0.40081563053E+03  0.17210873427E+03 0.  0.
         24    2    3    3    0    0 -0.12302349501E+03  0.11866949806E+03  0.19062615080E+03  0.26829303504E+03  0.80159797814E+02 0.  0.
         -6    2    1    2    0  501  0.24331564599E+03 -0.10845760728E+03 -0.10772622656E+04  0.11230440470E+04  0.17253517441E+03 0.  0.
        -24    2    5    5    0    0  0.19254782640E+03 -0.78922877088E+02 -0.10031001081E+04  0.10283245273E+04  0.89095570564E+02 0.  0.
          5    1    3    3  502    0 -0.12029215098E+03 -0.10211890776E+02  0.54457910495E+02  0.13252259549E+03  0.47000000000E+01 0. -1.
        -13    1    4    4    0    0 -0.71756522106E+02  0.54440073010E+02  0.15381031168E+03  0.17824234063E+03  0.00000000000E+00 0.  1.
         14    1    4    4    0    0 -0.51266972905E+02  0.64229425049E+02  0.36815839122E+02  0.90050694407E+02  0.00000000000E+00 0. -1.
         -5    1    5    5    0  501  0.50767819588E+02 -0.29534730195E+02 -0.74162157477E+02  0.94719519610E+02  0.47000000000E+01 0.  1.
         11    1    6    6    0    0  0.19700514352E+03 -0.59077598075E+02 -0.92803917799E+03  0.95055662906E+03  0.00000000000E+00 0. -1.
        -12    1    6    6    0    0 -0.44573171154E+01 -0.19845279013E+02 -0.75060930113E+02  0.77767898290E+02  0.00000000000E+00 0.  1.
</event>
<event>
12    1  0.9656379E-001  0.2250944E+04  0.7818608E-02  0.8497518E-01
          1   -1    0    0  502    0  0.00000000000E+00  0.00000000000E+00  0.28061620346E+04  0.28061620346E+04  0.00000000000E+00 0. -1.
         -1   -1    0    0    0  501 -0.00000000000E+00 -0.00000000000E+00 -0.20697046309E+04  0.20697046309E+04  0.00000000000E+00 0.  1.
          6    2    1    2  502    0 -0.17992065719E+04  0.13413853004E+04 -0.50270108222E+03  0.23062488913E+04  0.17209520074E+03 0.  0.
         24    2    3    3    0    0 -0.17679570822E+04  0.12881373045E+04 -0.48735530469E+03  0.22424565519E+04  0.78270266752E+02 0.  0.
         -6    2    1    2    0  501  0.17992065719E+04 -0.13413853004E+04  0.12391584859E+04  0.25696177742E+04  0.17596289294E+03 0.  0.
        -24    2    5    5    0    0  0.12451611439E+04 -0.86694406579E+03  0.78302878915E+03  0.17093054985E+04  0.81073516926E+02 0.  0.
          5    1    3    3  502    0 -0.31249489747E+02  0.53247995912E+02 -0.15345777531E+02  0.63792339400E+02  0.47000000000E+01 0. -1.
        -11    1    4    4    0    0 -0.10585027435E+03  0.73264877854E+02 -0.47587018426E+02  0.13724630133E+03  0.00000000000E+00 0.  1.
         12    1    4    4    0    0 -0.16621068078E+04  0.12148724266E+04 -0.43976828626E+03  0.21052102506E+04  0.00000000000E+00 0. -1.
         -5    1    5    5    0  501  0.55404542800E+03 -0.47444123463E+03  0.45612969677E+03  0.86031227568E+03  0.47000000000E+01 0.  1.
         13    1    6    6    0    0  0.12235223989E+04 -0.85846488029E+03  0.77980426600E+03  0.16858421351E+04  0.00000000000E+00 0. -1.
        -14    1    6    6    0    0  0.21638745024E+02 -0.84791854977E+01  0.32245231520E+01  0.23463363410E+02  0.00000000000E+00 0.  1.
</event>
<event>
12    1  0.9656379E-001  0.1665929E+04  0.7818608E-02  0.8781038E-01
          2   -1    0    0  502    0  0.00000000000E+00  0.00000000000E+00  0.25445544100E+04  0.25445544100E+04  0.00000000000E+00 0. -1.
         -2   -1    0    0    0  501 -0.00000000000E+00 -0.00000000000E+00 -0.11705065318E+04  0.11705065318E+04  0.00000000000E+00 0.  1.
          6    2    1    2  502    0 -0.16479015025E+04  0.17302885940E+03  0.20199526747E+03  0.16782085511E+04  0.17338830630E+03 0.  0.
         24    2    3    3    0    0 -0.86570326171E+03  0.15755663049E+03  0.11431200268E+03  0.89094498488E+03  0.80308797669E+02 0.  0.
         -6    2    1    2    0  501  0.16479015025E+04 -0.17302885940E+03  0.11720526108E+04  0.20368523908E+04  0.17187783878E+03 0.  0.
        -24    2    5    5    0    0  0.15140462066E+04 -0.16397272997E+03  0.10233475782E+04  0.18365163471E+04  0.79555359817E+02 0.  0.
          5    1    3    3  502    0 -0.78219824075E+03  0.15472228905E+02  0.87683264783E+02  0.78726356617E+03  0.47000000000E+01 0. -1.
        -11    1    4    4    0    0 -0.52362007303E+03  0.74845700827E+02  0.34485967423E+02  0.53006522407E+03  0.00000000000E+00 0.  1.
         12    1    4    4    0    0 -0.34208318867E+03  0.82710929666E+02  0.79826035260E+02  0.36087976081E+03  0.00000000000E+00 0. -1.
         -5    1    5    5    0  501  0.13385529582E+03 -0.90561294289E+01  0.14870503254E+03  0.20033604369E+03  0.47000000000E+01 0.  1.
         13    1    6    6    0    0  0.93798756967E+03 -0.79851180672E+02  0.67069043959E+03  0.11558644201E+04  0.00000000000E+00 0. -1.
        -14    1    6    6    0    0  0.57605863697E+03 -0.84121549297E+02  0.35265713863E+03  0.68065192699E+03  0.00000000000E+00 0.  1.
</event>
<event>
12    1  0.9656379E-001  0.2291382E+03  0.7818608E-02  0.1127248E+00
          1   -1    0    0  502    0  0.00000000000E+00  0.00000000000E+00  0.20557564157E+03  0.20557564157E+03  0.00000000000E+00 0. -1.
         -1   -1    0    0    0  501 -0.00000000000E+00 -0.00000000000E+00 -0.26307646123E+03  0.26307646123E+03  0.00000000000E+00 0.  1.
          6    2    1    2  502    0  0.28894999824E+02 -0.14636760906E+03 -0.68931650090E+02  0.24076909731E+03  0.17595393669E+03 0.  0.
         24    2    3    3    0    0 -0.84673092997E+01 -0.85044522833E+02 -0.10766567584E+03  0.15904469582E+03  0.79994070567E+02 0.  0.
         -6    2    1    2    0  501 -0.28894999824E+02  0.14636760906E+03  0.11430830432E+02  0.22788300550E+03  0.17187670672E+03 0.  0.
        -24    2    5    5    0    0 -0.50771319569E+02  0.16807821823E+02 -0.46542964936E+01  0.95424962542E+02  0.78892529653E+02 0.  0.
          5    1    3    3  502    0  0.37362309124E+02 -0.61323086228E+02  0.38734025747E+02  0.81724401485E+02  0.47000000000E+01 0. -1.
        -11    1    4    4    0    0  0.17248475171E+02 -0.88458903718E+02 -0.74446074738E+02  0.11689613161E+03  0.00000000000E+00 0.  1.
         12    1    4    4    0    0 -0.25715784471E+02  0.34143808847E+01 -0.33219601099E+02  0.42148564210E+02  0.00000000000E+00 0. -1.
         -5    1    5    5    0  501  0.21876319746E+02  0.12955978724E+03  0.16085126926E+02  0.13245804295E+03  0.47000000000E+01 0.  1.
         11    1    6    6    0    0 -0.34867165279E+02  0.36778878881E+02  0.24820254000E+02  0.56430932608E+02  0.00000000000E+00 0. -1.
        -12    1    6    6    0    0 -0.15904154290E+02 -0.19971057058E+02 -0.29474550494E+02  0.38994029934E+02  0.00000000000E+00 0.  1.
</event>
<event>
12    1  0.9656379E-001  0.1445059E+04  0.7818608E-02  0.8921833E-01
         -2   -1    0    0    0  501 -0.00000000000E+00  0.00000000000E+00  0.11217147558E+04  0.11217147558E+04  0.00000000000E+00 0.  1.
          2   -1    0    0  502    0  0.00000000000E+00 -0.00000000000E+00 -0.18616195201E+04  0.18616195201E+04  0.00000000000E+00 0. -1.
          6    2    1    2  502    0  0.13598845457E+04 -0.45768561586E+03 -0.37349257879E+03  0.14925999139E+04  0.17203399726E+03 0.  0.
         24    2    3    3    0    0  0.12540385891E+04 -0.45365474437E+03 -0.37144617554E+03  0.13865532628E+04  0.78372694974E+02 0.  0.
         -6    2    1    2    0  501 -0.13598845457E+04  0.45768561586E+03 -0.36641218549E+03  0.14907343619E+04  0.17108169839E+03 0.  0.
        -24    2    5    5    0    0 -0.42057659710E+03  0.11391633567E+03 -0.77122165527E+02  0.44949109257E+03  0.78948136929E+02 0.  0.
          5    1    3    3  502    0  0.10584595660E+03 -0.40308714959E+01 -0.20464032488E+01  0.10604665114E+03  0.47000000000E+01 0. -1.
        -11    1    4    4    0    0  0.95674936201E+03 -0.32686363552E+03 -0.31060264464E+03  0.10576782029E+04  0.00000000000E+00 0.  1.
         12    1    4    4    0    0  0.29728922705E+03 -0.12679110885E+03 -0.60843530901E+02  0.32887505995E+03  0.00000000000E+00 0. -1.
         -5    1    5    5    0  501 -0.93930794856E+03  0.34376928019E+03 -0.28929001997E+03  0.10412432693E+04  0.47000000000E+01 0.  1.
         11    1    6    6    0    0 -0.34906279012E+02  0.24346920999E+02 -0.26989954729E+02  0.50395223315E+02  0.00000000000E+00 0. -1.
        -12    1    6    6    0    0 -0.38567031809E+03  0.89569414669E+02 -0.50132210797E+02  0.39909586926E+03  0.00000000000E+00 0.  1.
</event>
<event>
12    1  0.9656379E-001  0.2714817E+03  0.7818608E-02  0.1100435E+00
          4   -1    0    0  502    0  0.00000000000E+00  0.00000000000E+00  0.20269211746E+03  0.20269211746E+03  0.00000000000E+00 0. -1.
         -4   -1    0    0    0  501 -0.00000000000E+00 -0.00000000000E+00 -0.37557847635E+03  0.37557847635E+03  0.00000000000E+00 0.  1.
          6    2    1    2  502    0 -0.20251706155E+03  0.56604008746E+02 -0.13798748578E+03  0.30437992430E+03  0.17143342165E+03 0.  0.
         24    2    3    3    0    0 -0.77638375773E+02  0.29971661959E+02  0.15071937269E+01  0.11521115397E+03  0.79657519755E+02 0.  0.
         -6    2    1    2    0  501  0.20251706155E+03 -0.56604008746E+02 -0.34898873120E+02  0.27389066951E+03  0.17199125988E+03 0.  0.
        -24    2    5    5    0    0  0.56676574819E+02 -0.73314676908E+02 -0.36066972553E+02  0.12701606839E+03  0.79025180390E+02 0.  0.
          5    1    3    3  502    0 -0.12487868577E+03  0.26632346787E+02 -0.13949467950E+03  0.18916877032E+03  0.47000000000E+01 0. -1.
        -11    1    4    4    0    0 -0.77057874048E+02  0.25377734828E+02 -0.27632466485E+02  0.85705884173E+02  0.00000000000E+00 0.  1.
         12    1    4    4    0    0 -0.58050172525E+00  0.45939271307E+01  0.29139660212E+02  0.29505269800E+02  0.00000000000E+00 0. -1.
         -5    1    5    5    0  501  0.14584048673E+03  0.16710668162E+02  0.11680994334E+01  0.14687460113E+03  0.47000000000E+01 0.  1.
         11    1    6    6    0    0 -0.10780424394E+02 -0.46831574155E+02 -0.55219618757E+01  0.48372574367E+02  0.00000000000E+00 0. -1.
        -12    1    6    6    0    0  0.67456999213E+02 -0.26483102753E+02 -0.30545010677E+02  0.78643494019E+02  0.00000000000E+00 0.  1.
</event>
<event>
12    1  0.9656379E-001  0.1736793E+03  0.7818608E-02  0.1174064E+00
          1   -1    0    0  502    0  0.00000000000E+00  0.00000000000E+00  0.63443772844E+03  0.63443772844E+03  0.00000000000E+00 0. -1.
         -1   -1    0    0    0  501 -0.00000000000E+00 -0.00000000000E+00 -0.62820268268E+02  0.62820268268E+02  0.00000000000E+00 0.  1.
          6    2    1    2  502    0  0.32542196877E+02  0.14571356369E+02  0.11548419043E+03  0.20962333609E+03  0.17127178925E+03 0.  0.
         24    2    3    3    0    0 -0.13230382016E+02  0.35220747468E+02  0.13042538634E+03  0.15702242672E+03  0.78928556509E+02 0.  0.
         -6    2    1    2    0  501 -0.32542196877E+02 -0.14571356369E+02  0.45613326975E+03  0.48763466062E+03  0.16869701675E+03 0.  0.
        -24    2    5    5    0    0 -0.12470374347E+02 -0.54175846663E+02  0.41736855338E+03  0.42850609775E+03  0.79564023684E+02 0.  0.
          5    1    3    3  502    0  0.45772578893E+02 -0.20649391099E+02 -0.14941195910E+02  0.52600909370E+02  0.47000000000E+01 0. -1.
        -11    1    4    4    0    0 -0.36663664802E+02  0.46852310371E+02  0.74980261485E+02  0.95715217788E+02  0.00000000000E+00 0.  1.
         12    1    4    4    0    0  0.23433282786E+02 -0.11631562903E+02  0.55445124853E+02  0.61307208937E+02  0.00000000000E+00 0. -1.
         -5    1    5    5    0  501 -0.20071822531E+02  0.39604490294E+02  0.38764716369E+02  0.59128562863E+02  0.47000000000E+01 0.  1.
         13    1    6    6    0    0  0.26323837448E+01  0.32967115322E+01  0.26391276283E+03  0.26394647968E+03  0.00000000000E+00 0. -1.
        -14    1    6    6    0    0 -0.15102758091E+02 -0.57472558195E+02  0.15345579054E+03  0.16455961807E+03  0.00000000000E+00 0.  1.
</event>
<event>
12    1  0.9656379E-001  0.3074143E+03  0.7818608E-02  0.1081592E+00
          1   -1    0    0  502    0  0.00000000000E+00  0.00000000000E+00  0.26677569691E+03  0.26677569691E+03  0.00000000000E+00 0. -1.
         -1   -1    0    0    0  501 -0.00000000000E+00 -0.00000000000E+00 -0.41075479984E+03  0.41075479984E+03  0.00000000000E+00 0.  1.
          6    2    1    2  502    0  0.24774286668E+03 -0.57421323926E+02 -0.19753343790E+03  0.36495729967E+03  0.17175748909E+03 0.  0.
         24    2    3    3    0    0  0.21261567833E+03 -0.94853722414E+02 -0.12634372274E+03  0.27706435705E+03  0.81235868570E+02 0.  0.
         -6    2    1    2    0  501 -0.24774286668E+03  0.57421323926E+02  0.53554334974E+02  0.31257319709E+03  0.17366692348E+03 0.  0.
        -24    2    5    5    0    0 -0.12228925483E+03 -0.35374907498E+02  0.47242071031E+02  0.15633080857E+03  0.77469106789E+02 0.  0.
          5    1    3    3  502    0  0.35127188345E+02  0.37432398488E+02 -0.71189715158E+02  0.87892942616E+02  0.47000000000E+01 0. -1.
        -13    1    4    4    0    0  0.83125205823E+02 -0.24249298802E+02 -0.61587386630E+01  0.86808746088E+02  0.00000000000E+00 0.  1.
         14    1    4    4    0    0  0.12949047251E+03 -0.70604423611E+02 -0.12018498408E+03  0.19025561096E+03  0.00000000000E+00 0. -1.
         -5    1    5    5    0  501 -0.12545361185E+03  0.92796231424E+02  0.63122639427E+01  0.15624238851E+03  0.47000000000E+01 0.  1.
         11    1    6    6    0    0 -0.87899066015E+02  0.35222348103E+01  0.55127319579E+02  0.10381557353E+03  0.00000000000E+00 0. -1.
        -12    1    6    6    0    0 -0.34390188816E+02 -0.38897142309E+02 -0.78852485486E+01  0.52515235039E+02  0.00000000000E+00 0.  1.
</event>
<event>
12    1  0.9656379E-001  0.6775998E+03  0.7818608E-02  0.9756325E-01
          2   -1    0    0  502    0  0.00000000000E+00  0.00000000000E+00  0.22149610164E+04  0.22149610164E+04  0.00000000000E+00 0. -1.
         -2   -1    0    0    0  501 -0.00000000000E+00 -0.00000000000E+00 -0.39175697239E+03  0.39175697239E+03  0.00000000000E+00 0.  1.
          6    2    1    2  502    0  0.62191945035E+03 -0.20410704042E+03  0.18057874401E+04  0.19286451728E+04  0.17424246612E+03 0.  0.
         24    2    3    3    0    0  0.51590735900E+03 -0.22411585420E+03  0.14689376765E+04  0.15749097217E+04  0.78577444451E+02 0.  0.
         -6    2    1    2    0  501 -0.62191945035E+03  0.20410704042E+03  0.17416603868E+02  0.67807281597E+03  0.17617014216E+03 0.  0.
        -24    2    5    5    0    0 -0.59496706650E+03  0.21129928163E+03 -0.12543808806E+02  0.63686752922E+03  0.82520942751E+02 0.  0.
          5    1    3    3  502    0  0.10601209135E+03  0.20008813774E+02  0.33684976358E+03  0.35373545110E+03  0.47000000000E+01 0. -1.
        -13    1    4    4    0    0  0.11657224749E+03 -0.28072103149E+02  0.24834096877E+03  0.27577231302E+03  0.00000000000E+00 0.  1.
         14    1    4    4    0    0  0.39933511151E+03 -0.19604375105E+03  0.12205967078E+04  0.12991374087E+04  0.00000000000E+00 0. -1.
         -5    1    5    5    0  501 -0.26952383846E+02 -0.71922412024E+01  0.29960412674E+02  0.41205286749E+02  0.47000000000E+01 0.  1.
         13    1    6    6    0    0 -0.31242654151E+03  0.77378687896E+02  0.20116980017E+02  0.32249418300E+03  0.00000000000E+00 0. -1.
        -14    1    6    6    0    0 -0.28254052499E+03  0.13392059373E+03 -0.32660788823E+02  0.31437334622E+03  0.00000000000E+00 0.  1.
</event>
<event>
12    1  0.9656379E-001  0.4675587E+03  0.7818608E-02  0.1022612E+00
         -1   -1    0    0    0  501 -0.00000000000E+00  0.00000000000E+00  0.57370416989E+03  0.57370416989E+03  0.00000000000E+00 0.  1.
          1   -1    0    0  502    0  0.00000000000E+00 -0.00000000000E+00 -0.85816967905E+03  0.85816967905E+03  0.00000000000E+00 0. -1.
          6    2    1    2  502    0  0.20255999458E+03  0.38459544470E+03 -0.67606110715E+03  0.82199496477E+03  0.17225821905E+03 0.  0.
         24    2    3    3    0    0  0.21736122968E+03  0.34678519185E+03 -0.65803547948E+03  0.77732165021E+03  0.60929321196E+02 0.  0.
         -6    2    1    2    0  501 -0.20255999458E+03 -0.38459544470E+03  0.39159559799E+03  0.60987888417E+03  0.17222349871E+03 0.  0.
        -24    2    5    5    0    0 -0.21519035198E+03 -0.28256611747E+03  0.30366999096E+03  0.47451821073E+03  0.82471635008E+02 0.  0.
          5    1    3    3  502    0 -0.14801235099E+02  0.37810252853E+02 -0.18025627669E+02  0.44673314564E+02  0.47000000000E+01 0. -1.
        -11    1    4    4    0    0  0.57619277483E+02  0.69361222007E+02 -0.10585709634E+03  0.13905640978E+03  0.00000000000E+00 0.  1.
         12    1    4    4    0    0  0.15974195220E+03  0.27742396984E+03 -0.55217838314E+03  0.63826524043E+03  0.00000000000E+00 0. -1.
         -5    1    5    5    0  501  0.12630357395E+02 -0.10202932723E+03  0.87925607029E+02  0.13536067344E+03  0.47000000000E+01 0.  1.
         11    1    6    6    0    0 -0.10886365816E+03 -0.18918800138E+03  0.14569840323E+03  0.26243364997E+03  0.00000000000E+00 0. -1.
        -12    1    6    6    0    0 -0.10632669382E+03 -0.93378116093E+02  0.15797158773E+03  0.21208456076E+03  0.00000000000E+00 0.  1.
</event>
<event>
12    1  0.9656379E-001  0.1491543E+04  0.7818608E-02  0.8890096E-01
          2   -1    0    0  502    0  0.00000000000E+00  0.00000000000E+00  0.16028944556E+04  0.16028944556E+04  0.00000000000E+00 0. -1.
         -2   -1    0    0    0  501 -0.00000000000E+00 -0.00000000000E+00 -0.17696956045E+04  0.17696956045E+04  0.00000000000E+00 0.  1.
          6    2    1    2  502    0  0.11389963302E+04 -0.94722334598E+03 -0.86662637815E+03  0.17251184639E+04  0.17449277248E+03 0.  0.
         24    2    3    3    0    0  0.98540685270E+03 -0.81260109506E+03 -0.68389843455E+03  0.14510300303E+04  0.80149079764E+02 0.  0.
         -6    2    1    2    0  501 -0.11389963302E+04  0.94722334598E+03  0.69982522929E+03  0.16474715962E+04  0.17280798976E+03 0.  0.
        -24    2    5    5    0    0 -0.68246514460E+03  0.53825534180E+03  0.34005953358E+03  0.93674731936E+03  0.79859673049E+02 0.  0.
          5    1    3    3  502    0  0.15358947752E+03 -0.13462225092E+03 -0.18272794360E+03  0.27408843357E+03  0.47000000000E+01 0. -1.
        -13    1    4    4    0    0  0.54783939826E+03 -0.50262356061E+03 -0.40290300684E+03  0.84562951869E+03  0.00000000000E+00 0.  1.
         14    1    4    4    0    0  0.43756745444E+03 -0.30997753445E+03 -0.28099542771E+03  0.60540051160E+03  0.00000000000E+00 0. -1.
         -5    1    5    5    0  501 -0.45653118562E+03  0.40896800417E+03  0.35976569571E+03  0.71072427684E+03  0.47000000000E+01 0.  1.
         11    1    6    6    0    0 -0.39393907783E+03  0.32054213386E+03  0.15701477633E+03  0.53159091096E+03  0.00000000000E+00 0. -1.
        -12    1    6    6    0    0 -0.28852606677E+03  0.21771320794E+03  0.18304475725E+03  0.40515640840E+03  0.00000000000E+00 0.  1.
</event>
<event>
12    1  0.9656379E-001  0.6073227E+03  0.7818608E-02  0.9890329E-01
         -2   -1    0    0    0  501 -0.00000000000E+00  0.00000000000E+00  0.21779459638E+04  0.21779459638E+04  0.00000000000E+00 0.  1.
          2   -1    0    0  502    0  0.00000000000E+00 -0.00000000000E+00 -0.36706773097E+03  0.36706773097E+03  0.00000000000E+00 0. -1.
          6    2    1    2  502    0  0.34704768246E+03 -0.46817647140E+03  0.18396973194E+04  0.19375076229E+04  0.17267964391E+03 0.  0.
         24    2    3    3    0    0  0.70213658195E+02 -0.12430669122E+03  0.55356976626E+03  0.57771731711E+03  0.83280856695E+02 0.  0.
         -6    2    1    2    0  501 -0.34704768246E+03  0.46817647140E+03 -0.28819086566E+02  0.60750607189E+03  0.16912062370E+03 0.  0.
        -24    2    5    5    0    0 -0.34284606408E+03  0.45631484683E+03 -0.53715888522E+02  0.57921663071E+03  0.82703358586E+02 0.  0.
          5    1    3    3  502    0  0.27683402426E+03 -0.34386978018E+03  0.12861275532E+04  0.13597903058E+04  0.47000000000E+01 0. -1.
        -11    1    4    4    0    0  0.88424641691E+02 -0.10120609504E+03  0.42130795260E+03  0.44222390467E+03  0.00000000000E+00 0.  1.
         12    1    4    4    0    0 -0.18210983496E+02 -0.23100596180E+02  0.13226181366E+03  0.13549341245E+03  0.00000000000E+00 0. -1.
         -5    1    5    5    0  501 -0.42016183737E+01  0.11861624569E+02  0.24896801956E+02  0.28289441175E+02  0.47000000000E+01 0.  1.
         13    1    6    6    0    0 -0.19199902576E+03  0.23618338016E+03 -0.68351392100E+02  0.31195853532E+03  0.00000000000E+00 0. -1.
        -14    1    6    6    0    0 -0.15084703833E+03  0.22013146667E+03  0.14635503578E+02  0.26725809540E+03  0.00000000000E+00 0.  1.
</event>
<event>
12    1  0.9656379E-001  0.5559298E+03  0.7818608E-02  0.1000131E+00
         -1   -1    0    0    0  501 -0.00000000000E+00  0.00000000000E+00  0.49108976801E+03  0.49108976801E+03  0.00000000000E+00 0.  1.
          1   -1    0    0  502    0  0.00000000000E+00 -0.00000000000E+00 -0.63609282220E+03  0.63609282220E+03  0.00000000000E+00 0. -1.
          6    2    1    2  502    0 -0.27620651241E+03  0.45014711225E+03 -0.13067235409E+03  0.57157027420E+03  0.17519946936E+03 0.  0.
         24    2    3    3    0    0 -0.16150246045E+03  0.31228127271E+03 -0.17542234962E+02  0.35947472238E+03  0.72881465451E+02 0.  0.
         -6    2    1    2    0  501  0.27620651241E+03 -0.45014711225E+03 -0.14330700097E+02  0.55561231600E+03  0.17198027958E+03 0.  0.
        -24    2    5    5    0    0  0.27971056826E+03 -0.39552191104E+03 -0.44564906693E+02  0.49290355854E+03  0.79324038002E+02 0.  0.
          5    1    3    3  502    0 -0.11470405196E+03  0.13786583954E+03 -0.11313011913E+03  0.21209555182E+03  0.47000000000E+01 0. -1.
        -11    1    4    4    0    0 -0.13025181483E+03  0.20472005442E+03  0.14188697754E+02  0.24305792539E+03  0.00000000000E+00 0.  1.
         12    1    4    4    0    0 -0.31250645617E+02  0.10756121829E+03 -0.31730932716E+02  0.11641679699E+03  0.00000000000E+00 0. -1.
         -5    1    5    5    0  501 -0.35040558430E+01 -0.54625201206E+02  0.30234206596E+02  0.62708757464E+02  0.47000000000E+01 0.  1.
         11    1    6    6    0    0  0.74590467257E+02 -0.12160513128E+03  0.21821439433E+02  0.14431812422E+03  0.00000000000E+00 0. -1.
        -12    1    6    6    0    0  0.20512010100E+03 -0.27391677976E+03 -0.66386346126E+02  0.34858543432E+03  0.00000000000E+00 0.  1.
</event>
<event>
12    1  0.9656379E-001  0.5526871E+03  0.7818608E-02  0.1000874E+00
         -1   -1    0    0    0  501 -0.00000000000E+00  0.00000000000E+00  0.25263992047E+03  0.25263992047E+03  0.00000000000E+00 0.  1.
          1   -1    0    0  502    0  0.00000000000E+00 -0.00000000000E+00 -0.16591228526E+04  0.16591228526E+04  0.00000000000E+00 0. -1.
          6    2    1    2  502    0 -0.36656427434E+03 -0.37627528337E+03 -0.20546876716E+03  0.58971194289E+03  0.17201832810E+03 0.  0.
         24    2    3    3    0    0 -0.78395574611E+02 -0.88172585248E+02 -0.10028148971E+03  0.16884282130E+03  0.67314561699E+02 0.  0.
         -6    2    1    2    0  501  0.36656427434E+03  0.37627528337E+03 -0.12010141650E+04  0.13220508302E+04  0.17155441420E+03 0.  0.
        -24    2    5    5    0    0  0.25312452236E+03  0.34370169357E+03 -0.92493725012E+03  0.10217673491E+04  0.79351881518E+02 0.  0.
          5    1    3    3  502    0 -0.28816869973E+03 -0.28810269812E+03 -0.10518727745E+03  0.42086912159E+03  0.47000000000E+01 0. -1.
        -13    1    4    4    0    0 -0.86874269002E+02 -0.62049194461E+02 -0.68528168345E+02  0.12685957199E+03  0.00000000000E+00 0.  1.
         14    1    4    4    0    0  0.84786943914E+01 -0.26123390787E+02 -0.31753321367E+02  0.41983249310E+02  0.00000000000E+00 0. -1.
         -5    1    5    5    0  501  0.11343975199E+03  0.32573589804E+02 -0.27607691486E+03  0.30028348107E+03  0.47000000000E+01 0.  1.
         13    1    6    6    0    0  0.19313903060E+03  0.19842821883E+03 -0.59995549970E+03  0.66077457940E+03  0.00000000000E+00 0. -1.
        -14    1    6    6    0    0  0.59985491757E+02  0.14527347474E+03 -0.32498175042E+03  0.36099276972E+03  0.00000000000E+00 0.  1.
</event>
<event>
12    1  0.9656379E-001  0.5424696E+03  0.7818608E-02  0.1003252E+00
          2   -1    0    0  502    0  0.00000000000E+00  0.00000000000E+00  0.10477984763E+04  0.10477984763E+04  0.00000000000E+00 0. -1.
         -2   -1    0    0    0  501 -0.00000000000E+00 -0.00000000000E+00 -0.10196400344E+04  0.10196400344E+04  0.00000000000E+00 0.  1.
          6    2    1    2  502    0  0.22949486514E+03 -0.46077150904E+03 -0.86583652651E+03  0.10215580909E+04  0.17008752399E+03 0.  0.
         24    2    3    3    0    0  0.13093903650E+03 -0.23776746845E+03 -0.58366389531E+03  0.64861367512E+03  0.79735541213E+02 0.  0.
         -6    2    1    2    0  501 -0.22949486514E+03  0.46077150904E+03  0.89399496836E+03  0.10458804198E+04  0.17222245030E+03 0.  0.
        -24    2    5    5    0    0 -0.17786749033E+03  0.37042962895E+03  0.58237396769E+03  0.71731265025E+03  0.80765375253E+02 0.  0.
          5    1    3    3  502    0  0.98555828634E+02 -0.22300404060E+03 -0.28217263121E+03  0.37294441581E+03  0.47000000000E+01 0. -1.
        -13    1    4    4    0    0  0.70491621929E+02 -0.19782883321E+03 -0.44938408472E+03  0.49603565558E+03  0.00000000000E+00 0.  1.
         14    1    4    4    0    0  0.60447414574E+02 -0.39938635235E+02 -0.13427981059E+03  0.15257801953E+03  0.00000000000E+00 0. -1.
         -5    1    5    5    0  501 -0.51627374808E+02  0.90341880094E+02  0.31162100067E+03  0.32856776955E+03  0.47000000000E+01 0.  1.
         13    1    6    6    0    0 -0.70169220271E+02  0.23314874163E+03  0.36116159048E+03  0.43556830651E+03  0.00000000000E+00 0. -1.
        -14    1    6    6    0    0 -0.10769827006E+03  0.13728088732E+03  0.22121237721E+03  0.28174434374E+03  0.00000000000E+00 0.  1.
</event>
<event>
12    1  0.9656379E-001  0.2337469E+03  0.7818608E-02  0.1124030E+00
         -4   -1    0    0    0  501 -0.00000000000E+00  0.00000000000E+00  0.38927554842E+03  0.38927554842E+03  0.00000000000E+00 0.  1.
          4   -1    0    0  502    0  0.00000000000E+00 -0.00000000000E+00 -0.69226400413E+03  0.69226400413E+03  0.00000000000E+00 0. -1.
          6    2    1    2  502    0 -0.14777227249E+03 -0.57723830023E+02  0.33134989364E+03  0.40551216252E+03  0.17169355512E+03 0.  0.
         24    2    3    3    0    0 -0.12303040336E+03 -0.98515850220E+02  0.30231911365E+03  0.34946731274E+03  0.76737887013E+02 0.  0.
         -6    2    1    2    0  501  0.14777227249E+03  0.57723830023E+02 -0.63433834934E+03  0.67602739003E+03  0.17163684206E+03 0.  0.
        -24    2    5    5    0    0  0.10467204129E+02  0.24982659512E+02 -0.27393751361E+03  0.28894145843E+03  0.87816339020E+02 0.  0.
          5    1    3    3  502    0 -0.24741869129E+02  0.40792020197E+02  0.29030779991E+02  0.56044849777E+02  0.47000000000E+01 0. -1.
        -11    1    4    4    0    0 -0.62577903349E+02 -0.90215631887E+02  0.15441088919E+03  0.18946655886E+03  0.00000000000E+00 0.  1.
         12    1    4    4    0    0 -0.60452500009E+02 -0.83002183325E+01  0.14790822446E+03  0.16000075388E+03  0.00000000000E+00 0. -1.
         -5    1    5    5    0  501  0.13730506836E+03  0.32741170511E+02 -0.36040083574E+03  0.38708593160E+03  0.47000000000E+01 0.  1.
         13    1    6    6    0    0  0.23947641414E+02 -0.27866991173E+02 -0.12697425466E+03  0.13218366039E+03  0.00000000000E+00 0. -1.
        -14    1    6    6    0    0 -0.13480437285E+02  0.52849650686E+02 -0.14696325895E+03  0.15675779804E+03  0.00000000000E+00 0.  1.
</event>
<event>
12    1  0.9656379E-001  0.8532302E+03  0.7818608E-02  0.9486012E-01
          3   -1    0    0  502    0  0.00000000000E+00  0.00000000000E+00  0.15465606254E+04  0.15465606254E+04  0.00000000000E+00 0. -1.
         -3   -1    0    0    0  501 -0.00000000000E+00 -0.00000000000E+00 -0.47988923352E+03  0.47988923352E+03  0.00000000000E+00 0.  1.
          6    2    1    2  502    0 -0.23318852509E+02 -0.83554364612E+03  0.39324365529E+03  0.93940187068E+03  0.17075815871E+03 0.  0.
         24    2    3    3    0    0 -0.73204645857E+02 -0.42246501279E+03  0.17978318698E+03  0.47173744910E+03  0.79866259145E+02 0.  0.
         -6    2    1    2    0  501  0.23318852509E+02  0.83554364612E+03  0.67342773655E+03  0.10870479882E+04  0.17173077428E+03 0.  0.
        -24    2    5    5    0    0  0.77136222372E+02  0.64548913041E+03  0.54672353958E+03  0.85232885440E+03  0.70367840896E+02 0.  0.
          5    1    3    3  502    0  0.49885793348E+02 -0.41307863333E+03  0.21346046830E+03  0.46766442159E+03  0.47000000000E+01 0. -1.
        -13    1    4    4    0    0 -0.40003158676E+02 -0.16937624323E+03  0.32525581283E+02  0.17704936575E+03  0.00000000000E+00 0.  1.
         14    1    4    4    0    0 -0.33201487181E+02 -0.25308876956E+03  0.14725760570E+03  0.29468808335E+03  0.00000000000E+00 0. -1.
         -5    1    5    5    0  501 -0.53817369863E+02  0.19005451571E+03  0.12670419698E+03  0.23471913380E+03  0.47000000000E+01 0.  1.
         11    1    6    6    0    0  0.51920006677E+02  0.17163817149E+03  0.14582881229E+03  0.23113068056E+03  0.00000000000E+00 0. -1.
        -12    1    6    6    0    0  0.25216215695E+02  0.47385095892E+03  0.40089472729E+03  0.62119817383E+03  0.00000000000E+00 0.  1.
</event>
<event>
12    1  0.9656379E-001  0.4733846E+03  0.7818608E-02  0.1020969E+00
         -2   -1    0    0    0  501 -0.00000000000E+00  0.00000000000E+00  0.13782139274E+03  0.13782139274E+03  0.00000000000E+00 0.  1.
          2   -1    0    0  502    0  0.00000000000E+00 -0.00000000000E+00 -0.21036988019E+04  0.21036988019E+04  0.00000000000E+00 0. -1.
          6    2    1    2  502    0 -0.34310739581E+03 -0.27430577004E+03 -0.45150240835E+03  0.65536967989E+03  0.18080003329E+03 0.  0.
         24    2    3    3    0    0 -0.22019618838E+03 -0.98546422835E+02 -0.29576511567E+03  0.39027590898E+03  0.81489402112E+02 0.  0.
         -6    2    1    2    0  501  0.34310739581E+03  0.27430577004E+03 -0.15143750008E+04  0.15861505148E+04  0.17197520696E+03 0.  0.
        -24    2    5    5    0    0  0.15356872795E+03  0.20793643840E+03 -0.84116164458E+03  0.88360648922E+03  0.79916198971E+02 0.  0.
          5    1    3    3  502    0 -0.12291120743E+03 -0.17575934721E+03 -0.15573729268E+03  0.26509377091E+03  0.47000000000E+01 0. -1.
        -11    1    4    4    0    0 -0.20798423324E+03 -0.65873856627E+02 -0.23856835299E+03  0.32328263998E+03  0.00000000000E+00 0.  1.
         12    1    4    4    0    0 -0.12211955137E+02 -0.32672566208E+02 -0.57196762684E+02  0.66993269008E+02  0.00000000000E+00 0. -1.
         -5    1    5    5    0  501  0.18953866785E+03  0.66369331639E+02 -0.67321335624E+03  0.70254402554E+03  0.47000000000E+01 0.  1.
         11    1    6    6    0    0  0.19254364358E+02  0.62027062805E+02 -0.30757753081E+03  0.31435970563E+03  0.00000000000E+00 0. -1.
        -12    1    6    6    0    0  0.13431436360E+03  0.14590937560E+03 -0.53358411378E+03  0.56924678359E+03  0.00000000000E+00 0.  1.
</event>
<event>
12    1  0.9656379E-001  0.2372445E+03  0.7818608E-02  0.1121642E+00
          2   -1    0    0  502    0  0.00000000000E+00  0.00000000000E+00  0.24977803888E+03  0.24977803888E+03  0.00000000000E+00 0. -1.
         -2   -1    0    0    0  501 -0.00000000000E+00 -0.00000000000E+00 -0.22667421822E+03  0.22667421822E+03  0.00000000000E+00 0.  1.
          6    2    1    2  502    0  0.15226574563E+03  0.50297191464E+02  0.29824361543E+02  0.24094743321E+03  0.17734573090E+03 0.  0.
         24    2    3    3    0    0  0.16158411417E+03  0.18805568751E+02 -0.18264699861E+02  0.18252481670E+03  0.80738058450E+02 0.  0.
         -6    2    1    2    0  501 -0.15226574563E+03 -0.50297191464E+02 -0.67205408872E+01  0.23550482389E+03  0.17234468846E+03 0.  0.
        -24    2    5    5    0    0 -0.16514900812E+03 -0.27713055589E+02 -0.43704499221E+02  0.19005237819E+03  0.78534163709E+02 0.  0.
          5    1    3    3  502    0 -0.93183685406E+01  0.31491622713E+02  0.48089061405E+02  0.58422616512E+02  0.47000000000E+01 0. -1.
        -13    1    4    4    0    0  0.11958763275E+03  0.42623625806E+02  0.86467028376E+01  0.12725070080E+03  0.00000000000E+00 0.  1.
         14    1    4    4    0    0  0.41996481420E+02 -0.23818057055E+02 -0.26911402699E+02  0.55274115902E+02  0.00000000000E+00 0. -1.
         -5    1    5    5    0  501  0.12883262492E+02 -0.22584135874E+02  0.36983958334E+02  0.45452445695E+02  0.47000000000E+01 0.  1.
         13    1    6    6    0    0 -0.20343265296E+02 -0.20213194764E+02  0.16460139075E+02  0.33065962315E+02  0.00000000000E+00 0. -1.
        -14    1    6    6    0    0 -0.14480574283E+03 -0.74998608252E+01 -0.60164638296E+02  0.15698641587E+03  0.00000000000E+00 0.  1.
</event>
<event>
12    1  0.9656379E-001  0.5319316E+03  0.7818608E-02  0.1005765E+00
         -2   -1    0    0    0  501 -0.00000000000E+00  0.00000000000E+00  0.54375079013E+03  0.54375079013E+03  0.00000000000E+00 0.  1.
          2   -1    0    0  502    0  0.00000000000E+00 -0.00000000000E+00 -0.76850519159E+03  0.76850519159E+03  0.00000000000E+00 0. -1.
          6    2    1    2  502    0 -0.49130824122E+03 -0.10790047776E+03  0.26048753191E+03  0.59206431827E+03  0.17222108377E+03 0.  0.
         24    2    3    3    0    0 -0.29823189195E+03 -0.19845192336E+02  0.98343758853E+02  0.32495965137E+03  0.81186126139E+02 0.  0.
         -6    2    1    2    0  501  0.49130824122E+03  0.10790047776E+03 -0.48524193337E+03  0.72019166345E+03  0.17375268979E+03 0.  0.
        -24    2    5    5    0    0  0.47865882065E+03  0.11312548326E+03 -0.49535825622E+03  0.70253554521E+03  0.79150165711E+02 0.  0.
          5    1    3    3  502    0 -0.19307634927E+03 -0.88055285428E+02  0.16214377306E+03  0.26710466690E+03  0.47000000000E+01 0. -1.
        -13    1    4    4    0    0 -0.98363366959E+02 -0.40419785442E+02  0.14844014420E+02  0.10737530339E+03  0.00000000000E+00 0.  1.
         14    1    4    4    0    0 -0.19986852499E+03  0.20574593106E+02  0.83499744434E+02  0.21758434797E+03  0.00000000000E+00 0. -1.
         -5    1    5    5    0  501  0.12649420565E+02 -0.52250054930E+01  0.10116322853E+02  0.17656118234E+02  0.47000000000E+01 0.  1.
         13    1    6    6    0    0  0.24155991004E+03  0.28887590880E+02 -0.20336485882E+03  0.31708508140E+03  0.00000000000E+00 0. -1.
        -14    1    6    6    0    0  0.23709891061E+03  0.84237892378E+02 -0.29199339741E+03  0.38545046381E+03  0.00000000000E+00 0.  1.
</event>
<event>
12    1  0.9656379E-001  0.5180746E+03  0.7818608E-02  0.1009166E+00
         -2   -1    0    0    0  501 -0.00000000000E+00  0.00000000000E+00  0.14300573183E+04  0.14300573183E+04  0.00000000000E+00 0.  1.
          2   -1    0    0  502    0  0.00000000000E+00 -0.00000000000E+00 -0.22981115551E+03  0.22981115551E+03  0.00000000000E+00 0. -1.
          6    2    1    2  502    0  0.23469070865E+03 -0.42895558912E+03  0.95582051781E+03  0.10873815147E+04  0.17240379945E+03 0.  0.
         24    2    3    3    0    0  0.23224456719E+03 -0.29353201294E+03  0.72173742922E+03  0.81689582014E+03  0.79468752453E+02 0.  0.
         -6    2    1    2    0  501 -0.23469070865E+03  0.42895558912E+03  0.24442564501E+03  0.57248695916E+03  0.17004351295E+03 0.  0.
        -24    2    5    5    0    0 -0.23688875171E+03  0.33263249992E+03  0.16680755992E+03  0.44867409213E+03  0.81994013281E+02 0.  0.
          5    1    3    3  502    0  0.24461414647E+01 -0.13542357619E+03  0.23408308859E+03  0.27048569456E+03  0.47000000000E+01 0. -1.
        -11    1    4    4    0    0  0.18984499901E+03 -0.18765163545E+03  0.46967852330E+03  0.54023344508E+03  0.00000000000E+00 0.  1.
         12    1    4    4    0    0  0.42399568179E+02 -0.10588037749E+03  0.25205890592E+03  0.27666237506E+03  0.00000000000E+00 0. -1.
         -5    1    5    5    0  501  0.21980430596E+01  0.96323089202E+02  0.77618085093E+02  0.12381286702E+03  0.47000000000E+01 0.  1.
         13    1    6    6    0    0 -0.16875236536E+03  0.18796139738E+03  0.71546492032E+02  0.26253713688E+03  0.00000000000E+00 0. -1.
        -14    1    6    6    0    0 -0.68136386354E+02  0.14467110254E+03  0.95261067889E+02  0.18613695525E+03  0.00000000000E+00 0.  1.
</event>
<event>
12    1  0.9656379E-001  0.4221790E+03  0.7818608E-02  0.1036359E+00
          2   -1    0    0  502    0  0.00000000000E+00  0.00000000000E+00  0.24048542798E+04  0.24048542798E+04  0.00000000000E+00 0. -1.
         -2   -1    0    0    0  501 -0.00000000000E+00 -0.00000000000E+00 -0.16617865811E+03  0.16617865811E+03  0.00000000000E+00 0.  1.
          6    2    1    2  502    0 -0.38566335380E+03  0.96142281678E+00  0.16265358969E+03  0.45254323104E+03  0.17205243072E+03 0.  0.
         24    2    3    3    0    0 -0.79067235496E+02 -0.19187965092E+02  0.59529798429E+02  0.12840779034E+03  0.79529604454E+02 0.  0.
         -6    2    1    2    0  501  0.38566335380E+03 -0.96142281678E+00  0.20760220320E+04  0.21184897068E+04  0.17144682542E+03 0.  0.
        -24    2    5    5    0    0  0.21264594278E+03  0.52050148398E+02  0.13631100842E+04  0.13829553524E+04  0.81048690997E+02 0.  0.
          5    1    3    3  502    0 -0.30659611831E+03  0.20149387909E+02  0.10312379126E+03  0.32413544070E+03  0.47000000000E+01 0. -1.
        -13    1    4    4    0    0 -0.69977975070E+02  0.20470963698E+02  0.34747127084E+02  0.80767197489E+02  0.00000000000E+00 0.  1.
         14    1    4    4    0    0 -0.90892604256E+01 -0.39658928789E+02  0.24782671345E+02  0.47640592847E+02  0.00000000000E+00 0. -1.
         -5    1    5    5    0  501  0.17301741102E+03 -0.53011571215E+02  0.71291194779E+03  0.73553435440E+03  0.47000000000E+01 0.  1.
         11    1    6    6    0    0  0.18818711528E+03  0.17187611639E+02  0.10371168110E+04  0.10541921476E+04  0.00000000000E+00 0. -1.
        -12    1    6    6    0    0  0.24458827497E+02  0.34862536758E+02  0.32599327320E+03  0.32876320488E+03  0.00000000000E+00 0.  1.
</event>
<event>
12    1  0.9656379E-001  0.1598512E+04  0.7818608E-02  0.8821462E-01
          2   -1    0    0  502    0  0.00000000000E+00  0.00000000000E+00  0.46980641378E+04  0.46980641378E+04  0.00000000000E+00 0. -1.
         -2   -1    0    0    0  501 -0.00000000000E+00 -0.00000000000E+00 -0.66994526194E+03  0.66994526194E+03  0.00000000000E+00 0.  1.
          6    2    1    2  502    0  0.15053940832E+04 -0.50951897023E+03  0.84975154194E+03  0.18102721066E+04  0.17084054037E+03 0.  0.
         24    2    3    3    0    0  0.10391882154E+04 -0.40774888619E+03  0.54769985430E+03  0.12455045676E+04  0.71660283243E+02 0.  0.
         -6    2    1    2    0  501 -0.15053940832E+04  0.50951897023E+03  0.31783673339E+04  0.35577372932E+04  0.17220572329E+03 0.  0.
        -24    2    5    5    0    0 -0.38841726725E+03  0.98929047937E+02  0.85158305098E+03  0.94427819056E+03  0.76240923638E+02 0.  0.
          5    1    3    3  502    0  0.46620586772E+03 -0.10177008405E+03  0.30205168764E+03  0.56476753900E+03  0.47000000000E+01 0. -1.
        -11    1    4    4    0    0  0.87071774113E+03 -0.32722686567E+03  0.48135250523E+03  0.10473428477E+04  0.00000000000E+00 0.  1.
         12    1    4    4    0    0  0.16847047430E+03 -0.80522020513E+02  0.66347349070E+02  0.19816171988E+03  0.00000000000E+00 0. -1.
         -5    1    5    5    0  501 -0.11169768159E+04  0.41058992230E+03  0.23267842830E+04  0.26134591026E+04  0.47000000000E+01 0.  1.
         13    1    6    6    0    0 -0.30427000350E+03  0.10715988048E+03  0.64869818787E+03  0.72448106529E+03  0.00000000000E+00 0. -1.
        -14    1    6    6    0    0 -0.84147263752E+02 -0.82308325462E+01  0.20288486311E+03  0.21979712527E+03  0.00000000000E+00 0.  1.
</event>
<event>
12    1  0.9656379E-001  0.7262512E+03  0.7818608E-02  0.9673363E-01
          2   -1    0    0  502    0  0.00000000000E+00  0.00000000000E+00  0.14919014822E+04  0.14919014822E+04  0.00000000000E+00 0. -1.
         -2   -1    0    0    0  501 -0.00000000000E+00 -0.00000000000E+00 -0.40212469319E+03  0.40212469319E+03  0.00000000000E+00 0.  1.
          6    2    1    2  502    0 -0.34469031153E+03  0.61579495616E+03  0.21558340437E+03  0.75740221648E+03  0.17078370645E+03 0.  0.
         24    2    3    3    0    0 -0.22541902641E+03  0.33837176755E+03  0.19265217022E+03  0.45452072723E+03  0.64537138455E+02 0.  0.
         -6    2    1    2    0  501  0.34469031153E+03 -0.61579495616E+03  0.87419338466E+03  0.11366239589E+04  0.17229367761E+03 0.  0.
        -24    2    5    5    0    0  0.24959335592E+03 -0.46643586202E+03  0.74854793154E+03  0.91945941335E+03  0.72265830720E+02 0.  0.
          5    1    3    3  502    0 -0.11927128511E+03  0.27742318861E+03  0.22931234147E+02  0.30288148925E+03  0.47000000000E+01 0. -1.
        -13    1    4    4    0    0 -0.16475497663E+03  0.29038883130E+03  0.14792974220E+03  0.36517541579E+03  0.00000000000E+00 0.  1.
         14    1    4    4    0    0 -0.60664049785E+02  0.47982936251E+02  0.44722428023E+02  0.89345311438E+02  0.00000000000E+00 0. -1.
         -5    1    5    5    0  501  0.95096955609E+02 -0.14935909414E+03  0.12564545312E+03  0.21716454558E+03  0.47000000000E+01 0.  1.
         13    1    6    6    0    0  0.22725523450E+03 -0.36972320761E+03  0.59040588224E+03  0.73274777218E+03  0.00000000000E+00 0. -1.
        -14    1    6    6    0    0  0.22338121419E+02 -0.96712654417E+02  0.15814204929E+03  0.18671164117E+03  0.00000000000E+00 0.  1.
</event>
<event>
12    1  0.9656379E-001  0.7054359E+03  0.7818608E-02  0.9707981E-01
          2   -1    0    0  502    0  0.00000000000E+00  0.00000000000E+00  0.27510726304E+04  0.27510726304E+04  0.00000000000E+00 0. -1.
         -2   -1    0    0    0  501 -0.00000000000E+00 -0.00000000000E+00 -0.18634103449E+03  0.18634103449E+03  0.00000000000E+00 0.  1.
          6    2    1    2  502    0 -0.75928950471E+02 -0.67976549838E+03  0.10308508942E+04  0.12490209715E+04  0.17191126431E+03 0.  0.
         24    2    3    3    0    0 -0.52530706991E+02 -0.67052775898E+03  0.10081627959E+04  0.12148207751E+04  0.83847133832E+02 0.  0.
         -6    2    1    2    0  501  0.75928950471E+02  0.67976549838E+03  0.15338807017E+04  0.16883926934E+04  0.17330188049E+03 0.  0.
        -24    2    5    5    0    0  0.55614149957E+02  0.66753727339E+03  0.14211562662E+04  0.15731056214E+04  0.79228897267E+02 0.  0.
          5    1    3    3  502    0 -0.23398243481E+02 -0.92377394056E+01  0.22688098305E+02  0.34200196374E+02  0.47000000000E+01 0. -1.
        -11    1    4    4    0    0 -0.13571622339E+01 -0.40233571077E+02  0.30654722649E+02  0.50599349320E+02  0.00000000000E+00 0.  1.
         12    1    4    4    0    0 -0.51173544757E+02 -0.63029418790E+03  0.97750807326E+03  0.11642214258E+04  0.00000000000E+00 0. -1.
         -5    1    5    5    0  501  0.20314800514E+02  0.12228224997E+02  0.11272443552E+03  0.11528707200E+03  0.47000000000E+01 0.  1.
         11    1    6    6    0    0 -0.18194764897E+02  0.18750281926E+03  0.42367798460E+03  0.46367164172E+03  0.00000000000E+00 0. -1.
        -12    1    6    6    0    0  0.73808914855E+02  0.48003445412E+03  0.99747828159E+03  0.11094339797E+04  0.00000000000E+00 0.  1.
</event>
<event>
12    1  0.9656379E-001  0.4250487E+03  0.7818608E-02  0.1035436E+00
          2   -1    0    0  502    0  0.00000000000E+00  0.00000000000E+00  0.53175934745E+03  0.53175934745E+03  0.00000000000E+00 0. -1.
         -2   -1    0    0    0  501 -0.00000000000E+00 -0.00000000000E+00 -0.44114108694E+03  0.44114108694E+03  0.00000000000E+00 0.  1.
          6    2    1    2  502    0 -0.25745044859E+03 -0.29286072506E+03 -0.18798111786E+03  0.46382415074E+03  0.16657672219E+03 0.  0.
         24    2    3    3    0    0 -0.14252597964E+03 -0.12427573282E+03 -0.15420169956E+03  0.25696266986E+03  0.80582485160E+02 0.  0.
         -6    2    1    2    0  501  0.25745044859E+03  0.29286072506E+03  0.27859937837E+03  0.50907628365E+03  0.17173500280E+03 0.  0.
        -24    2    5    5    0    0  0.23656878042E+03  0.21684262237E+03  0.27376283931E+03  0.42995436436E+03  0.83241531094E+02 0.  0.
          5    1    3    3  502    0 -0.11492446895E+03 -0.16858499224E+03 -0.33779418304E+02  0.20686148088E+03  0.47000000000E+01 0. -1.
        -11    1    4    4    0    0 -0.14309832621E+03 -0.13262001854E+03 -0.13880564412E+03  0.23944144821E+03  0.00000000000E+00 0.  1.
         12    1    4    4    0    0  0.57234656756E+00  0.83442857277E+01 -0.15396055440E+02  0.17521221647E+02  0.00000000000E+00 0. -1.
         -5    1    5    5    0  501  0.20881668173E+02  0.76018102690E+02  0.48365390540E+01  0.79121919291E+02  0.47000000000E+01 0.  1.
         13    1    6    6    0    0  0.19514940868E+03  0.20367455912E+03  0.26187365515E+03  0.38489534811E+03  0.00000000000E+00 0. -1.
        -14    1    6    6    0    0  0.41419371735E+02  0.13168063248E+02  0.11889184167E+02  0.45059016243E+02  0.00000000000E+00 0.  1.
</event>
<event>
12    1  0.9656379E-001  0.6938639E+03  0.7818608E-02  0.9727784E-01
          2   -1    0    0  502    0  0.00000000000E+00  0.00000000000E+00  0.23077684882E+04  0.23077684882E+04  0.00000000000E+00 0. -1.
         -2   -1    0    0    0  501 -0.00000000000E+00 -0.00000000000E+00 -0.22126728444E+03  0.22126728444E+03  0.00000000000E+00 0.  1.
          6    2    1    2  502    0  0.22976384439E+02  0.67180134776E+03  0.74105881205E+03  0.10152524221E+04  0.17240751872E+03 0.  0.
         24    2    3    3    0    0  0.26350454636E+02  0.66021130452E+03  0.74741366533E+03  0.10008237142E+04  0.80296990050E+02 0.  0.
         -6    2    1    2    0  501 -0.22976384439E+02 -0.67180134776E+03  0.13454423917E+04  0.15137833506E+04  0.17169693639E+03 0.  0.
        -24    2    5    5    0    0 -0.72130038812E+02 -0.50355359168E+03  0.10678135725E+04  0.11854188574E+04  0.78886497647E+02 0.  0.
          5    1    3    3  502    0 -0.33740701974E+01  0.11590043238E+02 -0.63548532806E+01  0.14428707917E+02  0.47000000000E+01 0. -1.
        -13    1    4    4    0    0 -0.32163481582E+01  0.50584250150E+03  0.53129318874E+03  0.73359350707E+03  0.00000000000E+00 0.  1.
         14    1    4    4    0    0  0.29566802794E+02  0.15436880302E+03  0.21612047659E+03  0.26723020708E+03  0.00000000000E+00 0. -1.
         -5    1    5    5    0  501  0.49153654373E+02 -0.16824775608E+03  0.27762881920E+03  0.32836449323E+03  0.47000000000E+01 0.  1.
         13    1    6    6    0    0 -0.46613776115E+02 -0.12540977342E+03  0.32619400189E+03  0.35256628066E+03  0.00000000000E+00 0. -1.
        -14    1    6    6    0    0 -0.25516262696E+02 -0.37814381826E+03  0.74161957064E+03  0.83285257669E+03  0.00000000000E+00 0.  1.
</event>
<event>
12    1  0.1410146E+000  0.3646967E+03  0.7818608E-02  0.1056739E+00
          2   -1    0    0  502    0  0.00000000000E+00  0.00000000000E+00  0.74179599986E+03  0.74179599986E+03  0.00000000000E+00 0. -1.
         -2   -1    0    0    0  501 -0.00000000000E+00 -0.00000000000E+00 -0.52596871900E+03  0.52596871900E+03  0.00000000000E+00 0.  1.
          6    2    1    2  502    0 -0.55595755819E+02 -0.31024788086E+03 -0.40654732178E+03  0.54718185516E+03  0.18650099767E+03 0.  0.
         24    2    3    3    0    0  0.19793002175E-01 -0.28255831084E+03 -0.27718264879E+03  0.40359526047E+03  0.78865163813E+02 0.  0.
         -6    2    1    2    0  501  0.55595755819E+02  0.31024788086E+03  0.62237460264E+03  0.72058286370E+03  0.18040200058E+03 0.  0.
        -24    2    5    5    0    0  0.33686255505E+02  0.25796537761E+03  0.36798706590E+03  0.45991335034E+03  0.91787304661E+02 0.  0.
          5    1    3    3  502    0 -0.55615548821E+02 -0.27689570013E+02 -0.12936467299E+03  0.14358659469E+03  0.47000000000E+01 0. -1.
        -11    1    4    4    0    0 -0.12723535649E+00 -0.14835938415E+03 -0.19922175087E+03  0.24839450290E+03  0.00000000000E+00 0.  1.
         12    1    4    4    0    0  0.14702835866E+00 -0.13419892670E+03 -0.77960897922E+02  0.15520075757E+03  0.00000000000E+00 0. -1.
         -5    1    5    5    0  501  0.21909500314E+02  0.52282503251E+02  0.25438753673E+03  0.26066951336E+03  0.47000000000E+01 0.  1.
         13    1    6    6    0    0  0.57052189609E+02  0.12814891436E+03  0.22699716270E+03  0.26684229137E+03  0.00000000000E+00 0. -1.
        -14    1    6    6    0    0 -0.23365934104E+02  0.12981646325E+03  0.14098990320E+03  0.19307105897E+03  0.00000000000E+00 0.  1.
</event>
<event>
12    1  0.9656379E-001  0.5176125E+03  0.7818608E-02  0.1009281E+00
         -2   -1    0    0    0  501 -0.00000000000E+00  0.00000000000E+00  0.19630630687E+03  0.19630630687E+03  0.00000000000E+00 0.  1.
          2   -1    0    0  502    0  0.00000000000E+00 -0.00000000000E+00 -0.14792413348E+04  0.14792413348E+04  0.00000000000E+00 0. -1.
          6    2    1    2  502    0  0.43158084675E+03  0.23010762251E+03 -0.40947562936E+03  0.66068610938E+03  0.17211710803E+03 0.  0.
         24    2    3    3    0    0  0.29576028620E+03  0.18359227695E+03 -0.36429551265E+03  0.51010644613E+03  0.79480153480E+02 0.  0.
         -6    2    1    2    0  501 -0.43158084675E+03 -0.23010762251E+03 -0.87345939862E+03  0.10148615323E+04  0.16673650935E+03 0.  0.
        -24    2    5    5    0    0 -0.36387414483E+03 -0.24360385451E+03 -0.78663743925E+03  0.90383681260E+03  0.79845424269E+02 0.  0.
          5    1    3    3  502    0  0.13582056054E+03  0.46515345562E+02 -0.45180116704E+02  0.15057966325E+03  0.47000000000E+01 0. -1.
        -11    1    4    4    0    0  0.10717277220E+03  0.46795065249E+02 -0.76124118593E+02  0.13953731639E+03  0.00000000000E+00 0.  1.
         12    1    4    4    0    0  0.18858751400E+03  0.13679721170E+03 -0.28817139406E+03  0.37056912975E+03  0.00000000000E+00 0. -1.
         -5    1    5    5    0  501 -0.67706701915E+02  0.13496231993E+02 -0.86821959375E+02  0.11102471973E+03  0.47000000000E+01 0.  1.
         11    1    6    6    0    0 -0.28292238593E+03 -0.15872867062E+03 -0.52549597793E+03  0.61756448259E+03  0.00000000000E+00 0. -1.
        -12    1    6    6    0    0 -0.80951758898E+02 -0.84875183890E+02 -0.26114146132E+03  0.28627233001E+03  0.00000000000E+00 0.  1.
</event>
<event>
12    1  0.9656379E-001  0.6572969E+03  0.7818608E-02  0.9793183E-01
          2   -1    0    0  502    0  0.00000000000E+00  0.00000000000E+00  0.15747863008E+04  0.15747863008E+04  0.00000000000E+00 0. -1.
         -2   -1    0    0    0  501 -0.00000000000E+00 -0.00000000000E+00 -0.32300406450E+03  0.32300406450E+03  0.00000000000E+00 0.  1.
          6    2    1    2  502    0  0.39748087325E+03 -0.49469163636E+03  0.25763207233E+03  0.70601339095E+03  0.17137608883E+03 0.  0.
         24    2    3    3    0    0  0.11549257716E+03 -0.11340771740E+03  0.92106031648E+02  0.20370294298E+03  0.82531946359E+02 0.  0.
         -6    2    1    2    0  501 -0.39748087325E+03  0.49469163636E+03  0.99415016401E+03  0.11917769744E+04  0.17113429925E+03 0.  0.
        -24    2    5    5    0    0 -0.34970751481E+03  0.33633458685E+03  0.74669364314E+03  0.89409246247E+03  0.80209940320E+02 0.  0.
          5    1    3    3  502    0  0.28198829609E+03 -0.38128391897E+03  0.16552604069E+03  0.50231044797E+03  0.47000000000E+01 0. -1.
        -13    1    4    4    0    0  0.28499781415E+02 -0.83531132862E+02  0.32274117244E+02  0.93975030416E+02  0.00000000000E+00 0.  1.
         14    1    4    4    0    0  0.86992795744E+02 -0.29876584534E+02  0.59831914405E+02  0.10972791257E+03  0.00000000000E+00 0. -1.
         -5    1    5    5    0  501 -0.47773358441E+02  0.15835704952E+03  0.24745652087E+03  0.29768451191E+03  0.47000000000E+01 0.  1.
         11    1    6    6    0    0 -0.15164251459E+03  0.20021164613E+03  0.39699545960E+03  0.46977180676E+03  0.00000000000E+00 0. -1.
        -12    1    6    6    0    0 -0.19806500021E+03  0.13612294071E+03  0.34969818353E+03  0.42432065571E+03  0.00000000000E+00 0.  1.
</event>
<event>
12    1  0.9656379E-001  0.1736105E+03  0.7818608E-02  0.1174134E+00
         -3   -1    0    0    0  501 -0.00000000000E+00  0.00000000000E+00  0.36916372094E+03  0.36916372094E+03  0.00000000000E+00 0.  1.
          3   -1    0    0  502    0  0.00000000000E+00 -0.00000000000E+00 -0.16558780224E+03  0.16558780224E+03  0.00000000000E+00 0. -1.
          6    2    1    2  502    0  0.26121634831E+02 -0.41385884219E+01  0.29226936509E+03  0.34014293130E+03  0.17197780155E+03 0.  0.
         24    2    3    3    0    0  0.19526450263E+02  0.34054681070E+02  0.28727854083E+03  0.30078279131E+03  0.80002024741E+02 0.  0.
         -6    2    1    2    0  501 -0.26121634831E+02  0.41385884219E+01 -0.88693446389E+02  0.19460859188E+03  0.17119143927E+03 0.  0.
        -24    2    5    5    0    0  0.33713053522E+02 -0.28809812141E+02 -0.98114298962E+01  0.90156451852E+02  0.77880333850E+02 0.  0.
          5    1    3    3  502    0  0.65951845679E+01 -0.38193269492E+02  0.49908242646E+01  0.39360140000E+02  0.47000000000E+01 0. -1.
        -13    1    4    4    0    0  0.39976306468E+02  0.43217731275E+02  0.14098615211E+03  0.15278407136E+03  0.00000000000E+00 0.  1.
         14    1    4    4    0    0 -0.20449856204E+02 -0.91630502054E+01  0.14629238872E+03  0.14799871994E+03  0.00000000000E+00 0. -1.
         -5    1    5    5    0  501 -0.59834688353E+02  0.32948400563E+02 -0.78882016492E+02  0.10445214003E+03  0.47000000000E+01 0.  1.
         11    1    6    6    0    0 -0.15368936147E+02 -0.24126835980E+02 -0.25596833631E+02  0.38386277556E+02  0.00000000000E+00 0. -1.
        -12    1    6    6    0    0  0.49081989669E+02 -0.46829761613E+01  0.15785403735E+02  0.51770174296E+02  0.00000000000E+00 0.  1.
</event>
<event>
12    1  0.9656379E-001  0.5323437E+03  0.7818608E-02  0.1005665E+00
          2   -1    0    0  502    0  0.00000000000E+00  0.00000000000E+00  0.79539018738E+03  0.79539018738E+03  0.00000000000E+00 0. -1.
         -2   -1    0    0    0  501 -0.00000000000E+00 -0.00000000000E+00 -0.55151923138E+03  0.55151923138E+03  0.00000000000E+00 0.  1.
          6    2    1    2  502    0 -0.14350328912E+03 -0.48270824378E+03 -0.27870403237E+03  0.60114250383E+03  0.17348178479E+03 0.  0.
         24    2    3    3    0    0 -0.74259079270E+02 -0.12011417231E+03 -0.70464731223E+02  0.17728531349E+03  0.80764960160E+02 0.  0.
         -6    2    1    2    0  501  0.14350328912E+03  0.48270824378E+03  0.52257498837E+03  0.74576691493E+03  0.17170681505E+03 0.  0.
        -24    2    5    5    0    0  0.17334118894E+03  0.39290669856E+03  0.43778697493E+03  0.61862244981E+03  0.81323172744E+02 0.  0.
          5    1    3    3  502    0 -0.69244209852E+02 -0.36259407147E+03 -0.20823930115E+03  0.42385719034E+03  0.47000000000E+01 0. -1.
        -13    1    4    4    0    0 -0.62176182563E+02 -0.11876016628E+03 -0.84696892245E+02  0.15856676300E+03  0.00000000000E+00 0.  1.
         14    1    4    4    0    0 -0.12082896707E+02 -0.13540060345E+01  0.14232161022E+02  0.18718550492E+02  0.00000000000E+00 0. -1.
         -5    1    5    5    0  501 -0.29837899822E+02  0.89801545214E+02  0.84788013441E+02  0.12714446513E+03  0.47000000000E+01 0.  1.
         11    1    6    6    0    0  0.14313275341E+03  0.36471684036E+03  0.41765147845E+03  0.57265881308E+03  0.00000000000E+00 0. -1.
        -12    1    6    6    0    0  0.30208435535E+02  0.28189858200E+02  0.20135496478E+02  0.45963636728E+02  0.00000000000E+00 0.  1.
</event>
<event>
12    1  0.9656379E-001  0.6279367E+03  0.7818608E-02  0.9849084E-01
         -2   -1    0    0    0  501 -0.00000000000E+00  0.00000000000E+00  0.12496946267E+04  0.12496946267E+04  0.00000000000E+00 0.  1.
          2   -1    0    0  502    0  0.00000000000E+00 -0.00000000000E+00 -0.41974147854E+03  0.41974147854E+03  0.00000000000E+00 0. -1.
          6    2    1    2  502    0  0.57337977225E+03  0.18994606055E+03  0.83108936463E+03  0.10418554067E+04  0.17294301778E+03 0.  0.
         24    2    3    3    0    0  0.56707517517E+03  0.19121571371E+03  0.83669547702E+03  0.10321148493E+04  0.84047827749E+02 0.  0.
         -6    2    1    2    0  501 -0.57337977225E+03 -0.18994606055E+03 -0.11362164265E+01  0.62758069855E+03  0.17033018833E+03 0.  0.
        -24    2    5    5    0    0 -0.40917410045E+03 -0.96888257157E+02 -0.51484119922E+02  0.43218300457E+03  0.85561416449E+02 0.  0.
          5    1    3    3  502    0  0.63045970783E+01 -0.12696531619E+01 -0.56061123954E+01  0.97405574615E+01  0.47000000000E+01 0. -1.
        -13    1    4    4    0    0  0.21955811710E+03  0.58872117987E+02  0.25391170465E+03  0.34079736915E+03  0.00000000000E+00 0.  1.
         14    1    4    4    0    0  0.34751705807E+03  0.13234359572E+03  0.58278377237E+03  0.69131748012E+03  0.00000000000E+00 0. -1.
         -5    1    5    5    0  501 -0.16420567181E+03 -0.93057803391E+02  0.50347903496E+02  0.19539769398E+03  0.47000000000E+01 0.  1.
         13    1    6    6    0    0 -0.97703889400E+02 -0.57834002699E+02 -0.30553122415E+02  0.11757684790E+03  0.00000000000E+00 0. -1.
        -14    1    6    6    0    0 -0.31147021105E+03 -0.39054254459E+02 -0.20930997507E+02  0.31460615667E+03  0.00000000000E+00 0.  1.
</event>
<event>
12    1  0.9656379E-001  0.2181539E+04  0.7818608E-02  0.8526152E-01
          2   -1    0    0  502    0  0.00000000000E+00  0.00000000000E+00  0.28185557967E+04  0.28185557967E+04  0.00000000000E+00 0. -1.
         -2   -1    0    0    0  501 -0.00000000000E+00 -0.00000000000E+00 -0.16976743323E+04  0.16976743323E+04  0.00000000000E+00 0.  1.
          6    2    1    2  502    0  0.69967386406E+03  0.20593506171E+04  0.39432795805E+03  0.22167055069E+04  0.16679414178E+03 0.  0.
         24    2    3    3    0    0  0.43529160883E+03  0.11220429436E+04  0.17847991896E+03  0.12191805109E+04  0.78018489643E+02 0.  0.
         -6    2    1    2    0  501 -0.69967386406E+03 -0.20593506171E+04  0.72655350635E+03  0.22995246220E+04  0.17165374908E+03 0.  0.
        -24    2    5    5    0    0 -0.37397411464E+03 -0.11007721415E+04  0.45515781180E+03  0.12513687492E+04  0.84847905200E+02 0.  0.
          5    1    3    3  502    0  0.26438225523E+03  0.93730767349E+03  0.21584803908E+03  0.99752499599E+03  0.47000000000E+01 0. -1.
        -11    1    4    4    0    0  0.36136939497E+03  0.95917052578E+03  0.12552600307E+03  0.10326435564E+04  0.00000000000E+00 0.  1.
         12    1    4    4    0    0  0.73922213861E+02  0.16287241781E+03  0.52953915893E+02  0.18653695450E+03  0.00000000000E+00 0. -1.
         -5    1    5    5    0  501 -0.32569974943E+03 -0.95857847558E+03  0.27139569455E+03  0.10481558728E+04  0.47000000000E+01 0.  1.
         11    1    6    6    0    0 -0.32701915349E+03 -0.89194609442E+03  0.34556157424E+03  0.10109016588E+04  0.00000000000E+00 0. -1.
        -12    1    6    6    0    0 -0.46954961142E+02 -0.20882604707E+03  0.10959623756E+03  0.24046709047E+03  0.00000000000E+00 0.  1.
</event>
<event>
12    1  0.9656379E-001  0.1143125E+04  0.7818608E-02  0.9164150E-01
         -2   -1    0    0    0  501 -0.00000000000E+00  0.00000000000E+00  0.13630525737E+04  0.13630525737E+04  0.00000000000E+00 0.  1.
          2   -1    0    0  502    0  0.00000000000E+00 -0.00000000000E+00 -0.96082560299E+03  0.96082560299E+03  0.00000000000E+00 0. -1.
          6    2    1    2  502    0  0.82806680223E+03  0.76961237535E+03  0.14618381776E+03  0.11521376375E+04  0.16749205918E+03 0.  0.
         24    2    3    3    0    0  0.24225691400E+03  0.25641424414E+03  0.10381540235E+02  0.36156196393E+03  0.78629513606E+02 0.  0.
         -6    2    1    2    0  501 -0.82806680223E+03 -0.76961237535E+03  0.25604315295E+03  0.11717405392E+04  0.17152247021E+03 0.  0.
        -24    2    5    5    0    0 -0.74897047618E+03 -0.62974188902E+03  0.23542095178E+03  0.10096684968E+04  0.80472529194E+02 0.  0.
          5    1    3    3  502    0  0.58580988823E+03  0.51319813121E+03  0.13580227753E+03  0.79057567355E+03  0.47000000000E+01 0. -1.
        -13    1    4    4    0    0  0.51447729225E+02  0.50153620811E+02  0.34195700004E+02  0.79571354278E+02  0.00000000000E+00 0.  1.
         14    1    4    4    0    0  0.19080918477E+03  0.20626062333E+03 -0.23814159769E+02  0.28199060966E+03  0.00000000000E+00 0. -1.
         -5    1    5    5    0  501 -0.79096326050E+02 -0.13987048633E+03  0.20622201166E+02  0.16207204238E+03  0.47000000000E+01 0.  1.
         11    1    6    6    0    0 -0.55673330991E+03 -0.48254423021E+03  0.14294758760E+03  0.75048979025E+03  0.00000000000E+00 0. -1.
        -12    1    6    6    0    0 -0.19223716627E+03 -0.14719765881E+03  0.92473364180E+02  0.25917870657E+03  0.00000000000E+00 0.  1.
</event>
<event>
12    1  0.9656379E-001  0.7098078E+03  0.7818608E-02  0.9700605E-01
         -1   -1    0    0    0  501 -0.00000000000E+00  0.00000000000E+00  0.43271516855E+03  0.43271516855E+03  0.00000000000E+00 0.  1.
          1   -1    0    0  502    0  0.00000000000E+00 -0.00000000000E+00 -0.17906129370E+04  0.17906129370E+04  0.00000000000E+00 0. -1.
          6    2    1    2  502    0  0.86765254903E+02 -0.68336878850E+03 -0.13365873773E+04  0.15135226586E+04  0.17252220263E+03 0.  0.
         24    2    3    3    0    0  0.12031204048E+03 -0.63292816679E+03 -0.12117381339E+04  0.13746735797E+04  0.79656099109E+02 0.  0.
         -6    2    1    2    0  501 -0.86765254903E+02  0.68336878850E+03 -0.21310391183E+02  0.70980544698E+03  0.16984854793E+03 0.  0.
        -24    2    5    5    0    0 -0.10437403621E+03  0.55266492248E+03  0.28322480168E+02  0.56881224966E+03  0.80079688478E+02 0.  0.
          5    1    3    3  502    0 -0.33546785572E+02 -0.50440621707E+02 -0.12484924337E+03  0.13884907890E+03  0.47000000000E+01 0. -1.
        -11    1    4    4    0    0  0.41236838758E+02 -0.41180947321E+03 -0.74782387917E+03  0.85470935022E+03  0.00000000000E+00 0.  1.
         12    1    4    4    0    0  0.79075201717E+02 -0.22111869358E+03 -0.46391425473E+03  0.51996422946E+03  0.00000000000E+00 0. -1.
         -5    1    5    5    0  501  0.17608781302E+02  0.13070386602E+03 -0.49632871351E+02  0.14099319732E+03  0.47000000000E+01 0.  1.
         11    1    6    6    0    0 -0.25679192519E+02  0.34564078941E+03  0.20434697909E+02  0.34719526654E+03  0.00000000000E+00 0. -1.
        -12    1    6    6    0    0 -0.78694843686E+02  0.20702413307E+03  0.78877822592E+01  0.22161698312E+03  0.00000000000E+00 0.  1.
</event>
<event>
12    1  0.9656379E-001  0.3853770E+03  0.7818608E-02  0.1048964E+00
         -2   -1    0    0    0  501 -0.00000000000E+00  0.00000000000E+00  0.11586134853E+03  0.11586134853E+03  0.00000000000E+00 0.  1.
          2   -1    0    0  502    0  0.00000000000E+00 -0.00000000000E+00 -0.18799484039E+04  0.18799484039E+04  0.00000000000E+00 0. -1.
          6    2    1    2  502    0  0.29262913296E+03  0.18241569712E+03 -0.31927836004E+03  0.50050489910E+03  0.17221842763E+03 0.  0.
         24    2    3    3    0    0  0.21861721961E+03  0.13708298998E+03 -0.13891892938E+03  0.30029393065E+03  0.65519012490E+02 0.  0.
         -6    2    1    2    0  501 -0.29262913296E+03 -0.18241569712E+03 -0.14448086953E+04  0.14953048533E+04  0.17192190748E+03 0.  0.
        -24    2    5    5    0    0 -0.29073247911E+03 -0.19928091730E+03 -0.12924891697E+04  0.13419707057E+04  0.78223159582E+02 0.  0.
          5    1    3    3  502    0  0.74011913351E+02  0.45332707137E+02 -0.18035943067E+03  0.20021096844E+03  0.47000000000E+01 0. -1.
        -11    1    4    4    0    0  0.43552793244E+02  0.44899145074E+02 -0.61833869536E+02  0.87955707316E+02  0.00000000000E+00 0.  1.
         12    1    4    4    0    0  0.17506442636E+03  0.92183844907E+02 -0.77085059842E+02  0.21233822334E+03  0.00000000000E+00 0. -1.
         -5    1    5    5    0  501 -0.18966538516E+01  0.16865220183E+02 -0.15231952560E+03  0.15333414762E+03  0.47000000000E+01 0.  1.
         11    1    6    6    0    0 -0.15973084185E+03 -0.14326128731E+03 -0.67613303533E+03  0.70936141687E+03  0.00000000000E+00 0. -1.
        -12    1    6    6    0    0 -0.13100163726E+03 -0.56019629989E+02 -0.61635613437E+03  0.63260928881E+03  0.00000000000E+00 0.  1.
</event>
<event>
12    1  0.9656379E-001  0.2636774E+03  0.7818608E-02  0.1104954E+00
          1   -1    0    0  502    0  0.00000000000E+00  0.00000000000E+00  0.11632126403E+04  0.11632126403E+04  0.00000000000E+00 0. -1.
         -1   -1    0    0    0  501 -0.00000000000E+00 -0.00000000000E+00 -0.59877950503E+02  0.59877950503E+02  0.00000000000E+00 0.  1.
          6    2    1    2  502    0  0.12067963281E+03 -0.15978936772E+03  0.57820524432E+03  0.63561714612E+03  0.17202219643E+03 0.  0.
         24    2    3    3    0    0  0.90471572191E+02 -0.17972231089E+03  0.54323550079E+03  0.58507189795E+03  0.81970128957E+02 0.  0.
         -6    2    1    2    0  501 -0.12067963281E+03  0.15978936772E+03  0.52512944549E+03  0.58747344470E+03  0.17107863074E+03 0.  0.
        -24    2    5    5    0    0 -0.29254443443E+02  0.11180878177E+03  0.40703753424E+03  0.43053877236E+03  0.79542781483E+02 0.  0.
          5    1    3    3  502    0  0.30208060618E+02  0.19932943174E+02  0.34969743530E+02  0.50545248169E+02  0.47000000000E+01 0. -1.
        -13    1    4    4    0    0  0.21467713314E+02 -0.52807549672E+02  0.69979594494E+02  0.90258759480E+02  0.00000000000E+00 0.  1.
         14    1    4    4    0    0  0.69003858877E+02 -0.12691476122E+03  0.47325590630E+03  0.49481313847E+03  0.00000000000E+00 0. -1.
         -5    1    5    5    0  501 -0.91425189367E+02  0.47980585951E+02  0.11809191125E+03  0.15693467234E+03  0.47000000000E+01 0.  1.
         13    1    6    6    0    0 -0.55588166159E+02  0.58167219464E+02  0.24094969445E+03  0.25402800021E+03  0.00000000000E+00 0. -1.
        -14    1    6    6    0    0  0.26333722716E+02  0.53641562306E+02  0.16608783979E+03  0.17651077215E+03  0.00000000000E+00 0.  1.
</event>
<event>
12    1  0.9656379E-001  0.1744450E+03  0.7818608E-02  0.1173290E+00
         -1   -1    0    0    0  501 -0.00000000000E+00  0.00000000000E+00  0.24669561866E+02  0.24669561866E+02  0.00000000000E+00 0.  1.
          1   -1    0    0  502    0  0.00000000000E+00 -0.00000000000E+00 -0.23542173346E+04  0.23542173346E+04  0.00000000000E+00 0. -1.
          6    2    1    2  502    0 -0.34712333241E+02  0.30461565044E+00 -0.34736293909E+03  0.38912108203E+03  0.17189870902E+03 0.  0.
         24    2    3    3    0    0 -0.13073865398E+02 -0.60442859973E+02 -0.15309012668E+03  0.18437124754E+03  0.82048185561E+02 0.  0.
         -6    2    1    2    0  501  0.34712333241E+02 -0.30461565044E+00 -0.19821848336E+04  0.19897658144E+04  0.17001835982E+03 0.  0.
        -24    2    5    5    0    0 -0.26645549992E+02  0.18032259083E+02 -0.15926354220E+04  0.15949597039E+04  0.79835593008E+02 0.  0.
          5    1    3    3  502    0 -0.21638467843E+02  0.60747475623E+02 -0.19427281241E+03  0.20474983449E+03  0.47000000000E+01 0. -1.
        -11    1    4    4    0    0 -0.11285112059E+02 -0.39911618308E+02 -0.15785965289E+03  0.16321752676E+03  0.00000000000E+00 0.  1.
         12    1    4    4    0    0 -0.17887533386E+01 -0.20531241665E+02  0.47695262059E+01  0.21153720785E+02  0.00000000000E+00 0. -1.
         -5    1    5    5    0  501  0.61357883233E+02 -0.18336874733E+02 -0.38954941158E+03  0.39480611048E+03  0.47000000000E+01 0.  1.
         13    1    6    6    0    0  0.21311190498E+02 -0.14862071833E+02 -0.66150378380E+03  0.66201382463E+03  0.00000000000E+00 0. -1.
        -14    1    6    6    0    0 -0.47956740490E+02  0.32894330915E+02 -0.93113163822E+03  0.93294587928E+03  0.00000000000E+00 0.  1.
</event>
<event>
12    1  0.9656379E-001  0.1859142E+03  0.7818608E-02  0.1162199E+00
          1   -1    0    0  502    0  0.00000000000E+00  0.00000000000E+00  0.63492827717E+03  0.63492827717E+03  0.00000000000E+00 0. -1.
         -1   -1    0    0    0  501 -0.00000000000E+00 -0.00000000000E+00 -0.24747170175E+03  0.24747170175E+03  0.00000000000E+00 0.  1.
          6    2    1    2  502    0 -0.28025146556E+02  0.64887197507E+02 -0.19586886345E+03  0.27025144502E+03  0.17226570938E+03 0.  0.
         24    2    3    3    0    0 -0.51120684205E+02 -0.21372975439E+02 -0.91670656892E+02  0.13294311481E+03  0.78741564678E+02 0.  0.
         -6    2    1    2    0  501  0.28025146556E+02 -0.64887197507E+02  0.58332543886E+03  0.61214853390E+03  0.17164353379E+03 0.  0.
        -24    2    5    5    0    0  0.15850461864E+02 -0.16633731432E+02  0.54017753933E+03  0.54611482153E+03  0.76952622648E+02 0.  0.
          5    1    3    3  502    0  0.23095537649E+02  0.86260172946E+02 -0.10419820655E+03  0.13730833021E+03  0.47000000000E+01 0. -1.
        -13    1    4    4    0    0 -0.36760391221E+02 -0.27597605139E+02 -0.10355000571E+03  0.11329412100E+03  0.00000000000E+00 0.  1.
         14    1    4    4    0    0 -0.14360292984E+02  0.62246296997E+01  0.11879348813E+02  0.19648993809E+02  0.00000000000E+00 0. -1.
         -5    1    5    5    0  501  0.12174684692E+02 -0.48253466074E+02  0.43147899533E+02  0.66033712372E+02  0.47000000000E+01 0.  1.
         11    1    6    6    0    0 -0.20718030614E+02 -0.33915207292E+02  0.28268367148E+03  0.28546372133E+03  0.00000000000E+00 0. -1.
        -12    1    6    6    0    0  0.36568492478E+02  0.17281475860E+02  0.25749386785E+03  0.26065110019E+03  0.00000000000E+00 0.  1.
</event>
<event>
12    1  0.9656379E-001  0.3041088E+03  0.7818608E-02  0.1083205E+00
         -1   -1    0    0    0  501 -0.00000000000E+00  0.00000000000E+00  0.27726965182E+03  0.27726965182E+03  0.00000000000E+00 0.  1.
          1   -1    0    0  502    0  0.00000000000E+00 -0.00000000000E+00 -0.12380024330E+04  0.12380024330E+04  0.00000000000E+00 0. -1.
          6    2    1    2  502    0  0.42301626406E+02  0.24643053505E+03  0.16734089893E+03  0.34684832543E+03  0.17257852763E+03 0.  0.
         24    2    3    3    0    0  0.49855747017E+02  0.12808254671E+03  0.16263477021E+03  0.22807312293E+03  0.81710137905E+02 0.  0.
         -6    2    1    2    0  501 -0.42301626406E+02 -0.24643053505E+03 -0.11280736801E+04  0.11684237594E+04  0.17362723734E+03 0.  0.
        -24    2    5    5    0    0  0.31574418303E+02 -0.11092575442E+03 -0.38775215415E+03  0.41217164048E+03  0.78944672285E+02 0.  0.
          5    1    3    3  502    0 -0.75541206107E+01  0.11834798834E+03  0.47061287121E+01  0.11877520250E+03  0.47000000000E+01 0. -1.
        -13    1    4    4    0    0  0.47858749229E+02  0.13890740666E+03  0.15898515744E+03  0.21647634465E+03  0.00000000000E+00 0.  1.
         14    1    4    4    0    0  0.19969977871E+01 -0.10824859951E+02  0.36496127683E+01  0.11596778280E+02  0.00000000000E+00 0. -1.
         -5    1    5    5    0  501 -0.73876044709E+02 -0.13550478063E+03 -0.74032152599E+03  0.75625211894E+03  0.47000000000E+01 0.  1.
         11    1    6    6    0    0  0.19625636864E+02 -0.63991442299E+02 -0.33037339089E+03  0.33708551988E+03  0.00000000000E+00 0. -1.
        -12    1    6    6    0    0  0.11948781439E+02 -0.46934312125E+02 -0.57378763267E+02  0.75086120598E+02  0.00000000000E+00 0.  1.
</event>
<event>
12    1  0.9656379E-001  0.6163057E+03  0.7818608E-02  0.9872143E-01
          1   -1    0    0  502    0  0.00000000000E+00  0.00000000000E+00  0.46801897980E+03  0.46801897980E+03  0.00000000000E+00 0. -1.
         -1   -1    0    0    0  501 -0.00000000000E+00 -0.00000000000E+00 -0.14849982972E+04  0.14849982972E+04  0.00000000000E+00 0.  1.
          6    2    1    2  502    0  0.50990805862E+03 -0.30058596812E+03 -0.11664265092E+04  0.13195936894E+04  0.17440914905E+03 0.  0.
         24    2    3    3    0    0  0.97185857804E+02 -0.76193842019E+02 -0.26020239395E+03  0.29883138682E+03  0.79651236127E+02 0.  0.
         -6    2    1    2    0  501 -0.50990805862E+03  0.30058596812E+03  0.14944719189E+03  0.63342358752E+03  0.16891662317E+03 0.  0.
        -24    2    5    5    0    0 -0.38486550383E+03  0.15387725823E+03  0.89111813344E+02  0.43138019126E+03  0.79676141335E+02 0.  0.
          5    1    3    3  502    0  0.41272220081E+03 -0.22439212610E+03 -0.90622411530E+03  0.10207623026E+04  0.47000000000E+01 0. -1.
        -13    1    4    4    0    0  0.93835741776E+02 -0.27669071792E+02 -0.18489861265E+03  0.20918465749E+03  0.00000000000E+00 0.  1.
         14    1    4    4    0    0  0.33501160276E+01 -0.48524770226E+02 -0.75303781297E+02  0.89646729335E+02  0.00000000000E+00 0. -1.
         -5    1    5    5    0  501 -0.12504255479E+03  0.14670870989E+03  0.60335378550E+02  0.20204339626E+03  0.47000000000E+01 0.  1.
         13    1    6    6    0    0 -0.72848006030E+02  0.39593987547E+02  0.49939385090E+02  0.96790795097E+02  0.00000000000E+00 0. -1.
        -14    1    6    6    0    0 -0.31201749780E+03  0.11428327068E+03  0.39172428255E+02  0.33458939616E+03  0.00000000000E+00 0.  1.
</event>
<event>
12    1  0.9656379E-001  0.7192444E+03  0.7818608E-02  0.9684876E-01
         -1   -1    0    0    0  501 -0.00000000000E+00  0.00000000000E+00  0.32930270832E+03  0.32930270832E+03  0.00000000000E+00 0.  1.
          1   -1    0    0  502    0  0.00000000000E+00 -0.00000000000E+00 -0.16349277824E+04  0.16349277824E+04  0.00000000000E+00 0. -1.
          6    2    1    2  502    0 -0.40190957636E+03 -0.57133804234E+03 -0.45855212076E+03  0.85302817549E+03  0.17154752847E+03 0.  0.
         24    2    3    3    0    0 -0.40964333762E+03 -0.54979080954E+03 -0.42028537403E+03  0.80818926147E+03  0.80327382805E+02 0.  0.
         -6    2    1    2    0  501  0.40190957636E+03  0.57133804234E+03 -0.84707295336E+03  0.11112023153E+04  0.17111262657E+03 0.  0.
        -24    2    5    5    0    0  0.39302308103E+03  0.58035262331E+03 -0.83339209275E+03  0.10919802338E+04  0.81253560878E+02 0.  0.
          5    1    3    3  502    0  0.77337612613E+01 -0.21547232808E+02 -0.38266746728E+02  0.44838914015E+02  0.47000000000E+01 0. -1.
        -11    1    4    4    0    0 -0.39968978535E+03 -0.54022272737E+03 -0.42308850929E+03  0.79410100514E+03  0.00000000000E+00 0.  1.
         12    1    4    4    0    0 -0.99535522746E+01 -0.95680821697E+01  0.28031352539E+01  0.14088256334E+02  0.00000000000E+00 0. -1.
         -5    1    5    5    0  501  0.88864953283E+01 -0.90145809658E+01 -0.13680860602E+02  0.19222081470E+02  0.47000000000E+01 0.  1.
         11    1    6    6    0    0  0.90157898957E+02  0.16214353119E+03 -0.17287719882E+03  0.25358528609E+03  0.00000000000E+00 0. -1.
        -12    1    6    6    0    0  0.30286518207E+03  0.41820909212E+03 -0.66051489393E+03  0.83839494772E+03  0.00000000000E+00 0.  1.
</event>
<event>
12    1  0.9656379E-001  0.2196921E+03  0.7818608E-02  0.1134113E+00
         -2   -1    0    0    0  501 -0.00000000000E+00  0.00000000000E+00  0.12612447687E+03  0.12612447687E+03  0.00000000000E+00 0.  1.
          2   -1    0    0  502    0  0.00000000000E+00 -0.00000000000E+00 -0.16386605441E+04  0.16386605441E+04  0.00000000000E+00 0. -1.
          6    2    1    2  502    0  0.16434863729E+02  0.12358981883E+03  0.20388853551E+02  0.21542820619E+03  0.17449658624E+03 0.  0.
         24    2    3    3    0    0  0.59164628062E+01  0.49781487199E+02  0.79234972681E+02  0.12033213733E+03  0.75421756666E+02 0.  0.
         -6    2    1    2    0  501 -0.16434863729E+02 -0.12358981883E+03 -0.15329249207E+04  0.15493568147E+04  0.18735842306E+03 0.  0.
        -24    2    5    5    0    0  0.58053577500E+02 -0.62542460334E+02 -0.10801395720E+04  0.10864184065E+04  0.79509003382E+02 0.  0.
          5    1    3    3  502    0  0.10518400923E+02  0.73808331634E+02 -0.58846119130E+02  0.95096068863E+02  0.47000000000E+01 0. -1.
        -13    1    4    4    0    0  0.31007416108E+02  0.51993402400E+02  0.36393640157E+02  0.70634770409E+02  0.00000000000E+00 0.  1.
         14    1    4    4    0    0 -0.25090953302E+02 -0.22119152012E+01  0.42841332523E+02  0.49697366920E+02  0.00000000000E+00 0. -1.
         -5    1    5    5    0  501 -0.74488441229E+02 -0.61047358498E+02 -0.45278534870E+03  0.46293840827E+03  0.47000000000E+01 0.  1.
         11    1    6    6    0    0  0.17934905195E+02 -0.19840587486E+02 -0.78839366148E+03  0.78884718114E+03  0.00000000000E+00 0. -1.
        -12    1    6    6    0    0  0.40118672305E+02 -0.42701872848E+02 -0.29174591056E+03  0.29757122533E+03  0.00000000000E+00 0.  1.
</event>
<event>
12    1  0.9656379E-001  0.1246626E+04  0.7818608E-02  0.9072996E-01
          2   -1    0    0  502    0  0.00000000000E+00  0.00000000000E+00  0.15011002034E+04  0.15011002034E+04  0.00000000000E+00 0. -1.
         -2   -1    0    0    0  501 -0.00000000000E+00 -0.00000000000E+00 -0.12788947818E+04  0.12788947818E+04  0.00000000000E+00 0.  1.
          6    2    1    2  502    0  0.47751218570E+03 -0.11383130828E+04 -0.49557013543E+03  0.13412140285E+04  0.17172870771E+03 0.  0.
         24    2    3    3    0    0  0.20221647937E+03 -0.63667161385E+03 -0.23472071637E+03  0.71232898435E+03  0.77952029044E+02 0.  0.
         -6    2    1    2    0  501 -0.47751218570E+03  0.11383130828E+04  0.71777555698E+03  0.14387809568E+04  0.17639254363E+03 0.  0.
        -24    2    5    5    0    0 -0.48569997828E+03  0.11247850732E+04  0.71745089093E+03  0.14222811871E+04  0.84273747519E+02 0.  0.
          5    1    3    3  502    0  0.27529570633E+03 -0.50164146895E+03 -0.26084941906E+03  0.62888504412E+03  0.47000000000E+01 0. -1.
        -13    1    4    4    0    0  0.51551034136E+02 -0.24032805237E+03 -0.11734042061E+03  0.27236713492E+03  0.00000000000E+00 0.  1.
         14    1    4    4    0    0  0.15066544523E+03 -0.39634356148E+03 -0.11738029576E+03  0.43996184942E+03  0.00000000000E+00 0. -1.
         -5    1    5    5    0  501  0.81877925866E+01  0.13528009559E+02  0.32466604512E+00  0.16499769638E+02  0.47000000000E+01 0.  1.
         13    1    6    6    0    0 -0.33062469946E+03  0.84292580649E+03  0.50496313541E+03  0.10367373704E+04  0.00000000000E+00 0. -1.
        -14    1    6    6    0    0 -0.15507527882E+03  0.28185926676E+03  0.21248775552E+03  0.38554381671E+03  0.00000000000E+00 0.  1.
</event>
<event>
12    1  0.9656379E-001  0.3850231E+03  0.7818608E-02  0.1049093E+00
          1   -1    0    0  502    0  0.00000000000E+00  0.00000000000E+00  0.17597716556E+04  0.17597716556E+04  0.00000000000E+00 0. -1.
         -1   -1    0    0    0  501 -0.00000000000E+00 -0.00000000000E+00 -0.16563098832E+03  0.16563098832E+03  0.00000000000E+00 0.  1.
          6    2    1    2  502    0 -0.34170354612E+03  0.47939363143E+02  0.12244494098E+03  0.40423053764E+03  0.17131861551E+03 0.  0.
         24    2    3    3    0    0 -0.80528207976E+02 -0.12272994093E+02  0.13472380090E+02  0.11486019665E+03  0.79849490202E+02 0.  0.
         -6    2    1    2    0  501  0.34170354612E+03 -0.47939363143E+02  0.14716957263E+04  0.15211721063E+04  0.17034309544E+03 0.  0.
        -24    2    5    5    0    0  0.15694734471E+03 -0.81232448342E+02  0.65280611817E+03  0.68102595008E+03  0.80058335540E+02 0.  0.
          5    1    3    3  502    0 -0.26117533814E+03  0.60212357236E+02  0.10897256089E+03  0.28937034099E+03  0.47000000000E+01 0. -1.
        -11    1    4    4    0    0 -0.88204439557E+02 -0.89880988205E+01 -0.10682975589E+02  0.89302491820E+02  0.00000000000E+00 0.  1.
         12    1    4    4    0    0  0.76762315806E+01 -0.32848952728E+01  0.24155355679E+02  0.25557704830E+02  0.00000000000E+00 0. -1.
         -5    1    5    5    0  501  0.18475620141E+03  0.33293085199E+02  0.81888960816E+03  0.84014615623E+03  0.47000000000E+01 0.  1.
         13    1    6    6    0    0  0.99574838724E+02 -0.17171988259E+02  0.44099451840E+03  0.45242258006E+03  0.00000000000E+00 0. -1.
        -14    1    6    6    0    0  0.57372505985E+02 -0.64060460082E+02  0.21181159977E+03  0.22860337003E+03  0.00000000000E+00 0.  1.
</event>
<event>
12    1  0.9656379E-001  0.5582237E+03  0.7818608E-02  0.9996082E-01
          1   -1    0    0  502    0  0.00000000000E+00  0.00000000000E+00  0.40035646659E+04  0.40035646659E+04  0.00000000000E+00 0. -1.
         -1   -1    0    0    0  501 -0.00000000000E+00 -0.00000000000E+00 -0.43919983083E+03  0.43919983083E+03  0.00000000000E+00 0.  1.
          6    2    1    2  502    0  0.87290703770E+02  0.52371762106E+03 -0.23270723252E+03  0.60489560950E+03  0.17276061113E+03 0.  0.
         24    2    3    3    0    0  0.96143228501E+02  0.26912860524E+03 -0.75806625738E+02  0.30567357727E+03  0.77562650723E+02 0.  0.
         -6    2    1    2    0  501 -0.87290703770E+02 -0.52371762106E+03  0.37970720676E+04  0.38378688873E+04  0.17199271937E+03 0.  0.
        -24    2    5    5    0    0 -0.92925893368E+02 -0.49482169352E+03  0.32245850763E+04  0.32646061419E+04  0.78870890551E+02 0.  0.
          5    1    3    3  502    0 -0.88525247303E+01  0.25458901581E+03 -0.15690060678E+03  0.29922203224E+03  0.47000000000E+01 0. -1.
        -11    1    4    4    0    0  0.47876288257E+02  0.17677984234E+03 -0.83302185709E+02  0.20120264854E+03  0.00000000000E+00 0.  1.
         12    1    4    4    0    0  0.48266940244E+02  0.92348762906E+02  0.74955599708E+01  0.10447092873E+03  0.00000000000E+00 0. -1.
         -5    1    5    5    0  501  0.56351895980E+01 -0.28895927542E+02  0.57248699128E+03  0.57326274533E+03  0.47000000000E+01 0.  1.
         11    1    6    6    0    0  0.11137671074E+02 -0.10696414415E+03  0.74164634844E+03  0.74940288364E+03  0.00000000000E+00 0. -1.
        -12    1    6    6    0    0 -0.10406356444E+03 -0.38785754937E+03  0.24829387279E+04  0.25152032583E+04  0.00000000000E+00 0.  1.
</event>
<event>
12    1  0.9656379E-001  0.2588943E+03  0.7818608E-02  0.1107809E+00
          2   -1    0    0  502    0  0.00000000000E+00  0.00000000000E+00  0.12712854302E+04  0.12712854302E+04  0.00000000000E+00 0. -1.
         -2   -1    0    0    0  501 -0.00000000000E+00 -0.00000000000E+00 -0.60574916733E+02  0.60574916733E+02  0.00000000000E+00 0.  1.
          6    2    1    2  502    0 -0.12090984802E+03  0.15084191723E+03  0.36726414806E+03  0.44981229063E+03  0.17342337504E+03 0.  0.
         24    2    3    3    0    0 -0.41840310021E+02 -0.96621149044E+01  0.14493196483E+03  0.16438764931E+03  0.64606940888E+02 0.  0.
         -6    2    1    2    0  501  0.12090984802E+03 -0.15084191723E+03  0.84344636542E+03  0.88204805631E+03  0.17098107196E+03 0.  0.
        -24    2    5    5    0    0  0.15265959307E+03 -0.14606098802E+03  0.73912263487E+03  0.77279406622E+03  0.79181032051E+02 0.  0.
          5    1    3    3  502    0 -0.79069537996E+02  0.16050403213E+03  0.22233218323E+03  0.28542464132E+03  0.47000000000E+01 0. -1.
        -11    1    4    4    0    0 -0.10828637516E+02 -0.24645972274E+02  0.16856524710E+02  0.31762017648E+02  0.00000000000E+00 0.  1.
         12    1    4    4    0    0 -0.31011672505E+02  0.14983857370E+02  0.12807544012E+03  0.13262563166E+03  0.00000000000E+00 0. -1.
         -5    1    5    5    0  501 -0.31749745051E+02 -0.47809292035E+01  0.10432373055E+03  0.10925399009E+03  0.47000000000E+01 0.  1.
         13    1    6    6    0    0  0.10895683266E+03 -0.49637271922E+02  0.39884880378E+03  0.41643224950E+03  0.00000000000E+00 0. -1.
        -14    1    6    6    0    0  0.43702760407E+02 -0.96423716103E+02  0.34027383108E+03  0.35636181672E+03  0.00000000000E+00 0.  1.
</event>
<event>
12    1  0.9656379E-001  0.1917910E+03  0.7818608E-02  0.1156856E+00
          1   -1    0    0  502    0  0.00000000000E+00  0.00000000000E+00  0.41246751452E+03  0.41246751452E+03  0.00000000000E+00 0. -1.
         -1   -1    0    0    0  501 -0.00000000000E+00 -0.00000000000E+00 -0.11559309086E+03  0.11559309086E+03  0.00000000000E+00 0.  1.
          6    2    1    2  502    0 -0.72878913681E+02 -0.17520287420E+02  0.20411298250E+02  0.18976070524E+03  0.17313060858E+03 0.  0.
         24    2    3    3    0    0 -0.85213003269E+02 -0.38475268556E+02 -0.37824726193E+02  0.12647748833E+03  0.76316727690E+02 0.  0.
         -6    2    1    2    0  501  0.72878913681E+02  0.17520287420E+02  0.27646312540E+03  0.33829990014E+03  0.17999073919E+03 0.  0.
        -24    2    5    5    0    0  0.10434998421E+03  0.57934482846E+02  0.19954322594E+03  0.24576614194E+03  0.79612649756E+02 0.  0.
          5    1    3    3  502    0  0.12334089588E+02  0.20954981136E+02  0.58236024443E+02  0.63283216917E+02  0.47000000000E+01 0. -1.
        -11    1    4    4    0    0 -0.39403872740E+02  0.30448509811E+01  0.17769507959E+02  0.43332340319E+02  0.00000000000E+00 0.  1.
         12    1    4    4    0    0 -0.45809130529E+02 -0.41520119537E+02 -0.55594234153E+02  0.83145148008E+02  0.00000000000E+00 0. -1.
         -5    1    5    5    0  501 -0.31471070525E+02 -0.40414195426E+02  0.76919899465E+02  0.92533758195E+02  0.47000000000E+01 0.  1.
         13    1    6    6    0    0  0.56398426036E+02  0.17759004559E+02  0.32672459564E+02  0.67554824522E+02  0.00000000000E+00 0. -1.
        -14    1    6    6    0    0  0.47951558170E+02  0.40175478287E+02  0.16687076637E+03  0.17821131742E+03  0.00000000000E+00 0.  1.
</event>
<event>
12    1  0.9656379E-001  0.9896654E+03  0.7818608E-02  0.9319953E-01
         -2   -1    0    0    0  501 -0.00000000000E+00  0.00000000000E+00  0.54078751018E+03  0.54078751018E+03  0.00000000000E+00 0.  1.
          2   -1    0    0  502    0  0.00000000000E+00 -0.00000000000E+00 -0.22304207994E+04  0.22304207994E+04  0.00000000000E+00 0. -1.
          6    2    1    2  502    0 -0.88707919586E+03  0.40514594387E+03 -0.24366360904E+03  0.10186716090E+04  0.16512769939E+03 0.  0.
         24    2    3    3    0    0 -0.85804765793E+03  0.41701540818E+03 -0.23936017688E+03  0.98666654840E+03  0.77909880728E+02 0.  0.
         -6    2    1    2    0  501  0.88707919586E+03 -0.40514594387E+03 -0.14459696802E+04  0.17525367006E+04  0.17176680479E+03 0.  0.
        -24    2    5    5    0    0  0.79644204531E+03 -0.39938956946E+03 -0.12814574542E+04  0.15645617250E+04  0.10903313687E+03 0.  0.
          5    1    3    3  502    0 -0.29031537923E+02 -0.11869464308E+02 -0.43034321554E+01  0.32005060623E+02  0.47000000000E+01 0. -1.
        -11    1    4    4    0    0 -0.51037604882E+03  0.27598651633E+03 -0.17471516364E+03  0.60595186014E+03  0.00000000000E+00 0.  1.
         12    1    4    4    0    0 -0.34767160911E+03  0.14102889185E+03 -0.64645013248E+02  0.38071468826E+03  0.00000000000E+00 0. -1.
         -5    1    5    5    0  501  0.90637150549E+02 -0.57563744142E+01 -0.16451222603E+03  0.18797497551E+03  0.47000000000E+01 0.  1.
         11    1    6    6    0    0  0.39167136245E+03 -0.14489952020E+03 -0.64808912653E+03  0.77098757646E+03  0.00000000000E+00 0. -1.
        -12    1    6    6    0    0  0.40477068286E+03 -0.25449004926E+03 -0.63336832763E+03  0.79357414859E+03  0.00000000000E+00 0.  1.
</event>
<event>
12    1  0.9656379E-001  0.3329953E+03  0.7818608E-02  0.1069819E+00
         -2   -1    0    0    0  501 -0.00000000000E+00  0.00000000000E+00  0.11787049063E+03  0.11787049063E+03  0.00000000000E+00 0.  1.
          2   -1    0    0  502    0  0.00000000000E+00 -0.00000000000E+00 -0.99635440162E+03  0.99635440162E+03  0.00000000000E+00 0. -1.
          6    2    1    2  502    0  0.26014728609E+03  0.11704069664E+03 -0.30756857708E+03  0.45327140582E+03  0.17170149270E+03 0.  0.
         24    2    3    3    0    0  0.14235412288E+03  0.40859430289E+02 -0.75087955886E+02  0.18170531097E+03  0.73786377955E+02 0.  0.
         -6    2    1    2    0  501 -0.26014728609E+03 -0.11704069664E+03 -0.57091533391E+03  0.66095348643E+03  0.17187221300E+03 0.  0.
        -24    2    5    5    0    0 -0.13854866703E+03 -0.13315214095E+03 -0.32300019553E+03  0.38431327129E+03  0.80264178825E+02 0.  0.
          5    1    3    3  502    0  0.11779316322E+03  0.76181266352E+02 -0.23248062119E+03  0.27156609485E+03  0.47000000000E+01 0. -1.
        -13    1    4    4    0    0  0.47885128815E+02  0.33293487013E+02  0.37310201701E+01  0.58441101551E+02  0.00000000000E+00 0.  1.
         14    1    4    4    0    0  0.94468994061E+02  0.75659432763E+01 -0.78818976057E+02  0.12326420942E+03  0.00000000000E+00 0. -1.
         -5    1    5    5    0  501 -0.12159861906E+03  0.16111444310E+02 -0.24791513838E+03  0.27664021514E+03  0.47000000000E+01 0.  1.
         13    1    6    6    0    0 -0.13942272806E+03 -0.92349966428E+02 -0.25270209056E+03  0.30302732546E+03  0.00000000000E+00 0. -1.
        -14    1    6    6    0    0  0.87406102526E+00 -0.40802174523E+02 -0.70298104963E+02  0.81285945833E+02  0.00000000000E+00 0.  1.
</event>
<event>
12    1  0.9656379E-001  0.5174684E+03  0.7818608E-02  0.1009317E+00
          1   -1    0    0  502    0  0.00000000000E+00  0.00000000000E+00  0.15844856755E+04  0.15844856755E+04  0.00000000000E+00 0. -1.
         -1   -1    0    0    0  501 -0.00000000000E+00 -0.00000000000E+00 -0.25820916404E+03  0.25820916404E+03  0.00000000000E+00 0.  1.
          6    2    1    2  502    0  0.39379026664E+03  0.28698787764E+03  0.12094825634E+03  0.53068646033E+03  0.17195005801E+03 0.  0.
         24    2    3    3    0    0  0.37513396219E+03  0.30041775996E+03  0.97213469632E+02  0.49731207592E+03  0.83021214668E+02 0.  0.
         -6    2    1    2    0  501 -0.39379026664E+03 -0.28698787764E+03  0.12053282551E+04  0.13120083792E+04  0.17640002420E+03 0.  0.
        -24    2    5    5    0    0 -0.32904935004E+03 -0.20321601699E+03  0.10671607785E+04  0.11378778175E+04  0.79772026029E+02 0.  0.
          5    1    3    3  502    0  0.18656304447E+02 -0.13429882320E+02  0.23734786707E+02  0.33374384411E+02  0.47000000000E+01 0. -1.
        -13    1    4    4    0    0  0.21979905441E+03  0.20834482597E+03  0.92557399656E+02  0.31667974842E+03  0.00000000000E+00 0.  1.
         14    1    4    4    0    0  0.15533490778E+03  0.92072933989E+02  0.46560699767E+01  0.18063232750E+03  0.00000000000E+00 0. -1.
         -5    1    5    5    0  501 -0.64740916597E+02 -0.83771860653E+02  0.13816747663E+03  0.17413056170E+03  0.47000000000E+01 0.  1.
         13    1    6    6    0    0 -0.13513036541E+03 -0.68484975576E+02  0.52740237680E+03  0.54872914502E+03  0.00000000000E+00 0. -1.
        -14    1    6    6    0    0 -0.19391898463E+03 -0.13473104141E+03  0.53975840170E+03  0.58914867251E+03  0.00000000000E+00 0.  1.
</event>
<event>
12    1  0.9656379E-001  0.9053820E+03  0.7818608E-02  0.9418879E-01
          1   -1    0    0  502    0  0.00000000000E+00  0.00000000000E+00  0.16629075144E+04  0.16629075144E+04  0.00000000000E+00 0. -1.
         -1   -1    0    0    0  501 -0.00000000000E+00 -0.00000000000E+00 -0.50626875365E+03  0.50626875365E+03  0.00000000000E+00 0.  1.
          6    2    1    2  502    0  0.41373670824E+03 -0.78660692614E+03  0.40253321156E+03  0.99110297882E+03  0.17413675145E+03 0.  0.
         24    2    3    3    0    0  0.25435298024E+03 -0.39802939637E+03  0.15911291869E+03  0.50564319843E+03  0.85060474303E+02 0.  0.
         -6    2    1    2    0  501 -0.41373670824E+03  0.78660692614E+03  0.75410554923E+03  0.11780732893E+04  0.17103501253E+03 0.  0.
        -24    2    5    5    0    0 -0.28478810683E+03  0.43595056662E+03  0.38335074323E+03  0.65169999924E+03  0.81227669877E+02 0.  0.
          5    1    3    3  502    0  0.15938372800E+03 -0.38857752977E+03  0.24342029286E+03  0.48545978039E+03  0.47000000000E+01 0. -1.
        -11    1    4    4    0    0  0.13372970142E+03 -0.21243022931E+03  0.12908084364E+03  0.28226246573E+03  0.00000000000E+00 0.  1.
         12    1    4    4    0    0  0.12062327882E+03 -0.18559916707E+03  0.30032075052E+02  0.22338073270E+03  0.00000000000E+00 0. -1.
         -5    1    5    5    0  501 -0.12894860141E+03  0.35065635952E+03  0.37075480600E+03  0.52637329002E+03  0.47000000000E+01 0. -1.
         11    1    6    6    0    0 -0.26715244343E+02  0.90071277602E+02  0.88279997521E+02  0.12891818061E+03  0.00000000000E+00 0. -1.
        -12    1    6    6    0    0 -0.25807286249E+03  0.34587928902E+03  0.29507074571E+03  0.52278181863E+03  0.00000000000E+00 0.  1.
</event>
<event>
12    1  0.9656379E-001  0.8340496E+03  0.7818608E-02  0.9511999E-01
          2   -1    0    0  502    0  0.00000000000E+00  0.00000000000E+00  0.19543391809E+04  0.19543391809E+04  0.00000000000E+00 0. -1.
         -2   -1    0    0    0  501 -0.00000000000E+00 -0.00000000000E+00 -0.74401556290E+03  0.74401556290E+03  0.00000000000E+00 0.  1.
          6    2    1    2  502    0 -0.50642229497E+02 -0.81459298841E+03 -0.36923774162E+03  0.91210250194E+03  0.17166272757E+03 0.  0.
         24    2    3    3    0    0 -0.37174843631E+02 -0.77293274033E+03 -0.30777817352E+03  0.83649618433E+03  0.78685908703E+02 0.  0.
         -6    2    1    2    0  501  0.50642229497E+02  0.81459298841E+03  0.15795613596E+04  0.17862522419E+04  0.17192036116E+03 0.  0.
        -24    2    5    5    0    0 -0.62774265109E+01  0.23363130321E+03  0.39809290566E+03  0.46843354241E+03  0.79555202217E+02 0.  0.
          5    1    3    3  502    0 -0.13467385866E+02 -0.41660248078E+02 -0.61459568093E+02  0.75606317608E+02  0.47000000000E+01 0. -1.
        -11    1    4    4    0    0 -0.41411383129E+02 -0.57385568263E+03 -0.26192432651E+03  0.63216263727E+03  0.00000000000E+00 0.  1.
         12    1    4    4    0    0  0.42365394977E+01 -0.19907705770E+03 -0.45853847016E+02  0.20433354707E+03  0.00000000000E+00 0. -1.
         -5    1    5    5    0  501  0.56919656008E+02  0.58096168521E+03  0.11814684540E+04  0.13178186995E+04  0.47000000000E+01 0.  1.
         11    1    6    6    0    0 -0.39789217656E+02  0.16374655079E+03  0.25391118282E+03  0.30474087927E+03  0.00000000000E+00 0. -1.
        -12    1    6    6    0    0  0.33511791145E+02  0.69884752418E+02  0.14418172283E+03  0.16369266314E+03  0.00000000000E+00 0.  1.
</event>
<event>
12    1  0.9656379E-001  0.2340054E+03  0.7818608E-02  0.1123852E+00
          2   -1    0    0  502    0  0.00000000000E+00  0.00000000000E+00  0.29327579360E+04  0.29327579360E+04  0.00000000000E+00 0. -1.
         -2   -1    0    0    0  501 -0.00000000000E+00 -0.00000000000E+00 -0.10267755808E+03  0.10267755808E+03  0.00000000000E+00 0.  1.
          6    2    1    2  502    0 -0.14831542286E+03 -0.57493795991E+02  0.42174504493E+02  0.23772153263E+03  0.17155126641E+03 0.  0.
         24    2    3    3    0    0 -0.10013362014E+03 -0.67730372530E+02 -0.34492259286E+02  0.14647375851E+03  0.75171142972E+02 0.  0.
         -6    2    1    2    0  501  0.14831542286E+03  0.57493795991E+02  0.27879058735E+04  0.27977139615E+04  0.17170104773E+03 0.  0.
        -24    2    5    5    0    0  0.71767885668E+02  0.41170960419E+01  0.75046187387E+03  0.75812852836E+03  0.79989133588E+02 0.  0.
          5    1    3    3  502    0 -0.48181802726E+02  0.10236576539E+02  0.76666763779E+02  0.91247774118E+02  0.47000000000E+01 0. -1.
        -13    1    4    4    0    0 -0.50128844495E+02 -0.18542657665E+02 -0.51582392341E+02  0.74279703845E+02  0.00000000000E+00 0.  1.
         14    1    4    4    0    0 -0.50004775644E+02 -0.49187714866E+02  0.17090133055E+02  0.72194054664E+02  0.00000000000E+00 0. -1.
         -5    1    5    5    0  501  0.76547537196E+02  0.53376699949E+02  0.20374439996E+04  0.20395854331E+04  0.47000000000E+01 0.  1.
         11    1    6    6    0    0  0.26058669751E+01  0.31188516108E+02  0.29435014786E+03  0.29600933030E+03  0.00000000000E+00 0. -1.
        -12    1    6    6    0    0  0.69162018693E+02 -0.27071420066E+02  0.45611172601E+03  0.46211919806E+03  0.00000000000E+00 0.  1.
</event>
<event>
12    1  0.9656379E-001  0.1539952E+04  0.7818608E-02  0.8858311E-01
          2   -1    0    0  502    0  0.00000000000E+00  0.00000000000E+00  0.25581066907E+04  0.25581066907E+04  0.00000000000E+00 0. -1.
         -2   -1    0    0    0  501 -0.00000000000E+00 -0.00000000000E+00 -0.10047295509E+04  0.10047295509E+04  0.00000000000E+00 0.  1.
          6    2    1    2  502    0  0.15173757759E+04  0.19831105403E+03  0.28129512765E+03  0.15654044407E+04  0.17206857547E+03 0.  0.
         24    2    3    3    0    0  0.10515793907E+04  0.16046080204E+03  0.13275046045E+03  0.10750101889E+04  0.80357560628E+02 0.  0.
         -6    2    1    2    0  501 -0.15173757759E+04 -0.19831105403E+03  0.12720820122E+04  0.19974318009E+04  0.17258225316E+03 0.  0.
        -24    2    5    5    0    0 -0.55542291061E+03 -0.94872242323E+02  0.53487282173E+03  0.78106327808E+03  0.80470845393E+02 0.  0.
          5    1    3    3  502    0  0.46579638527E+03  0.37850251988E+02  0.14854466720E+03  0.49039425186E+03  0.47000000000E+01 0. -1.
        -13    1    4    4    0    0  0.95273928795E+03  0.16885289937E+03  0.12031745118E+03  0.97503832822E+03  0.00000000000E+00 0.  1.
         14    1    4    4    0    0  0.98840102703E+02 -0.83920973303E+01  0.12433009264E+02  0.99971860637E+02  0.00000000000E+00 0. -1.
         -5    1    5    5    0  501 -0.96195286532E+03 -0.10343881170E+03  0.73720919045E+03  0.12163685228E+04  0.47000000000E+01 0.  1.
         13    1    6    6    0    0 -0.37379515624E+03 -0.27143904287E+02  0.33594104485E+03  0.50330507248E+03  0.00000000000E+00 0. -1.
        -14    1    6    6    0    0 -0.18162775437E+03 -0.67728338036E+02  0.19893177687E+03  0.27775820561E+03  0.00000000000E+00 0.  1.
</event>
<event>
12    1  0.9656379E-001  0.3349743E+03  0.7818608E-02  0.1068957E+00
         -1   -1    0    0    0  501 -0.00000000000E+00  0.00000000000E+00  0.23292017965E+03  0.23292017965E+03  0.00000000000E+00 0.  1.
          1   -1    0    0  502    0  0.00000000000E+00 -0.00000000000E+00 -0.10328633774E+04  0.10328633774E+04  0.00000000000E+00 0. -1.
          6    2    1    2  502    0 -0.27928724557E+03  0.73328839009E+02  0.62930130030E+02  0.33978190799E+03  0.16766949503E+03 0.  0.
         24    2    3    3    0    0 -0.18577431948E+03  0.98585996775E+02 -0.45380664569E+00  0.22392766856E+03  0.76890170181E+02 0.  0.
         -6    2    1    2    0  501  0.27928724557E+03 -0.73328839009E+02 -0.86287332778E+03  0.92600164905E+03  0.17190168729E+03 0.  0.
        -24    2    5    5    0    0  0.86904451185E+02 -0.18391156871E+02 -0.19581622780E+03  0.22957035085E+03  0.80423458211E+02 0.  0.
          5    1    3    3  502    0 -0.93512926096E+02 -0.25257157766E+02  0.63383936675E+02  0.11585423943E+03  0.47000000000E+01 0. -1.
        -13    1    4    4    0    0 -0.52618746673E+02  0.10608540640E+02  0.29942769993E+02  0.61464161190E+02  0.00000000000E+00 0.  1.
         14    1    4    4    0    0 -0.13315557280E+03  0.87977456135E+02 -0.30396576639E+02  0.16246350737E+03  0.00000000000E+00 0. -1.
         -5    1    5    5    0  501  0.19238279439E+03 -0.54937682138E+02 -0.66705709998E+03  0.69643129821E+03  0.47000000000E+01 0.  1.
         11    1    6    6    0    0  0.93777322935E+02 -0.32533857284E+02 -0.18656347871E+03  0.21132574324E+03  0.00000000000E+00 0. -1.
        -12    1    6    6    0    0 -0.68728717497E+01  0.14142700413E+02 -0.92527490914E+01  0.18244607609E+02  0.00000000000E+00 0.  1.
</event>
<event>
12    1  0.9656379E-001  0.2624613E+03  0.7818608E-02  0.1105673E+00
         -1   -1    0    0    0  501 -0.00000000000E+00  0.00000000000E+00  0.10021992617E+03  0.10021992617E+03  0.00000000000E+00 0.  1.
          1   -1    0    0  502    0  0.00000000000E+00 -0.00000000000E+00 -0.11954410379E+04  0.11954410379E+04  0.00000000000E+00 0. -1.
          6    2    1    2  502    0 -0.15618047800E+03 -0.12021954878E+03 -0.12610015448E+03  0.29180956498E+03  0.17437457280E+03 0.  0.
         24    2    3    3    0    0 -0.69990159818E+02 -0.54129027663E+02  0.30039256942E+01  0.12302958558E+03  0.85432319716E+02 0.  0.
         -6    2    1    2    0  501  0.15618047800E+03  0.12021954878E+03 -0.96912095729E+03  0.10038513991E+04  0.17227048511E+03 0.  0.
        -24    2    5    5    0    0  0.89253714590E+02  0.13758151933E+01 -0.55951529505E+03  0.57210852053E+03  0.79263329698E+02 0.  0.
          5    1    3    3  502    0 -0.86190318183E+02 -0.66090521114E+02 -0.12910408017E+03  0.16877997940E+03  0.47000000000E+01 0. -1.
        -11    1    4    4    0    0 -0.87077343454E+02 -0.38427842160E+02 -0.11177613331E+02  0.95833719723E+02  0.00000000000E+00 0.  1.
         12    1    4    4    0    0  0.17087183636E+02 -0.15701185502E+02  0.14181539025E+02  0.27195865860E+02  0.00000000000E+00 0. -1.
         -5    1    5    5    0  501  0.66926763410E+02  0.11884373358E+03 -0.40960566224E+03  0.43174287859E+03  0.47000000000E+01 0.  1.
         13    1    6    6    0    0  0.71788770770E+02  0.27324691453E+02 -0.26415410197E+03  0.27509572145E+03  0.00000000000E+00 0. -1.
        -14    1    6    6    0    0  0.17464943820E+02 -0.25948876260E+02 -0.29536119308E+03  0.29701279908E+03  0.00000000000E+00 0.  1.
</event>
<event>
12    1  0.9656379E-001  0.2268886E+04  0.7818608E-02  0.8490291E-01
         -1   -1    0    0    0  501 -0.00000000000E+00  0.00000000000E+00  0.16384219323E+04  0.16384219323E+04  0.00000000000E+00 0.  1.
          1   -1    0    0  502    0  0.00000000000E+00 -0.00000000000E+00 -0.34675216870E+04  0.34675216870E+04  0.00000000000E+00 0. -1.
          6    2    1    2  502    0 -0.29021458696E+02  0.22622534086E+04 -0.13232555968E+03  0.22728698397E+04  0.17261090543E+03 0.  0.
         24    2    3    3    0    0 -0.75922744906E+02  0.19474508124E+04 -0.10667301399E+03  0.19535259055E+04  0.80965434253E+02 0.  0.
         -6    2    1    2    0  501  0.29021458696E+02 -0.22622534086E+04 -0.16967741950E+04  0.28330737797E+04  0.16920887288E+03 0.  0.
        -24    2    5    5    0    0 -0.35307903799E+02 -0.14652338178E+04 -0.11449598075E+04  0.18615287713E+04  0.78737646052E+02 0.  0.
          5    1    3    3  502    0  0.46901286209E+02  0.31480259611E+03 -0.25652545690E+02  0.31934393413E+03  0.47000000000E+01 0. -1.
        -11    1    4    4    0    0 -0.63728283230E+02  0.89106823399E+03 -0.20760247319E+02  0.89358540699E+03  0.00000000000E+00 0.  1.
         12    1    4    4    0    0 -0.12194461676E+02  0.10563825785E+04 -0.85912766675E+02  0.10599404985E+04  0.00000000000E+00 0. -1.
         -5    1    5    5    0  501  0.64329362496E+02 -0.79701959079E+03 -0.55181438752E+03  0.97154500836E+03  0.47000000000E+01 0.  1.
         11    1    6    6    0    0 -0.26375060845E+00 -0.12029297259E+04 -0.95044734642E+03  0.15330982204E+04  0.00000000000E+00 0. -1.
        -12    1    6    6    0    0 -0.35044153191E+02 -0.26230409183E+03 -0.19451246111E+03  0.32843055094E+03  0.00000000000E+00 0.  1.
</event>
<event>
12    1  0.9656379E-001  0.2730203E+03  0.7818608E-02  0.1099563E+00
          2   -1    0    0  502    0  0.00000000000E+00  0.00000000000E+00  0.30869738195E+03  0.30869738195E+03  0.00000000000E+00 0. -1.
         -2   -1    0    0    0  501 -0.00000000000E+00 -0.00000000000E+00 -0.27200060690E+03  0.27200060690E+03  0.00000000000E+00 0.  1.
          6    2    1    2  502    0  0.20824264391E+03  0.37980827052E+02 -0.78921545393E+02  0.28437285759E+03  0.17271875938E+03 0.  0.
         24    2    3    3    0    0  0.75063001013E+02  0.54125031930E+02 -0.86550656274E+02  0.14991934902E+03  0.80130031244E+02 0.  0.
         -6    2    1    2    0  501 -0.20824264391E+03 -0.37980827052E+02  0.11561832044E+03  0.29632513126E+03  0.17214367669E+03 0.  0.
        -24    2    5    5    0    0 -0.11928084587E+03 -0.25752910671E+02 -0.44775075092E+01  0.14629572967E+03  0.80568355119E+02 0.  0.
          5    1    3    3  502    0  0.13317964290E+03 -0.16144204878E+02  0.76291108808E+01  0.13445350857E+03  0.47000000000E+01 0. -1.
        -13    1    4    4    0    0  0.64890447774E+02  0.72722159856E+01 -0.77130512665E+02  0.10105825707E+03  0.00000000000E+00 0.  1.
         14    1    4    4    0    0  0.10172553239E+02  0.46852815945E+02 -0.94201436093E+01  0.48861091955E+02  0.00000000000E+00 0. -1.
         -5    1    5    5    0  501 -0.88961798041E+02 -0.12227916381E+02  0.12009582795E+03  0.15002940159E+03  0.47000000000E+01 0.  1.
         13    1    6    6    0    0 -0.61767579396E+02  0.16441209175E+02  0.25637410816E+02  0.68868164321E+02  0.00000000000E+00 0. -1.
        -14    1    6    6    0    0 -0.57513266473E+02 -0.42194119846E+02 -0.30114918325E+02  0.77427565348E+02  0.00000000000E+00 0.  1.
</event>
<event>
12    1  0.9656379E-001  0.1771363E+03  0.7818608E-02  0.1170604E+00
         -1   -1    0    0    0  501 -0.00000000000E+00  0.00000000000E+00  0.96600817651E+03  0.96600817651E+03  0.00000000000E+00 0.  1.
          1   -1    0    0  502    0  0.00000000000E+00 -0.00000000000E+00 -0.23782601050E+03  0.23782601050E+03  0.00000000000E+00 0. -1.
          6    2    1    2  502    0  0.30067246997E+02 -0.30552276532E+02  0.92324744245E+03  0.93998777740E+03  0.17132921737E+03 0.  0.
         24    2    3    3    0    0  0.12813988830E+01 -0.78462800075E+02  0.46292984592E+03  0.47626542190E+03  0.79791333315E+02 0.  0.
         -6    2    1    2    0  501 -0.30067246997E+02  0.30552276532E+02 -0.19506527644E+03  0.26384640961E+03  0.17241515261E+03 0.  0.
        -24    2    5    5    0    0 -0.71891241944E+02 -0.19037412615E+02 -0.91171824814E+02  0.14127266400E+03  0.78197763431E+02 0.  0.
          5    1    3    3  502    0  0.28785848114E+02  0.47910523542E+02  0.46031759652E+03  0.46372235550E+03  0.47000000000E+01 0. -1.
        -11    1    4    4    0    0  0.12929960001E+02  0.20348520259E+01  0.21367512882E+03  0.21407565290E+03  0.00000000000E+00 0.  1.
         12    1    4    4    0    0 -0.11648561118E+02 -0.80497652101E+02  0.24925471711E+03  0.26218976900E+03  0.00000000000E+00 0. -1.
         -5    1    5    5    0  501  0.41823994947E+02  0.49589689148E+02 -0.10389345163E+03  0.12257374562E+03  0.47000000000E+01 0.  1.
         11    1    6    6    0    0 -0.42615502863E+02 -0.29125838933E+02 -0.96891862663E+02  0.10978355354E+03  0.00000000000E+00 0. -1.
        -12    1    6    6    0    0 -0.29275739081E+02  0.10088426318E+02  0.57200378489E+01  0.31489110456E+02  0.00000000000E+00 0.  1.
</event>
<event>
12    1  0.9656379E-001  0.7958817E+03  0.7818608E-02  0.9565997E-01
          2   -1    0    0  502    0  0.00000000000E+00  0.00000000000E+00  0.35601889343E+04  0.35601889343E+04  0.00000000000E+00 0. -1.
         -2   -1    0    0    0  501 -0.00000000000E+00 -0.00000000000E+00 -0.15296389991E+04  0.15296389991E+04  0.00000000000E+00 0.  1.
          6    2    1    2  502    0  0.49662519943E+03 -0.59861350955E+03 -0.13769549993E+04  0.15907708738E+04  0.17196563775E+03 0.  0.
         24    2    3    3    0    0  0.48885348736E+03 -0.52609884166E+03 -0.12704378390E+04  0.14615935848E+04  0.80534347676E+02 0.  0.
         -6    2    1    2    0  501 -0.49662519943E+03  0.59861350955E+03  0.34075049344E+04  0.34990570596E+04  0.16533513043E+03 0.  0.
        -24    2    5    5    0    0 -0.38650973123E+03  0.52024613599E+03  0.26503401543E+04  0.27299098332E+04  0.89771651713E+02 0.  0.
          5    1    3    3  502    0  0.77717120737E+01 -0.72514667888E+02 -0.10651716025E+03  0.12917728901E+03  0.47000000000E+01 0. -1.
        -11    1    4    4    0    0  0.25537401026E+03 -0.27987759927E+03 -0.75079568194E+03  0.84097652269E+03  0.00000000000E+00 0.  1.
         12    1    4    4    0    0  0.23347947710E+03 -0.24622124240E+03 -0.51964215707E+03  0.62061706215E+03  0.00000000000E+00 0. -1.
         -5    1    5    5    0  501 -0.11011546820E+03  0.78367373561E+02  0.75716478012E+03  0.76914722637E+03  0.47000000000E+01 0.  1.
         11    1    6    6    0    0 -0.12570388916E+03  0.12214530228E+03  0.83698834866E+03  0.85514351919E+03  0.00000000000E+00 0. -1.
        -12    1    6    6    0    0 -0.26080584208E+03  0.39810083370E+03  0.18133518056E+04  0.18747663140E+04  0.00000000000E+00 0.  1.
</event>
<event>
12    1  0.9656379E-001  0.2816001E+03  0.7818608E-02  0.1094818E+00
         -1   -1    0    0    0  501 -0.00000000000E+00  0.00000000000E+00  0.18640411531E+03  0.18640411531E+03  0.00000000000E+00 0.  1.
          1   -1    0    0  502    0  0.00000000000E+00 -0.00000000000E+00 -0.61039599096E+03  0.61039599096E+03  0.00000000000E+00 0. -1.
          6    2    1    2  502    0  0.16136239470E+03  0.15380175533E+03  0.70140372868E+01  0.28227796670E+03  0.17302846991E+03 0.  0.
         24    2    3    3    0    0  0.16565262415E+03  0.93473684874E+02  0.44335528166E+02  0.21105391294E+03  0.79999959106E+02 0.  0.
         -6    2    1    2    0  501 -0.16136239470E+03 -0.15380175533E+03 -0.43100591294E+03  0.51452213957E+03  0.17109685195E+03 0.  0.
        -24    2    5    5    0    0 -0.19969916862E+02 -0.59450817715E+02 -0.22982151086E+03  0.25110007167E+03  0.79373306772E+02 0.  0.
          5    1    3    3  502    0 -0.42902294418E+01  0.60328070453E+02 -0.37321490879E+02  0.71224053765E+02  0.47000000000E+01 0. -1.
        -11    1    4    4    0    0  0.13839995804E+03  0.44402163937E+02  0.52067138717E+02  0.15439264064E+03  0.00000000000E+00 0.  1.
         12    1    4    4    0    0  0.27252666104E+02  0.49071520937E+02 -0.77316105511E+01  0.56661272299E+02  0.00000000000E+00 0. -1.
         -5    1    5    5    0  501 -0.14139247784E+03 -0.94350937612E+02 -0.20118440208E+03  0.26342206790E+03  0.47000000000E+01 0.  1.
         11    1    6    6    0    0 -0.28073900283E+02 -0.37450758873E+02 -0.45440773466E+02  0.65234707867E+02  0.00000000000E+00 0. -1.
        -12    1    6    6    0    0  0.81039834211E+01 -0.22000058842E+02 -0.18438073740E+03  0.18586536380E+03  0.00000000000E+00 0.  1.
</event>
<event>
12    1  0.9656379E-001  0.8806227E+03  0.7818608E-02  0.9450133E-01
          2   -1    0    0  502    0  0.00000000000E+00  0.00000000000E+00  0.22826379521E+04  0.22826379521E+04  0.00000000000E+00 0. -1.
         -2   -1    0    0    0  501 -0.00000000000E+00 -0.00000000000E+00 -0.50284444356E+03  0.50284444356E+03  0.00000000000E+00 0.  1.
          6    2    1    2  502    0 -0.83015648505E+03  0.23767500507E+03  0.96506696058E+02  0.88563917400E+03  0.17144680350E+03 0.  0.
         24    2    3    3    0    0 -0.43150453779E+03  0.18129441094E+03  0.88924425635E+02  0.48292124880E+03  0.79003477770E+02 0.  0.
         -6    2    1    2    0  501  0.83015648505E+03 -0.23767500507E+03  0.16832868125E+04  0.18998432216E+04  0.17407060656E+03 0.  0.
        -24    2    5    5    0    0  0.44259860879E+03 -0.10890365561E+03  0.74912517283E+03  0.88030252757E+03  0.77398196141E+02 0.  0.
          5    1    3    3  502    0 -0.39865194726E+03  0.56380594137E+02  0.75822704238E+01  0.40271792520E+03  0.47000000000E+01 0. -1.
        -11    1    4    4    0    0 -0.18656532678E+03  0.11857931336E+03  0.27840517546E+02  0.22280657336E+03  0.00000000000E+00 0.  1.
         12    1    4    4    0    0 -0.24493921101E+03  0.62715097573E+02  0.61083908089E+02  0.26011467544E+03  0.00000000000E+00 0. -1.
         -5    1    5    5    0  501  0.38755787626E+03 -0.12877134946E+03  0.93416163964E+03  0.10195406941E+04  0.47000000000E+01 0.  1.
         13    1    6    6    0    0  0.10958742442E+03 -0.61110995658E+02  0.22063376823E+03  0.25381729071E+03  0.00000000000E+00 0. -1.
        -14    1    6    6    0    0  0.33301118438E+03 -0.47792659956E+02  0.52849140460E+03  0.62648523686E+03  0.00000000000E+00 0.  1.
</event>
<event>
12    1  0.9656379E-001  0.2498886E+03  0.7818608E-02  0.1113375E+00
          1   -1    0    0  502    0  0.00000000000E+00  0.00000000000E+00  0.10676297761E+04  0.10676297761E+04  0.00000000000E+00 0. -1.
         -1   -1    0    0    0  501 -0.00000000000E+00 -0.00000000000E+00 -0.11690406407E+03  0.11690406407E+03  0.00000000000E+00 0.  1.
          6    2    1    2  502    0  0.11350397274E+03  0.14121411442E+03  0.56777601175E+02  0.25633882960E+03  0.17222462549E+03 0.  0.
         24    2    3    3    0    0  0.30530549974E+01  0.10450643560E+03  0.11718792390E+02  0.13144189143E+03  0.78795459901E+02 0.  0.
         -6    2    1    2    0  501 -0.11350397274E+03 -0.14121411442E+03  0.89394811085E+03  0.92819501056E+03  0.17198306543E+03 0.  0.
        -24    2    5    5    0    0 -0.60648076874E+02 -0.16349253405E+03  0.68300926495E+03  0.70954606723E+03  0.80907154177E+02 0.  0.
          5    1    3    3  502    0  0.11045091775E+03  0.36707678827E+02  0.45058808784E+02  0.12489693817E+03  0.47000000000E+01 0. -1.
        -11    1    4    4    0    0  0.20915005585E+02  0.76163953775E+02 -0.23922898633E+02  0.82526907081E+02  0.00000000000E+00 0.  1.
         12    1    4    4    0    0 -0.17861950588E+02  0.28342481821E+02  0.35641691024E+02  0.48914984346E+02  0.00000000000E+00 0. -1.
         -5    1    5    5    0  501 -0.52855895870E+02  0.22278419626E+02  0.21093884591E+03  0.21864894334E+03  0.47000000000E+01 0.  1.
         13    1    6    6    0    0 -0.27393891517E+02 -0.11911792514E+03  0.32416504617E+03  0.34644261075E+03  0.00000000000E+00 0. -1.
        -14    1    6    6    0    0 -0.33254185357E+02 -0.44374608908E+02  0.35884421877E+03  0.36310345648E+03  0.00000000000E+00 0.  1.
</event>
<event>
12    1  0.9656379E-001  0.4084859E+03  0.7818608E-02  0.1040880E+00
         -2   -1    0    0    0  501 -0.00000000000E+00  0.00000000000E+00  0.23003303434E+03  0.23003303434E+03  0.00000000000E+00 0.  1.
          2   -1    0    0  502    0  0.00000000000E+00 -0.00000000000E+00 -0.73497584087E+03  0.73497584087E+03  0.00000000000E+00 0. -1.
          6    2    1    2  502    0 -0.36921268320E+03  0.35619035809E+02 -0.19751615743E+03  0.45400382091E+03  0.17181418977E+03 0.  0.
         24    2    3    3    0    0 -0.21812630104E+03 -0.41878116255E+02 -0.85775061916E+02  0.25067879569E+03  0.78419624688E+02 0.  0.
         -6    2    1    2    0  501  0.36921268320E+03 -0.35619035809E+02 -0.30742664910E+03  0.51100505429E+03  0.17037693444E+03 0.  0.
        -24    2    5    5    0    0  0.28571878726E+03 -0.88070313092E+02 -0.22901388783E+03  0.38493753954E+03  0.79611199478E+02 0.  0.
          5    1    3    3  502    0 -0.15108638216E+03  0.77497152064E+02 -0.11174109552E+03  0.20332502522E+03  0.47000000000E+01 0. -1.
        -13    1    4    4    0    0 -0.16136793599E+03  0.53246283809E+01 -0.64394131380E+02  0.17382337757E+03  0.00000000000E+00 0.  1.
         14    1    4    4    0    0 -0.56758365052E+02 -0.47202744636E+02 -0.21380930536E+02  0.76855418125E+02  0.00000000000E+00 0. -1.
         -5    1    5    5    0  501  0.83493895939E+02  0.52451277283E+02 -0.78412761264E+02  0.12606751476E+03  0.47000000000E+01 0.  1.
         11    1    6    6    0    0  0.16779922436E+03 -0.35763261076E+02 -0.17503971414E+03  0.24510098341E+03  0.00000000000E+00 0. -1.
        -12    1    6    6    0    0  0.11791956290E+03 -0.52307052016E+02 -0.53974173690E+02  0.13983655613E+03  0.00000000000E+00 0.  1.
</event>
<event>
12    1  0.9656379E-001  0.1012198E+04  0.7818608E-02  0.9295267E-01
         -1   -1    0    0    0  501 -0.00000000000E+00  0.00000000000E+00  0.66237481715E+03  0.66237481715E+03  0.00000000000E+00 0.  1.
          1   -1    0    0  502    0  0.00000000000E+00 -0.00000000000E+00 -0.30383960973E+04  0.30383960973E+04  0.00000000000E+00 0. -1.
          6    2    1    2  502    0 -0.98946497173E+02 -0.99255144316E+03  0.10845168406E+03  0.10180385594E+04  0.17231356323E+03 0.  0.
         24    2    3    3    0    0 -0.33510381940E+02 -0.37980192465E+03  0.91282716546E+02  0.40154790981E+03  0.86808650886E+02 0.  0.
         -6    2    1    2    0  501  0.98946497173E+02  0.99255144316E+03 -0.24844729642E+04  0.26827323550E+04  0.17175040670E+03 0.  0.
        -24    2    5    5    0    0  0.12441495987E+03  0.88272906649E+03 -0.22766616985E+04  0.24462641560E+04  0.79562203887E+02 0.  0.
          5    1    3    3  502    0 -0.65436115233E+02 -0.61274951851E+03  0.17168967514E+02  0.61649064961E+03  0.47000000000E+01 0. -1.
        -13    1    4    4    0    0  0.53286346764E+01 -0.21749349189E+03  0.15073365219E+02  0.21808030563E+03  0.00000000000E+00 0.  1.
         14    1    4    4    0    0 -0.38839016616E+02 -0.16230843276E+03  0.76209351327E+02  0.18346760419E+03  0.00000000000E+00 0. -1.
         -5    1    5    5    0  501 -0.25468462693E+02  0.10982237667E+03 -0.20781126564E+03  0.23646819900E+03  0.47000000000E+01 0.  1.
         11    1    6    6    0    0  0.27315084750E+02  0.37770916934E+03 -0.10477055691E+04  0.11140454614E+04  0.00000000000E+00 0. -1.
        -12    1    6    6    0    0  0.97099875116E+02  0.50501989715E+03 -0.12289561294E+04  0.13322186946E+04  0.00000000000E+00 0.  1.
</event>
<event>
12    1  0.9656379E-001  0.1907621E+03  0.7818608E-02  0.1157776E+00
          1   -1    0    0  502    0  0.00000000000E+00  0.00000000000E+00  0.23305711309E+04  0.23305711309E+04  0.00000000000E+00 0. -1.
         -1   -1    0    0    0  501 -0.00000000000E+00 -0.00000000000E+00 -0.15661728940E+02  0.15661728940E+02  0.00000000000E+00 0.  1.
          6    2    1    2  502    0 -0.46974526515E+02  0.60684359983E+02  0.12382927531E+04  0.12533946776E+04  0.17815745275E+03 0.  0.
         24    2    3    3    0    0 -0.63315135303E+02 -0.25090487452E+02  0.74776322909E+03  0.75513205228E+03  0.80226122166E+02 0.  0.
         -6    2    1    2    0  501  0.46974526515E+02 -0.60684359983E+02  0.10766166490E+04  0.10928381823E+04  0.17118027368E+03 0.  0.
        -24    2    5    5    0    0  0.10567838977E+02 -0.10142849509E+03  0.64037180738E+03  0.65315968239E+03  0.78371552076E+02 0.  0.
          5    1    3    3  502    0  0.16340608789E+02  0.85774847435E+02  0.49052952396E+03  0.49826262535E+03  0.47000000000E+01 0. -1.
        -11    1    4    4    0    0 -0.57658583409E+02  0.14272013777E+02  0.31544595880E+03  0.32098965021E+03  0.00000000000E+00 0.  1.
         12    1    4    4    0    0 -0.56565518943E+01 -0.39362501229E+02  0.43231727030E+03  0.43414240207E+03  0.00000000000E+00 0. -1.
         -5    1    5    5    0  501  0.36406687538E+02  0.40744135104E+02  0.43624484158E+03  0.43967849987E+03  0.47000000000E+01 0.  1.
         13    1    6    6    0    0  0.33451854744E+02 -0.19178725644E+02  0.28919250123E+03  0.29175186866E+03  0.00000000000E+00 0. -1.
        -14    1    6    6    0    0 -0.22884015767E+02 -0.82249769443E+02  0.35117930616E+03  0.36140781373E+03  0.00000000000E+00 0.  1.
</event>
<event>
12    1  0.9656379E-001  0.4937000E+03  0.7818608E-02  0.1015437E+00
          2   -1    0    0  502    0  0.00000000000E+00  0.00000000000E+00  0.14931732006E+04  0.14931732006E+04  0.00000000000E+00 0. -1.
         -2   -1    0    0    0  501 -0.00000000000E+00 -0.00000000000E+00 -0.25450904511E+03  0.25450904511E+03  0.00000000000E+00 0.  1.
          6    2    1    2  502    0  0.79670744663E+02 -0.45516508552E+03  0.96751302360E+02  0.50396833073E+03  0.17635356881E+03 0.  0.
         24    2    3    3    0    0 -0.19284191931E+02 -0.25734336853E+03  0.89771999042E+02  0.28261722532E+03  0.72221844684E+02 0.  0.
         -6    2    1    2    0  501 -0.79670744663E+02  0.45516508552E+03  0.11419128531E+04  0.12437139149E+04  0.17127946616E+03 0.  0.
        -24    2    5    5    0    0 -0.43721030945E+02  0.32528653328E+03  0.95705019263E+03  0.10148971466E+04  0.79676154819E+02 0.  0.
          5    1    3    3  502    0  0.98954936594E+02 -0.19782171699E+03  0.69793033179E+01  0.22135110541E+03  0.47000000000E+01 0. -1.
        -13    1    4    4    0    0 -0.88074530826E+01 -0.14245381137E+03  0.87132844776E+02  0.16722078891E+03  0.00000000000E+00 0.  1.
         14    1    4    4    0    0 -0.10476738848E+02 -0.11488955716E+03  0.26391542661E+01  0.11539643641E+03  0.00000000000E+00 0. -1.
         -5    1    5    5    0  501 -0.35949713718E+02  0.12987855225E+03  0.18486266046E+03  0.22881676836E+03  0.47000000000E+01 0.  1.
         11    1    6    6    0    0 -0.96690980729E+01  0.26543397850E+03  0.69730104299E+03  0.74617520258E+03  0.00000000000E+00 0. -1.
        -12    1    6    6    0    0 -0.34051932872E+02  0.59852554780E+02  0.25974914964E+03  0.26872194400E+03  0.00000000000E+00 0.  1.
</event>
<event>
12    1  0.1381254E+000  0.7587129E+03  0.7818608E-02  0.9621779E-01
          2   -1    0    0  502    0  0.00000000000E+00  0.00000000000E+00  0.14695919750E+04  0.14695919750E+04  0.00000000000E+00 0. -1.
         -2   -1    0    0    0  501 -0.00000000000E+00 -0.00000000000E+00 -0.72919691932E+03  0.72919691932E+03  0.00000000000E+00 0.  1.
          6    2    1    2  502    0 -0.73903105973E+03 -0.80813068413E+01 -0.37774083682E+03  0.84753100248E+03  0.17143058534E+03 0.  0.
         24    2    3    3    0    0 -0.69149751973E+03  0.30088643879E+01 -0.38881253110E+03  0.79726071565E+03  0.79193379351E+02 0.  0.
         -6    2    1    2    0  501  0.73903105973E+03  0.80813068413E+01  0.11181358925E+04  0.13512578918E+04  0.17157447754E+03 0.  0.
        -24    2    5    5    0    0  0.57450117320E+03  0.30122187722E+02  0.95852514236E+03  0.11209242956E+04  0.82108974510E+02 0.  0.
          5    1    3    3  502    0 -0.47533540005E+02 -0.11090171229E+02  0.11071694274E+02  0.50270286824E+02  0.47000000000E+01 0. -1.
        -11    1    4    4    0    0 -0.27515928557E+03  0.17477304614E+02 -0.19557943449E+03  0.33803757751E+03  0.00000000000E+00 0.  1.
         12    1    4    4    0    0 -0.41633823416E+03 -0.14468440226E+02 -0.19323309660E+03  0.45922313815E+03  0.00000000000E+00 0. -1.
         -5    1    5    5    0  501  0.16452988653E+03 -0.22040880881E+02  0.15961075010E+03  0.23033359620E+03  0.47000000000E+01 0.  1.
         11    1    6    6    0    0  0.29192336936E+03 -0.14341925753E+02  0.42951557827E+03  0.51952726241E+03  0.00000000000E+00 0. -1.
        -12    1    6    6    0    0  0.28257780384E+03  0.44464113475E+02  0.52900956409E+03  0.60139703317E+03  0.00000000000E+00 0.  1.
</event>
<event>
12    1  0.9656379E-001  0.2342962E+03  0.7818608E-02  0.1123652E+00
          1   -1    0    0  502    0  0.00000000000E+00  0.00000000000E+00  0.41294941890E+03  0.41294941890E+03  0.00000000000E+00 0. -1.
         -1   -1    0    0    0  501 -0.00000000000E+00 -0.00000000000E+00 -0.23598184084E+03  0.23598184084E+03  0.00000000000E+00 0.  1.
          6    2    1    2  502    0 -0.27119978249E+01  0.15849270893E+03 -0.12586130121E+03  0.26624052255E+03  0.17296142631E+03 0.  0.
         24    2    3    3    0    0 -0.28789196847E+02  0.17580696073E+03 -0.80383717580E+02  0.21083200122E+03  0.79067600130E+02 0.  0.
         -6    2    1    2    0  501  0.27119978249E+01 -0.15849270893E+03  0.30282887927E+03  0.38269073719E+03  0.17210338898E+03 0.  0.
        -24    2    5    5    0    0 -0.61997934584E+02 -0.87911097160E+02  0.16600442476E+03  0.21562140840E+03  0.85808028893E+02 0.  0.
          5    1    3    3  502    0  0.26077199022E+02 -0.17314251792E+02 -0.45477583629E+02  0.55408521337E+02  0.47000000000E+01 0. -1.
        -11    1    4    4    0    0 -0.39553139421E+01 -0.46448266069E+01 -0.16844806735E+02  0.17915536178E+02  0.00000000000E+00 0.  1.
         12    1    4    4    0    0 -0.24833882905E+02  0.18045178733E+03 -0.63538910845E+02  0.19291646504E+03  0.00000000000E+00 0. -1.
         -5    1    5    5    0  501  0.64709932409E+02 -0.70581611775E+02  0.13682445450E+03  0.16706932879E+03  0.47000000000E+01 0.  1.
         13    1    6    6    0    0 -0.70419841457E+02 -0.43037326894E+02  0.14148682647E+03  0.16379770340E+03  0.00000000000E+00 0. -1.
        -14    1    6    6    0    0  0.84219068722E+01 -0.44873770266E+02  0.24517598299E+02  0.51823704997E+02  0.00000000000E+00 0.  1.
</event>
<event>
12    1  0.9656379E-001  0.5765832E+03  0.7818608E-02  0.9955216E-01
          2   -1    0    0  502    0  0.00000000000E+00  0.00000000000E+00  0.13418140168E+04  0.13418140168E+04  0.00000000000E+00 0. -1.
         -2   -1    0    0    0  501 -0.00000000000E+00 -0.00000000000E+00 -0.54747303073E+03  0.54747303073E+03  0.00000000000E+00 0.  1.
          6    2    1    2  502    0  0.31261604332E+03 -0.45298433170E+03 -0.30174657973E+03  0.65083012225E+03  0.17206177479E+03 0.  0.
         24    2    3    3    0    0  0.11561784965E+03 -0.20155381792E+03 -0.19655662222E+03  0.31450794229E+03  0.79305178596E+02 0.  0.
         -6    2    1    2    0  501 -0.31261604332E+03  0.45298433170E+03  0.10960875658E+04  0.12384569252E+04  0.17159256564E+03 0.  0.
        -24    2    5    5    0    0 -0.71970863230E+02  0.19503974235E+03  0.46130732274E+03  0.51222448257E+03  0.79681668406E+02 0.  0.
          5    1    3    3  502    0  0.19699819367E+03 -0.25143051378E+03 -0.10518995750E+03  0.33632217995E+03  0.47000000000E+01 0. -1.
        -11    1    4    4    0    0  0.98781854580E+02 -0.19610628589E+03 -0.15337752963E+03  0.26784360503E+03  0.00000000000E+00 0.  1.
         12    1    4    4    0    0  0.16835995066E+02 -0.54475320242E+01 -0.43179092590E+02  0.46664337260E+02  0.00000000000E+00 0. -1.
         -5    1    5    5    0  501 -0.24064518009E+03  0.25794458935E+03  0.63478024301E+03  0.72623244267E+03  0.47000000000E+01 0.  1.
         13    1    6    6    0    0 -0.79304496343E+02  0.13752447429E+03  0.28001338102E+03  0.32188457204E+03  0.00000000000E+00 0. -1.
        -14    1    6    6    0    0  0.73336331133E+01  0.57515268058E+02  0.18129394173E+03  0.19033991053E+03  0.00000000000E+00 0.  1.
</event>
<event>
12    1  0.9656379E-001  0.2669225E+03  0.7818608E-02  0.1103054E+00
          1   -1    0    0  502    0  0.00000000000E+00  0.00000000000E+00  0.61118500059E+02  0.61118500059E+02  0.00000000000E+00 0. -1.
         -1   -1    0    0    0  501 -0.00000000000E+00 -0.00000000000E+00 -0.11787162312E+04  0.11787162312E+04  0.00000000000E+00 0.  1.
          6    2    1    2  502    0 -0.14669997438E+03  0.14279044792E+03 -0.62534406050E+03  0.68021275981E+03  0.17240710571E+03 0.  0.
         24    2    3    3    0    0 -0.16996467054E+03  0.13138498868E+03 -0.60561748137E+03  0.64731050287E+03  0.78027872574E+02 0.  0.
         -6    2    1    2    0  501  0.14669997438E+03 -0.14279044792E+03 -0.49225367059E+03  0.55962197140E+03  0.17015604651E+03 0.  0.
        -24    2    5    5    0    0  0.17335263880E+03 -0.11506642630E+03 -0.37809393614E+03  0.43906691815E+03  0.80828919482E+02 0.  0.
          5    1    3    3  502    0  0.23264696157E+02  0.11405459233E+02 -0.19726579135E+02  0.32902256944E+02  0.47000000000E+01 0. -1.
        -13    1    4    4    0    0 -0.15857072515E+03  0.13159305491E+03 -0.60040050355E+03  0.63477726144E+03  0.00000000000E+00 0.  1.
         14    1    4    4    0    0 -0.11393945392E+02 -0.20806623038E+00 -0.52169778192E+01  0.12533241429E+02  0.00000000000E+00 0. -1.
         -5    1    5    5    0  501 -0.26652664420E+02 -0.27724021617E+02 -0.11415973445E+03  0.12055505325E+03  0.47000000000E+01 0.  1.
         11    1    6    6    0    0  0.21270657122E+02 -0.77615822001E+01 -0.66502694751E+01  0.23598921516E+02  0.00000000000E+00 0. -1.
        -12    1    6    6    0    0  0.15208198168E+03 -0.10730484410E+03 -0.37144366667E+03  0.41546799663E+03  0.00000000000E+00 0.  1.
</event>
<event>
12    1  0.1024193E+000  0.6087506E+03  0.7818608E-02  0.9887416E-01
         -2   -1    0    0    0  501 -0.00000000000E+00  0.00000000000E+00  0.52766800928E+03  0.52766800928E+03  0.00000000000E+00 0.  1.
          2   -1    0    0  502    0  0.00000000000E+00 -0.00000000000E+00 -0.12740352233E+04  0.12740352233E+04  0.00000000000E+00 0. -1.
          6    2    1    2  502    0  0.55447943255E+03 -0.18293776931E+03  0.23032499615E+03  0.65078689035E+03  0.17193110316E+03 0.  0.
         24    2    3    3    0    0  0.26423605260E+03 -0.15082055507E+03  0.93213494987E+02  0.32815026997E+03  0.80164285748E+02 0.  0.
         -6    2    1    2    0  501 -0.55447943255E+03  0.18293776931E+03 -0.97669221020E+03  0.11509163423E+04  0.17253140252E+03 0.  0.
        -24    2    5    5    0    0 -0.33740177886E+03  0.16055002847E+03 -0.70989291352E+03  0.80620215140E+03  0.79985550179E+02 0.  0.
          5    1    3    3  502    0  0.29024337996E+03 -0.32117214245E+02  0.13711150116E+03  0.32263662038E+03  0.47000000000E+01 0. -1.
        -13    1    4    4    0    0  0.25207329796E+03 -0.11550857176E+03  0.81450673413E+02  0.28899375408E+03  0.00000000000E+00 0.  1.
         14    1    4    4    0    0  0.12162754632E+02 -0.35311983304E+02  0.11762821575E+02  0.39156515889E+02  0.00000000000E+00 0. -1.
         -5    1    5    5    0  501 -0.21707765369E+03  0.22387740847E+02 -0.26679929668E+03  0.34471419086E+03  0.47000000000E+01 0.  1.
         13    1    6    6    0    0 -0.19185431761E+03  0.48978108011E+02 -0.34379820452E+03  0.39674190563E+03  0.00000000000E+00 0. -1.
        -14    1    6    6    0    0 -0.14554746125E+03  0.11157192046E+03 -0.36609470900E+03  0.40946024577E+03  0.00000000000E+00 0.  1.
</event>
<event>
12    1  0.9656379E-001  0.1905048E+03  0.7818608E-02  0.1158007E+00
         -1   -1    0    0    0  501 -0.00000000000E+00  0.00000000000E+00  0.46222216528E+03  0.46222216528E+03  0.00000000000E+00 0.  1.
          1   -1    0    0  502    0  0.00000000000E+00 -0.00000000000E+00 -0.23106472819E+03  0.23106472819E+03  0.00000000000E+00 0. -1.
          6    2    1    2  502    0 -0.66527055019E+02 -0.48267772757E+02  0.39732668770E+03  0.44083033336E+03  0.17235793894E+03 0.  0.
         24    2    3    3    0    0  0.49665388841E+01  0.71696148500E+00  0.29896890641E+03  0.30965418729E+03  0.80486819808E+02 0.  0.
         -6    2    1    2    0  501  0.66527055019E+02  0.48267772757E+02 -0.16616925061E+03  0.25245656010E+03  0.17136647266E+03 0.  0.
        -24    2    5    5    0    0  0.47773188194E+02 -0.67865671739E+01 -0.16969748986E+03  0.19399951315E+03  0.80686046072E+02 0.  0.
          5    1    3    3  502    0 -0.71493593903E+02 -0.48984734242E+02  0.98357781295E+02  0.13117614608E+03  0.47000000000E+01 0. -1.
        -11    1    4    4    0    0  0.22809622758E+02 -0.32240069072E+02  0.19922956949E+03  0.20310618480E+03  0.00000000000E+00 0.  1.
         12    1    4    4    0    0 -0.17843083874E+02  0.32957030557E+02  0.99739336915E+02  0.10654800248E+03  0.00000000000E+00 0. -1.
         -5    1    5    5    0  501  0.18753866825E+02  0.55054339931E+02  0.35282392528E+01  0.58457046952E+02  0.47000000000E+01 0.  1.
         13    1    6    6    0    0  0.15872450486E+02 -0.31241720788E+02 -0.23052043219E+02  0.41944922205E+02  0.00000000000E+00 0. -1.
        -14    1    6    6    0    0  0.31900737707E+02  0.24455153614E+02 -0.14664544665E+03  0.15205459094E+03  0.00000000000E+00 0.  1.
</event>
<event>
12    1  0.9656379E-001  0.1211691E+04  0.7818608E-02  0.9102685E-01
         -2   -1    0    0    0  501 -0.00000000000E+00  0.00000000000E+00  0.73761804368E+03  0.73761804368E+03  0.00000000000E+00 0.  1.
          2   -1    0    0  502    0  0.00000000000E+00 -0.00000000000E+00 -0.24155131404E+04  0.24155131404E+04  0.00000000000E+00 0. -1.
          6    2    1    2  502    0 -0.35564986281E+03 -0.11445951995E+04 -0.17808364456E+03  0.12255511648E+04  0.18351260859E+03 0.  0.
         24    2    3    3    0    0 -0.37001714355E+03 -0.10672391954E+04 -0.15464394706E+03  0.11433205164E+04  0.85760515805E+02 0.  0.
         -6    2    1    2    0  501  0.35564986281E+03  0.11445951995E+04 -0.14998114521E+04  0.19275800192E+04  0.17188758869E+03 0.  0.
        -24    2    5    5    0    0  0.10532941239E+03  0.44009246276E+03 -0.49983286726E+03  0.67899534287E+03  0.80163080950E+02 0.  0.
          5    1    3    3  502    0  0.14367280747E+02 -0.77356004051E+02 -0.23439697501E+02  0.82230648409E+02  0.47000000000E+01 0. -1.
        -13    1    4    4    0    0 -0.28909164673E+03 -0.90880614799E+03 -0.14963083282E+03  0.96534552413E+03  0.00000000000E+00 0.  1.
         14    1    4    4    0    0 -0.80925496826E+02 -0.15843304742E+03 -0.50131142396E+01  0.17797499225E+03  0.00000000000E+00 0. -1.
         -5    1    5    5    0  501  0.25032045042E+03  0.70450273671E+03 -0.99997858485E+03  0.12485846764E+04  0.47000000000E+01 0.  1.
         11    1    6    6    0    0  0.93030839602E+02  0.27135476827E+03 -0.27286274006E+03  0.39590683537E+03  0.00000000000E+00 0. -1.
        -12    1    6    6    0    0  0.12298572788E+02  0.16873769449E+03 -0.22697012721E+03  0.28308850750E+03  0.00000000000E+00 0.  1.
</event>
<event>
12    1  0.9656379E-001  0.2379039E+03  0.7818608E-02  0.1121197E+00
         -2   -1    0    0    0  501 -0.00000000000E+00  0.00000000000E+00  0.27782573663E+03  0.27782573663E+03  0.00000000000E+00 0.  1.
          2   -1    0    0  502    0  0.00000000000E+00 -0.00000000000E+00 -0.89050941223E+03  0.89050941223E+03  0.00000000000E+00 0. -1.
          6    2    1    2  502    0 -0.15558482338E+03 -0.54265469463E+02  0.20659280310E+03  0.31529224814E+03  0.17198033901E+03 0.  0.
         24    2    3    3    0    0 -0.12672711270E+03 -0.33434062981E+01  0.20926244384E+03  0.25651265165E+03  0.77052129077E+02 0.  0.
         -6    2    1    2    0  501  0.15558482338E+03  0.54265469463E+02 -0.81927647870E+03  0.85304290073E+03  0.17122167939E+03 0.  0.
        -24    2    5    5    0    0  0.62970988644E+02 -0.35568263894E+02 -0.39671755012E+03  0.41119953464E+03  0.80435041556E+02 0.  0.
          5    1    3    3  502    0 -0.28857710673E+02 -0.50922063165E+02 -0.26696407396E+01  0.58779596493E+02  0.47000000000E+01 0. -1.
        -11    1    4    4    0    0  0.21580261687E+01 -0.16318128926E+02  0.40875842817E+02  0.44065552698E+02  0.00000000000E+00 0.  1.
         12    1    4    4    0    0 -0.12888513887E+03  0.12974722628E+02  0.16838660102E+03  0.21244709895E+03  0.00000000000E+00 0. -1.
         -5    1    5    5    0  501  0.92613834731E+02  0.89833733357E+02 -0.42255892858E+03  0.44184336609E+03  0.47000000000E+01 0.  1.
         11    1    6    6    0    0 -0.10430061685E+02 -0.22129054002E+02 -0.18716806980E+03  0.18876007939E+03  0.00000000000E+00 0. -1.
        -12    1    6    6    0    0  0.73401050328E+02 -0.13439209892E+02 -0.20954948032E+03  0.22243945525E+03  0.00000000000E+00 0.  1.
</event>
<event>
12    1  0.9656379E-001  0.6106104E+03  0.7818608E-02  0.9883634E-01
          2   -1    0    0  502    0  0.00000000000E+00  0.00000000000E+00  0.27752079874E+03  0.27752079874E+03  0.00000000000E+00 0. -1.
         -2   -1    0    0    0  501 -0.00000000000E+00 -0.00000000000E+00 -0.17403649399E+04  0.17403649399E+04  0.00000000000E+00 0.  1.
          6    2    1    2  502    0  0.27620550268E+03  0.51683455462E+03 -0.12132026656E+04  0.13581850852E+04  0.17146014513E+03 0.  0.
         24    2    3    3    0    0  0.26208773133E+03  0.46674378175E+03 -0.11745938172E+04  0.12932148600E+04  0.78703887478E+02 0.  0.
         -6    2    1    2    0  501 -0.27620550268E+03 -0.51683455462E+03 -0.24964147556E+03  0.65970065340E+03  0.17168765017E+03 0.  0.
        -24    2    5    5    0    0 -0.17768262079E+03 -0.35703173479E+03 -0.98753291905E+02  0.41880018963E+03  0.81231845916E+02 0.  0.
          5    1    3    3  502    0  0.14117771350E+02  0.50090772874E+02 -0.38608848346E+02  0.64970225224E+02  0.47000000000E+01 0. -1.
        -11    1    4    4    0    0  0.12415309432E+03  0.14903636070E+03 -0.45403863699E+03  0.49373769505E+03  0.00000000000E+00 0.  1.
         12    1    4    4    0    0  0.13793463701E+03  0.31770742105E+03 -0.72055518025E+03  0.79947716495E+03  0.00000000000E+00 0. -1.
         -5    1    5    5    0  501 -0.98522881887E+02 -0.15980281983E+03 -0.15088818365E+03  0.24090046378E+03  0.47000000000E+01 0.  1.
         13    1    6    6    0    0 -0.88489818588E+02 -0.16463275742E+03 -0.87658972513E+02  0.20644245753E+03  0.00000000000E+00 0. -1.
        -14    1    6    6    0    0 -0.89192802203E+02 -0.19239897738E+03 -0.11094319392E+02  0.21235773210E+03  0.00000000000E+00 0.  1.
</event>
<event>
12    1  0.9656379E-001  0.1860327E+03  0.7818608E-02  0.1162089E+00
          2   -1    0    0  502    0  0.00000000000E+00  0.00000000000E+00  0.19344264515E+03  0.19344264515E+03  0.00000000000E+00 0. -1.
         -2   -1    0    0    0  501 -0.00000000000E+00 -0.00000000000E+00 -0.24095724785E+03  0.24095724785E+03  0.00000000000E+00 0.  1.
          6    2    1    2  502    0 -0.30249041444E+02  0.64698991168E+02 -0.13392249278E+03  0.22876563203E+03  0.17116517274E+03 0.  0.
         24    2    3    3    0    0  0.16608081544E+02  0.76597198058E+02 -0.14056307784E+03  0.17974171265E+03  0.80038398840E+02 0.  0.
         -6    2    1    2    0  501  0.30249041444E+02 -0.64698991168E+02  0.86407890076E+02  0.20563426097E+03  0.17238956422E+03 0.  0.
        -24    2    5    5    0    0  0.76210386989E+02 -0.76477961461E+02  0.43273051925E+02  0.14133889809E+03  0.80294616364E+02 0.  0.
          5    1    3    3  502    0 -0.46857122988E+02 -0.11898206890E+02  0.66405850670E+01  0.49023919385E+02  0.47000000000E+01 0. -1.
        -13    1    4    4    0    0 -0.12787083276E+02  0.67830879049E+02 -0.53194160561E+02  0.87144456904E+02  0.00000000000E+00 0.  1.
         14    1    4    4    0    0  0.29395164820E+02  0.87663190095E+01 -0.87368917284E+02  0.92597255743E+02  0.00000000000E+00 0. -1.
         -5    1    5    5    0  501 -0.45961345545E+02  0.11778970293E+02  0.43134838152E+02  0.64295362880E+02  0.47000000000E+01 0.  1.
         13    1    6    6    0    0  0.14822345129E+02 -0.66976575006E+02  0.39382217172E+02  0.79098182937E+02  0.00000000000E+00 0. -1.
        -14    1    6    6    0    0  0.61388041860E+02 -0.95013864556E+01  0.38908347527E+01  0.62240715156E+02  0.00000000000E+00 0.  1.
</event>
<event>
12    1  0.9656379E-001  0.4244692E+03  0.7818608E-02  0.1035621E+00
         -1   -1    0    0    0  501 -0.00000000000E+00  0.00000000000E+00  0.59315611248E+03  0.59315611248E+03  0.00000000000E+00 0.  1.
          1   -1    0    0  502    0  0.00000000000E+00 -0.00000000000E+00 -0.30540148529E+03  0.30540148529E+03  0.00000000000E+00 0. -1.
          6    2    1    2  502    0  0.41757977796E+02 -0.38579810942E+03  0.17697646595E+03  0.46019473309E+03  0.17284274044E+03 0.  0.
         24    2    3    3    0    0  0.47815288197E+02 -0.31512251313E+03  0.20117396177E+03  0.38509919578E+03  0.79005870862E+02 0.  0.
         -6    2    1    2    0  501 -0.41757977796E+02  0.38579810942E+03  0.11077816125E+03  0.43836286467E+03  0.17119080049E+03 0.  0.
        -24    2    5    5    0    0 -0.60416562517E+02  0.22148495249E+03  0.12254628583E+03  0.27250890758E+03  0.80856461325E+02 0.  0.
          5    1    3    3  502    0 -0.60573104017E+01 -0.70675596295E+02 -0.24197495818E+02  0.75095537316E+02  0.47000000000E+01 0. -1.
        -13    1    4    4    0    0  0.19023585184E+02 -0.28818464340E+03  0.18053792483E+03  0.34059686990E+03  0.00000000000E+00 0.  1.
         14    1    4    4    0    0  0.28791703013E+02 -0.26937869723E+02  0.20636036937E+02  0.44502325873E+02  0.00000000000E+00 0. -1.
         -5    1    5    5    0  501  0.18658584721E+02  0.16431315694E+03 -0.11768124581E+02  0.16585395709E+03  0.47000000000E+01 0.  1.
         11    1    6    6    0    0 -0.68442993781E+02  0.21032949686E+03  0.93035996030E+02  0.23995549005E+03  0.00000000000E+00 0. -1.
        -12    1    6    6    0    0  0.80264312646E+01  0.11155455620E+02  0.29510289797E+02  0.32553417529E+02  0.00000000000E+00 0.  1.
</event>
<event>
12    1  0.9656379E-001  0.5675924E+03  0.7818608E-02  0.9975021E-01
          2   -1    0    0  502    0  0.00000000000E+00  0.00000000000E+00  0.40450757693E+03  0.40450757693E+03  0.00000000000E+00 0. -1.
         -2   -1    0    0    0  501 -0.00000000000E+00 -0.00000000000E+00 -0.88104252347E+03  0.88104252347E+03  0.00000000000E+00 0.  1.
          6    2    1    2  502    0  0.19741886063E+03 -0.50331167195E+03 -0.43738375769E+03  0.71639628599E+03  0.17211113107E+03 0.  0.
         24    2    3    3    0    0  0.16917680014E+02 -0.16734644360E+03 -0.14506222464E+03  0.23584735035E+03  0.79308786181E+02 0.  0.
         -6    2    1    2    0  501 -0.19741886063E+03  0.50331167195E+03 -0.39151188856E+02  0.56915381441E+03  0.17351196849E+03 0.  0.
        -24    2    5    5    0    0 -0.10624660626E+03  0.17313766633E+03 -0.65212862694E+02  0.22560097305E+03  0.73335453494E+02 0.  0.
          5    1    3    3  502    0  0.18050118061E+03 -0.33596522836E+03 -0.29232153304E+03  0.48054893564E+03  0.47000000000E+01 0. -1.
        -11    1    4    4    0    0  0.32057270233E+02 -0.13024012811E+03 -0.14249223465E+03  0.19568903004E+03  0.00000000000E+00 0.  1.
         12    1    4    4    0    0 -0.15139590219E+02 -0.37106315488E+02 -0.25699899982E+01  0.40158320305E+02  0.00000000000E+00 0. -1.
         -5    1    5    5    0  501 -0.91172254366E+02  0.33017400563E+03  0.26061673838E+02  0.34355284135E+03  0.47000000000E+01 0.  1.
         11    1    6    6    0    0 -0.38492827937E+02  0.97078731239E+02  0.40927335206E+00  0.10443249191E+03  0.00000000000E+00 0. -1.
        -12    1    6    6    0    0 -0.67753778323E+02  0.76058935089E+02 -0.65622136046E+02  0.12116848115E+03  0.00000000000E+00 0.  1.
</event>
<event>
12    1  0.9656379E-001  0.6585617E+03  0.7818608E-02  0.9790845E-01
         -2   -1    0    0    0  501 -0.00000000000E+00  0.00000000000E+00  0.19005077413E+04  0.19005077413E+04  0.00000000000E+00 0.  1.
          2   -1    0    0  502    0  0.00000000000E+00 -0.00000000000E+00 -0.24076730444E+03  0.24076730444E+03  0.00000000000E+00 0. -1.
          6    2    1    2  502    0  0.58085781351E+03 -0.25876236787E+03  0.10742409777E+04  0.12599534955E+04  0.17069086119E+03 0.  0.
         24    2    3    3    0    0  0.51020026565E+03 -0.18923594153E+03  0.82294282956E+03  0.98976973897E+03  0.79339037250E+02 0.  0.
         -6    2    1    2    0  501 -0.58085781351E+03  0.25876236787E+03  0.58549945923E+03  0.88132155031E+03  0.17194271064E+03 0.  0.
        -24    2    5    5    0    0 -0.50780544431E+03  0.17390756573E+03  0.51975867349E+03  0.75139492871E+03  0.79593024398E+02 0.  0.
          5    1    3    3  502    0  0.70657547858E+02 -0.69526426335E+02  0.25129814810E+03  0.27018375648E+03  0.47000000000E+01 0. -1.
        -11    1    4    4    0    0  0.21574770259E+03 -0.44201927293E+02  0.36614618181E+03  0.42727497938E+03  0.00000000000E+00 0.  1.
         12    1    4    4    0    0  0.29445256306E+03 -0.14503401424E+03  0.45679664775E+03  0.56249475960E+03  0.00000000000E+00 0. -1.
         -5    1    5    5    0  501 -0.73052369196E+02  0.84854802133E+02  0.65740785743E+02  0.12992662160E+03  0.47000000000E+01 0.  1.
         13    1    6    6    0    0 -0.41219455281E+03  0.16301476884E+03  0.45614623699E+03  0.63604052838E+03  0.00000000000E+00 0. -1.
        -14    1    6    6    0    0 -0.95610891496E+02  0.10892796893E+02  0.63612436505E+02  0.11535440033E+03  0.00000000000E+00 0.  1.
</event>
<event>
12    1  0.9656379E-001  0.2437404E+03  0.7818608E-02  0.1117326E+00
         -1   -1    0    0    0  501 -0.00000000000E+00  0.00000000000E+00  0.19755383675E+02  0.19755383675E+02  0.00000000000E+00 0.  1.
          1   -1    0    0  502    0  0.00000000000E+00 -0.00000000000E+00 -0.30316790353E+04  0.30316790353E+04  0.00000000000E+00 0. -1.
          6    2    1    2  502    0  0.14703678156E+03 -0.87400396424E+02 -0.16377454996E+04  0.16556621598E+04  0.17247672737E+03 0.  0.
         24    2    3    3    0    0  0.44157670636E+02  0.16968296864E+02 -0.48849369767E+03  0.49709462622E+03  0.78988301551E+02 0.  0.
         -6    2    1    2    0  501 -0.14703678156E+03  0.87400396424E+02 -0.13741781520E+04  0.13957722592E+04  0.17480263605E+03 0.  0.
        -24    2    5    5    0    0 -0.14616534303E+03  0.71609031224E+02 -0.75867943363E+03  0.78005244549E+03  0.79969830901E+02 0.  0.
          5    1    3    3  502    0  0.10287911093E+03 -0.10436869329E+03 -0.11492518020E+04  0.11585675336E+04  0.47000000000E+01 0. -1.
        -11    1    4    4    0    0  0.13219407791E+02 -0.30073927027E+02 -0.24400362513E+03  0.24620512364E+03  0.00000000000E+00 0.  1.
         12    1    4    4    0    0  0.30938262846E+02  0.47042223892E+02 -0.24449007254E+03  0.25088950258E+03  0.00000000000E+00 0. -1.
         -5    1    5    5    0  501 -0.87143853540E+00  0.15791365200E+02 -0.61549871838E+03  0.61571981367E+03  0.47000000000E+01 0.  1.
         13    1    6    6    0    0 -0.10994242759E+03  0.57443425769E+02 -0.69054860019E+03  0.70160134960E+03  0.00000000000E+00 0. -1.
        -14    1    6    6    0    0 -0.36222915434E+02  0.14165605455E+02 -0.68130833442E+02  0.78451095888E+02  0.00000000000E+00 0.  1.
</event>
<event>
12    1  0.9656379E-001  0.5022974E+03  0.7818608E-02  0.1013181E+00
          2   -1    0    0  502    0  0.00000000000E+00  0.00000000000E+00  0.86053118501E+03  0.86053118501E+03  0.00000000000E+00 0. -1.
         -2   -1    0    0    0  501 -0.00000000000E+00 -0.00000000000E+00 -0.55399086432E+03  0.55399086432E+03  0.00000000000E+00 0.  1.
          6    2    1    2  502    0 -0.16388338701E+03  0.44460391736E+03  0.63882810613E+03  0.81379562679E+03  0.17213821522E+03 0.  0.
         24    2    3    3    0    0 -0.16122581349E+03  0.35043732654E+03  0.42324881514E+03  0.57848534179E+03  0.81888023424E+02 0.  0.
         -6    2    1    2    0  501  0.16388338701E+03 -0.44460391736E+03 -0.33228778544E+03  0.60072642253E+03  0.16101755964E+03 0.  0.
        -24    2    5    5    0    0  0.15877296798E+03 -0.34098389114E+03 -0.20247842775E+03  0.43448627828E+03  0.79384777724E+02 0.  0.
          5    1    3    3  502    0 -0.26575735137E+01  0.94166590816E+02  0.21557929099E+03  0.23531028500E+03  0.47000000000E+01 0. -1.
        -11    1    4    4    0    0 -0.62436158357E+02  0.22628730690E+03  0.27194659250E+03  0.35924805958E+03  0.00000000000E+00 0.  1.
         12    1    4    4    0    0 -0.98789655134E+02  0.12415001964E+03  0.15130222263E+03  0.21923728221E+03  0.00000000000E+00 0. -1.
         -5    1    5    5    0  501  0.51104190239E+01 -0.10362002621E+03 -0.12980935769E+03  0.16624014425E+03  0.47000000000E+01 0.  1.
         11    1    6    6    0    0  0.12737126731E+03 -0.18977051305E+03 -0.13905801268E+03  0.26753208826E+03  0.00000000000E+00 0. -1.
        -12    1    6    6    0    0  0.31401700675E+02 -0.15121337809E+03 -0.63420415071E+02  0.16695419003E+03  0.00000000000E+00 0.  1.
</event>
<event>
12    1  0.9656379E-001  0.4718929E+03  0.7818608E-02  0.1021387E+00
          2   -1    0    0  502    0  0.00000000000E+00  0.00000000000E+00  0.11972334546E+04  0.11972334546E+04  0.00000000000E+00 0. -1.
         -2   -1    0    0    0  501 -0.00000000000E+00 -0.00000000000E+00 -0.26655342288E+03  0.26655342288E+03  0.00000000000E+00 0.  1.
          6    2    1    2  502    0 -0.16301288464E+03  0.40885335968E+03  0.63547341367E+02  0.47695240963E+03  0.17236898264E+03 0.  0.
         24    2    3    3    0    0 -0.15856969653E+03  0.24634465141E+03  0.24656126392E+01  0.30322305181E+03  0.78154359861E+02 0.  0.
         -6    2    1    2    0  501  0.16301288464E+03 -0.40885335968E+03  0.86713269032E+03  0.98683446781E+03  0.16789548526E+03 0.  0.
        -24    2    5    5    0    0  0.68390507466E+02 -0.14457034524E+03  0.35296289354E+03  0.40100891707E+03  0.10318672939E+03 0.  0.
          5    1    3    3  502    0 -0.44431881047E+01  0.16250870827E+03  0.61081728728E+02  0.17372935782E+03  0.47000000000E+01 0. -1.
        -13    1    4    4    0    0 -0.74738312717E+02  0.17916095345E+03 -0.13586608917E+02  0.19459973939E+03  0.00000000000E+00 0.  1.
         14    1    4    4    0    0 -0.83831383815E+02  0.67183697965E+02  0.16052221557E+02  0.10862331242E+03  0.00000000000E+00 0. -1.
         -5    1    5    5    0  501  0.94622377171E+02 -0.26428301445E+03  0.51416979678E+03  0.58582555075E+03  0.47000000000E+01 0.  1.
         13    1    6    6    0    0 -0.19016336858E+02  0.24287653158E+01  0.31205783284E+02  0.36624047822E+02  0.00000000000E+00 0. -1.
        -14    1    6    6    0    0  0.87406844324E+02 -0.14699911055E+03  0.32175711025E+03  0.36438486925E+03  0.00000000000E+00 0.  1.
</event>
<event>
12    1  0.9656379E-001  0.1895838E+03  0.7818608E-02  0.1158837E+00
         -1   -1    0    0    0  501 -0.00000000000E+00  0.00000000000E+00  0.41814900326E+02  0.41814900326E+02  0.00000000000E+00 0.  1.
          1   -1    0    0  502    0  0.00000000000E+00 -0.00000000000E+00 -0.10036706325E+04  0.10036706325E+04  0.00000000000E+00 0. -1.
          6    2    1    2  502    0  0.16707543167E+02  0.79454921571E+02 -0.28051377310E+03  0.33796783203E+03  0.17012363747E+03 0.  0.
         24    2    3    3    0    0  0.65438851247E+01  0.74987493806E+02 -0.29736704710E+03  0.31724632870E+03  0.80945201898E+02 0.  0.
         -6    2    1    2    0  501 -0.16707543167E+02 -0.79454921571E+02 -0.68134195907E+03  0.70751770080E+03  0.17251726056E+03 0.  0.
        -24    2    5    5    0    0 -0.12548003313E+02  0.23727329574E+02 -0.37003080888E+03  0.37949239543E+03  0.79820048348E+02 0.  0.
          5    1    3    3  502    0  0.10163658043E+02  0.44674277647E+01  0.16853274001E+02  0.20721503328E+02  0.47000000000E+01 0. -1.
        -13    1    4    4    0    0 -0.67594820505E+01  0.55525197548E+02 -0.74629456760E+02  0.93264644837E+02  0.00000000000E+00 0.  1.
         14    1    4    4    0    0  0.13303367175E+02  0.19462296259E+02 -0.22273759034E+03  0.22398168386E+03  0.00000000000E+00 0. -1.
         -5    1    5    5    0  501 -0.41595398538E+01 -0.10318225115E+03 -0.31131115019E+03  0.32802530536E+03  0.47000000000E+01 0.  1.
         13    1    6    6    0    0 -0.25482419467E+02 -0.13224532559E+02 -0.27802459585E+03  0.27950298364E+03  0.00000000000E+00 0. -1.
        -14    1    6    6    0    0  0.12934416154E+02  0.36951862133E+02 -0.92006213026E+02  0.99989411799E+02  0.00000000000E+00 0.  1.
</event>
<event>
12    1  0.9656379E-001  0.5499609E+03  0.7818608E-02  0.1001503E+00
         -2   -1    0    0    0  501 -0.00000000000E+00  0.00000000000E+00  0.49787434929E+03  0.49787434929E+03  0.00000000000E+00 0.  1.
          2   -1    0    0  502    0  0.00000000000E+00 -0.00000000000E+00 -0.23229787124E+04  0.23229787124E+04  0.00000000000E+00 0. -1.
          6    2    1    2  502    0  0.51525415385E+03 -0.85079976807E+02  0.30019632835E+03  0.62514338626E+03  0.16721534716E+03 0.  0.
         24    2    3    3    0    0  0.39930881031E+03 -0.10294752741E+03  0.28375310487E+03  0.50658942534E+03  0.77918559736E+02 0.  0.
         -6    2    1    2    0  501 -0.51525415385E+03  0.85079976807E+02 -0.21253006915E+04  0.21957096754E+04  0.17751761650E+03 0.  0.
        -24    2    5    5    0    0 -0.28138586479E+03 -0.22267863109E+02 -0.11881368687E+04  0.12238475164E+04  0.80372023402E+02 0.  0.
          5    1    3    3  502    0  0.11594534354E+03  0.17867550607E+02  0.16443223480E+02  0.11855396092E+03  0.47000000000E+01 0. -1.
        -11    1    4    4    0    0  0.19230851681E+03 -0.26178694030E+02  0.17109209687E+03  0.25872841991E+03  0.00000000000E+00 0.  1.
         12    1    4    4    0    0  0.20700029350E+03 -0.76768833384E+02  0.11266100800E+03  0.24786100543E+03  0.00000000000E+00 0. -1.
         -5    1    5    5    0  501 -0.23386828906E+03  0.10734783992E+03 -0.93716382281E+03  0.97186215902E+03  0.47000000000E+01 0.  1.
         11    1    6    6    0    0 -0.14493244656E+03  0.22171280119E+02 -0.69260830364E+03  0.70795709051E+03  0.00000000000E+00 0. -1.
        -12    1    6    6    0    0 -0.13645341823E+03 -0.44439143228E+02 -0.49552856502E+03  0.51589042591E+03  0.00000000000E+00 0.  1.
</event>
<event>
12    1  0.9656379E-001  0.3616324E+03  0.7818608E-02  0.1057939E+00
         -1   -1    0    0    0  501 -0.00000000000E+00  0.00000000000E+00  0.42054394034E+03  0.42054394034E+03  0.00000000000E+00 0.  1.
          1   -1    0    0  502    0  0.00000000000E+00 -0.00000000000E+00 -0.11972223410E+04  0.11972223410E+04  0.00000000000E+00 0. -1.
          6    2    1    2  502    0 -0.29537842696E+03  0.12483659676E+03  0.30822648343E+03  0.47346211494E+03  0.16226588735E+03 0.  0.
         24    2    3    3    0    0 -0.21526377543E+03  0.15023315713E+03  0.22232472746E+03  0.35319348085E+03  0.80055330617E+02 0.  0.
         -6    2    1    2    0  501  0.29537842696E+03 -0.12483659676E+03 -0.10849048841E+04  0.11443041664E+04  0.17199077505E+03 0.  0.
        -24    2    5    5    0    0  0.13323662513E+03 -0.44021261654E+02 -0.33316161336E+03  0.37102471020E+03  0.83503324521E+02 0.  0.
          5    1    3    3  502    0 -0.80114651535E+02 -0.25396560372E+02  0.85901755967E+02  0.12026863410E+03  0.47000000000E+01 0. -1.
        -11    1    4    4    0    0 -0.18137095928E+03  0.88341658859E+02  0.18319126696E+03  0.27250452079E+03  0.00000000000E+00 0.  1.
         12    1    4    4    0    0 -0.33892816145E+02  0.61891498268E+02  0.39133460502E+02  0.80688960056E+02  0.00000000000E+00 0. -1.
         -5    1    5    5    0  501  0.16214180183E+03 -0.80815335101E+02 -0.75174327076E+03  0.77327945623E+03  0.47000000000E+01 0.  1.
         13    1    6    6    0    0  0.49130952395E+02  0.76972477557E+01 -0.19479455051E+03  0.20104232145E+03  0.00000000000E+00 0. -1.
        -14    1    6    6    0    0  0.84105672736E+02 -0.51718509410E+02 -0.13836706285E+03  0.16998238875E+03  0.00000000000E+00 0.  1.
</event>
<event>
12    1  0.9656379E-001  0.3489700E+03  0.7818608E-02  0.1063039E+00
          2   -1    0    0  502    0  0.00000000000E+00  0.00000000000E+00  0.93598545332E+03  0.93598545332E+03  0.00000000000E+00 0. -1.
         -2   -1    0    0    0  501 -0.00000000000E+00 -0.00000000000E+00 -0.19966814262E+03  0.19966814262E+03  0.00000000000E+00 0.  1.
          6    2    1    2  502    0  0.10245163669E+03 -0.28491856985E+03  0.32688997254E+02  0.35003357665E+03  0.17256884114E+03 0.  0.
         24    2    3    3    0    0  0.68002842080E+02 -0.21433016940E+03  0.86648433132E+02  0.25462313462E+03  0.82238565601E+02 0.  0.
         -6    2    1    2    0  501 -0.10245163669E+03  0.28491856985E+03  0.70362831345E+03  0.78562001929E+03  0.17444506847E+03 0.  0.
        -24    2    5    5    0    0 -0.73246160161E+01  0.17265224056E+03  0.31145745355E+03  0.36672510155E+03  0.87287505196E+02 0.  0.
          5    1    3    3  502    0  0.34448794607E+02 -0.70588400446E+02 -0.53959435878E+02  0.95410442026E+02  0.47000000000E+01 0. -1.
        -11    1    4    4    0    0  0.72761480334E+02 -0.13629172078E+03  0.28303721001E+02  0.15706930571E+03  0.00000000000E+00 0.  1.
         12    1    4    4    0    0 -0.47586382532E+01 -0.78038448626E+02  0.58344712131E+02  0.97553828913E+02  0.00000000000E+00 0. -1.
         -5    1    5    5    0  501 -0.95127020671E+02  0.11226632928E+03  0.39217085990E+03  0.41889491774E+03  0.47000000000E+01 0.  1.
         13    1    6    6    0    0 -0.18252304286E+02  0.79338506719E+02  0.22412419059E+03  0.23845208758E+03  0.00000000000E+00 0. -1.
        -14    1    6    6    0    0  0.10927688270E+02  0.93313733845E+02  0.87333262951E+02  0.12827301397E+03  0.00000000000E+00 0.  1.
</event>
<event>
12    1  0.9656379E-001  0.6710795E+03  0.7818608E-02  0.9768010E-01
         -1   -1    0    0    0  501 -0.00000000000E+00  0.00000000000E+00  0.64422502385E+03  0.64422502385E+03  0.00000000000E+00 0.  1.
          1   -1    0    0  502    0  0.00000000000E+00 -0.00000000000E+00 -0.73469440138E+03  0.73469440138E+03  0.00000000000E+00 0. -1.
          6    2    1    2  502    0 -0.42760540861E+03  0.48768414823E+03  0.10660729085E+03  0.67970044272E+03  0.17304728679E+03 0.  0.
         24    2    3    3    0    0 -0.14894441436E+03  0.26611746509E+03  0.44511934243E+02  0.31828424482E+03  0.79502228999E+02 0.  0.
         -6    2    1    2    0  501  0.42760540861E+03 -0.48768414823E+03 -0.19707666838E+03  0.69921898251E+03  0.17142274756E+03 0.  0.
        -24    2    5    5    0    0  0.29251841764E+03 -0.27776052759E+03 -0.18102102401E+03  0.44902646594E+03  0.78346797250E+02 0.  0.
          5    1    3    3  502    0 -0.27866099425E+03  0.22156668313E+03  0.62095356603E+02  0.36141619790E+03  0.47000000000E+01 0. -1.
        -11    1    4    4    0    0 -0.54059029612E+02  0.33928216355E+02  0.18322805889E+01  0.63850292088E+02  0.00000000000E+00 0.  1.
         12    1    4    4    0    0 -0.94885384751E+02  0.23218924873E+03  0.42679653654E+02  0.25443395273E+03  0.00000000000E+00 0. -1.
         -5    1    5    5    0  501  0.13508699097E+03 -0.20992362063E+03 -0.16055644368E+02  0.25019251657E+03  0.47000000000E+01 0.  1.
         11    1    6    6    0    0  0.28178248887E+03 -0.25501455459E+03 -0.14876617400E+03  0.40812396231E+03  0.00000000000E+00 0. -1.
        -12    1    6    6    0    0  0.10735928768E+02 -0.22745973007E+02 -0.32254850009E+02  0.40902503635E+02  0.00000000000E+00 0.  1.
</event>
<event>
12    1  0.9656379E-001  0.4575258E+03  0.7818608E-02  0.1025501E+00
         -1   -1    0    0    0  501 -0.00000000000E+00  0.00000000000E+00  0.44725036287E+03  0.44725036287E+03  0.00000000000E+00 0.  1.
          1   -1    0    0  502    0  0.00000000000E+00 -0.00000000000E+00 -0.34971500716E+04  0.34971500716E+04  0.00000000000E+00 0. -1.
          6    2    1    2  502    0  0.42087212711E+03  0.42483232307E+02  0.31082856438E+03  0.55258356854E+03  0.17261526983E+03 0.  0.
         24    2    3    3    0    0  0.38556563090E+03  0.67985134370E+02  0.23399464449E+03  0.46413902699E+03  0.85957597096E+02 0.  0.
         -6    2    1    2    0  501 -0.42087212711E+03 -0.42483232307E+02 -0.33607282731E+04  0.33918168659E+04  0.17603679727E+03 0.  0.
        -24    2    5    5    0    0 -0.23469894492E+03 -0.42941511240E+02 -0.24050789338E+04  0.24181904419E+04  0.79452926634E+02 0.  0.
          5    1    3    3  502    0  0.35306496209E+02 -0.25501902063E+02  0.76833919892E+02  0.88444541547E+02  0.47000000000E+01 0. -1.
        -11    1    4    4    0    0  0.23521635761E+03  0.15275486859E+02  0.17760459598E+03  0.29513296647E+03  0.00000000000E+00 0.  1.
         12    1    4    4    0    0  0.15034927330E+03  0.52709647512E+02  0.56390048501E+02  0.16900606052E+03  0.00000000000E+00 0. -1.
         -5    1    5    5    0  501 -0.18617318220E+03  0.45827893257E+00 -0.95564933929E+03  0.97362642398E+03  0.47000000000E+01 0.  1.
         13    1    6    6    0    0 -0.10742432329E+02 -0.14972367075E+02 -0.40473203168E+03  0.40515131630E+03  0.00000000000E+00 0. -1.
        -14    1    6    6    0    0 -0.22395651259E+03 -0.27969144165E+02 -0.20003469021E+04  0.20130391256E+04  0.00000000000E+00 0.  1.
</event>
<event>
12    1  0.9656379E-001  0.4276657E+03  0.7818608E-02  0.1034600E+00
          2   -1    0    0  502    0  0.00000000000E+00  0.00000000000E+00  0.39074027284E+03  0.39074027284E+03  0.00000000000E+00 0. -1.
         -2   -1    0    0    0  501 -0.00000000000E+00 -0.00000000000E+00 -0.14054821076E+04  0.14054821076E+04  0.00000000000E+00 0.  1.
          6    2    1    2  502    0  0.13349495714E+03 -0.36853039172E+03 -0.12408217187E+04  0.13124414326E+04  0.17096322236E+03 0.  0.
         24    2    3    3    0    0  0.43010962422E+02 -0.26618209348E+03 -0.95788304866E+03  0.99821395384E+03  0.78665830852E+02 0.  0.
         -6    2    1    2    0  501 -0.13349495714E+03  0.36853039172E+03  0.22607988392E+03  0.48378094777E+03  0.17116173144E+03 0.  0.
        -24    2    5    5    0    0 -0.15686434020E+03  0.31331150334E+03  0.22408954518E+03  0.42360366679E+03  0.80333199269E+02 0.  0.
          5    1    3    3  502    0  0.90483994721E+02 -0.10234829824E+03 -0.28293867001E+03  0.31422747881E+03  0.47000000000E+01 0. -1.
        -13    1    4    4    0    0  0.30821654872E+02 -0.72508523909E+02 -0.17994548747E+03  0.19643787545E+03  0.00000000000E+00 0.  1.
         14    1    4    4    0    0  0.12189307550E+02 -0.19367356957E+03 -0.77793756119E+03  0.80177607839E+03  0.00000000000E+00 0. -1.
         -5    1    5    5    0  501  0.23369383057E+02  0.55218888378E+02  0.19903387403E+01  0.60177280983E+02  0.47000000000E+01 0.  1.
         13    1    6    6    0    0 -0.10092392938E+03  0.12343821793E+03  0.12279099655E+03  0.20124676892E+03  0.00000000000E+00 0. -1.
        -14    1    6    6    0    0 -0.55940410822E+02  0.18987328541E+03  0.10129854864E+03  0.22235689787E+03  0.00000000000E+00 0.  1.
</event>
<event>
12    1  0.9656379E-001  0.1393396E+04  0.7818608E-02  0.8958613E-01
          2   -1    0    0  502    0  0.00000000000E+00  0.00000000000E+00  0.17558769243E+04  0.17558769243E+04  0.00000000000E+00 0. -1.
         -2   -1    0    0    0  501 -0.00000000000E+00 -0.00000000000E+00 -0.11354169095E+04  0.11354169095E+04  0.00000000000E+00 0.  1.
          6    2    1    2  502    0  0.11718324748E+04  0.73356666611E+03  0.54398204818E+03  0.14960501170E+04  0.17589224344E+03 0.  0.
         24    2    3    3    0    0  0.27983509035E+03  0.14579210879E+03  0.12752021823E+03  0.34948969128E+03  0.79489757049E+02 0.  0.
         -6    2    1    2    0  501 -0.11718324748E+04 -0.73356666611E+03  0.76477966538E+02  0.13952437168E+04  0.17188585501E+03 0.  0.
        -24    2    5    5    0    0 -0.56950255420E+03 -0.30741811318E+03 -0.12397743412E+02  0.65205807088E+03  0.78657283236E+02 0.  0.
          5    1    3    3  502    0  0.89199738446E+03  0.58777455732E+03  0.41646182995E+03  0.11465604258E+04  0.47000000000E+01 0. -1.
        -13    1    4    4    0    0  0.23581827844E+03  0.14881771637E+03  0.94665880615E+02  0.29448022362E+03  0.00000000000E+00 0.  1.
         14    1    4    4    0    0  0.44016811906E+02 -0.30256075733E+01  0.32854337618E+02  0.55009467657E+02  0.00000000000E+00 0. -1.
         -5    1    5    5    0  501 -0.60232992061E+03 -0.42614855294E+03  0.88875709950E+02  0.74318564588E+03  0.47000000000E+01 0.  1.
         13    1    6    6    0    0 -0.21447855442E+03 -0.73240809966E+02 -0.43464201733E+01  0.22668074007E+03  0.00000000000E+00 0. -1.
        -14    1    6    6    0    0 -0.35502399978E+03 -0.23417730321E+03 -0.80513232387E+01  0.42537733081E+03  0.00000000000E+00 0.  1.
</event>
<event>
12    1  0.9656379E-001  0.2782088E+03  0.7818608E-02  0.1096671E+00
         -3   -1    0    0    0  501 -0.00000000000E+00  0.00000000000E+00  0.96413540395E+03  0.96413540395E+03  0.00000000000E+00 0.  1.
          3   -1    0    0  502    0  0.00000000000E+00 -0.00000000000E+00 -0.20836151271E+03  0.20836151271E+03  0.00000000000E+00 0. -1.
          6    2    1    2  502    0 -0.50035235019E+02 -0.20891334775E+03  0.83837455522E+03  0.88384819617E+03  0.17935280153E+03 0.  0.
         24    2    3    3    0    0  0.41608547996E+02 -0.82413263538E+02  0.33993275712E+03  0.36148130368E+03  0.81186429134E+02 0.  0.
         -6    2    1    2    0  501  0.50035235019E+02  0.20891334775E+03 -0.82600663987E+02  0.28864872049E+03  0.17420362378E+03 0.  0.
        -24    2    5    5    0    0  0.94304183097E+02  0.10309589462E+03 -0.58119959758E+02  0.17126700117E+03  0.80202328709E+02 0.  0.
          5    1    3    3  502    0 -0.91643783015E+02 -0.12650008421E+03  0.49844179810E+03  0.52236689249E+03  0.47000000000E+01 0. -1.
        -11    1    4    4    0    0  0.55853629503E+02 -0.20983844113E+02  0.15457513009E+03  0.16569073747E+03  0.00000000000E+00 0.  1.
         12    1    4    4    0    0 -0.14245081507E+02 -0.61429419425E+02  0.18535762703E+03  0.19579056621E+03  0.00000000000E+00 0. -1.
         -5    1    5    5    0  501 -0.44268948078E+02  0.10581745313E+03 -0.24480704229E+02  0.11738171932E+03  0.47000000000E+01 0.  1.
         13    1    6    6    0    0 -0.13487511454E+02  0.66780461139E+01  0.87415823585E+00  0.15075590130E+02  0.00000000000E+00 0. -1.
        -14    1    6    6    0    0  0.10779169455E+03  0.96417848504E+02 -0.58994117994E+02  0.15619141104E+03  0.00000000000E+00 0.  1.
</event>
<event>
12    1  0.9656379E-001  0.6513374E+03  0.7818608E-02  0.9804273E-01
          1   -1    0    0  502    0  0.00000000000E+00  0.00000000000E+00  0.12722767806E+04  0.12722767806E+04  0.00000000000E+00 0. -1.
         -1   -1    0    0    0  501 -0.00000000000E+00 -0.00000000000E+00 -0.39399850906E+03  0.39399850906E+03  0.00000000000E+00 0.  1.
          6    2    1    2  502    0 -0.46076723162E+03  0.42633980418E+03  0.76561819961E+03  0.10050503845E+04  0.17286693585E+03 0.  0.
         24    2    3    3    0    0 -0.33810658022E+03  0.29983192808E+03  0.64440621391E+03  0.79112443100E+03  0.80020323135E+02 0.  0.
         -6    2    1    2    0  501  0.46076723162E+03 -0.42633980418E+03  0.11266007194E+03  0.66122490513E+03  0.17451078186E+03 0.  0.
        -24    2    5    5    0    0  0.17719060114E+03 -0.25346831293E+03  0.56641163304E+02  0.32438597334E+03  0.79845748329E+02 0.  0.
          5    1    3    3  502    0 -0.12266065140E+03  0.12650787610E+03  0.12121198570E+03  0.21392595353E+03  0.47000000000E+01 0. -1.
        -11    1    4    4    0    0 -0.42414948918E+02  0.70974569368E+02  0.87958939299E+02  0.12071947809E+03  0.00000000000E+00 0.  1.
         12    1    4    4    0    0 -0.29569163130E+03  0.22885735872E+03  0.55644727461E+03  0.67040495291E+03  0.00000000000E+00 0. -1.
         -5    1    5    5    0  501  0.28357663048E+03 -0.17287149125E+03  0.56018908632E+02  0.33683893179E+03  0.47000000000E+01 0.  1.
         13    1    6    6    0    0  0.58459891974E+02 -0.63672306860E+02  0.51161394222E+02  0.10044505906E+03  0.00000000000E+00 0. -1.
        -14    1    6    6    0    0  0.11873070916E+03 -0.18979600607E+03  0.54797690820E+01  0.22394091428E+03  0.00000000000E+00 0.  1.
</event>
<event>
12    1  0.9656379E-001  0.2590014E+03  0.7818608E-02  0.1107745E+00
          1   -1    0    0  502    0  0.00000000000E+00  0.00000000000E+00  0.51389382801E+02  0.51389382801E+02  0.00000000000E+00 0. -1.
         -1   -1    0    0    0  501 -0.00000000000E+00 -0.00000000000E+00 -0.21917982670E+04  0.21917982670E+04  0.00000000000E+00 0.  1.
          6    2    1    2  502    0 -0.17595241892E+03  0.77151394703E+02 -0.17816557639E+04  0.18002768487E+04  0.17259165518E+03 0.  0.
         24    2    3    3    0    0 -0.59217798937E+02  0.70579570265E+02 -0.58743206952E+03  0.60033414897E+03  0.82682710815E+02 0.  0.
         -6    2    1    2    0  501  0.17595241892E+03 -0.77151394703E+02 -0.35875312027E+03  0.44291080109E+03  0.17479869848E+03 0.  0.
        -24    2    5    5    0    0  0.29533924102E+02 -0.36554389723E+02 -0.21317815772E+03  0.23243360005E+03  0.79824654226E+02 0.  0.
          5    1    3    3  502    0 -0.11673461998E+03  0.65718244376E+01 -0.11942236944E+04  0.11999426997E+04  0.47000000000E+01 0. -1.
        -11    1    4    4    0    0 -0.30350586881E+02 -0.13261231150E+01 -0.33255116037E+03  0.33393590851E+03  0.00000000000E+00 0.  1.
         12    1    4    4    0    0 -0.28867212055E+02  0.71905693380E+02 -0.25488090915E+03  0.26639824047E+03  0.00000000000E+00 0. -1.
         -5    1    5    5    0  501  0.14641849481E+03 -0.40597004980E+02 -0.14557496255E+03  0.21047720104E+03  0.47000000000E+01 0.  1.
         13    1    6    6    0    0 -0.20610648854E+02 -0.79946763211E+01 -0.16839422537E+02  0.27789923480E+02  0.00000000000E+00 0. -1.
        -14    1    6    6    0    0  0.50144572956E+02 -0.28559713402E+02 -0.19633873518E+03  0.20464367657E+03  0.00000000000E+00 0.  1.
</event>
<event>
12    1  0.9656379E-001  0.7030281E+03  0.7818608E-02  0.9712068E-01
         -1   -1    0    0    0  501 -0.00000000000E+00  0.00000000000E+00  0.29320873208E+03  0.29320873208E+03  0.00000000000E+00 0.  1.
          1   -1    0    0  502    0  0.00000000000E+00 -0.00000000000E+00 -0.16938238143E+04  0.16938238143E+04  0.00000000000E+00 0. -1.
          6    2    1    2  502    0 -0.95758330902E+02 -0.67475819469E+03 -0.63097269539E+03  0.94440313155E+03  0.17117959378E+03 0.  0.
         24    2    3    3    0    0 -0.63504337306E+02 -0.33832132545E+03 -0.23707661222E+03  0.42535949040E+03  0.78938304409E+02 0.  0.
         -6    2    1    2    0  501  0.95758330902E+02  0.67475819469E+03 -0.76964238687E+03  0.10426294149E+04  0.17394945770E+03 0.  0.
        -24    2    5    5    0    0  0.68962180306E+02  0.64710030527E+03 -0.75779566107E+03  0.10020655461E+04  0.79915626900E+02 0.  0.
          5    1    3    3  502    0 -0.32253993595E+02 -0.33643686924E+03 -0.39389608316E+03  0.51904364115E+03  0.47000000000E+01 0. -1.
        -11    1    4    4    0    0 -0.78383400836E+02 -0.25734538112E+03 -0.19915829243E+03  0.33471574232E+03  0.00000000000E+00 0.  1.
         12    1    4    4    0    0  0.14879063530E+02 -0.80975944328E+02 -0.37918319793E+02  0.90643748087E+02  0.00000000000E+00 0. -1.
         -5    1    5    5    0  501  0.26796150595E+02  0.27657889423E+02 -0.11846725796E+02  0.40563868727E+02  0.47000000000E+01 0.  1.
         11    1    6    6    0    0  0.47085187418E+02  0.39703439891E+03 -0.40522263823E+03  0.56926155265E+03  0.00000000000E+00 0. -1.
        -12    1    6    6    0    0  0.21876992889E+02  0.25006590636E+03 -0.35257302285E+03  0.43280399349E+03  0.00000000000E+00 0.  1.
</event>
<event>
12    1  0.9656379E-001  0.3052751E+03  0.7818608E-02  0.1082633E+00
          2   -1    0    0  502    0  0.00000000000E+00  0.00000000000E+00  0.65152064108E+03  0.65152064108E+03  0.00000000000E+00 0. -1.
         -2   -1    0    0    0  501 -0.00000000000E+00 -0.00000000000E+00 -0.21516094962E+03  0.21516094962E+03  0.00000000000E+00 0.  1.
          6    2    1    2  502    0 -0.11534536957E+03  0.22499549588E+03 -0.32439196225E+02  0.30755678064E+03  0.17207947123E+03 0.  0.
         24    2    3    3    0    0 -0.94877463890E+02  0.19470160964E+03 -0.83238680036E+02  0.24479268054E+03  0.78002106639E+02 0.  0.
         -6    2    1    2    0  501  0.11534536957E+03 -0.22499549588E+03  0.46879888769E+03  0.55912481006E+03  0.17006066175E+03 0.  0.
        -24    2    5    5    0    0  0.60153090210E+02 -0.20708003313E+03  0.42537758137E+03  0.48649801508E+03  0.96092130596E+02 0.  0.
          5    1    3    3  502    0 -0.20467905676E+02  0.30293886238E+02  0.50799483811E+02  0.62764100102E+02  0.47000000000E+01 0. -1.
        -11    1    4    4    0    0 -0.58209919262E+02  0.16311964851E+03 -0.35460425385E+02  0.17678760194E+03  0.00000000000E+00 0.  1.
         12    1    4    4    0    0 -0.36667544627E+02  0.31581961130E+02 -0.47778254651E+02  0.68005078599E+02  0.00000000000E+00 0. -1.
         -5    1    5    5    0  501  0.55192279355E+02 -0.17915462751E+02  0.43421306316E+02  0.72626794974E+02  0.47000000000E+01 0.  1.
         11    1    6    6    0    0  0.74305167770E+02 -0.10897355868E+03  0.29120503385E+03  0.31968244585E+03  0.00000000000E+00 0. -1.
        -12    1    6    6    0    0 -0.14152077559E+02 -0.98106474447E+02  0.13417254753E+03  0.16681556923E+03  0.00000000000E+00 0.  1.
</event>
<event>
12    1  0.9656379E-001  0.8005664E+03  0.7818608E-02  0.9559198E-01
          1   -1    0    0  502    0  0.00000000000E+00  0.00000000000E+00  0.21798998520E+04  0.21798998520E+04  0.00000000000E+00 0. -1.
         -1   -1    0    0    0  501 -0.00000000000E+00 -0.00000000000E+00 -0.17312236431E+04  0.17312236431E+04  0.00000000000E+00 0.  1.
          6    2    1    2  502    0 -0.68835074497E+03 -0.37084336204E+03 -0.15574496520E+04  0.17511601021E+04  0.17193236299E+03 0.  0.
         24    2    3    3    0    0 -0.24121785813E+03 -0.11499294738E+03 -0.68381589030E+03  0.73693858156E+03  0.63756318381E+02 0.  0.
         -6    2    1    2    0  501  0.68835074497E+03  0.37084336204E+03  0.20061258609E+04  0.21599633930E+04  0.17189922072E+03 0.  0.
        -24    2    5    5    0    0  0.55401622396E+03  0.35735105035E+03  0.17122778708E+04  0.18365495138E+04  0.79905319104E+02 0.  0.
          5    1    3    3  502    0 -0.44713288684E+03 -0.25585041465E+03 -0.87363376171E+03  0.10142215206E+04  0.47000000000E+01 0. -1.
        -11    1    4    4    0    0 -0.55382722195E+02 -0.26691307418E+01 -0.17930166337E+03  0.18767913220E+03  0.00000000000E+00 0.  1.
         12    1    4    4    0    0 -0.18583513593E+03 -0.11232381664E+03 -0.50451422693E+03  0.54925944936E+03  0.00000000000E+00 0. -1.
         -5    1    5    5    0  501  0.13433452101E+03  0.13492311682E+02  0.29384799010E+03  0.32341387926E+03  0.47000000000E+01 0.  1.
         11    1    6    6    0    0  0.51290000391E+03  0.32453744206E+03  0.16249078589E+04  0.17345652237E+04  0.00000000000E+00 0. -1.
        -12    1    6    6    0    0  0.41116220054E+02  0.32813608290E+02  0.87370011924E+02  0.10198429009E+03  0.00000000000E+00 0.  1.
</event>
<event>
12    1  0.9656379E-001  0.8009224E+03  0.7818608E-02  0.9558683E-01
         -2   -1    0    0    0  501 -0.00000000000E+00  0.00000000000E+00  0.90074845942E+03  0.90074845942E+03  0.00000000000E+00 0.  1.
          2   -1    0    0  502    0  0.00000000000E+00 -0.00000000000E+00 -0.14618235373E+04  0.14618235373E+04  0.00000000000E+00 0. -1.
          6    2    1    2  502    0 -0.74544792251E+02  0.77862981110E+03  0.56539406167E+03  0.98043345809E+03  0.17250510713E+03 0.  0.
         24    2    3    3    0    0 -0.65446806012E+02  0.78226944114E+03  0.56297733447E+03  0.96930013735E+03  0.79815500906E+02 0.  0.
         -6    2    1    2    0  501  0.74544792251E+02 -0.77862981110E+03 -0.11264691396E+04  0.13821385387E+04  0.17190959502E+03 0.  0.
        -24    2    5    5    0    0  0.68106109931E+02 -0.49625427543E+03 -0.60862369465E+03  0.79225431731E+03  0.79607496578E+02 0.  0.
          5    1    3    3  502    0 -0.90979862391E+01 -0.36396300358E+01  0.24167272012E+01  0.11133320743E+02  0.47000000000E+01 0. -1.
        -11    1    4    4    0    0  0.46623117109E+01  0.41681566328E+03  0.29013625781E+03  0.50787408124E+03  0.00000000000E+00 0.  1.
         12    1    4    4    0    0 -0.70109117723E+02  0.36545377786E+03  0.27284107666E+03  0.46142605610E+03  0.00000000000E+00 0. -1.
         -5    1    5    5    0  501  0.64386823193E+01 -0.28237553568E+03 -0.51784544493E+03  0.58988422137E+03  0.47000000000E+01 0.  1.
         13    1    6    6    0    0 -0.11964740856E+02 -0.18550312426E+03 -0.23857905813E+03  0.30244756754E+03  0.00000000000E+00 0. -1.
        -14    1    6    6    0    0  0.80070850788E+02 -0.31075115116E+03 -0.37004463652E+03  0.48980674977E+03  0.00000000000E+00 0.  1.
</event>
<event>
12    1  0.9656379E-001  0.7386398E+03  0.7818608E-02  0.9653343E-01
          4   -1    0    0  502    0  0.00000000000E+00  0.00000000000E+00  0.17909743468E+04  0.17909743468E+04  0.00000000000E+00 0. -1.
         -4   -1    0    0    0  501 -0.00000000000E+00 -0.00000000000E+00 -0.34062562646E+03  0.34062562646E+03  0.00000000000E+00 0.  1.
          6    2    1    2  502    0  0.70191705472E+03  0.14076888746E+03  0.37654866455E+03  0.82686642941E+03  0.17151024440E+03 0.  0.
         24    2    3    3    0    0  0.50590520838E+03  0.13687896557E+03  0.33251187638E+03  0.62587612091E+03  0.80503662746E+02 0.  0.
         -6    2    1    2    0  501 -0.70191705472E+03 -0.14076888746E+03  0.10738000558E+04  0.13047335439E+04  0.19178015871E+03 0.  0.
        -24    2    5    5    0    0 -0.23726976207E+03 -0.76583025852E+02  0.49160439664E+03  0.55707666605E+03  0.80607873225E+02 0.  0.
          5    1    3    3  502    0  0.19601184634E+03  0.38899218877E+01  0.44036788167E+02  0.20099030850E+03  0.47000000000E+01 0. -1.
        -13    1    4    4    0    0  0.44485741564E+03  0.10822483582E+03  0.31644587008E+03  0.55655073805E+03  0.00000000000E+00 0.  1.
         14    1    4    4    0    0  0.61047792744E+02  0.28654129753E+02  0.16066006300E+02  0.69325382864E+02  0.00000000000E+00 0. -1.
         -5    1    5    5    0  501 -0.46464729265E+03 -0.64185861607E+02  0.58219565919E+03  0.74765687784E+03  0.47000000000E+01 0.  1.
         13    1    6    6    0    0 -0.22842264768E+03 -0.88961726627E+02  0.44499783956E+03  0.50804937948E+03  0.00000000000E+00 0. -1.
        -14    1    6    6    0    0 -0.88471143859E+01  0.12378700775E+02  0.46606557078E+02  0.49027286571E+02  0.00000000000E+00 0.  1.
</event>
<event>
12    1  0.9656379E-001  0.5401741E+03  0.7818608E-02  0.1003794E+00
          2   -1    0    0  502    0  0.00000000000E+00  0.00000000000E+00  0.12421384630E+04  0.12421384630E+04  0.00000000000E+00 0. -1.
         -2   -1    0    0    0  501 -0.00000000000E+00 -0.00000000000E+00 -0.24159215786E+03  0.24159215786E+03  0.00000000000E+00 0.  1.
          6    2    1    2  502    0 -0.50217910879E+03 -0.99729339985E+02  0.37673536186E+03  0.65844570268E+03  0.17173063773E+03 0.  0.
         24    2    3    3    0    0 -0.48364638222E+03 -0.10774505306E+03  0.38876226142E+03  0.63447801770E+03  0.76833843787E+02 0.  0.
         -6    2    1    2    0  501  0.50217910879E+03  0.99729339985E+02  0.62381094332E+03  0.82528491821E+03  0.17270004246E+03 0.  0.
        -24    2    5    5    0    0  0.18451281167E+03  0.52549877910E+02  0.16514711834E+03  0.26534530333E+03  0.79549305250E+02 0.  0.
          5    1    3    3  502    0 -0.18532726578E+02  0.80157130734E+01 -0.12026899552E+02  0.23967684980E+02  0.47000000000E+01 0. -1.
        -11    1    4    4    0    0 -0.20502428760E+03 -0.30559550679E+02  0.11880377372E+03  0.23892086827E+03  0.00000000000E+00 0.  1.
         12    1    4    4    0    0 -0.27862209462E+03 -0.77185502379E+02  0.26995848770E+03  0.39555714943E+03  0.00000000000E+00 0. -1.
         -5    1    5    5    0  501  0.31766629712E+03  0.47179462075E+02  0.45866382498E+03  0.55993961488E+03  0.47000000000E+01 0.  1.
         11    1    6    6    0    0  0.17796531601E+03  0.61211396885E+02  0.16985224700E+03  0.25351188260E+03  0.00000000000E+00 0. -1.
        -12    1    6    6    0    0  0.65474956655E+01 -0.86615189751E+01 -0.47051286617E+01  0.11833420730E+02  0.00000000000E+00 0.  1.
</event>
<event>
12    1  0.9656379E-001  0.2931684E+03  0.7818608E-02  0.1088706E+00
         -2   -1    0    0    0  501 -0.00000000000E+00  0.00000000000E+00  0.26912721613E+02  0.26912721613E+02  0.00000000000E+00 0.  1.
          2   -1    0    0  502    0  0.00000000000E+00 -0.00000000000E+00 -0.43786377054E+04  0.43786377054E+04  0.00000000000E+00 0. -1.
          6    2    1    2  502    0  0.13948528162E+03  0.19319346576E+03 -0.10259787373E+04  0.10668437331E+04  0.16953855713E+03 0.  0.
         24    2    3    3    0    0  0.26096101824E+02  0.97254789287E+02 -0.30244213647E+03  0.32820401134E+03  0.78148106701E+02 0.  0.
         -6    2    1    2    0  501 -0.13948528162E+03 -0.19319346576E+03 -0.33257462465E+04  0.33387066940E+04  0.17203032667E+03 0.  0.
        -24    2    5    5    0    0 -0.16912904542E+03 -0.14618317505E+03 -0.27426475370E+04  0.27529465765E+04  0.81395247854E+02 0.  0.
          5    1    3    3  502    0  0.11338917980E+03  0.95938676472E+02 -0.72353660085E+03  0.73863972172E+03  0.47000000000E+01 0. -1.
        -11    1    4    4    0    0 -0.14011059940E+02  0.69817813691E+02 -0.23157696345E+03  0.24227820148E+03  0.00000000000E+00 0.  1.
         12    1    4    4    0    0  0.40107161764E+02  0.27436975596E+02 -0.70865173016E+02  0.85925809867E+02  0.00000000000E+00 0. -1.
         -5    1    5    5    0  501  0.29643763794E+02 -0.47010290709E+02 -0.58309870954E+03  0.58576011748E+03  0.47000000000E+01 0.  1.
         11    1    6    6    0    0 -0.10161743089E+03 -0.12952807171E+03 -0.16880518102E+04  0.16960608885E+04  0.00000000000E+00 0. -1.
        -12    1    6    6    0    0 -0.67511614528E+02 -0.16655103344E+02 -0.10545957268E+04  0.10568856880E+04  0.00000000000E+00 0.  1.
</event>
<event>
12    1  0.9656379E-001  0.4597279E+03  0.7818608E-02  0.1024860E+00
          2   -1    0    0  502    0  0.00000000000E+00  0.00000000000E+00  0.20131012792E+04  0.20131012792E+04  0.00000000000E+00 0. -1.
         -2   -1    0    0    0  501 -0.00000000000E+00 -0.00000000000E+00 -0.34815708563E+03  0.34815708563E+03  0.00000000000E+00 0.  1.
          6    2    1    2  502    0  0.41932920684E+03 -0.76793795048E+02 -0.15437784023E+03  0.48467858236E+03  0.17130831849E+03 0.  0.
         24    2    3    3    0    0  0.75100452122E+02 -0.34920101618E+02 -0.42560691676E+02  0.12029964982E+03  0.76164964806E+02 0.  0.
         -6    2    1    2    0  501 -0.41932920684E+03  0.76793795048E+02  0.18193220338E+04  0.18765797825E+04  0.17287205273E+03 0.  0.
        -24    2    5    5    0    0 -0.41000460173E+03  0.97151692047E+02  0.17813494396E+04  0.18322469488E+04  0.79880102069E+02 0.  0.
          5    1    3    3  502    0  0.34422875471E+03 -0.41873693430E+02 -0.11181714855E+03  0.36437893255E+03  0.47000000000E+01 0. -1.
        -11    1    4    4    0    0  0.52235565065E+02 -0.28206143023E+02  0.12176204292E+02  0.60600335914E+02  0.00000000000E+00 0.  1.
         12    1    4    4    0    0  0.22864887057E+02 -0.67139585951E+01 -0.54736895968E+02  0.59699313902E+02  0.00000000000E+00 0. -1.
         -5    1    5    5    0  501 -0.93246051081E+01 -0.20357896999E+02  0.37972594207E+02  0.44332833673E+02  0.47000000000E+01 0.  1.
         11    1    6    6    0    0 -0.27010563245E+03  0.44294547730E+02  0.10039564451E+04  0.10405996364E+04  0.00000000000E+00 0. -1.
        -12    1    6    6    0    0 -0.13989896928E+03  0.52857144317E+02  0.77739299452E+03  0.79164731240E+03  0.00000000000E+00 0.  1.
</event>
<event>
12    1  0.9656379E-001  0.2794915E+03  0.7818608E-02  0.1095967E+00
          2   -1    0    0  502    0  0.00000000000E+00  0.00000000000E+00  0.19414550316E+04  0.19414550316E+04  0.00000000000E+00 0. -1.
         -2   -1    0    0    0  501 -0.00000000000E+00 -0.00000000000E+00 -0.10046241494E+03  0.10046241494E+03  0.00000000000E+00 0.  1.
          6    2    1    2  502    0 -0.12715934902E+03 -0.18051139332E+03  0.12906377455E+03  0.30720897136E+03  0.17019409809E+03 0.  0.
         24    2    3    3    0    0 -0.13820787797E+03 -0.19964222295E+03  0.12263370454E+03  0.28372505273E+03  0.80637741396E+02 0.  0.
         -6    2    1    2    0  501  0.12715934902E+03  0.18051139332E+03  0.17119288421E+04  0.17347084752E+04  0.17250875400E+03 0.  0.
        -24    2    5    5    0    0  0.11240598827E+03  0.10054331156E+03  0.14586461797E+04  0.14686506753E+04  0.80883032981E+02 0.  0.
          5    1    3    3  502    0  0.11048528952E+02  0.19130829628E+02  0.64300700073E+01  0.23483918637E+02  0.47000000000E+01 0. -1.
        -11    1    4    4    0    0 -0.96243763190E+02 -0.10682556249E+03  0.31834599138E+02  0.14726847747E+03  0.00000000000E+00 0.  1.
         12    1    4    4    0    0 -0.41964114780E+02 -0.92816660456E+02  0.90799105405E+02  0.13645657525E+03  0.00000000000E+00 0. -1.
         -5    1    5    5    0  501  0.14753360751E+02  0.79968081765E+02  0.25328266246E+03  0.26605779984E+03  0.47000000000E+01 0.  1.
         11    1    6    6    0    0  0.44064225359E+01 -0.13418085215E+02  0.11838772729E+03  0.11922715942E+03  0.00000000000E+00 0. -1.
        -12    1    6    6    0    0  0.10799956573E+03  0.11396139677E+03  0.13402584524E+04  0.13494235159E+04  0.00000000000E+00 0.  1.
</event>
<event>
12    1  0.9656379E-001  0.4622427E+03  0.7818608E-02  0.1024133E+00
         -2   -1    0    0    0  501 -0.00000000000E+00  0.00000000000E+00  0.22116108656E+03  0.22116108656E+03  0.00000000000E+00 0.  1.
          2   -1    0    0  502    0  0.00000000000E+00 -0.00000000000E+00 -0.18819729095E+04  0.18819729095E+04  0.00000000000E+00 0. -1.
          6    2    1    2  502    0 -0.42880220349E+03 -0.66948635970E+01 -0.96862845325E+02  0.47231353258E+03  0.17257320573E+03 0.  0.
         24    2    3    3    0    0 -0.21460417237E+03 -0.44449631017E+02  0.39486611907E+01  0.23254016282E+03  0.77644155630E+02 0.  0.
         -6    2    1    2    0  501  0.42880220349E+03  0.66948635970E+01 -0.15639489776E+04  0.16308204635E+04  0.17240309924E+03 0.  0.
        -24    2    5    5    0    0  0.13365268788E+03 -0.41889127840E+02 -0.62243105774E+03  0.64291777382E+03  0.79404674021E+02 0.  0.
          5    1    3    3  502    0 -0.21419803112E+03  0.37754767420E+02 -0.10081150652E+03  0.23977336976E+03  0.47000000000E+01 0. -1.
        -11    1    4    4    0    0 -0.81753002359E+02 -0.92079170703E+01 -0.35414555131E+02  0.89568576223E+02  0.00000000000E+00 0.  1.
         12    1    4    4    0    0 -0.13285117001E+03 -0.35241713947E+02  0.39363216322E+02  0.14297158660E+03  0.00000000000E+00 0. -1.
         -5    1    5    5    0  501  0.29514951561E+03  0.48583991437E+02 -0.94151791989E+03  0.98790268967E+03  0.47000000000E+01 0.  1.
         11    1    6    6    0    0  0.11637589564E+03 -0.16679384133E+02 -0.57193754138E+03  0.58389562610E+03  0.00000000000E+00 0. -1.
        -12    1    6    6    0    0  0.17276792232E+02 -0.25209743708E+02 -0.50493516356E+02  0.59022147721E+02  0.00000000000E+00 0.  1.
</event>
<event>
12    1  0.9656379E-001  0.1105594E+04  0.7818608E-02  0.9199757E-01
         -2   -1    0    0    0  501 -0.00000000000E+00  0.00000000000E+00  0.25353176645E+03  0.25353176645E+03  0.00000000000E+00 0.  1.
          2   -1    0    0  502    0  0.00000000000E+00 -0.00000000000E+00 -0.48237742298E+04  0.48237742298E+04  0.00000000000E+00 0. -1.
          6    2    1    2  502    0  0.47378076752E+03 -0.98428932775E+03 -0.23437716897E+04  0.25915491620E+04  0.17195240335E+03 0.  0.
         24    2    3    3    0    0  0.30580175804E+03 -0.56503728525E+03 -0.15173521687E+04  0.16497527203E+04  0.80898612225E+02 0.  0.
         -6    2    1    2    0  501 -0.47378076752E+03  0.98428932775E+03 -0.22264707736E+04  0.24857568342E+04  0.16888231681E+03 0.  0.
        -24    2    5    5    0    0 -0.93415433069E+02  0.24235243375E+03 -0.53957985406E+03  0.60406312730E+03  0.79276084554E+02 0.  0.
          5    1    3    3  502    0  0.16797900948E+03 -0.41925204250E+03 -0.82641952108E+03  0.94179644169E+03  0.47000000000E+01 0. -1.
        -13    1    4    4    0    0  0.73965119255E+02 -0.11329355937E+03 -0.24597795473E+03  0.28073372380E+03  0.00000000000E+00 0.  1.
         14    1    4    4    0    0  0.23183663879E+03 -0.45174372587E+03 -0.12713742139E+04  0.13690189965E+04  0.00000000000E+00 0. -1.
         -5    1    5    5    0  501 -0.38036533445E+03  0.74193689400E+03 -0.16868909195E+04  0.18816937069E+04  0.47000000000E+01 0.  1.
         11    1    6    6    0    0 -0.61647241396E+02  0.17917785765E+03 -0.30510428216E+03  0.35915694345E+03  0.00000000000E+00 0. -1.
        -12    1    6    6    0    0 -0.31768191673E+02  0.63174576103E+02 -0.23447557190E+03  0.24490618385E+03  0.00000000000E+00 0.  1.
</event>
<event>
12    1  0.9656379E-001  0.4810311E+03  0.7818608E-02  0.1018852E+00
          1   -1    0    0  502    0  0.00000000000E+00  0.00000000000E+00  0.99043441858E+03  0.99043441858E+03  0.00000000000E+00 0. -1.
         -1   -1    0    0    0  501 -0.00000000000E+00 -0.00000000000E+00 -0.26518902593E+03  0.26518902593E+03  0.00000000000E+00 0.  1.
          6    2    1    2  502    0 -0.18875016450E+03  0.40738267167E+03  0.14620497251E+03  0.50301062103E+03  0.17336817792E+03 0.  0.
         24    2    3    3    0    0 -0.98666743888E+02  0.28719979051E+03  0.16055884560E+03  0.35205674972E+03  0.77110090809E+02 0.  0.
         -6    2    1    2    0  501  0.18875016450E+03 -0.40738267167E+03  0.57904042013E+03  0.75261282348E+03  0.17190400850E+03 0.  0.
        -24    2    5    5    0    0  0.41907998966E+02 -0.10148154041E+03  0.96144018906E+02  0.16240171887E+03  0.71245087544E+02 0.  0.
          5    1    3    3  502    0 -0.90083420609E+02  0.12018288116E+03 -0.14353873089E+02  0.15095387131E+03  0.47000000000E+01 0. -1.
        -11    1    4    4    0    0 -0.28160121417E+01  0.19478949374E+02 -0.82751370898E+01  0.21350346296E+02  0.00000000000E+00 0.  1.
         12    1    4    4    0    0 -0.95850731746E+02  0.26772084114E+03  0.16883398269E+03  0.33070640343E+03  0.00000000000E+00 0. -1.
         -5    1    5    5    0  501  0.14684216553E+03 -0.30590113126E+03  0.48289640123E+03  0.59021110461E+03  0.47000000000E+01 0.  1.
         11    1    6    6    0    0  0.40576999557E+02 -0.98741067386E+02  0.10698788228E+03  0.15113801056E+03  0.00000000000E+00 0. -1.
        -12    1    6    6    0    0  0.13309994086E+01 -0.27404730234E+01 -0.10843863378E+02  0.11263708305E+02  0.00000000000E+00 0.  1.
</event>
<event>
12    1  0.9656379E-001  0.7176462E+03  0.7818608E-02  0.9687522E-01
         -2   -1    0    0    0  501 -0.00000000000E+00  0.00000000000E+00  0.37880742814E+03  0.37880742814E+03  0.00000000000E+00 0.  1.
          2   -1    0    0  502    0  0.00000000000E+00 -0.00000000000E+00 -0.13884527511E+04  0.13884527511E+04  0.00000000000E+00 0. -1.
          6    2    1    2  502    0 -0.65829165265E+03  0.22868678323E+03 -0.37756342256E+03  0.81113970520E+03  0.17247590709E+03 0.  0.
         24    2    3    3    0    0 -0.49143789532E+03  0.23537508869E+03 -0.29636802578E+03  0.62539877750E+03  0.79856038335E+02 0.  0.
         -6    2    1    2    0  501  0.65829165265E+03 -0.22868678323E+03 -0.63208190041E+03  0.95612047404E+03  0.17027415334E+03 0.  0.
        -24    2    5    5    0    0  0.61249522962E+03 -0.19204641847E+03 -0.52099330775E+03  0.83041210475E+03  0.78217669655E+02 0.  0.
          5    1    3    3  502    0 -0.16685375733E+03 -0.66883054675E+01 -0.81195396774E+02  0.18574092769E+03  0.47000000000E+01 0. -1.
        -11    1    4    4    0    0 -0.14316254337E+03  0.41349036742E+02 -0.52188274422E+02  0.15788879837E+03  0.00000000000E+00 0.  1.
         12    1    4    4    0    0 -0.34827535195E+03  0.19402605195E+03 -0.24417975136E+03  0.46750997913E+03  0.00000000000E+00 0. -1.
         -5    1    5    5    0  501  0.45796423031E+02 -0.36640364755E+02 -0.11108859265E+03  0.12570836929E+03  0.47000000000E+01 0.  1.
         13    1    6    6    0    0  0.24042055631E+03 -0.55369767198E+02 -0.15828127538E+03  0.29312252925E+03  0.00000000000E+00 0. -1.
        -14    1    6    6    0    0  0.37207467331E+03 -0.13667665127E+03 -0.36271203238E+03  0.53728957551E+03  0.00000000000E+00 0.  1.
</event>
<event>
12    1  0.9656379E-001  0.3766414E+03  0.7818608E-02  0.1052182E+00
         -1   -1    0    0    0  501 -0.00000000000E+00  0.00000000000E+00  0.11236976024E+03  0.11236976024E+03  0.00000000000E+00 0.  1.
          1   -1    0    0  502    0  0.00000000000E+00 -0.00000000000E+00 -0.22486924121E+04  0.22486924121E+04  0.00000000000E+00 0. -1.
          6    2    1    2  502    0  0.20695785372E+03  0.26349603768E+03 -0.28645560287E+03  0.47325635397E+03  0.17220060706E+03 0.  0.
         24    2    3    3    0    0  0.16054723421E+03  0.24775012756E+03 -0.17640067808E+03  0.35269078774E+03  0.78217980130E+02 0.  0.
         -6    2    1    2    0  501 -0.20695785372E+03 -0.26349603768E+03 -0.18498670490E+04  0.18878058184E+04  0.17187493657E+03 0.  0.
        -24    2    5    5    0    0 -0.15525256803E+03 -0.19159061389E+03 -0.16347051193E+04  0.16550815770E+04  0.78891547023E+02 0.  0.
          5    1    3    3  502    0  0.46410619515E+02  0.15745910121E+02 -0.11005492479E+03  0.12056556623E+03  0.47000000000E+01 0. -1.
        -11    1    4    4    0    0  0.15280047254E+03  0.17644651225E+03 -0.14116234635E+03  0.27277859909E+03  0.00000000000E+00 0.  1.
         12    1    4    4    0    0  0.77467616636E+01  0.71303615308E+02 -0.35238331731E+02  0.79912188654E+02  0.00000000000E+00 0. -1.
         -5    1    5    5    0  501 -0.51705285693E+02 -0.71905423790E+02 -0.21516192970E+03  0.23272424139E+03  0.47000000000E+01 0.  1.
         11    1    6    6    0    0 -0.13479226947E+03 -0.15706482846E+03 -0.11311601666E+04  0.11499398413E+04  0.00000000000E+00 0. -1.
        -12    1    6    6    0    0 -0.20460298562E+02 -0.34525785431E+02 -0.50354495272E+03  0.50514173564E+03  0.00000000000E+00 0.  1.
</event>
<event>
12    1  0.9656379E-001  0.1102170E+04  0.7818608E-02  0.9203079E-01
          1   -1    0    0  502    0  0.00000000000E+00  0.00000000000E+00  0.12151114502E+04  0.12151114502E+04  0.00000000000E+00 0. -1.
         -1   -1    0    0    0  501 -0.00000000000E+00 -0.00000000000E+00 -0.10007464973E+04  0.10007464973E+04  0.00000000000E+00 0.  1.
          6    2    1    2  502    0 -0.17272280012E+03  0.10749998277E+04  0.14257267962E+03  0.11114882958E+04  0.17210888281E+03 0.  0.
         24    2    3    3    0    0 -0.16729534050E+03  0.10559977907E+04  0.16146496086E+03  0.10837476574E+04  0.72931382233E+02 0.  0.
         -6    2    1    2    0  501  0.17272280012E+03 -0.10749998277E+04  0.71792273242E+02  0.11043696516E+04  0.17035375456E+03 0.  0.
        -24    2    5    5    0    0  0.55114888578E+02 -0.74972737925E+03  0.44465497148E+02  0.75737883148E+03  0.80726202601E+02 0.  0.
          5    1    3    3  502    0 -0.54274596201E+01  0.19002037043E+02 -0.18892281235E+02  0.27740638421E+02  0.47000000000E+01 0. -1.
        -11    1    4    4    0    0 -0.16118297227E+03  0.86383625451E+03  0.11794780362E+03  0.88662546181E+03  0.00000000000E+00 0.  1.
         12    1    4    4    0    0 -0.61123682226E+01  0.19216153617E+03  0.43517157233E+02  0.19712219561E+03  0.00000000000E+00 0. -1.
         -5    1    5    5    0  501  0.11760791154E+03 -0.32527244847E+03  0.27326776093E+02  0.34699082017E+03  0.47000000000E+01 0.  1.
         13    1    6    6    0    0  0.74647707157E+02 -0.52397840149E+03  0.22932458594E+02  0.52976555481E+03  0.00000000000E+00 0. -1.
        -14    1    6    6    0    0 -0.19532818579E+02 -0.22574897777E+03  0.21533038555E+02  0.22761327666E+03  0.00000000000E+00 0.  1.
</event>
<event>
12    1  0.9656379E-001  0.1215517E+04  0.7818608E-02  0.9099382E-01
          2   -1    0    0  502    0  0.00000000000E+00  0.00000000000E+00  0.25674612777E+04  0.25674612777E+04  0.00000000000E+00 0. -1.
         -2   -1    0    0    0  501 -0.00000000000E+00 -0.00000000000E+00 -0.58604022781E+03  0.58604022781E+03  0.00000000000E+00 0.  1.
          6    2    1    2  502    0  0.43295858081E+03 -0.11220485258E+04  0.77935843454E+03  0.14444036097E+04  0.18015601915E+03 0.  0.
         24    2    3    3    0    0  0.18137999873E+03 -0.57143075008E+03  0.46039769064E+03  0.76013044490E+03  0.80002835197E+02 0.  0.
         -6    2    1    2    0  501 -0.43295858081E+03  0.11220485258E+04  0.12020626154E+04  0.17090978958E+04  0.17209026537E+03 0.  0.
        -24    2    5    5    0    0 -0.41216042015E+03  0.10152916066E+04  0.10277832410E+04  0.15036106856E+04  0.61753095211E+02 0.  0.
          5    1    3    3  502    0  0.25157858207E+03 -0.55061777570E+03  0.31896074390E+03  0.68427316477E+03  0.47000000000E+01 0. -1.
        -11    1    4    4    0    0  0.66199601148E+02 -0.15959434838E+03  0.92309303706E+02  0.19589219173E+03  0.00000000000E+00 0.  1.
         12    1    4    4    0    0  0.11518039759E+03 -0.41183640170E+03  0.36808838693E+03  0.56423825318E+03  0.00000000000E+00 0. -1.
         -5    1    5    5    0  501 -0.20798160655E+02  0.10675691916E+03  0.17427937432E+03  0.20548721028E+03  0.47000000000E+01 0.  1.
         11    1    6    6    0    0 -0.31789512786E+03  0.78629301477E+03  0.82998579270E+03  0.11866719991E+04  0.00000000000E+00 0. -1.
        -12    1    6    6    0    0 -0.94265292294E+02  0.22899859185E+03  0.19779744834E+03  0.31693868645E+03  0.00000000000E+00 0.  1.
</event>
<event>
12    1  0.9656379E-001  0.4823465E+03  0.7818608E-02  0.1018492E+00
         -1   -1    0    0    0  501 -0.00000000000E+00  0.00000000000E+00  0.21557832925E+04  0.21557832925E+04  0.00000000000E+00 0.  1.
          1   -1    0    0  502    0  0.00000000000E+00 -0.00000000000E+00 -0.12348547945E+03  0.12348547945E+03  0.00000000000E+00 0. -1.
          6    2    1    2  502    0  0.39822872419E+03 -0.21110998391E+03  0.14203948366E+04  0.15000022598E+04  0.17126513185E+03 0.  0.
         24    2    3    3    0    0  0.35428358081E+03 -0.21216325789E+03  0.13694558713E+04  0.14325548492E+04  0.79208009564E+02 0.  0.
         -6    2    1    2    0  501 -0.39822872419E+03  0.21110998391E+03  0.61190297640E+03  0.77926651213E+03  0.17227159463E+03 0.  0.
        -24    2    5    5    0    0 -0.30139014861E+03  0.13651525024E+03  0.53688726350E+03  0.63576901670E+03  0.80510084206E+02 0.  0.
          5    1    3    3  502    0  0.43945143378E+02  0.10532739781E+01  0.50938965330E+02  0.67447410636E+02  0.47000000000E+01 0. -1.
        -11    1    4    4    0    0  0.27423454912E+03 -0.13600744726E+03  0.91436272139E+03  0.96424156720E+03  0.00000000000E+00 0.  1.
         12    1    4    4    0    0  0.80049031692E+02 -0.76155810636E+02  0.45509314991E+03  0.46831328196E+03  0.00000000000E+00 0. -1.
         -5    1    5    5    0  501 -0.96838575584E+02  0.74594733674E+02  0.75015712904E+02  0.14349749543E+03  0.47000000000E+01 0.  1.
         13    1    6    6    0    0 -0.44510661286E+02  0.55038486995E+02  0.10211887687E+03  0.12425256147E+03  0.00000000000E+00 0. -1.
        -14    1    6    6    0    0 -0.25687948732E+03  0.81476763244E+02  0.43476838663E+03  0.51151645523E+03  0.00000000000E+00 0.  1.
</event>
<event>
12    1  0.9656379E-001  0.3547801E+03  0.7818608E-02  0.1060670E+00
         -2   -1    0    0    0  501 -0.00000000000E+00  0.00000000000E+00  0.17680289754E+04  0.17680289754E+04  0.00000000000E+00 0.  1.
          2   -1    0    0  502    0  0.00000000000E+00 -0.00000000000E+00 -0.26848310060E+03  0.26848310060E+03  0.00000000000E+00 0. -1.
          6    2    1    2  502    0  0.29364292571E+03  0.97083980258E+02  0.16228595391E+04  0.16612673520E+04  0.17459858065E+03 0.  0.
         24    2    3    3    0    0  0.12790970145E+03  0.46842764582E+02  0.10757557938E+04  0.10873890727E+04  0.81297793801E+02 0.  0.
         -6    2    1    2    0  501 -0.29364292571E+03 -0.97083980258E+02 -0.12331366426E+03  0.37524472396E+03  0.17306321395E+03 0.  0.
        -24    2    5    5    0    0 -0.27123308362E+03 -0.30916941277E+02 -0.10687345890E+03  0.30332359756E+03  0.77846166970E+02 0.  0.
          5    1    3    3  502    0  0.16573322427E+03  0.50241215676E+02  0.54710374525E+03  0.57387827929E+03  0.47000000000E+01 0. -1.
        -13    1    4    4    0    0  0.41872528297E+02 -0.22399509303E+02  0.37241566996E+03  0.37543105609E+03  0.00000000000E+00 0.  1.
         14    1    4    4    0    0  0.86037173150E+02  0.69242273885E+02  0.70334012385E+03  0.71195801665E+03  0.00000000000E+00 0. -1.
         -5    1    5    5    0  501 -0.22409842092E+02 -0.66167038981E+02 -0.16440205365E+02  0.71921126399E+02  0.47000000000E+01 0.  1.
         11    1    6    6    0    0 -0.20539128276E+03  0.94206441810E+01 -0.65898414416E+02  0.21590953799E+03  0.00000000000E+00 0. -1.
        -12    1    6    6    0    0 -0.65841800863E+02 -0.40337585458E+02 -0.40975044480E+02  0.87414059576E+02  0.00000000000E+00 0.  1.
</event>
<event>
12    1  0.9656379E-001  0.7833515E+03  0.7818608E-02  0.9584433E-01
         -2   -1    0    0    0  501 -0.00000000000E+00  0.00000000000E+00  0.24038814423E+03  0.24038814423E+03  0.00000000000E+00 0.  1.
          2   -1    0    0  502    0  0.00000000000E+00 -0.00000000000E+00 -0.27725272936E+04  0.27725272936E+04  0.00000000000E+00 0. -1.
          6    2    1    2  502    0  0.22129589438E+03 -0.73138503493E+03 -0.84208370000E+03  0.11501981736E+04  0.17307495051E+03 0.  0.
         24    2    3    3    0    0  0.36227515831E+02 -0.32394404667E+03 -0.34789714118E+03  0.48348916016E+03  0.80480860277E+02 0.  0.
         -6    2    1    2    0  501 -0.22129589438E+03  0.73138503493E+03 -0.16900554494E+04  0.18627172642E+04  0.17184947605E+03 0.  0.
        -24    2    5    5    0    0 -0.12611887715E+03  0.24417212968E+03 -0.65775576314E+03  0.71724801027E+03  0.79221614455E+02 0.  0.
          5    1    3    3  502    0  0.18506837855E+03 -0.40744098826E+03 -0.49418655881E+03  0.66670901342E+03  0.47000000000E+01 0. -1.
        -13    1    4    4    0    0  0.44461760229E+02 -0.32297474360E+03 -0.34508320437E+03  0.47473355797E+03  0.00000000000E+00 0.  1.
         14    1    4    4    0    0 -0.82342443980E+01 -0.96930307324E+00 -0.28139368066E+01  0.87556021841E+01  0.00000000000E+00 0. -1.
         -5    1    5    5    0  501 -0.95177017237E+02  0.48721290525E+03 -0.10322996862E+04  0.11454692540E+04  0.47000000000E+01 0.  1.
         11    1    6    6    0    0 -0.13636684820E+03  0.22769635986E+03 -0.62730368382E+03  0.68113982509E+03  0.00000000000E+00 0. -1.
        -12    1    6    6    0    0  0.10247971057E+02  0.16475769820E+02 -0.30452079323E+02  0.36108185181E+02  0.00000000000E+00 0.  1.
</event>
<event>
12    1  0.9656379E-001  0.2856505E+03  0.7818608E-02  0.1092642E+00
         -2   -1    0    0    0  501 -0.00000000000E+00  0.00000000000E+00  0.50933712140E+03  0.50933712140E+03  0.00000000000E+00 0.  1.
          2   -1    0    0  502    0  0.00000000000E+00 -0.00000000000E+00 -0.46159229355E+03  0.46159229355E+03  0.00000000000E+00 0. -1.
          6    2    1    2  502    0  0.63629481695E+02  0.21641147667E+03  0.41619198019E+03  0.50571374243E+03  0.17789881037E+03 0.  0.
         24    2    3    3    0    0  0.11040795774E+03  0.16266367857E+03  0.34330524167E+03  0.40367640478E+03  0.80291726586E+02 0.  0.
         -6    2    1    2    0  501 -0.63629481695E+02 -0.21641147667E+03 -0.36844715234E+03  0.46521567252E+03  0.17259687052E+03 0.  0.
        -24    2    5    5    0    0 -0.10800617144E+03 -0.17926508547E+03 -0.26873057804E+03  0.34982663421E+03  0.79757422800E+02 0.  0.
          5    1    3    3  502    0 -0.46778476049E+02  0.53747798103E+02  0.72886738515E+02  0.10203733765E+03  0.47000000000E+01 0. -1.
        -11    1    4    4    0    0  0.37072892388E+02  0.16991807000E+02  0.12292085888E+03  0.12950929852E+03  0.00000000000E+00 0.  1.
         12    1    4    4    0    0  0.73335065355E+02  0.14567187157E+03  0.22038438280E+03  0.27416710627E+03  0.00000000000E+00 0. -1.
         -5    1    5    5    0  501  0.44376689741E+02 -0.37146391206E+02 -0.99716574299E+02  0.11538903831E+03  0.47000000000E+01 0.  1.
         13    1    6    6    0    0 -0.84795592017E+02 -0.14388762876E+03 -0.25595985748E+03  0.30562949919E+03  0.00000000000E+00 0. -1.
        -14    1    6    6    0    0 -0.23210579419E+02 -0.35377456713E+02 -0.12770720566E+02  0.44197135022E+02  0.00000000000E+00 0.  1.
</event>
<event>
12    1  0.9656379E-001  0.4519918E+03  0.7818608E-02  0.1027130E+00
         -2   -1    0    0    0  501 -0.00000000000E+00  0.00000000000E+00  0.41076969365E+03  0.41076969365E+03  0.00000000000E+00 0.  1.
          2   -1    0    0  502    0  0.00000000000E+00 -0.00000000000E+00 -0.74424860124E+03  0.74424860124E+03  0.00000000000E+00 0. -1.
          6    2    1    2  502    0 -0.32260600795E+03 -0.26511188993E+03  0.16578411531E+03  0.48183212325E+03  0.17412315055E+03 0.  0.
         24    2    3    3    0    0 -0.19325547202E+03 -0.23564035253E+03  0.14722903660E+03  0.34779289911E+03  0.80059092221E+02 0.  0.
         -6    2    1    2    0  501  0.32260600795E+03  0.26511188993E+03 -0.49926302289E+03  0.67318617164E+03  0.17192179942E+03 0.  0.
        -24    2    5    5    0    0  0.30969130144E+03  0.18791951091E+03 -0.43656142273E+03  0.57279178093E+03  0.79259723200E+02 0.  0.
          5    1    3    3  502    0 -0.12935053593E+03 -0.29471537406E+02  0.18555078711E+02  0.13403922414E+03  0.47000000000E+01 0. -1.
        -11    1    4    4    0    0 -0.12398652559E+03 -0.19032957087E+03  0.78911221046E+02  0.24046826170E+03  0.00000000000E+00 0.  1.
         12    1    4    4    0    0 -0.69268946427E+02 -0.45310781656E+02  0.68317815555E+02  0.10732463741E+03  0.00000000000E+00 0. -1.
         -5    1    5    5    0  501  0.12914706508E+02  0.77192379020E+02 -0.62701600166E+02  0.10039439071E+03  0.47000000000E+01 0.  1.
         11    1    6    6    0    0  0.22871021055E+03  0.17373923546E+03 -0.35911725632E+03  0.45984658978E+03  0.00000000000E+00 0. -1.
        -12    1    6    6    0    0  0.80981090885E+02  0.14180275451E+02 -0.77444166410E+02  0.11294519115E+03  0.00000000000E+00 0.  1.
</event>
<event>
12    1  0.9656379E-001  0.4072965E+03  0.7818608E-02  0.1041282E+00
          2   -1    0    0  502    0  0.00000000000E+00  0.00000000000E+00  0.11955800212E+04  0.11955800212E+04  0.00000000000E+00 0. -1.
         -2   -1    0    0    0  501 -0.00000000000E+00 -0.00000000000E+00 -0.73625233765E+03  0.73625233765E+03  0.00000000000E+00 0.  1.
          6    2    1    2  502    0 -0.28954747395E+02  0.36821016510E+03 -0.64053520697E+03  0.75882039786E+03  0.17060463585E+03 0.  0.
         24    2    3    3    0    0 -0.76867269492E+02  0.28640610056E+03 -0.53584259443E+03  0.61750462426E+03  0.79042035813E+02 0.  0.
         -6    2    1    2    0  501  0.28954747395E+02 -0.36821016510E+03  0.10998628905E+04  0.11730119610E+04  0.17274715512E+03 0.  0.
        -24    2    5    5    0    0  0.35038097944E+02 -0.10258045693E+03  0.48209340644E+03  0.50051112495E+03  0.79667529217E+02 0.  0.
          5    1    3    3  502    0  0.47912522097E+02  0.81804064539E+02 -0.10469261254E+03  0.14131577360E+03  0.47000000000E+01 0. -1.
        -13    1    4    4    0    0 -0.63019548574E+02  0.21312386405E+03 -0.32383924076E+03  0.39276595930E+03  0.00000000000E+00 0.  1.
         14    1    4    4    0    0 -0.13847720918E+02  0.73282236512E+02 -0.21200335366E+03  0.22473866496E+03  0.00000000000E+00 0. -1.
         -5    1    5    5    0  501 -0.60833505492E+01 -0.26562970817E+03  0.61776948407E+03  0.67250083604E+03  0.47000000000E+01 0.  1.
         11    1    6    6    0    0  0.19274853154E+02 -0.11360290665E+03  0.40750761262E+03  0.42348505842E+03  0.00000000000E+00 0. -1.
        -12    1    6    6    0    0  0.15763244790E+02  0.11022449728E+02  0.74585793823E+02  0.77026066526E+02  0.00000000000E+00 0.  1.
</event>
<event>
12    1  0.9656379E-001  0.2078365E+03  0.7818608E-02  0.1143291E+00
         -1   -1    0    0    0  501 -0.00000000000E+00  0.00000000000E+00  0.51502070588E+02  0.51502070588E+02  0.00000000000E+00 0.  1.
          1   -1    0    0  502    0  0.00000000000E+00 -0.00000000000E+00 -0.24022835503E+04  0.24022835503E+04  0.00000000000E+00 0. -1.
          6    2    1    2  502    0  0.10112965458E+03  0.57902498182E+02 -0.18510646493E+03  0.27813758064E+03  0.17180280578E+03 0.  0.
         24    2    3    3    0    0 -0.84765941123E+01  0.38374540764E+02 -0.43288724218E+02  0.97778958851E+02  0.78373165835E+02 0.  0.
         -6    2    1    2    0  501 -0.10112965458E+03 -0.57902498182E+02 -0.21656750148E+04  0.21756480402E+04  0.17238392923E+03 0.  0.
        -24    2    5    5    0    0 -0.85147283176E+02 -0.10562373830E+03 -0.16104272501E+04  0.16181043889E+04  0.79871469534E+02 0.  0.
          5    1    3    3  502    0  0.10960624869E+03  0.19527957418E+02 -0.14181774071E+03  0.18035862179E+03  0.47000000000E+01 0. -1.
        -11    1    4    4    0    0  0.20037869819E+02  0.52010325411E+02 -0.23501243626E+02  0.60488830607E+02  0.00000000000E+00 0.  1.
         12    1    4    4    0    0 -0.28514463931E+02 -0.13635784647E+02 -0.19787480592E+02  0.37290128244E+02  0.00000000000E+00 0. -1.
         -5    1    5    5    0  501 -0.15982371401E+02  0.47721240123E+02 -0.55524776466E+03  0.55754365131E+03  0.47000000000E+01 0.  1.
         11    1    6    6    0    0 -0.84092744289E+02 -0.10622690124E+03 -0.11919177494E+04  0.11995931249E+04  0.00000000000E+00 0. -1.
        -12    1    6    6    0    0 -0.10545388877E+01  0.60316293920E+00 -0.41850950074E+03  0.41851126397E+03  0.00000000000E+00 0.  1.
</event>
<event>
12    1  0.9656379E-001  0.3583055E+03  0.7818608E-02  0.1059257E+00
          1   -1    0    0  502    0  0.00000000000E+00  0.00000000000E+00  0.11669211682E+04  0.11669211682E+04  0.00000000000E+00 0. -1.
         -1   -1    0    0    0  501 -0.00000000000E+00 -0.00000000000E+00 -0.12197295747E+03  0.12197295747E+03  0.00000000000E+00 0.  1.
          6    2    1    2  502    0 -0.23451003188E+03  0.20890782959E+03  0.32003549862E+03  0.48003319607E+03  0.17138177450E+03 0.  0.
         24    2    3    3    0    0 -0.18875636252E+03  0.14716661792E+03  0.31473390519E+03  0.40286084110E+03  0.77152112069E+02 0.  0.
         -6    2    1    2    0  501  0.23451003188E+03 -0.20890782959E+03  0.72491271207E+03  0.80886092956E+03  0.17355151089E+03 0.  0.
        -24    2    5    5    0    0  0.42261582770E+02 -0.10064823685E+03  0.33061118909E+03  0.35700322339E+03  0.78939433726E+02 0.  0.
          5    1    3    3  502    0 -0.45753669365E+02  0.61741211666E+02  0.53015934384E+01  0.77172354968E+02  0.47000000000E+01 0. -1.
        -13    1    4    4    0    0 -0.14295903331E+03  0.65618216431E+02  0.18320223454E+03  0.24146654897E+03  0.00000000000E+00 0.  1.
         14    1    4    4    0    0 -0.45797329208E+02  0.81548401491E+02  0.13153167064E+03  0.16139429213E+03  0.00000000000E+00 0. -1.
         -5    1    5    5    0  501  0.19224844911E+03 -0.10825959273E+03  0.39430152298E+03  0.45185770617E+03  0.47000000000E+01 0.  1.
         13    1    6    6    0    0  0.14954450255E+02 -0.54498622697E+02  0.27096869511E+03  0.27679914954E+03  0.00000000000E+00 0. -1.
        -14    1    6    6    0    0  0.27307132515E+02 -0.46149614157E+02  0.59642493983E+02  0.80204073846E+02  0.00000000000E+00 0.  1.
</event>
<event>
12    1  0.9656379E-001  0.8360119E+03  0.7818608E-02  0.9509306E-01
          1   -1    0    0  502    0  0.00000000000E+00  0.00000000000E+00  0.23668322936E+04  0.23668322936E+04  0.00000000000E+00 0. -1.
         -1   -1    0    0    0  501 -0.00000000000E+00 -0.00000000000E+00 -0.38369604301E+03  0.38369604301E+03  0.00000000000E+00 0.  1.
          6    2    1    2  502    0 -0.81482797362E+03 -0.73341235001E+02  0.33145898775E+03  0.89932745163E+03  0.17205011292E+03 0.  0.
         24    2    3    3    0    0 -0.71872287036E+03 -0.63517692187E+02  0.34118145602E+03  0.80211989403E+03  0.79965472979E+02 0.  0.
         -6    2    1    2    0  501  0.81482797362E+03  0.73341235001E+02  0.16516772629E+04  0.18512008850E+04  0.17199817625E+03 0.  0.
        -24    2    5    5    0    0  0.80960706981E+03  0.61361008656E+02  0.15797239995E+04  0.17779196066E+04  0.79002733914E+02 0.  0.
          5    1    3    3  502    0 -0.96105103257E+02 -0.98235428138E+01 -0.97224682684E+01  0.97207557601E+02  0.47000000000E+01 0. -1.
        -11    1    4    4    0    0 -0.48444337690E+03 -0.71289210728E+02  0.20346660212E+03  0.53025106805E+03  0.00000000000E+00 0.  1.
         12    1    4    4    0    0 -0.23427949346E+03  0.77715185412E+01  0.13771485390E+03  0.27186882598E+03  0.00000000000E+00 0. -1.
         -5    1    5    5    0  501  0.52209038130E+01  0.11980226345E+02  0.71953263384E+02  0.73281278452E+02  0.47000000000E+01 0.  1.
         11    1    6    6    0    0  0.58711950513E+03  0.44464377503E+02  0.12192171565E+04  0.13539486212E+04  0.00000000000E+00 0. -1.
        -12    1    6    6    0    0  0.22248756467E+03  0.16896631153E+02  0.36050684304E+03  0.42397098540E+03  0.00000000000E+00 0.  1.
</event>
<event>
12    1  0.1178766E+000  0.2792372E+03  0.7818608E-02  0.1096106E+00
         -2   -1    0    0    0  501 -0.00000000000E+00  0.00000000000E+00  0.20672822203E+03  0.20672822203E+03  0.00000000000E+00 0.  1.
          2   -1    0    0  502    0  0.00000000000E+00 -0.00000000000E+00 -0.18059797030E+04  0.18059797030E+04  0.00000000000E+00 0. -1.
          6    2    1    2  502    0 -0.21735062236E+03 -0.35597361693E+02  0.95883805842E+02  0.29462042252E+03  0.17058436019E+03 0.  0.
         24    2    3    3    0    0 -0.15913118606E+03 -0.88115157463E+02  0.58629623267E+02  0.20768604638E+03  0.81296037929E+02 0.  0.
         -6    2    1    2    0  501  0.21735062236E+03  0.35597361693E+02 -0.16951352868E+04  0.17180875025E+04  0.17272104813E+03 0.  0.
        -24    2    5    5    0    0  0.20293874236E+03  0.19082898668E+02 -0.10570648596E+04  0.10796234159E+04  0.81561710588E+02 0.  0.
          5    1    3    3  502    0 -0.58219436299E+02  0.52517795771E+02  0.37254182575E+02  0.86934376140E+02  0.47000000000E+01 0. -1.
        -11    1    4    4    0    0 -0.11477609112E+03 -0.69789193262E+02  0.78679383514E+02  0.15567442943E+03  0.00000000000E+00 0.  1.
         12    1    4    4    0    0 -0.44355094941E+02 -0.18325964202E+02 -0.20049760247E+02  0.52011616944E+02  0.00000000000E+00 0. -1.
         -5    1    5    5    0  501  0.14411880004E+02  0.16514463025E+02 -0.63807042718E+03  0.63846408655E+03  0.47000000000E+01 0.  1.
         11    1    6    6    0    0  0.73636195383E+02 -0.13489673260E+02 -0.56009797679E+03  0.56507875925E+03  0.00000000000E+00 0. -1.
        -12    1    6    6    0    0  0.12930254698E+03  0.32572571927E+02 -0.49696688282E+03  0.51454465668E+03  0.00000000000E+00 0.  1.
</event>
<event>
12    1  0.9656379E-001  0.4425408E+03  0.7818608E-02  0.1029970E+00
         -2   -1    0    0    0  501 -0.00000000000E+00  0.00000000000E+00  0.62205772259E+02  0.62205772259E+02  0.00000000000E+00 0.  1.
          2   -1    0    0  502    0  0.00000000000E+00 -0.00000000000E+00 -0.32994409385E+04  0.32994409385E+04  0.00000000000E+00 0. -1.
          6    2    1    2  502    0  0.25206536391E+03 -0.32132552532E+03 -0.19760954115E+04  0.20249009026E+04  0.16877069901E+03 0.  0.
         24    2    3    3    0    0  0.26782260533E+03 -0.30470111059E+03 -0.19215770631E+04  0.19655797248E+04  0.80458251227E+02 0.  0.
         -6    2    1    2    0  501 -0.25206536391E+03  0.32132552532E+03 -0.12611397547E+04  0.13367458082E+04  0.17213028178E+03 0.  0.
        -24    2    5    5    0    0 -0.15282768585E+03  0.96722547533E+02 -0.58699286874E+03  0.61925662483E+03  0.78781893114E+02 0.  0.
          5    1    3    3  502    0 -0.15757241419E+02 -0.16624414724E+02 -0.54518348400E+02  0.59321177789E+02  0.47000000000E+01 0. -1.
        -13    1    4    4    0    0  0.17992030954E+03 -0.25414145579E+03 -0.14999000053E+04  0.15318809429E+04  0.00000000000E+00 0.  1.
         14    1    4    4    0    0  0.87902295782E+02 -0.50559654806E+02 -0.42167705779E+03  0.43369878184E+03  0.00000000000E+00 0. -1.
         -5    1    5    5    0  501 -0.99237678062E+02  0.22460297779E+03 -0.67414688598E+03  0.71748918337E+03  0.47000000000E+01 0.  1.
         11    1    6    6    0    0 -0.10411773682E+03  0.95993744082E+02 -0.35500784401E+03  0.38221181475E+03  0.00000000000E+00 0. -1.
        -12    1    6    6    0    0 -0.48709949022E+02  0.72880345151E+00 -0.23198502473E+03  0.23704481009E+03  0.00000000000E+00 0.  1.
</event>
<event>
12    1  0.9656379E-001  0.9836197E+03  0.7818608E-02  0.9326695E-01
          1   -1    0    0  502    0  0.00000000000E+00  0.00000000000E+00  0.66154099482E+03  0.66154099482E+03  0.00000000000E+00 0. -1.
         -1   -1    0    0    0  501 -0.00000000000E+00 -0.00000000000E+00 -0.17359443888E+04  0.17359443888E+04  0.00000000000E+00 0.  1.
          6    2    1    2  502    0 -0.33030215987E+03 -0.91059709759E+03 -0.10129238177E+04  0.14118645034E+04  0.17047030389E+03 0.  0.
         24    2    3    3    0    0 -0.94629413375E+02 -0.37549947107E+03 -0.46970892733E+03  0.61375697901E+03  0.78208530355E+02 0.  0.
         -6    2    1    2    0  501  0.33030215987E+03  0.91059709759E+03 -0.61479576330E+02  0.98562088029E+03  0.17141234030E+03 0.  0.
        -24    2    5    5    0    0  0.16980478230E+03  0.41635822921E+03 -0.89460941126E+02  0.46520132455E+03  0.78874414433E+02 0.  0.
          5    1    3    3  502    0 -0.23567274649E+03 -0.53509762652E+03 -0.54321489035E+03  0.79810752436E+03  0.47000000000E+01 0. -1.
        -11    1    4    4    0    0 -0.98233593655E+02 -0.37654740966E+03 -0.46975125253E+03  0.61000330319E+03  0.00000000000E+00 0.  1.
         12    1    4    4    0    0  0.36041802803E+01  0.10479385916E+01  0.42325196230E-01  0.37536758260E+01  0.00000000000E+00 0. -1.
         -5    1    5    5    0  501  0.16049737757E+03  0.49423886837E+03  0.27981364795E+02  0.52041955573E+03  0.47000000000E+01 0.  1.
         13    1    6    6    0    0  0.49365182107E+02  0.15120448867E+03  0.47107737986E+01  0.15912859576E+03  0.00000000000E+00 0. -1.
        -14    1    6    6    0    0  0.12043960019E+03  0.26515374054E+03 -0.94171714924E+02  0.30607272879E+03  0.00000000000E+00 0.  1.
</event>
<event>
12    1  0.9656379E-001  0.4794295E+03  0.7818608E-02  0.1019292E+00
         -2   -1    0    0    0  501 -0.00000000000E+00  0.00000000000E+00  0.56994188435E+03  0.56994188435E+03  0.00000000000E+00 0.  1.
          2   -1    0    0  502    0  0.00000000000E+00 -0.00000000000E+00 -0.40333687890E+03  0.40333687890E+03  0.00000000000E+00 0. -1.
          6    2    1    2  502    0  0.31525645699E+03  0.31801891529E+03  0.78212543307E+02  0.48613683853E+03  0.17230542559E+03 0.  0.
         24    2    3    3    0    0  0.23712221421E+03  0.26129367656E+03  0.11902321978E+03  0.38120679555E+03  0.81552217926E+02 0.  0.
         -6    2    1    2    0  501 -0.31525645699E+03 -0.31801891529E+03  0.88392462143E+02  0.48714192473E+03  0.17020976267E+03 0.  0.
        -24    2    5    5    0    0 -0.12318284224E+03 -0.95653996417E+02 -0.13962526971E+02  0.17595538192E+03  0.80259856805E+02 0.  0.
          5    1    3    3  502    0  0.78134242787E+02  0.56725238731E+02 -0.40810676472E+02  0.10493004298E+03  0.47000000000E+01 0. -1.
        -13    1    4    4    0    0  0.70213526319E+02  0.30740886454E+02  0.14588336820E+02  0.78024104925E+02  0.00000000000E+00 0.  1.
         14    1    4    4    0    0  0.16690868789E+03  0.23055279010E+03  0.10443488296E+03  0.30318269063E+03  0.00000000000E+00 0. -1.
         -5    1    5    5    0  501 -0.19207361475E+03 -0.22236491887E+03  0.10235498911E+03  0.31118654281E+03  0.47000000000E+01 0.  1.
         13    1    6    6    0    0 -0.36885498552E+02 -0.62899502579E+02  0.23099496747E+02  0.76488392440E+02  0.00000000000E+00 0. -1.
        -14    1    6    6    0    0 -0.86297343687E+02 -0.32754493839E+02 -0.37062023718E+02  0.99466989480E+02  0.00000000000E+00 0.  1.
</event>
<event>
12    1  0.9656379E-001  0.6161970E+03  0.7818608E-02  0.9872361E-01
          2   -1    0    0  502    0  0.00000000000E+00  0.00000000000E+00  0.11098281049E+04  0.11098281049E+04  0.00000000000E+00 0. -1.
         -2   -1    0    0    0  501 -0.00000000000E+00 -0.00000000000E+00 -0.70016864902E+03  0.70016864902E+03  0.00000000000E+00 0.  1.
          6    2    1    2  502    0 -0.45727994765E+03 -0.37556921952E+03 -0.44232043590E+03  0.75859049881E+03  0.17220623594E+03 0.  0.
         24    2    3    3    0    0 -0.46765075757E+03 -0.35697783306E+03 -0.42967291426E+03  0.73338646833E+03  0.84300025696E+02 0.  0.
         -6    2    1    2    0  501  0.45727994765E+03  0.37556921952E+03  0.85197989178E+03  0.10514062551E+04  0.17154646042E+03 0.  0.
        -24    2    5    5    0    0  0.35432374056E+03  0.31146576748E+03  0.76407511884E+03  0.90154441123E+03  0.80095572581E+02 0.  0.
          5    1    3    3  502    0  0.10370809916E+02 -0.18591386461E+02 -0.12647521642E+02  0.25204030482E+02  0.47000000000E+01 0. -1.
        -13    1    4    4    0    0 -0.22208436096E+03 -0.20322107873E+03 -0.17874802861E+03  0.35010159662E+03  0.00000000000E+00 0.  1.
         14    1    4    4    0    0 -0.24556639660E+03 -0.15375675433E+03 -0.25092488565E+03  0.38328487171E+03  0.00000000000E+00 0. -1.
         -5    1    5    5    0  501  0.10295620709E+03  0.64103452040E+02  0.87904772938E+02  0.14986184387E+03  0.47000000000E+01 0.  1.
         11    1    6    6    0    0  0.26221337770E+03  0.27117472031E+03  0.58190440379E+03  0.69347265233E+03  0.00000000000E+00 0. -1.
        -12    1    6    6    0    0  0.92110362856E+02  0.40291047167E+02  0.18217071505E+03  0.20807175889E+03  0.00000000000E+00 0.  1.
</event>
<event>
12    1  0.9656379E-001  0.2886777E+03  0.7818608E-02  0.1091042E+00
         -2   -1    0    0    0  501 -0.00000000000E+00  0.00000000000E+00  0.27489672469E+03  0.27489672469E+03  0.00000000000E+00 0.  1.
          2   -1    0    0  502    0  0.00000000000E+00 -0.00000000000E+00 -0.16846338452E+04  0.16846338452E+04  0.00000000000E+00 0. -1.
          6    2    1    2  502    0  0.38656517620E+02 -0.22802307685E+03  0.18239326302E+03  0.34143304309E+03  0.17268575677E+03 0.  0.
         24    2    3    3    0    0  0.33014460220E+02 -0.42799310625E+02  0.91820652216E+02  0.13511977592E+03  0.83093839100E+02 0.  0.
         -6    2    1    2    0  501 -0.38656517620E+02  0.22802307685E+03 -0.15921303836E+04  0.16180975268E+04  0.17283401899E+03 0.  0.
        -24    2    5    5    0    0 -0.91123928899E+02  0.17589381710E+03 -0.11685567602E+04  0.11880893950E+04  0.82397230241E+02 0.  0.
          5    1    3    3  502    0  0.56420574001E+01 -0.18522376622E+03  0.90572610809E+02  0.20631326718E+03  0.47000000000E+01 0. -1.
        -11    1    4    4    0    0  0.11275610169E+02 -0.63037910305E+02  0.81558848227E+02  0.10369553146E+03  0.00000000000E+00 0.  1.
         12    1    4    4    0    0  0.21738850051E+02  0.20238599680E+02  0.10261803989E+02  0.31424244457E+02  0.00000000000E+00 0. -1.
         -5    1    5    5    0  501  0.52467411279E+02  0.52129259753E+02 -0.42357362340E+03  0.43000813180E+03  0.47000000000E+01 0.  1.
         11    1    6    6    0    0 -0.46848545441E+02  0.14879099300E+03 -0.98722259945E+03  0.99947086334E+03  0.00000000000E+00 0. -1.
        -12    1    6    6    0    0 -0.44275383458E+02  0.27102824095E+02 -0.18133416071E+03  0.18861853169E+03  0.00000000000E+00 0.  1.
</event>
<event>
12    1  0.9656379E-001  0.2187513E+03  0.7818608E-02  0.1134817E+00
          2   -1    0    0  502    0  0.00000000000E+00  0.00000000000E+00  0.42061028148E+03  0.42061028148E+03  0.00000000000E+00 0. -1.
         -2   -1    0    0    0  501 -0.00000000000E+00 -0.00000000000E+00 -0.12097449872E+04  0.12097449872E+04  0.00000000000E+00 0.  1.
          6    2    1    2  502    0 -0.13208222143E+03  0.94133445857E+01 -0.11708130721E+04  0.11914581027E+04  0.17673380137E+03 0.  0.
         24    2    3    3    0    0 -0.92574288362E+02 -0.46289030505E+02 -0.97873652820E+03  0.98754851474E+03  0.81327757425E+02 0.  0.
         -6    2    1    2    0  501  0.13208222143E+03 -0.94133445857E+01  0.38167836637E+03  0.43889716594E+03  0.17151682903E+03 0.  0.
        -24    2    5    5    0    0  0.15092875547E+03 -0.32126348590E+02  0.35759488817E+03  0.40051518686E+03  0.93416911509E+02 0.  0.
          5    1    3    3  502    0 -0.39507933071E+02  0.55702375091E+02 -0.19207654387E+03  0.20390958799E+03  0.47000000000E+01 0. -1.
        -11    1    4    4    0    0 -0.94201433621E+02 -0.62734165167E+02 -0.78628916951E+03  0.79439294034E+03  0.00000000000E+00 0.  1.
         12    1    4    4    0    0  0.16271452596E+01  0.16445134662E+02 -0.19244735869E+03  0.19315557440E+03  0.00000000000E+00 0. -1.
         -5    1    5    5    0  501 -0.18846534035E+02  0.22713004005E+02  0.24083478199E+02  0.38381979081E+02  0.47000000000E+01 0.  1.
         13    1    6    6    0    0  0.14208441419E+03 -0.14544933391E+02  0.22525289101E+03  0.26671782984E+03  0.00000000000E+00 0. -1.
        -14    1    6    6    0    0  0.88443412738E+01 -0.17581415200E+02  0.13234199716E+03  0.13379735702E+03  0.00000000000E+00 0.  1.
</event>
<event>
12    1  0.9656379E-001  0.1088726E+04  0.7818608E-02  0.9216251E-01
          1   -1    0    0  502    0  0.00000000000E+00  0.00000000000E+00  0.28508011884E+04  0.28508011884E+04  0.00000000000E+00 0. -1.
         -1   -1    0    0    0  501 -0.00000000000E+00 -0.00000000000E+00 -0.10962819242E+04  0.10962819242E+04  0.00000000000E+00 0.  1.
          6    2    1    2  502    0 -0.79558039196E+03 -0.72341239212E+03 -0.67761770349E+03  0.12823939861E+04  0.17057237301E+03 0.  0.
         24    2    3    3    0    0 -0.70025296855E+03 -0.68841651524E+03 -0.63421794158E+03  0.11718604691E+04  0.82176901895E+02 0.  0.
         -6    2    1    2    0  501  0.79558039196E+03  0.72341239212E+03  0.24321369677E+04  0.26646891264E+04  0.17030637538E+03 0.  0.
        -24    2    5    5    0    0  0.55494823037E+03  0.56479047687E+03  0.18887351260E+04  0.20495693001E+04  0.80362418941E+02 0.  0.
          5    1    3    3  502    0 -0.95327423414E+02 -0.34995876881E+02 -0.43399761916E+02  0.11053351703E+03  0.47000000000E+01 0. -1.
        -13    1    4    4    0    0 -0.39560823822E+03 -0.35671415710E+03 -0.30322366994E+03  0.61294001504E+03  0.00000000000E+00 0.  1.
         14    1    4    4    0    0 -0.30464473033E+03 -0.33170235814E+03 -0.33099427164E+03  0.55892045406E+03  0.00000000000E+00 0. -1.
         -5    1    5    5    0  501  0.24063216159E+03  0.15862191525E+03  0.54340184171E+03  0.61511982635E+03  0.47000000000E+01 0.  1.
         11    1    6    6    0    0  0.22077489310E+02  0.22772337180E+02  0.12621338733E+03  0.13013767332E+03  0.00000000000E+00 0. -1.
        -12    1    6    6    0    0  0.53287074106E+03  0.54201813969E+03  0.17625217387E+04  0.19194316267E+04  0.00000000000E+00 0.  1.
</event>
<event>
12    1  0.9656379E-001  0.8153656E+03  0.7818608E-02  0.9538039E-01
          2   -1    0    0  502    0  0.00000000000E+00  0.00000000000E+00  0.11366839813E+04  0.11366839813E+04  0.00000000000E+00 0. -1.
         -2   -1    0    0    0  501 -0.00000000000E+00 -0.00000000000E+00 -0.58724054368E+03  0.58724054368E+03  0.00000000000E+00 0.  1.
          6    2    1    2  502    0  0.74688897593E+03  0.27729540762E+03  0.22013089950E+03  0.84480521516E+03  0.17464922899E+03 0.  0.
         24    2    3    3    0    0  0.42272047819E+03  0.22267103709E+03  0.97759818222E+02  0.49399784877E+03  0.78752137014E+02 0.  0.
         -6    2    1    2    0  501 -0.74688897593E+03 -0.27729540762E+03  0.32931253812E+03  0.87911930982E+03  0.17224438360E+03 0.  0.
        -24    2    5    5    0    0 -0.20940549805E+03 -0.10116060019E+03  0.83205645198E+02  0.26227033954E+03  0.88195362512E+02 0.  0.
          5    1    3    3  502    0  0.32416849774E+03  0.54624370536E+02  0.12237108128E+03  0.35080736640E+03  0.47000000000E+01 0. -1.
        -13    1    4    4    0    0  0.41428127320E+03  0.20410365441E+03  0.84032571959E+02  0.46941319562E+03  0.00000000000E+00 0.  1.
         14    1    4    4    0    0  0.84392049905E+01  0.18567382681E+02  0.13727246262E+02  0.24584653149E+02  0.00000000000E+00 0. -1.
         -5    1    5    5    0  501 -0.53748347789E+03 -0.17613480743E+03  0.24610689292E+03  0.61684897028E+03  0.47000000000E+01 0.  1.
         13    1    6    6    0    0 -0.18258335305E+03 -0.11742237700E+03  0.68547953384E+02  0.22764779231E+03  0.00000000000E+00 0. -1.
        -14    1    6    6    0    0 -0.26822144998E+02  0.16261776814E+02  0.14657691814E+02  0.34622547231E+02  0.00000000000E+00 0.  1.
</event>
<event>
12    1  0.9656379E-001  0.7616799E+03  0.7818608E-02  0.9617203E-01
         -1   -1    0    0    0  501 -0.00000000000E+00  0.00000000000E+00  0.74747692293E+03  0.74747692293E+03  0.00000000000E+00 0.  1.
          1   -1    0    0  502    0  0.00000000000E+00 -0.00000000000E+00 -0.81733946277E+03  0.81733946277E+03  0.00000000000E+00 0. -1.
          6    2    1    2  502    0 -0.54460548632E+03 -0.50459406769E+03  0.14073223255E+03  0.77389015416E+03  0.16700329504E+03 0.  0.
         24    2    3    3    0    0 -0.16276752230E+03 -0.19922213294E+03  0.81101579451E+02  0.28131513035E+03  0.79862455525E+02 0.  0.
         -6    2    1    2    0  501  0.54460548632E+03  0.50459406769E+03 -0.21059477239E+03  0.79092623154E+03  0.17321615598E+03 0.  0.
        -24    2    5    5    0    0  0.51775635171E+03  0.47927661235E+03 -0.15935303345E+03  0.72760439183E+03  0.78975001469E+02 0.  0.
          5    1    3    3  502    0 -0.38183796402E+03 -0.30537193475E+03  0.59630653096E+02  0.49257502382E+03  0.47000000000E+01 0. -1.
        -13    1    4    4    0    0 -0.79368354576E+02 -0.13464259926E+03  0.15410715967E+02  0.15705239702E+03  0.00000000000E+00 0.  1.
         14    1    4    4    0    0 -0.83399167725E+02 -0.64579533677E+02  0.65690863484E+02  0.12426273332E+03  0.00000000000E+00 0. -1.
         -5    1    5    5    0  501  0.26849134610E+02  0.25317455339E+02 -0.51241738939E+02  0.63321839705E+02  0.47000000000E+01 0.  1.
         13    1    6    6    0    0  0.37988592396E+03  0.35767020224E+03 -0.15267199597E+03  0.54364512979E+03  0.00000000000E+00 0. -1.
        -14    1    6    6    0    0  0.13787042776E+03  0.12160641011E+03 -0.66810374889E+01  0.18395926204E+03  0.00000000000E+00 0.  1.
</event>
<event>
12    1  0.9656379E-001  0.3434819E+03  0.7818608E-02  0.1065323E+00
         -1   -1    0    0    0  501 -0.00000000000E+00  0.00000000000E+00  0.17454553246E+03  0.17454553246E+03  0.00000000000E+00 0.  1.
          1   -1    0    0  502    0  0.00000000000E+00 -0.00000000000E+00 -0.68005195170E+03  0.68005195170E+03  0.00000000000E+00 0. -1.
          6    2    1    2  502    0  0.29083250251E+03 -0.63381581820E+02 -0.21989681003E+03  0.40832517908E+03  0.17255166003E+03 0.  0.
         24    2    3    3    0    0  0.18798291984E+03 -0.15621101446E+02 -0.21939884670E+03  0.29482875575E+03  0.56626357118E+02 0.  0.
         -6    2    1    2    0  501 -0.29083250251E+03  0.63381581820E+02 -0.28560960920E+03  0.44627230508E+03  0.17025085015E+03 0.  0.
        -24    2    5    5    0    0 -0.24018929392E+03  0.44557955122E+01 -0.26386229607E+03  0.36545140124E+03  0.78871188355E+02 0.  0.
          5    1    3    3  502    0  0.10284958268E+03 -0.47760480374E+02 -0.49796332623E+00  0.11349642334E+03  0.47000000000E+01 0. -1.
        -13    1    4    4    0    0  0.13588855694E+03 -0.34386119992E+02 -0.17245698815E+03  0.22223752590E+03  0.00000000000E+00 0.  1.
         14    1    4    4    0    0  0.52094362899E+02  0.18765018546E+02 -0.46941858550E+02  0.72591229849E+02  0.00000000000E+00 0. -1.
         -5    1    5    5    0  501 -0.50643208598E+02  0.58925786308E+02 -0.21747313132E+02  0.80820903840E+02  0.47000000000E+01 0.  1.
         11    1    6    6    0    0 -0.48081087955E+02 -0.28129064897E+02 -0.80469408926E+02  0.97869101783E+02  0.00000000000E+00 0. -1.
        -12    1    6    6    0    0 -0.19210820596E+03  0.32584860409E+02 -0.18339288715E+03  0.26758229945E+03  0.00000000000E+00 0.  1.
</event>
<event>
12    1  0.9656379E-001  0.7686627E+03  0.7818608E-02  0.9606518E-01
         -2   -1    0    0    0  501 -0.00000000000E+00  0.00000000000E+00  0.20006453268E+03  0.20006453268E+03  0.00000000000E+00 0.  1.
          2   -1    0    0  502    0  0.00000000000E+00 -0.00000000000E+00 -0.35467196475E+04  0.35467196475E+04  0.00000000000E+00 0. -1.
          6    2    1    2  502    0  0.56539123064E+02 -0.74749212607E+03 -0.24387153054E+04  0.25568308040E+04  0.16766117142E+03 0.  0.
         24    2    3    3    0    0 -0.67955667124E+01 -0.62614419325E+03 -0.20153649403E+04  0.21118766205E+04  0.78894152641E+02 0.  0.
         -6    2    1    2    0  501 -0.56539123064E+02  0.74749212607E+03 -0.90793980941E+03  0.11899533762E+04  0.17231711768E+03 0.  0.
        -24    2    5    5    0    0 -0.66780284244E+02  0.74598011811E+03 -0.90710788441E+03  0.11785538302E+04  0.72100441688E+02 0.  0.
          5    1    3    3  502    0  0.63334689776E+02 -0.12134793282E+03 -0.42335036510E+03  0.44495418344E+03  0.47000000000E+01 0. -1.
        -11    1    4    4    0    0  0.35432054631E+02 -0.22722419326E+03 -0.72795046130E+03  0.76341216823E+03  0.00000000000E+00 0.  1.
         12    1    4    4    0    0 -0.42227621343E+02 -0.39892000000E+03 -0.12874144790E+04  0.13484644523E+04  0.00000000000E+00 0. -1.
         -5    1    5    5    0  501  0.10241161180E+02  0.15120079591E+01 -0.83192500602E+00  0.11399546026E+02  0.47000000000E+01 0.  1.
         11    1    6    6    0    0  0.14563805155E+02  0.12950990676E+03 -0.14510852716E+03  0.19504205963E+03  0.00000000000E+00 0. -1.
        -12    1    6    6    0    0 -0.81344089399E+02  0.61647021135E+03 -0.76199935724E+03  0.98351177055E+03  0.00000000000E+00 0.  1.
</event>
<event>
12    1  0.9656379E-001  0.5634754E+03  0.7818608E-02  0.9984222E-01
         -2   -1    0    0    0  501 -0.00000000000E+00  0.00000000000E+00  0.11637808289E+03  0.11637808289E+03  0.00000000000E+00 0.  1.
          2   -1    0    0  502    0  0.00000000000E+00 -0.00000000000E+00 -0.35881334977E+04  0.35881334977E+04  0.00000000000E+00 0. -1.
          6    2    1    2  502    0 -0.39813607212E+03  0.35984143737E+03 -0.83046292960E+03  0.10039038651E+04  0.17365512078E+03 0.  0.
         24    2    3    3    0    0 -0.39164976254E+03  0.37413098533E+03 -0.80122368560E+03  0.97038839432E+03  0.79565763890E+02 0.  0.
         -6    2    1    2    0  501  0.39813607212E+03 -0.35984143737E+03 -0.26412924852E+04  0.27006077155E+04  0.16987597984E+03 0.  0.
        -24    2    5    5    0    0  0.32023093454E+03 -0.30766449810E+03 -0.23917858025E+04  0.24340231732E+04  0.81389114399E+02 0.  0.
          5    1    3    3  502    0 -0.64863095773E+01 -0.14289547954E+02 -0.29239244004E+02  0.33515470795E+02  0.47000000000E+01 0. -1.
        -11    1    4    4    0    0 -0.15673098178E+03  0.17326181259E+03 -0.40885940326E+03  0.47090367167E+03  0.00000000000E+00 0.  1.
         12    1    4    4    0    0 -0.23491878076E+03  0.20086917274E+03 -0.39236428233E+03  0.49948472265E+03  0.00000000000E+00 0. -1.
         -5    1    5    5    0  501  0.77905137580E+02 -0.52176939271E+02 -0.24950668275E+03  0.26658454229E+03  0.47000000000E+01 0.  1.
         11    1    6    6    0    0  0.30985494197E+03 -0.31077728388E+03 -0.22907451733E+04  0.23324034930E+04  0.00000000000E+00 0. -1.
        -12    1    6    6    0    0  0.10375992566E+02  0.31127857809E+01 -0.10104062917E+03  0.10161968018E+03  0.00000000000E+00 0.  1.
</event>
<event>
12    1  0.9656379E-001  0.1885079E+03  0.7818608E-02  0.1159814E+00
          2   -1    0    0  502    0  0.00000000000E+00  0.00000000000E+00  0.12335616270E+04  0.12335616270E+04  0.00000000000E+00 0. -1.
         -2   -1    0    0    0  501 -0.00000000000E+00 -0.00000000000E+00 -0.16662466902E+03  0.16662466902E+03  0.00000000000E+00 0.  1.
          6    2    1    2  502    0  0.73615673152E+02  0.24547951551E+01 -0.10305933826E+03  0.21515875715E+03  0.17391598611E+03 0.  0.
         24    2    3    3    0    0  0.19110537210E+02 -0.63333757004E+02 -0.58670249940E+02  0.11876672117E+03  0.79290342539E+02 0.  0.
         -6    2    1    2    0  501 -0.73615673152E+02 -0.24547951551E+01  0.11699962962E+04  0.11850275388E+04  0.17312897308E+03 0.  0.
        -24    2    5    5    0    0  0.25974627531E+02  0.10009986583E+02  0.64758123404E+03  0.65303770252E+03  0.79510408875E+02 0.  0.
          5    1    3    3  502    0  0.54505135942E+02  0.65788552159E+02 -0.44389088316E+02  0.96392035982E+02  0.47000000000E+01 0. -1.
        -13    1    4    4    0    0  0.96148865330E+01 -0.19675083901E+02 -0.69437039478E+02  0.72808360928E+02  0.00000000000E+00 0.  1.
         14    1    4    4    0    0  0.94956506772E+01 -0.43658673103E+02  0.10766789538E+02  0.45958360239E+02  0.00000000000E+00 0. -1.
         -5    1    5    5    0  501 -0.99590300683E+02 -0.12464781738E+02  0.52241506217E+03  0.53198983633E+03  0.47000000000E+01 0.  1.
         11    1    6    6    0    0  0.40068115337E+02 -0.79107374021E+00  0.61162031595E+03  0.61293188083E+03  0.00000000000E+00 0. -1.
        -12    1    6    6    0    0 -0.14093487806E+02  0.10801060324E+02  0.35960918096E+02  0.40105821685E+02  0.00000000000E+00 0.  1.
</event>
<event>
12    1  0.9656379E-001  0.9999745E+03  0.7818608E-02  0.9308573E-01
         -2   -1    0    0    0  501 -0.00000000000E+00  0.00000000000E+00  0.10858625267E+04  0.10858625267E+04  0.00000000000E+00 0.  1.
          2   -1    0    0  502    0  0.00000000000E+00 -0.00000000000E+00 -0.29117376212E+04  0.29117376212E+04  0.00000000000E+00 0. -1.
          6    2    1    2  502    0  0.97311000749E+03  0.14666093744E+03  0.74006982114E+03  0.12433950026E+04  0.17284465579E+03 0.  0.
         24    2    3    3    0    0  0.89390686275E+03  0.10155514850E+03  0.70425050548E+03  0.11453501980E+04  0.80469709328E+02 0.  0.
         -6    2    1    2    0  501 -0.97311000749E+03 -0.14666093744E+03 -0.25659449156E+04  0.27542051454E+04  0.18198943845E+03 0.  0.
        -24    2    5    5    0    0 -0.67683654541E+03 -0.14179967611E+03 -0.16286672202E+04  0.17711928542E+04  0.79701665521E+02 0.  0.
          5    1    3    3  502    0  0.79203144741E+02  0.45105788932E+02  0.35819315656E+02  0.98044804585E+02  0.47000000000E+01 0. -1.
        -11    1    4    4    0    0  0.57536930481E+03  0.10201070310E+03  0.44007302912E+03  0.73151916682E+03  0.00000000000E+00 0.  1.
         12    1    4    4    0    0  0.31853755794E+03 -0.45555459672E+00  0.26417747636E+03  0.41383103117E+03  0.00000000000E+00 0. -1.
         -5    1    5    5    0  501 -0.29627346208E+03 -0.48612613297E+01 -0.93727769548E+03  0.98301229119E+03  0.47000000000E+01 0.  1.
         11    1    6    6    0    0 -0.36177729552E+03 -0.75561732507E+02 -0.97085279364E+03  0.10388202606E+04  0.00000000000E+00 0. -1.
        -12    1    6    6    0    0 -0.31505924989E+03 -0.66237943599E+02 -0.65781442652E+03  0.73237259359E+03  0.00000000000E+00 0.  1.
</event>
<event>
12    1  0.9656379E-001  0.3687028E+03  0.7818608E-02  0.1055190E+00
         -1   -1    0    0    0  501 -0.00000000000E+00  0.00000000000E+00  0.50460327122E+03  0.50460327122E+03  0.00000000000E+00 0.  1.
          1   -1    0    0  502    0  0.00000000000E+00 -0.00000000000E+00 -0.67703221555E+03  0.67703221555E+03  0.00000000000E+00 0. -1.
          6    2    1    2  502    0  0.25540305355E+03 -0.20297496335E+03  0.37226384114E+03  0.52364766963E+03  0.17087117654E+03 0.  0.
         24    2    3    3    0    0  0.14078344542E+03 -0.17564584976E+03  0.31544861637E+03  0.39274849169E+03  0.63813048179E+02 0.  0.
         -6    2    1    2    0  501 -0.25540305355E+03  0.20297496335E+03 -0.54469278547E+03  0.65798781714E+03  0.17270837111E+03 0.  0.
        -24    2    5    5    0    0 -0.20521154805E+03  0.22231358609E+03 -0.48995547824E+03  0.58110197737E+03  0.78025812648E+02 0.  0.
          5    1    3    3  502    0  0.11461960813E+03 -0.27329113598E+02  0.56815224774E+02  0.13089917793E+03  0.47000000000E+01 0. -1.
        -13    1    4    4    0    0  0.10129892090E+03 -0.94963735122E+02  0.23065087437E+03  0.26921999965E+03  0.00000000000E+00 0.  1.
         14    1    4    4    0    0  0.39484524519E+02 -0.80682114634E+02  0.84797741995E+02  0.12352849204E+03  0.00000000000E+00 0. -1.
         -5    1    5    5    0  501 -0.50191505500E+02 -0.19338622736E+02 -0.54737307234E+02  0.76885839769E+02  0.47000000000E+01 0.  1.
         11    1    6    6    0    0 -0.10474297934E+03  0.12371281779E+03 -0.18996223484E+03  0.24972305394E+03  0.00000000000E+00 0. -1.
        -12    1    6    6    0    0 -0.10046856871E+03  0.98600768299E+02 -0.29999324340E+03  0.33137892343E+03  0.00000000000E+00 0.  1.
</event>
<event>
12    1  0.9656379E-001  0.4355923E+03  0.7818608E-02  0.1032108E+00
         -2   -1    0    0    0  501 -0.00000000000E+00  0.00000000000E+00  0.22517736088E+03  0.22517736088E+03  0.00000000000E+00 0.  1.
          2   -1    0    0  502    0  0.00000000000E+00 -0.00000000000E+00 -0.87982636315E+03  0.87982636315E+03  0.00000000000E+00 0. -1.
          6    2    1    2  502    0  0.39374996772E+03  0.68547018458E+02 -0.43995701024E+03  0.61817751635E+03  0.16983386014E+03 0.  0.
         24    2    3    3    0    0  0.36145205160E+03  0.13961014744E+02 -0.36368638797E+03  0.51886948542E+03  0.78200118694E+02 0.  0.
         -6    2    1    2    0  501 -0.39374996772E+03 -0.68547018458E+02 -0.21469199203E+03  0.48682620767E+03  0.17654850388E+03 0.  0.
        -24    2    5    5    0    0 -0.33731138198E+03 -0.98116726455E+02 -0.13562795690E+03  0.38517536783E+03  0.80989263895E+02 0.  0.
          5    1    3    3  502    0  0.32297916115E+02  0.54586003714E+02 -0.76270622275E+02  0.99308030939E+02  0.47000000000E+01 0. -1.
        -11    1    4    4    0    0  0.20548394048E+03 -0.27965161591E+02 -0.18364038344E+03  0.27700088536E+03  0.00000000000E+00 0.  1.
         12    1    4    4    0    0  0.15596811112E+03  0.41926176335E+02 -0.18004600453E+03  0.24186860006E+03  0.00000000000E+00 0. -1.
         -5    1    5    5    0  501 -0.56438585739E+02  0.29569707997E+02 -0.79064035124E+02  0.10165083985E+03  0.47000000000E+01 0.  1.
         11    1    6    6    0    0 -0.30011784205E+03 -0.71630148856E+02 -0.91874365867E+02  0.32193554704E+03  0.00000000000E+00 0. -1.
        -12    1    6    6    0    0 -0.37193539927E+02 -0.26486577599E+02 -0.43753591037E+02  0.63239820793E+02  0.00000000000E+00 0.  1.
</event>
<event>
12    1  0.9656379E-001  0.8660580E+03  0.7818608E-02  0.9469034E-01
         -2   -1    0    0    0  501 -0.00000000000E+00  0.00000000000E+00  0.46991764871E+03  0.46991764871E+03  0.00000000000E+00 0.  1.
          2   -1    0    0  502    0  0.00000000000E+00 -0.00000000000E+00 -0.16826023137E+04  0.16826023137E+04  0.00000000000E+00 0. -1.
          6    2    1    2  502    0 -0.46215557985E+03 -0.71199854918E+03 -0.85010287935E+03  0.12133415318E+04  0.17027346609E+03 0.  0.
         24    2    3    3    0    0 -0.43276688248E+03 -0.58273163853E+03 -0.75837530030E+03  0.10520663989E+04  0.69622370777E+02 0.  0.
         -6    2    1    2    0  501  0.46215557985E+03  0.71199854918E+03 -0.36258178563E+03  0.93917843062E+03  0.17338067724E+03 0.  0.
        -24    2    5    5    0    0  0.43049532224E+03  0.68440136128E+03 -0.37538189759E+03  0.89502065035E+03  0.80118348218E+02 0.  0.
          5    1    3    3  502    0 -0.29388697373E+02 -0.12926691066E+03 -0.91727579046E+02  0.16127513287E+03  0.47000000000E+01 0. -1.
        -11    1    4    4    0    0 -0.35773547867E+03 -0.51079567050E+03 -0.62413884247E+03  0.88229030618E+03  0.00000000000E+00 0.  1.
         12    1    4    4    0    0 -0.75031403813E+02 -0.71935968027E+02 -0.13423645784E+03  0.16977609274E+03  0.00000000000E+00 0. -1.
         -5    1    5    5    0  501  0.31660257611E+02  0.27597187898E+02  0.12800111956E+02  0.44157780265E+02  0.47000000000E+01 0.  1.
         11    1    6    6    0    0  0.36704007798E+03  0.54241732414E+03 -0.32780550504E+03  0.73238748044E+03  0.00000000000E+00 0. -1.
        -12    1    6    6    0    0  0.63455244261E+02  0.14198403715E+03 -0.47576392554E+02  0.16263316992E+03  0.00000000000E+00 0.  1.
</event>
<event>
12    1  0.9656379E-001  0.2567106E+03  0.7818608E-02  0.1109136E+00
          2   -1    0    0  502    0  0.00000000000E+00  0.00000000000E+00  0.51987053708E+03  0.51987053708E+03  0.00000000000E+00 0. -1.
         -2   -1    0    0    0  501 -0.00000000000E+00 -0.00000000000E+00 -0.21048604213E+03  0.21048604213E+03  0.00000000000E+00 0.  1.
          6    2    1    2  502    0 -0.15972719269E+03 -0.10374824919E+03 -0.76106297006E+02  0.26645376199E+03  0.17008516555E+03 0.  0.
         24    2    3    3    0    0 -0.35166745076E+02 -0.30942926599E+00 -0.32573018308E+00  0.87625132054E+02  0.80257472933E+02 0.  0.
         -6    2    1    2    0  501  0.15972719269E+03  0.10374824919E+03  0.38549079196E+03  0.46390281722E+03  0.17414418693E+03 0.  0.
        -24    2    5    5    0    0  0.12988338121E+03  0.12669153851E+03  0.37575608361E+03  0.42473775429E+03  0.79303763447E+02 0.  0.
          5    1    3    3  502    0 -0.12456044761E+03 -0.10343881993E+03 -0.75780566823E+02  0.17882862994E+03  0.47000000000E+01 0. -1.
        -13    1    4    4    0    0 -0.29819657608E+02  0.32010321117E+02 -0.21370771002E+02  0.48688627944E+02  0.00000000000E+00 0.  1.
         14    1    4    4    0    0 -0.53470874678E+01 -0.32319750383E+02  0.21045040818E+02  0.38936504110E+02  0.00000000000E+00 0. -1.
         -5    1    5    5    0  501  0.29843811473E+02 -0.22943289318E+02  0.97347083474E+01  0.39165062934E+02  0.47000000000E+01 0.  1.
         11    1    6    6    0    0  0.54369808025E+02  0.10514789082E+03  0.24751083736E+03  0.27436065604E+03  0.00000000000E+00 0. -1.
        -12    1    6    6    0    0  0.75513573189E+02  0.21543647687E+02  0.12824524625E+03  0.15037709825E+03  0.00000000000E+00 0.  1.
</event>
<event>
12    1  0.9656379E-001  0.2871206E+03  0.7818608E-02  0.1091862E+00
          2   -1    0    0  502    0  0.00000000000E+00  0.00000000000E+00  0.10824389119E+04  0.10824389119E+04  0.00000000000E+00 0. -1.
         -2   -1    0    0    0  501 -0.00000000000E+00 -0.00000000000E+00 -0.31825318878E+03  0.31825318878E+03  0.00000000000E+00 0.  1.
          6    2    1    2  502    0 -0.16126510741E+03  0.16664487710E+03 -0.22904830743E+03  0.36651362334E+03  0.16760715684E+03 0.  0.
         24    2    3    3    0    0 -0.13406897845E+03  0.93820907723E+02 -0.80188150035E+02  0.19851244357E+03  0.78741330544E+02 0.  0.
         -6    2    1    2    0  501  0.16126510741E+03 -0.16664487710E+03  0.99323403051E+03  0.10341784773E+04  0.17098050649E+03 0.  0.
        -24    2    5    5    0    0  0.72999109888E+02 -0.69097696338E+02  0.27934699747E+03  0.30825621924E+03  0.82968608651E+02 0.  0.
          5    1    3    3  502    0 -0.27196128962E+02  0.72823969379E+02 -0.14886015739E+03  0.16800117978E+03  0.47000000000E+01 0. -1.
        -11    1    4    4    0    0 -0.34221162782E+02  0.56632560009E+02 -0.61503149089E+02  0.90338099289E+02  0.00000000000E+00 0.  1.
         12    1    4    4    0    0 -0.99847815667E+02  0.37188347714E+02 -0.18685000946E+02  0.10817434428E+03  0.00000000000E+00 0. -1.
         -5    1    5    5    0  501  0.88265997523E+02 -0.97547180764E+02  0.71388703303E+03  0.72592225805E+03  0.47000000000E+01 0.  1.
         11    1    6    6    0    0  0.71011522658E+02 -0.52218044024E+02  0.27749688948E+03  0.29115955101E+03  0.00000000000E+00 0. -1.
        -12    1    6    6    0    0  0.19875872302E+01 -0.16879652314E+02  0.18501079952E+01  0.17096668238E+02  0.00000000000E+00 0.  1.
</event>
<event>
12    1  0.9656379E-001  0.2996640E+03  0.7818608E-02  0.1085409E+00
         -2   -1    0    0    0  501 -0.00000000000E+00  0.00000000000E+00  0.15026432378E+03  0.15026432378E+03  0.00000000000E+00 0.  1.
          2   -1    0    0  502    0  0.00000000000E+00 -0.00000000000E+00 -0.13778651784E+04  0.13778651784E+04  0.00000000000E+00 0. -1.
          6    2    1    2  502    0 -0.24043027930E+03  0.36117412271E+02 -0.40054400762E+02  0.30369229720E+03  0.17752033598E+03 0.  0.
         24    2    3    3    0    0 -0.23187749758E+03 -0.15676805112E+02 -0.25809668732E+02  0.24909565426E+03  0.85846198934E+02 0.  0.
         -6    2    1    2    0  501  0.24043027930E+03 -0.36117412271E+02 -0.11875464539E+04  0.12244372050E+04  0.17282564104E+03 0.  0.
        -24    2    5    5    0    0  0.17830562729E+03  0.91657332900E+01 -0.10390182673E+04  0.10571268710E+04  0.77983037881E+02 0.  0.
          5    1    3    3  502    0 -0.85527817186E+01  0.51794217383E+02 -0.14244732029E+02  0.54596642937E+02  0.47000000000E+01 0. -1.
        -11    1    4    4    0    0 -0.49168882967E+02 -0.83967646814E+01  0.29636194568E+02  0.58020588913E+02  0.00000000000E+00 0.  1.
         12    1    4    4    0    0 -0.18270861461E+03 -0.72800404305E+01 -0.55445863300E+02  0.19107506535E+03  0.00000000000E+00 0. -1.
         -5    1    5    5    0  501  0.62124652004E+02 -0.45283145561E+02 -0.14852818658E+03  0.16731033401E+03  0.47000000000E+01 0.  1.
         13    1    6    6    0    0 -0.92639114261E+00  0.15455098324E+02 -0.84332846701E+02  0.85742330838E+02  0.00000000000E+00 0. -1.
        -14    1    6    6    0    0  0.17923201843E+03 -0.62893650341E+01 -0.95468542059E+03  0.97138454015E+03  0.00000000000E+00 0.  1.
</event>
<event>
12    1  0.9656379E-001  0.4907233E+03  0.7818608E-02  0.1016229E+00
         -1   -1    0    0    0  501 -0.00000000000E+00  0.00000000000E+00  0.13479485097E+04  0.13479485097E+04  0.00000000000E+00 0.  1.
          1   -1    0    0  502    0  0.00000000000E+00 -0.00000000000E+00 -0.33200661406E+03  0.33200661406E+03  0.00000000000E+00 0. -1.
          6    2    1    2  502    0 -0.46008767519E+03 -0.67468756043E+01  0.10791428858E+04  0.11856934178E+04  0.17202710225E+03 0.  0.
         24    2    3    3    0    0 -0.35667406871E+03 -0.66548777450E+02  0.82408655211E+03  0.90400837238E+03  0.80419903636E+02 0.  0.
         -6    2    1    2    0  501  0.46008767519E+03  0.67468756043E+01 -0.63200990102E+02  0.49426170598E+03  0.16903869278E+03 0.  0.
        -24    2    5    5    0    0  0.12406728498E+03  0.35233280619E+02 -0.35339941763E+01  0.15176583985E+03  0.79914365211E+02 0.  0.
          5    1    3    3  502    0 -0.10341360648E+03  0.59801901845E+02  0.25505633366E+03  0.28168504541E+03  0.47000000000E+01 0. -1.
        -11    1    4    4    0    0 -0.97008546603E+02  0.15688756725E+02  0.19040480885E+03  0.21426802476E+03  0.00000000000E+00 0.  1.
         12    1    4    4    0    0 -0.25966552211E+03 -0.82237534175E+02  0.63368174326E+03  0.68974034762E+03  0.00000000000E+00 0. -1.
         -5    1    5    5    0  501  0.33602039022E+03 -0.28486405014E+02 -0.59666995926E+02  0.34249586613E+03  0.47000000000E+01 0.  1.
         11    1    6    6    0    0  0.63387880904E+02  0.57588187728E+02  0.82387780943E+01  0.86036621713E+02  0.00000000000E+00 0. -1.
        -12    1    6    6    0    0  0.60679404074E+02 -0.22354907109E+02 -0.11772772271E+02  0.65729218142E+02  0.00000000000E+00 0.  1.
</event>
<event>
12    1  0.9656379E-001  0.8466590E+03  0.7818608E-02  0.9494832E-01
         -1   -1    0    0    0  501 -0.00000000000E+00  0.00000000000E+00  0.53865123147E+03  0.53865123147E+03  0.00000000000E+00 0.  1.
          1   -1    0    0  502    0  0.00000000000E+00 -0.00000000000E+00 -0.15285154554E+04  0.15285154554E+04  0.00000000000E+00 0. -1.
          6    2    1    2  502    0  0.66006753449E+03  0.50164056484E+03 -0.12322887869E+03  0.85565618585E+03  0.17213292966E+03 0.  0.
         24    2    3    3    0    0  0.18172062228E+03  0.10805888935E+03 -0.15496386469E+02  0.22688700438E+03  0.80860785503E+02 0.  0.
         -6    2    1    2    0  501 -0.66006753449E+03 -0.50164056484E+03 -0.86663534525E+03  0.12115105010E+04  0.17137230261E+03 0.  0.
        -24    2    5    5    0    0 -0.57314825426E+03 -0.47544364848E+03 -0.81527474110E+03  0.11071014911E+04  0.80344407531E+02 0.  0.
          5    1    3    3  502    0  0.47834691221E+03  0.39358167548E+03 -0.10773249222E+03  0.62876918148E+03  0.47000000000E+01 0. -1.
        -11    1    4    4    0    0  0.14633511685E+03  0.48392607592E+02 -0.27275607088E+02  0.15652402255E+03  0.00000000000E+00 0.  1.
         12    1    4    4    0    0  0.35385505433E+02  0.59666281760E+02  0.11779220619E+02  0.70362981831E+02  0.00000000000E+00 0. -1.
         -5    1    5    5    0  501 -0.86919280230E+02 -0.26196916358E+02 -0.51360604151E+02  0.10440900996E+03  0.47000000000E+01 0.  1.
         13    1    6    6    0    0 -0.34747196752E+03 -0.24424719187E+03 -0.49378470777E+03  0.65131927392E+03  0.00000000000E+00 0. -1.
        -14    1    6    6    0    0 -0.22567628674E+03 -0.23119645661E+03 -0.32149003333E+03  0.45578221716E+03  0.00000000000E+00 0.  1.
</event>
<event>
12    1  0.9656379E-001  0.2504883E+03  0.7818608E-02  0.1112997E+00
          1   -1    0    0  502    0  0.00000000000E+00  0.00000000000E+00  0.92033648094E+02  0.92033648094E+02  0.00000000000E+00 0. -1.
         -1   -1    0    0    0  501 -0.00000000000E+00 -0.00000000000E+00 -0.75028296010E+03  0.75028296010E+03  0.00000000000E+00 0.  1.
          6    2    1    2  502    0 -0.74092672635E+02 -0.16563168205E+03 -0.45653270052E+03  0.52078729910E+03  0.17284017479E+03 0.  0.
         24    2    3    3    0    0 -0.86661949689E+01 -0.54933177946E+02 -0.31528489254E+03  0.32971711291E+03  0.78841956517E+02 0.  0.
         -6    2    1    2    0  501  0.74092672635E+02  0.16563168205E+03 -0.20171661149E+03  0.32152930910E+03  0.17253384312E+03 0.  0.
        -24    2    5    5    0    0  0.11340423731E+03  0.12770040464E+03 -0.18507213059E+03  0.26422913748E+03  0.79983930779E+02 0.  0.
          5    1    3    3  502    0 -0.65426477666E+02 -0.11069850411E+03 -0.14124780799E+03  0.19107018619E+03  0.47000000000E+01 0. -1.
        -11    1    4    4    0    0 -0.39864260939E+02 -0.36560385985E+02 -0.24206200511E+03  0.24803192424E+03  0.00000000000E+00 0.  1.
         12    1    4    4    0    0  0.31198065970E+02 -0.18372791961E+02 -0.73222887427E+02  0.81685188669E+02  0.00000000000E+00 0. -1.
         -5    1    5    5    0  501 -0.39311564679E+02  0.37931277407E+02 -0.16644480893E+02  0.57300171618E+02  0.47000000000E+01 0.  1.
         13    1    6    6    0    0  0.17666858767E+02  0.41728834877E+02 -0.10052084790E+03  0.11026266105E+03  0.00000000000E+00 0. -1.
        -14    1    6    6    0    0  0.95737378547E+02  0.85971569768E+02 -0.84551282695E+02  0.15396647643E+03  0.00000000000E+00 0.  1.
</event>
<event>
12    1  0.9656379E-001  0.2611625E+03  0.7818608E-02  0.1106447E+00
         -2   -1    0    0    0  501 -0.00000000000E+00  0.00000000000E+00  0.79477958601E+03  0.79477958601E+03  0.00000000000E+00 0.  1.
          2   -1    0    0  502    0  0.00000000000E+00 -0.00000000000E+00 -0.15994914040E+03  0.15994914040E+03  0.00000000000E+00 0. -1.
          6    2    1    2  502    0  0.11142372994E+03 -0.16159623183E+03  0.64258417796E+03  0.69373570824E+03  0.17270268493E+03 0.  0.
         24    2    3    3    0    0  0.88839078555E+02 -0.65615363512E+02  0.20047955459E+03  0.24074455869E+03  0.74619923094E+02 0.  0.
         -6    2    1    2    0  501 -0.11142372994E+03  0.16159623183E+03 -0.77537323604E+01  0.26099301817E+03  0.17183901022E+03 0.  0.
        -24    2    5    5    0    0 -0.79750806445E+02  0.98700173261E+02 -0.72014407665E+02  0.16554348880E+03  0.78209056015E+02 0.  0.
          5    1    3    3  502    0  0.22584651386E+02 -0.95980868318E+02  0.44210462338E+03  0.45299114955E+03  0.47000000000E+01 0. -1.
        -11    1    4    4    0    0  0.64848758859E+02 -0.53371865995E+02  0.19626823513E+03  0.21348334297E+03  0.00000000000E+00 0.  1.
         12    1    4    4    0    0  0.23990319696E+02 -0.12243497517E+02  0.42113194541E+01  0.27261215713E+02  0.00000000000E+00 0. -1.
         -5    1    5    5    0  501 -0.31672923496E+02  0.62896058569E+02  0.64260675304E+02  0.95449529370E+02  0.47000000000E+01 0.  1.
         11    1    6    6    0    0 -0.21080763579E+02  0.85854646075E+02 -0.50076110825E+02  0.10160234112E+03  0.00000000000E+00 0. -1.
        -12    1    6    6    0    0 -0.58670042866E+02  0.12845527186E+02 -0.21938296840E+02  0.63941147681E+02  0.00000000000E+00 0.  1.
</event>
<event>
12    1  0.9656379E-001  0.2586207E+03  0.7818608E-02  0.1107975E+00
          1   -1    0    0  502    0  0.00000000000E+00  0.00000000000E+00  0.68063184096E+03  0.68063184096E+03  0.00000000000E+00 0. -1.
         -1   -1    0    0    0  501 -0.00000000000E+00 -0.00000000000E+00 -0.64570827918E+03  0.64570827918E+03  0.00000000000E+00 0.  1.
          6    2    1    2  502    0  0.56788862147E+02  0.18462997523E+03 -0.59316081402E+03  0.64719638853E+03  0.17236650322E+03 0.  0.
         24    2    3    3    0    0  0.10270199639E+03  0.13376876536E+03 -0.38190829637E+03  0.42505995573E+03  0.79876382515E+02 0.  0.
         -6    2    1    2    0  501 -0.56788862147E+02 -0.18462997523E+03  0.62808437580E+03  0.67914373161E+03  0.17156055036E+03 0.  0.
        -24    2    5    5    0    0  0.16699088881E+02 -0.15395155832E+03  0.49074422288E+03  0.52031661863E+03  0.76938608395E+02 0.  0.
          5    1    3    3  502    0 -0.45913134244E+02  0.50861209864E+02 -0.21125251765E+03  0.22213643280E+03  0.47000000000E+01 0. -1.
        -11    1    4    4    0    0  0.52999539570E+02  0.64750521624E+02 -0.98904145561E+02  0.12955157758E+03  0.00000000000E+00 0.  1.
         12    1    4    4    0    0  0.49702456821E+02  0.69018243741E+02 -0.28300415081E+03  0.29550837815E+03  0.00000000000E+00 0. -1.
         -5    1    5    5    0  501 -0.73487951028E+02 -0.30678416912E+02  0.13734015292E+03  0.15882711297E+03  0.47000000000E+01 0.  1.
         13    1    6    6    0    0 -0.47805038481E+01 -0.34217611360E+02  0.23014540001E+03  0.23272430748E+03  0.00000000000E+00 0. -1.
        -14    1    6    6    0    0  0.21479592729E+02 -0.11973394696E+03  0.26059882287E+03  0.28759231116E+03  0.00000000000E+00 0.  1.
</event>
<event>
12    1  0.9656379E-001  0.1021811E+04  0.7818608E-02  0.9284941E-01
          1   -1    0    0  502    0  0.00000000000E+00  0.00000000000E+00  0.33640333728E+04  0.33640333728E+04  0.00000000000E+00 0. -1.
         -1   -1    0    0    0  501 -0.00000000000E+00 -0.00000000000E+00 -0.34590330499E+03  0.34590330499E+03  0.00000000000E+00 0.  1.
          6    2    1    2  502    0 -0.10073184210E+04  0.14885194665E+01  0.91461454833E+03  0.13713989603E+04  0.17182176634E+03 0.  0.
         24    2    3    3    0    0 -0.52770903808E+03 -0.43793402979E+02  0.54676595138E+03  0.76525517130E+03  0.79169316102E+02 0.  0.
         -6    2    1    2    0  501  0.10073184210E+04 -0.14885194665E+01  0.21035155195E+04  0.23385377175E+04  0.17113882796E+03 0.  0.
        -24    2    5    5    0    0  0.32534098223E+03 -0.25132918379E+02  0.78349249711E+03  0.85255819065E+03  0.80725195031E+02 0.  0.
          5    1    3    3  502    0 -0.47960938290E+03  0.45281922446E+02  0.36784859696E+03  0.60614378901E+03  0.47000000000E+01 0. -1.
        -13    1    4    4    0    0 -0.35346223287E+03 -0.32174276430E+02  0.31131449187E+03  0.47210957094E+03  0.00000000000E+00 0.  1.
         14    1    4    4    0    0 -0.17424680521E+03 -0.11619126549E+02  0.23545145951E+03  0.29314560036E+03  0.00000000000E+00 0. -1.
         -5    1    5    5    0  501  0.68197743874E+03  0.23644398912E+02  0.13200230224E+04  0.14859795268E+04  0.47000000000E+01 0.  1.
         13    1    6    6    0    0  0.19175477463E+03  0.16953506122E+02  0.51354641781E+03  0.54844073354E+03  0.00000000000E+00 0. -1.
        -14    1    6    6    0    0  0.13358620760E+03 -0.42086424501E+02  0.26994607930E+03  0.30411745711E+03  0.00000000000E+00 0.  1.
</event>
<event>
12    1  0.9656379E-001  0.4732592E+03  0.7818608E-02  0.1021004E+00
         -1   -1    0    0    0  501 -0.00000000000E+00  0.00000000000E+00  0.97249468133E+03  0.97249468133E+03  0.00000000000E+00 0.  1.
          1   -1    0    0  502    0  0.00000000000E+00 -0.00000000000E+00 -0.12710025539E+04  0.12710025539E+04  0.00000000000E+00 0. -1.
          6    2    1    2  502    0  0.33556065972E+03 -0.28616759496E+03  0.86577690260E+03  0.98677175335E+03  0.17220917331E+03 0.  0.
         24    2    3    3    0    0  0.28143176986E+03 -0.26854817871E+03  0.82933043855E+03  0.91901619794E+03  0.74025876580E+02 0.  0.
         -6    2    1    2    0  501 -0.33556065972E+03  0.28616759496E+03 -0.11642847751E+04  0.12567254818E+04  0.17119302075E+03 0.  0.
        -24    2    5    5    0    0 -0.73805403220E+02  0.72717375128E+02 -0.37360444664E+03  0.39691487333E+03  0.85006352288E+02 0.  0.
          5    1    3    3  502    0  0.54128889856E+02 -0.17619416250E+02  0.36446464048E+02  0.67755555401E+02  0.47000000000E+01 0. -1.
        -13    1    4    4    0    0  0.98561903674E+02 -0.49044214707E+02  0.21796731699E+03  0.24419159512E+03  0.00000000000E+00 0.  1.
         14    1    4    4    0    0  0.18286986619E+03 -0.21950396400E+03  0.61136312156E+03  0.67482460282E+03  0.00000000000E+00 0. -1.
         -5    1    5    5    0  501 -0.26175525650E+03  0.21345021983E+03 -0.79068032849E+03  0.85981060851E+03  0.47000000000E+01 0.  1.
         11    1    6    6    0    0 -0.15582555985E+02  0.72469210707E+01 -0.21528008378E+03  0.21596492398E+03  0.00000000000E+00 0. -1.
        -12    1    6    6    0    0 -0.58222847235E+02  0.65470454058E+02 -0.15832436285E+03  0.18094994934E+03  0.00000000000E+00 0.  1.
</event>
<event>
12    1  0.9656379E-001  0.4939834E+03  0.7818608E-02  0.1015361E+00
         -1   -1    0    0    0  501 -0.00000000000E+00  0.00000000000E+00  0.72339723468E+03  0.72339723468E+03  0.00000000000E+00 0.  1.
          1   -1    0    0  502    0  0.00000000000E+00 -0.00000000000E+00 -0.34019550921E+03  0.34019550921E+03  0.00000000000E+00 0. -1.
          6    2    1    2  502    0 -0.39518615196E+02  0.46167971809E+03  0.24041868616E+03  0.54929699517E+03  0.17092735648E+03 0.  0.
         24    2    3    3    0    0 -0.55756609067E+02  0.43034565457E+03  0.25642473211E+03  0.51026137696E+03  0.79415664156E+02 0.  0.
         -6    2    1    2    0  501  0.39518615196E+02 -0.46167971809E+03  0.14278303931E+03  0.51429574873E+03  0.17147372335E+03 0.  0.
        -24    2    5    5    0    0  0.89289725931E+02 -0.27594289693E+03  0.65089350371E+02  0.30685002209E+03  0.76178573117E+02 0.  0.
          5    1    3    3  502    0  0.16237993871E+02  0.31334063522E+02 -0.16006045949E+02  0.39035618205E+02  0.47000000000E+01 0. -1.
        -11    1    4    4    0    0 -0.91045727832E+01  0.23475974910E+03  0.17666011047E+03  0.29394528007E+03  0.00000000000E+00 0.  1.
         12    1    4    4    0    0 -0.46652036284E+02  0.19558590547E+03  0.79764621646E+02  0.21631609689E+03  0.00000000000E+00 0. -1.
         -5    1    5    5    0  501 -0.49771110735E+02 -0.18573682116E+03  0.77693688935E+02  0.20744572664E+03  0.47000000000E+01 0.  1.
         11    1    6    6    0    0  0.88520176718E+01 -0.20338571547E+02  0.28936223328E+02  0.36459850931E+02  0.00000000000E+00 0. -1.
        -12    1    6    6    0    0  0.80437708260E+02 -0.25560432538E+03  0.36153127043E+02  0.27039017116E+03  0.00000000000E+00 0.  1.
</event>
<event>
12    1  0.9656379E-001  0.1801366E+03  0.7818608E-02  0.1167671E+00
          2   -1    0    0  502    0  0.00000000000E+00  0.00000000000E+00  0.91567989580E+03  0.91567989580E+03  0.00000000000E+00 0. -1.
         -2   -1    0    0    0  501 -0.00000000000E+00 -0.00000000000E+00 -0.36089745292E+03  0.36089745292E+03  0.00000000000E+00 0.  1.
          6    2    1    2  502    0 -0.16393131220E+02 -0.51869148291E+02 -0.32850980752E+03  0.37541308429E+03  0.17336997123E+03 0.  0.
         24    2    3    3    0    0 -0.73924204775E+02 -0.44058459488E+02 -0.16786504738E+03  0.20453400352E+03  0.79054086300E+02 0.  0.
         -6    2    1    2    0  501  0.16393131220E+02  0.51869148291E+02  0.88329225040E+03  0.90116426443E+03  0.17009611569E+03 0.  0.
        -24    2    5    5    0    0 -0.35250097543E+02  0.46548387461E+02  0.77163298670E+03  0.77793596109E+03  0.79734381845E+02 0.  0.
          5    1    3    3  502    0  0.57531073555E+02 -0.78106888033E+01 -0.16064476014E+03  0.17087908077E+03  0.47000000000E+01 0. -1.
        -13    1    4    4    0    0 -0.76748372123E+02 -0.55321777711E+02 -0.16812776660E+03  0.19291904420E+03  0.00000000000E+00 0.  1.
         14    1    4    4    0    0  0.28241673484E+01  0.11263318224E+02  0.26271922292E+00  0.11614959320E+02  0.00000000000E+00 0. -1.
         -5    1    5    5    0  501  0.51643228762E+02  0.53207608295E+01  0.11165926370E+03  0.12322830334E+03  0.47000000000E+01 0.  1.
         11    1    6    6    0    0  0.86843496228E+01  0.64107981485E+01  0.48838651560E+03  0.48850578797E+03  0.00000000000E+00 0. -1.
        -12    1    6    6    0    0 -0.43934447166E+02  0.40137589313E+02  0.28324647110E+03  0.28943017312E+03  0.00000000000E+00 0.  1.
</event>
<event>
12    1  0.9656379E-001  0.6908202E+03  0.7818608E-02  0.9733061E-01
          2   -1    0    0  502    0  0.00000000000E+00  0.00000000000E+00  0.88917161178E+03  0.88917161178E+03  0.00000000000E+00 0. -1.
         -2   -1    0    0    0  501 -0.00000000000E+00 -0.00000000000E+00 -0.53679090800E+03  0.53679090800E+03  0.00000000000E+00 0.  1.
          6    2    1    2  502    0 -0.18607789645E+03 -0.64130383871E+03  0.18392385203E+03  0.71309127056E+03  0.16963366326E+03 0.  0.
         24    2    3    3    0    0 -0.71470799238E+02 -0.44250698939E+03  0.96255214512E+02  0.46740274003E+03  0.90993100070E+02 0.  0.
         -6    2    1    2    0  501  0.18607789645E+03  0.64130383871E+03  0.16845685175E+03  0.71287124921E+03  0.18415240961E+03 0.  0.
        -24    2    5    5    0    0  0.14275290270E+03  0.62573264262E+03  0.14560523815E+03  0.66125920144E+03  0.64367032301E+02 0.  0.
          5    1    3    3  502    0 -0.11460709722E+03 -0.19879684932E+03  0.87668637522E+02  0.24568853053E+03  0.47000000000E+01 0. -1.
        -13    1    4    4    0    0 -0.15051416355E+02 -0.60863740407E+02 -0.17674380353E+02  0.65140799438E+02  0.00000000000E+00 0.  1.
         14    1    4    4    0    0 -0.56419382883E+02 -0.38164324898E+03  0.11392959487E+03  0.40226194059E+03  0.00000000000E+00 0. -1.
         -5    1    5    5    0  501  0.43324993753E+02  0.15571196092E+02  0.22851613599E+02  0.51612047775E+02  0.47000000000E+01 0.  1.
         13    1    6    6    0    0  0.78532770386E+02  0.23003647448E+03  0.36449819611E+02  0.24579008313E+03  0.00000000000E+00 0. -1.
        -14    1    6    6    0    0  0.64220132313E+02  0.39569616814E+03  0.10915541854E+03  0.41546911831E+03  0.00000000000E+00 0.  1.
</event>
<event>
12    1  0.9656379E-001  0.2651450E+03  0.7818608E-02  0.1104091E+00
         -4   -1    0    0    0  501 -0.00000000000E+00  0.00000000000E+00  0.40610377539E+02  0.40610377539E+02  0.00000000000E+00 0.  1.
          4   -1    0    0  502    0  0.00000000000E+00 -0.00000000000E+00 -0.18113303599E+04  0.18113303599E+04  0.00000000000E+00 0. -1.
          6    2    1    2  502    0  0.13555863809E+03 -0.14904544660E+03 -0.68834381783E+03  0.73739838409E+03  0.17131396849E+03 0.  0.
         24    2    3    3    0    0  0.40847730441E+02 -0.47116250172E+02 -0.14620523712E+03  0.17766983576E+03  0.79385899678E+02 0.  0.
         -6    2    1    2    0  501 -0.13555863809E+03  0.14904544660E+03 -0.10823761645E+04  0.11145423534E+04  0.17342377680E+03 0.  0.
        -24    2    5    5    0    0 -0.12679561980E+03  0.12898480595E+03 -0.10715329888E+04  0.10896649690E+04  0.80452403579E+02 0.  0.
          5    1    3    3  502    0  0.94710907646E+02 -0.10192919642E+03 -0.54213858072E+03  0.55972854833E+03  0.47000000000E+01 0. -1.
        -11    1    4    4    0    0  0.15857026683E+02 -0.67092805836E+02 -0.10121043948E+03  0.12245996469E+03  0.00000000000E+00 0.  1.
         12    1    4    4    0    0  0.24990703758E+02  0.19976555664E+02 -0.44994797632E+02  0.55209871078E+02  0.00000000000E+00 0. -1.
         -5    1    5    5    0  501 -0.87630182823E+01  0.20060640644E+02 -0.10843175765E+02  0.24877384371E+02  0.47000000000E+01 0.  1.
         11    1    6    6    0    0  0.48571573708E+00  0.21850279843E+02 -0.27919375819E+03  0.28004789816E+03  0.00000000000E+00 0. -1.
        -12    1    6    6    0    0 -0.12728133554E+03  0.10713452611E+03 -0.79233923058E+03  0.80961707083E+03  0.00000000000E+00 0.  1.
</event>
<event>
12    1  0.9656379E-001  0.4535424E+03  0.7818608E-02  0.1026671E+00
         -1   -1    0    0    0  501 -0.00000000000E+00  0.00000000000E+00  0.24083653288E+03  0.24083653288E+03  0.00000000000E+00 0.  1.
          1   -1    0    0  502    0  0.00000000000E+00 -0.00000000000E+00 -0.17785091401E+04  0.17785091401E+04  0.00000000000E+00 0. -1.
          6    2    1    2  502    0  0.29464639151E+03  0.29956640109E+03 -0.40631992200E+02  0.45500848499E+03  0.16977996916E+03 0.  0.
         24    2    3    3    0    0  0.12376298521E+03  0.10277174864E+03  0.38106162516E+02  0.18270156111E+03  0.77771922861E+02 0.  0.
         -6    2    1    2    0  501 -0.29464639151E+03 -0.29956640109E+03 -0.14970406150E+04  0.15643371880E+04  0.17164996357E+03 0.  0.
        -24    2    5    5    0    0 -0.14057795367E+03 -0.19097800867E+03 -0.10454750755E+04  0.10749885914E+04  0.79671684235E+02 0.  0.
          5    1    3    3  502    0  0.17088340630E+03  0.19679465245E+03 -0.78738154716E+02  0.27230692387E+03  0.47000000000E+01 0. -1.
        -13    1    4    4    0    0  0.73592923626E+01  0.46804618462E+02 -0.21081891902E+01  0.47426532186E+02  0.00000000000E+00 0.  1.
         14    1    4    4    0    0  0.11640369284E+03  0.55967130179E+02  0.40214351706E+02  0.13527502893E+03  0.00000000000E+00 0. -1.
         -5    1    5    5    0  501 -0.15406843785E+03 -0.10858839242E+03 -0.45156553952E+03  0.48934859659E+03  0.47000000000E+01 0.  1.
         11    1    6    6    0    0 -0.13108313221E+03 -0.12833471956E+03 -0.69328587668E+03  0.71714565787E+03  0.00000000000E+00 0. -1.
        -12    1    6    6    0    0 -0.94948214598E+01 -0.62643289111E+02 -0.35218919881E+03  0.35784293351E+03  0.00000000000E+00 0.  1.
</event>
<event>
12    1  0.9656379E-001  0.3963354E+03  0.7818608E-02  0.1045056E+00
         -1   -1    0    0    0  501 -0.00000000000E+00  0.00000000000E+00  0.71790614608E+02  0.71790614608E+02  0.00000000000E+00 0.  1.
          1   -1    0    0  502    0  0.00000000000E+00 -0.00000000000E+00 -0.23059494156E+04  0.23059494156E+04  0.00000000000E+00 0. -1.
          6    2    1    2  502    0  0.19280797261E+03  0.30203838882E+03 -0.84487006225E+03  0.93267207147E+03  0.16634202173E+03 0.  0.
         24    2    3    3    0    0  0.14125166329E+03  0.14874873967E+03 -0.36016955825E+03  0.42168044909E+03  0.77550438544E+02 0.  0.
         -6    2    1    2    0  501 -0.19280797261E+03 -0.30203838882E+03 -0.13892887387E+04  0.14450679587E+04  0.17232557312E+03 0.  0.
        -24    2    5    5    0    0 -0.20912982347E+03 -0.28461220238E+03 -0.13564796351E+04  0.14042194328E+04  0.83998965367E+02 0.  0.
          5    1    3    3  502    0  0.51556309326E+02  0.15328964915E+03 -0.48470050400E+03  0.51099162238E+03  0.47000000000E+01 0. -1.
        -13    1    4    4    0    0  0.44121979082E+02  0.39538523834E+02 -0.18106079279E+03  0.19050736099E+03  0.00000000000E+00 0.  1.
         14    1    4    4    0    0  0.97129684204E+02  0.10921021584E+03 -0.17910876546E+03  0.23117308810E+03  0.00000000000E+00 0. -1.
         -5    1    5    5    0  501  0.16321850857E+02 -0.17426186434E+02 -0.32809103567E+02  0.40848525871E+02  0.47000000000E+01 0.  1.
         13    1    6    6    0    0 -0.92522309631E+01 -0.56386509350E+02 -0.28205687568E+03  0.28778659338E+03  0.00000000000E+00 0. -1.
        -14    1    6    6    0    0 -0.19987759251E+03 -0.22822569303E+03 -0.10744227595E+04  0.11164328394E+04  0.00000000000E+00 0.  1.
</event>
<event>
12    1  0.9656379E-001  0.2136813E+04  0.7818608E-02  0.8545198E-01
          2   -1    0    0  502    0  0.00000000000E+00  0.00000000000E+00  0.21479222310E+04  0.21479222310E+04  0.00000000000E+00 0. -1.
         -2   -1    0    0    0  501 -0.00000000000E+00 -0.00000000000E+00 -0.21259522733E+04  0.21259522733E+04  0.00000000000E+00 0.  1.
          6    2    1    2  502    0 -0.21062961891E+04  0.31569182992E+03 -0.93099853225E+01  0.21368617056E+04  0.17305000821E+03 0.  0.
         24    2    3    3    0    0 -0.15498969763E+04  0.18120120537E+03 -0.46879967980E+02  0.15631881000E+04  0.79654195140E+02 0.  0.
         -6    2    1    2    0  501  0.21062961891E+04 -0.31569182992E+03  0.31279942981E+02  0.21370127987E+04  0.17233774813E+03 0.  0.
        -24    2    5    5    0    0  0.51543737706E+03 -0.58778343124E+02  0.54398694153E+01  0.52532855580E+03  0.82522215570E+02 0.  0.
          5    1    3    3  502    0 -0.55639921282E+03  0.13449062455E+03  0.37569982658E+02  0.57367360556E+03  0.47000000000E+01 0. -1.
        -13    1    4    4    0    0 -0.15176832882E+04  0.17783161270E+03 -0.34328878315E+02  0.15284518696E+04  0.00000000000E+00 0.  1.
         14    1    4    4    0    0 -0.32213688096E+02  0.33695926664E+01 -0.12551089665E+02  0.34736230470E+02  0.00000000000E+00 0. -1.
         -5    1    5    5    0  501  0.15908588120E+04 -0.25691348680E+03  0.25840073566E+02  0.16116842429E+04  0.47000000000E+01 0.  1.
         11    1    6    6    0    0  0.44972205669E+03 -0.31360126439E+02  0.24932052163E+02  0.45150303767E+03  0.00000000000E+00 0. -1.
        -12    1    6    6    0    0  0.65715320374E+02 -0.27418216685E+02 -0.19492182747E+02  0.73825518124E+02  0.00000000000E+00 0.  1.
</event>
<event>
12    1  0.9656379E-001  0.6135012E+03  0.7818608E-02  0.9877785E-01
          2   -1    0    0  502    0  0.00000000000E+00  0.00000000000E+00  0.83247418151E+03  0.83247418151E+03  0.00000000000E+00 0. -1.
         -2   -1    0    0    0  501 -0.00000000000E+00 -0.00000000000E+00 -0.45479434048E+03  0.45479434048E+03  0.00000000000E+00 0.  1.
          6    2    1    2  502    0 -0.21538268991E+02  0.58833578477E+03  0.13957731367E+03  0.62928258734E+03  0.17295044249E+03 0.  0.
         24    2    3    3    0    0  0.41718916199E+02  0.46807288757E+03  0.11587208510E+03  0.49126569061E+03  0.84160219900E+02 0.  0.
         -6    2    1    2    0  501  0.21538268991E+02 -0.58833578477E+03  0.23810252736E+03  0.65798593465E+03  0.17219112634E+03 0.  0.
        -24    2    5    5    0    0  0.17124797732E+02 -0.12179174511E+03  0.56571463675E+02  0.15732793086E+03  0.80157716120E+02 0.  0.
          5    1    3    3  502    0 -0.63257185189E+02  0.12026289720E+03  0.23705228565E+02  0.13801689673E+03  0.47000000000E+01 0. -1.
        -11    1    4    4    0    0 -0.23252522538E+01  0.15271632720E+03  0.92806204976E+00  0.15273684785E+03  0.00000000000E+00 0.  1.
         12    1    4    4    0    0  0.44044168452E+02  0.31535656037E+03  0.11494402305E+03  0.33852884275E+03  0.00000000000E+00 0. -1.
         -5    1    5    5    0  501  0.44134712593E+01 -0.46654403966E+03  0.18153106369E+03  0.50065800379E+03  0.47000000000E+01 0.  1.
         13    1    6    6    0    0  0.27738440058E+02 -0.10855958433E+03  0.15783796363E+02  0.11315357985E+03  0.00000000000E+00 0. -1.
        -14    1    6    6    0    0 -0.10613642326E+02 -0.13232160782E+02  0.40787667313E+02  0.44174351010E+02  0.00000000000E+00 0.  1.
</event>
<event>
12    1  0.9656379E-001  0.5722502E+03  0.7818608E-02  0.9964712E-01
          1   -1    0    0  502    0  0.00000000000E+00  0.00000000000E+00  0.33967372196E+04  0.33967372196E+04  0.00000000000E+00 0. -1.
         -1   -1    0    0    0  501 -0.00000000000E+00 -0.00000000000E+00 -0.37749885683E+03  0.37749885683E+03  0.00000000000E+00 0.  1.
          6    2    1    2  502    0  0.54341623293E+03 -0.47872751592E+02 -0.11856393844E+03  0.58474084015E+03  0.17398689631E+03 0.  0.
         24    2    3    3    0    0  0.53859134499E+03 -0.40192272268E+02 -0.88997706556E+02  0.55345951387E+03  0.81858329301E+02 0.  0.
         -6    2    1    2    0  501 -0.54341623293E+03  0.47872751592E+02  0.31378023012E+04  0.31894952363E+04  0.17170782808E+03 0.  0.
        -24    2    5    5    0    0 -0.53762748666E+03  0.21522603680E+02  0.29420614384E+04  0.29918480373E+04  0.76958653138E+02 0.  0.
          5    1    3    3  502    0  0.48248879426E+01 -0.76804793238E+01 -0.29566231881E+02  0.31281326282E+02  0.47000000000E+01 0. -1.
        -13    1    4    4    0    0  0.20656122786E+03 -0.50155236939E+02 -0.54873804701E+02  0.21953182706E+03  0.00000000000E+00 0.  1.
         14    1    4    4    0    0  0.33203011712E+03  0.99629646703E+01 -0.34123901855E+02  0.33392768681E+03  0.00000000000E+00 0. -1.
         -5    1    5    5    0  501 -0.57887462719E+01  0.26350147912E+02  0.19574086287E+03  0.19764719901E+03  0.47000000000E+01 0.  1.
         13    1    6    6    0    0 -0.12051057466E+03  0.20928369644E+02  0.83330936185E+03  0.84223826072E+03  0.00000000000E+00 0. -1.
        -14    1    6    6    0    0 -0.41711691199E+03  0.59423403569E+00  0.21087520765E+04  0.21496097766E+04  0.00000000000E+00 0.  1.
</event>
<event>
12    1  0.9656379E-001  0.5921248E+03  0.7818608E-02  0.9921881E-01
         -2   -1    0    0    0  501 -0.00000000000E+00  0.00000000000E+00  0.10074359914E+04  0.10074359914E+04  0.00000000000E+00 0.  1.
          2   -1    0    0  502    0  0.00000000000E+00 -0.00000000000E+00 -0.84324396238E+03  0.84324396238E+03  0.00000000000E+00 0. -1.
          6    2    1    2  502    0  0.19269711865E+03  0.53270652888E+03  0.79123931111E+03  0.98844147331E+03  0.17334495457E+03 0.  0.
         24    2    3    3    0    0  0.70476460213E+02  0.36791949733E+03  0.45749354774E+03  0.59664946257E+03  0.79740497868E+02 0.  0.
         -6    2    1    2    0  501 -0.19269711865E+03 -0.53270652888E+03 -0.62704728213E+03  0.86223848042E+03  0.17134315756E+03 0.  0.
        -24    2    5    5    0    0 -0.16056622170E+03 -0.29341285428E+03 -0.42776901018E+03  0.54914460166E+03  0.81858737226E+02 0.  0.
          5    1    3    3  502    0  0.12222065844E+03  0.16478703155E+03  0.33374576337E+03  0.39179201074E+03  0.47000000000E+01 0. -1.
        -13    1    4    4    0    0 -0.31375106263E+01  0.31175041306E+02  0.12418137094E+02  0.33703668973E+02  0.00000000000E+00 0.  1.
         14    1    4    4    0    0  0.73613970839E+02  0.33674445603E+03  0.44507541065E+03  0.56294579360E+03  0.00000000000E+00 0. -1.
         -5    1    5    5    0  501 -0.32130896948E+02 -0.23929367460E+03 -0.19927827196E+03  0.31309387876E+03  0.47000000000E+01 0.  1.
         13    1    6    6    0    0 -0.10661956228E+03 -0.25964079656E+03 -0.34641718754E+03  0.44585417137E+03  0.00000000000E+00 0. -1.
        -14    1    6    6    0    0 -0.53946659418E+02 -0.33772057720E+02 -0.81351822636E+02  0.10329043030E+03  0.00000000000E+00 0.  1.
</event>
<event>
12    1  0.9656379E-001  0.6698317E+03  0.7818608E-02  0.9770262E-01
         -2   -1    0    0    0  501 -0.00000000000E+00  0.00000000000E+00  0.16901303537E+04  0.16901303537E+04  0.00000000000E+00 0.  1.
          2   -1    0    0  502    0  0.00000000000E+00 -0.00000000000E+00 -0.32432910709E+03  0.32432910709E+03  0.00000000000E+00 0. -1.
          6    2    1    2  502    0 -0.64633792433E+03 -0.37075736386E+02  0.11120404350E+04  0.12982229304E+04  0.17210905053E+03 0.  0.
         24    2    3    3    0    0 -0.44871499061E+03 -0.65142395446E+02  0.87129964421E+03  0.98545979377E+03  0.79870273890E+02 0.  0.
         -6    2    1    2    0  501  0.64633792433E+03  0.37075736386E+02  0.25376081160E+03  0.71623653038E+03  0.17167671739E+03 0.  0.
        -24    2    5    5    0    0  0.19393866263E+03 -0.32222320106E+02  0.79945904384E+02  0.22664381742E+03  0.79533575105E+02 0.  0.
          5    1    3    3  502    0 -0.19762293373E+03  0.28066659060E+02  0.24074079081E+03  0.31276313665E+03  0.47000000000E+01 0. -1.
        -13    1    4    4    0    0 -0.10487029002E+03 -0.26283402350E+02  0.14429251521E+03  0.18030231533E+03  0.00000000000E+00 0.  1.
         14    1    4    4    0    0 -0.34384470059E+03 -0.38858993096E+02  0.72700712900E+03  0.80515747844E+03  0.00000000000E+00 0. -1.
         -5    1    5    5    0  501  0.45239926170E+03  0.69298056493E+02  0.17381490721E+03  0.48959271297E+03  0.47000000000E+01 0.  1.
         13    1    6    6    0    0  0.17400286006E+03 -0.49769896213E+02  0.52477172669E+02  0.18843537760E+03  0.00000000000E+00 0. -1.
        -14    1    6    6    0    0  0.19935802566E+02  0.17547576107E+02  0.27468731714E+02  0.38208439816E+02  0.00000000000E+00 0.  1.
</event>
<event>
12    1  0.9656379E-001  0.8303004E+03  0.7818608E-02  0.9517165E-01
          1   -1    0    0  502    0  0.00000000000E+00  0.00000000000E+00  0.20109500977E+04  0.20109500977E+04  0.00000000000E+00 0. -1.
         -1   -1    0    0    0  501 -0.00000000000E+00 -0.00000000000E+00 -0.34311658309E+03  0.34311658309E+03  0.00000000000E+00 0.  1.
          6    2    1    2  502    0  0.32259505865E+03  0.74532345937E+03  0.86854570091E+03  0.12016822994E+04  0.17347646269E+03 0.  0.
         24    2    3    3    0    0  0.19823511155E+03  0.58571721265E+03  0.59866124318E+03  0.86434083889E+03  0.79548658368E+02 0.  0.
         -6    2    1    2    0  501 -0.32259505865E+03 -0.74532345937E+03  0.79928781366E+03  0.11523843814E+04  0.17191312457E+03 0.  0.
        -24    2    5    5    0    0 -0.33826553427E+03 -0.71990166842E+03  0.77933896119E+03  0.11161645253E+04  0.75973990084E+02 0.  0.
          5    1    3    3  502    0  0.12435994710E+03  0.15960624672E+03  0.26988445773E+03  0.33734146048E+03  0.47000000000E+01 0. -1.
        -11    1    4    4    0    0  0.11113266471E+03  0.25863990490E+03  0.22679778553E+03  0.36150007619E+03  0.00000000000E+00 0.  1.
         12    1    4    4    0    0  0.87102446845E+02  0.32707730775E+03  0.37186345765E+03  0.50284076270E+03  0.00000000000E+00 0. -1.
         -5    1    5    5    0  501  0.15670475614E+02 -0.25421790955E+02  0.19948852475E+02  0.36219856107E+02  0.47000000000E+01 0.  1.
         13    1    6    6    0    0 -0.18644217565E+03 -0.46606268588E+03  0.52061872895E+03  0.72320050675E+03  0.00000000000E+00 0. -1.
        -14    1    6    6    0    0 -0.15182335861E+03 -0.25383898253E+03  0.25872023224E+03  0.39296401851E+03  0.00000000000E+00 0.  1.
</event>
<event>
12    1  0.9656379E-001  0.8458627E+03  0.7818608E-02  0.9495907E-01
          2   -1    0    0  502    0  0.00000000000E+00  0.00000000000E+00  0.22701222126E+04  0.22701222126E+04  0.00000000000E+00 0. -1.
         -2   -1    0    0    0  501 -0.00000000000E+00 -0.00000000000E+00 -0.32661851759E+03  0.32661851759E+03  0.00000000000E+00 0.  1.
          6    2    1    2  502    0 -0.33243393095E+03  0.75865195955E+03  0.12148177797E+04  0.14803066670E+04  0.17164054377E+03 0.  0.
         24    2    3    3    0    0 -0.21593256230E+03  0.37518452735E+03  0.55589463158E+03  0.70905985462E+03  0.79729135130E+02 0.  0.
         -6    2    1    2    0  501  0.33243393095E+03 -0.75865195955E+03  0.72868591534E+03  0.11164340632E+04  0.17139644148E+03 0.  0.
        -24    2    5    5    0    0  0.19214136017E+03 -0.51392350729E+03  0.40173515550E+03  0.68458581428E+03  0.78936229425E+02 0.  0.
          5    1    3    3  502    0 -0.11650136866E+03  0.38346743220E+03  0.65892314812E+03  0.77124681236E+03  0.47000000000E+01 0. -1.
        -11    1    4    4    0    0 -0.16833358214E+03  0.23024038768E+03  0.39646393561E+03  0.48839582639E+03  0.00000000000E+00 0.  1.
         12    1    4    4    0    0 -0.47598980155E+02  0.14494413967E+03  0.15943069596E+03  0.22066402822E+03  0.00000000000E+00 0. -1.
         -5    1    5    5    0  501  0.14029257078E+03 -0.24472845226E+03  0.32695075984E+03  0.43184824895E+03  0.47000000000E+01 0.  1.
         13    1    6    6    0    0  0.69099153800E+02 -0.13520153780E+03  0.15027358793E+03  0.21362654355E+03  0.00000000000E+00 0. -1.
        -14    1    6    6    0    0  0.12304220637E+03 -0.37872196949E+03  0.25146156757E+03  0.47095927073E+03  0.00000000000E+00 0.  1.
</event>
<event>
12    1  0.9656379E-001  0.6085383E+03  0.7818608E-02  0.9887848E-01
          2   -1    0    0  502    0  0.00000000000E+00  0.00000000000E+00  0.10474677881E+04  0.10474677881E+04  0.00000000000E+00 0. -1.
         -2   -1    0    0    0  501 -0.00000000000E+00 -0.00000000000E+00 -0.38208299395E+03  0.38208299395E+03  0.00000000000E+00 0.  1.
          6    2    1    2  502    0  0.28819875569E+03  0.50721776274E+03  0.13722977959E+03  0.62364366112E+03  0.17254281214E+03 0.  0.
         24    2    3    3    0    0  0.13389577516E+03  0.33926603966E+03  0.12992407671E+03  0.39540550835E+03  0.80222977048E+02 0.  0.
         -6    2    1    2    0  501 -0.28819875569E+03 -0.50721776274E+03  0.52815501460E+03  0.80590712097E+03  0.17381077804E+03 0.  0.
        -24    2    5    5    0    0 -0.26883973854E+03 -0.46165069235E+03  0.52911141780E+03  0.75616645194E+03  0.80203764373E+02 0.  0.
          5    1    3    3  502    0  0.15430298053E+03  0.16795172308E+03  0.73057028769E+01  0.22823815277E+03  0.47000000000E+01 0. -1.
        -13    1    4    4    0    0  0.13645358416E+03  0.33702757113E+03  0.11688146482E+03  0.38192727207E+03  0.00000000000E+00 0.  1.
         14    1    4    4    0    0 -0.25578089993E+01  0.22384685357E+01  0.13042611890E+02  0.13478236278E+02  0.00000000000E+00 0. -1.
         -5    1    5    5    0  501 -0.19359017154E+02 -0.45567070385E+02 -0.95640320317E+00  0.49740669032E+02  0.47000000000E+01 0.  1.
         11    1    6    6    0    0 -0.22209544299E+03 -0.30946320991E+03  0.36663048307E+03  0.52868873187E+03  0.00000000000E+00 0. -1.
        -12    1    6    6    0    0 -0.46744295554E+02 -0.15218748244E+03  0.16248093473E+03  0.22747772007E+03  0.00000000000E+00 0.  1.
</event>
<event>
12    1  0.1060134E+000  0.1033721E+04  0.7818608E-02  0.9272314E-01
          1   -1    0    0  502    0  0.00000000000E+00  0.00000000000E+00  0.22361601658E+04  0.22361601658E+04  0.00000000000E+00 0. -1.
         -1   -1    0    0    0  501 -0.00000000000E+00 -0.00000000000E+00 -0.49459936547E+03  0.49459936547E+03  0.00000000000E+00 0.  1.
          6    2    1    2  502    0 -0.98115433943E+03  0.27718064005E+03  0.11217309314E+04  0.15252299593E+04  0.16897692515E+03 0.  0.
         24    2    3    3    0    0 -0.75075566520E+03  0.26480356374E+03  0.82615727827E+03  0.11502331386E+04  0.82130557465E+02 0.  0.
         -6    2    1    2    0  501  0.98115433943E+03 -0.27718064005E+03  0.61982986890E+03  0.12055295720E+04  0.17210327575E+03 0.  0.
        -24    2    5    5    0    0  0.94373305754E+03 -0.29001590054E+03  0.61347049884E+03  0.11651857021E+04  0.81057762970E+02 0.  0.
          5    1    3    3  502    0 -0.23039867423E+03  0.12377076313E+02  0.29557365317E+03  0.37499682072E+03  0.47000000000E+01 0. -1.
        -13    1    4    4    0    0 -0.38984923598E+03  0.10856681475E+03  0.46304385134E+03  0.61496242839E+03  0.00000000000E+00 0.  1.
         14    1    4    4    0    0 -0.36090642922E+03  0.15623674898E+03  0.36311342693E+03  0.53527071020E+03  0.00000000000E+00 0. -1.
         -5    1    5    5    0  501  0.37421281888E+02  0.12835260491E+02  0.63593700641E+01  0.40343869889E+02  0.47000000000E+01 0.  1.
         13    1    6    6    0    0  0.43431605496E+03 -0.17540076169E+03  0.29665366625E+03  0.55443598413E+03  0.00000000000E+00 0. -1.
        -14    1    6    6    0    0  0.50941700258E+03 -0.11461513885E+03  0.31681683259E+03  0.61074971796E+03  0.00000000000E+00 0.  1.
</event>
<event>
12    1  0.9656379E-001  0.2179100E+03  0.7818608E-02  0.1135451E+00
          1   -1    0    0  502    0  0.00000000000E+00  0.00000000000E+00  0.84073650410E+03  0.84073650410E+03  0.00000000000E+00 0. -1.
         -1   -1    0    0    0  501 -0.00000000000E+00 -0.00000000000E+00 -0.82352606584E+02  0.82352606584E+02  0.00000000000E+00 0.  1.
          6    2    1    2  502    0 -0.10636819053E+03  0.83334676764E+02  0.11961045210E+03  0.24792902988E+03  0.17000965647E+03 0.  0.
         24    2    3    3    0    0 -0.12873942450E+03  0.22966254539E+02  0.80078386816E+02  0.17223429626E+03  0.78427141375E+02 0.  0.
         -6    2    1    2    0  501  0.10636819053E+03 -0.83334676764E+02  0.63877344541E+03  0.67516008081E+03  0.17190334448E+03 0.  0.
        -24    2    5    5    0    0  0.86611456873E+02 -0.11864551095E+03  0.58047719497E+03  0.60404238715E+03  0.79593529007E+02 0.  0.
          5    1    3    3  502    0  0.22371233969E+02  0.60368422225E+02  0.39532065289E+02  0.75694733616E+02  0.47000000000E+01 0. -1.
        -11    1    4    4    0    0 -0.70852974000E+02  0.50015340216E+02  0.59235362698E+02  0.10502621756E+03  0.00000000000E+00 0.  1.
         12    1    4    4    0    0 -0.57886450504E+02 -0.27049085677E+02  0.20843024118E+02  0.67208078698E+02  0.00000000000E+00 0. -1.
         -5    1    5    5    0  501  0.19756733662E+02  0.35310834188E+02  0.58296250441E+02  0.71117693660E+02  0.47000000000E+01 0.  1.
         11    1    6    6    0    0  0.52158892755E+02 -0.16921600021E+02  0.27005919531E+03  0.27557006298E+03  0.00000000000E+00 0. -1.
        -12    1    6    6    0    0  0.34452564118E+02 -0.10172391093E+03  0.31041799966E+03  0.32847232416E+03  0.00000000000E+00 0.  1.
</event>
<event>
12    1  0.9656379E-001  0.1122288E+04  0.7818608E-02  0.9183737E-01
          1   -1    0    0  502    0  0.00000000000E+00  0.00000000000E+00  0.27684332745E+04  0.27684332745E+04  0.00000000000E+00 0. -1.
         -1   -1    0    0    0  501 -0.00000000000E+00 -0.00000000000E+00 -0.45718500975E+03  0.45718500975E+03  0.00000000000E+00 0.  1.
          6    2    1    2  502    0 -0.90312708066E+03 -0.64357462336E+03  0.10431193609E+04  0.15321824885E+04  0.17221601944E+03 0.  0.
         24    2    3    3    0    0 -0.79885535250E+03 -0.60578170679E+03  0.88570331742E+03  0.13395616211E+04  0.69380253706E+02 0.  0.
         -6    2    1    2    0  501  0.90312708066E+03  0.64357462336E+03  0.12681289039E+04  0.16934357958E+04  0.17247335404E+03 0.  0.
        -24    2    5    5    0    0  0.40370677051E+03  0.21572739008E+03  0.52209974503E+03  0.69892310250E+03  0.79924314518E+02 0.  0.
          5    1    3    3  502    0 -0.10427172816E+03 -0.37792916574E+02  0.15741604346E+03  0.19262086744E+03  0.47000000000E+01 0. -1.
        -13    1    4    4    0    0 -0.47199692151E+03 -0.39279622018E+03  0.51577195213E+03  0.80192934296E+03  0.00000000000E+00 0.  1.
         14    1    4    4    0    0 -0.32685843099E+03 -0.21298548661E+03  0.36993136529E+03  0.53763227809E+03  0.00000000000E+00 0. -1.
         -5    1    5    5    0  501  0.49942031014E+03  0.42784723328E+03  0.74602915887E+03  0.99451269328E+03  0.47000000000E+01 0.  1.
         11    1    6    6    0    0  0.34543650314E+03  0.15708529238E+03  0.39898894054E+03  0.55063085770E+03  0.00000000000E+00 0. -1.
        -12    1    6    6    0    0  0.58270267375E+02  0.58642097704E+02  0.12311080450E+03  0.14829224480E+03  0.00000000000E+00 0.  1.
</event>
<event>
12    1  0.9656379E-001  0.2050123E+03  0.7818608E-02  0.1145578E+00
          2   -1    0    0  502    0  0.00000000000E+00  0.00000000000E+00  0.49121943142E+03  0.49121943142E+03  0.00000000000E+00 0. -1.
         -2   -1    0    0    0  501 -0.00000000000E+00 -0.00000000000E+00 -0.22213445773E+03  0.22213445773E+03  0.00000000000E+00 0.  1.
          6    2    1    2  502    0  0.52958934426E+02 -0.96803030904E+02 -0.14462012326E+03  0.25250052361E+03  0.17511727169E+03 0.  0.
         24    2    3    3    0    0  0.16712044610E+02  0.17799512102E+02 -0.36183536732E+02  0.90549410052E+02  0.79333676734E+02 0.  0.
         -6    2    1    2    0  501 -0.52958934426E+02  0.96803030904E+02  0.41370509695E+03  0.46085336554E+03  0.17046536822E+03 0.  0.
        -24    2    5    5    0    0 -0.78652483198E+02  0.40315324267E+02  0.33574927981E+03  0.36110258171E+03  0.99277173306E+02 0.  0.
          5    1    3    3  502    0  0.36246889815E+02 -0.11460254301E+03 -0.10843658653E+03  0.16195111356E+03  0.47000000000E+01 0. -1.
        -11    1    4    4    0    0  0.29684256489E+02 -0.21036959312E+02 -0.73400967423E+00  0.36390211742E+02  0.00000000000E+00 0.  1.
         12    1    4    4    0    0 -0.12972211879E+02  0.38836471415E+02 -0.35449527058E+02  0.54159198310E+02  0.00000000000E+00 0. -1.
         -5    1    5    5    0  501  0.25693548772E+02  0.56487706637E+02  0.77955817140E+02  0.99750783835E+02  0.47000000000E+01 0.  1.
         13    1    6    6    0    0 -0.65482733832E+02  0.72678548146E+02  0.25480645624E+03  0.27294045126E+03  0.00000000000E+00 0. -1.
        -14    1    6    6    0    0 -0.13169749366E+02 -0.32363223880E+02  0.80942823566E+02  0.88162130448E+02  0.00000000000E+00 0.  1.
</event>
<event>
12    1  0.9656379E-001  0.4816683E+03  0.7818608E-02  0.1018678E+00
         -2   -1    0    0    0  501 -0.00000000000E+00  0.00000000000E+00  0.65343047265E+02  0.65343047265E+02  0.00000000000E+00 0.  1.
          2   -1    0    0  502    0  0.00000000000E+00 -0.00000000000E+00 -0.41851932106E+04  0.41851932106E+04  0.00000000000E+00 0. -1.
          6    2    1    2  502    0 -0.44834230466E+03 -0.41530334727E+02 -0.12338827912E+04  0.13247200017E+04  0.17228101909E+03 0.  0.
         24    2    3    3    0    0 -0.42297264730E+03 -0.24639748529E+02 -0.12134219788E+04  0.12877112695E+04  0.79337489679E+02 0.  0.
         -6    2    1    2    0  501  0.44834230466E+03  0.41530334727E+02 -0.28859673721E+04  0.29258162562E+04  0.16987495753E+03 0.  0.
        -24    2    5    5    0    0  0.31354974514E+03  0.79236164724E+02 -0.22739091681E+04  0.22979403936E+04  0.72631503391E+02 0.  0.
          5    1    3    3  502    0 -0.25369657352E+02 -0.16890586198E+02 -0.20460812422E+02  0.37008732230E+02  0.47000000000E+01 0. -1.
        -13    1    4    4    0    0 -0.17359575955E+03 -0.11671252711E+02 -0.38537494587E+03  0.42283040900E+03  0.00000000000E+00 0.  1.
         14    1    4    4    0    0 -0.24937688776E+03 -0.12968495818E+02 -0.82804703296E+03  0.86488086048E+03  0.00000000000E+00 0. -1.
         -5    1    5    5    0  501  0.13479255951E+03 -0.37705829996E+02 -0.61205820399E+03  0.62787586256E+03  0.47000000000E+01 0.  1.
         13    1    6    6    0    0  0.98297498000E+02  0.14181741154E+01 -0.86373702208E+03  0.86931355254E+03  0.00000000000E+00 0. -1.
        -14    1    6    6    0    0  0.21525224714E+03  0.77817990608E+02 -0.14101721460E+04  0.14286268411E+04  0.00000000000E+00 0.  1.
</event>
<event>
12    1  0.9656379E-001  0.7873818E+03  0.7818608E-02  0.9578463E-01
         -1   -1    0    0    0  501 -0.00000000000E+00  0.00000000000E+00  0.48306466910E+03  0.48306466910E+03  0.00000000000E+00 0.  1.
          1   -1    0    0  502    0  0.00000000000E+00 -0.00000000000E+00 -0.28186030275E+04  0.28186030275E+04  0.00000000000E+00 0. -1.
          6    2    1    2  502    0  0.62618695847E+03 -0.44646228004E+03  0.50275308196E+02  0.78941910440E+03  0.17092759084E+03 0.  0.
         24    2    3    3    0    0  0.53476266040E+03 -0.34798824298E+03  0.90118635859E+02  0.64918672935E+03  0.79089321763E+02 0.  0.
         -6    2    1    2    0  501 -0.62618695847E+03  0.44646228004E+03 -0.23858136666E+04  0.25122485922E+04  0.16687559093E+03 0.  0.
        -24    2    5    5    0    0 -0.30837035906E+03  0.23674292605E+03 -0.10324448080E+04  0.11063257794E+04  0.82915361043E+02 0.  0.
          5    1    3    3  502    0  0.91424298066E+02 -0.98474037067E+02 -0.39843327663E+02  0.14023237505E+03  0.47000000000E+01 0. -1.
        -11    1    4    4    0    0  0.21378913438E+03 -0.96314684964E+02  0.20093544799E+02  0.23534243787E+03  0.00000000000E+00 0.  1.
         12    1    4    4    0    0  0.32097352602E+03 -0.25167355801E+03  0.70025091059E+02  0.41384429148E+03  0.00000000000E+00 0. -1.
         -5    1    5    5    0  501 -0.31781659941E+03  0.20971935400E+03 -0.13533688585E+04  0.14059228128E+04  0.47000000000E+01 0.  1.
         11    1    6    6    0    0 -0.30209861948E+03  0.20628822634E+03 -0.93378930972E+03  0.10028862763E+04  0.00000000000E+00 0. -1.
        -12    1    6    6    0    0 -0.62717395768E+01  0.30454699707E+02 -0.98655498323E+02  0.10343950310E+03  0.00000000000E+00 0.  1.
</event>
<event>
12    1  0.9656379E-001  0.2121105E+03  0.7818608E-02  0.1139906E+00
          2   -1    0    0  502    0  0.00000000000E+00  0.00000000000E+00  0.30480270647E+03  0.30480270647E+03  0.00000000000E+00 0. -1.
         -2   -1    0    0    0  501 -0.00000000000E+00 -0.00000000000E+00 -0.23938448372E+03  0.23938448372E+03  0.00000000000E+00 0.  1.
          6    2    1    2  502    0  0.10297182005E+03 -0.69738427476E+02 -0.13568018924E+03  0.25254042909E+03  0.17291879765E+03 0.  0.
         24    2    3    3    0    0  0.13695010904E+03 -0.69883468539E+02 -0.94274896259E+02  0.19877209783E+03  0.83567692752E+02 0.  0.
         -6    2    1    2    0  501 -0.10297182005E+03  0.69738427476E+02  0.20109841200E+03  0.29164676110E+03  0.17073552051E+03 0.  0.
        -24    2    5    5    0    0 -0.13126835049E+03  0.50241674349E+02  0.11394586097E+03  0.19784657897E+03  0.80025020433E+02 0.  0.
          5    1    3    3  502    0 -0.33978288985E+02  0.14504106255E+00 -0.41405292979E+02  0.53768331255E+02  0.47000000000E+01 0. -1.
        -11    1    4    4    0    0  0.11613861786E+03 -0.40771978088E+02 -0.10459747766E+03  0.16152759853E+03  0.00000000000E+00 0.  1.
         12    1    4    4    0    0  0.20811491179E+02 -0.29111490451E+02  0.10322581399E+02  0.37244499300E+02  0.00000000000E+00 0. -1.
         -5    1    5    5    0  501  0.28296530442E+02  0.19496753128E+02  0.87152551030E+02  0.93800182135E+02  0.47000000000E+01 0.  1.
         13    1    6    6    0    0 -0.53838037667E+02  0.69863487760E+01  0.91440899821E+02  0.10634275494E+03  0.00000000000E+00 0. -1.
        -14    1    6    6    0    0 -0.77430312827E+02  0.43255325573E+02  0.22504961146E+02  0.91503824024E+02  0.00000000000E+00 0.  1.
</event>
<event>
12    1  0.9656379E-001  0.3822939E+03  0.7818608E-02  0.1050089E+00
         -2   -1    0    0    0  501 -0.00000000000E+00  0.00000000000E+00  0.13968715138E+03  0.13968715138E+03  0.00000000000E+00 0.  1.
          2   -1    0    0  502    0  0.00000000000E+00 -0.00000000000E+00 -0.10463984912E+04  0.10463984912E+04  0.00000000000E+00 0. -1.
          6    2    1    2  502    0 -0.33572679236E+03  0.61099795888E+02 -0.44631073851E+03  0.58757816296E+03  0.17207311853E+03 0.  0.
         24    2    3    3    0    0 -0.59586151812E+02  0.88379132592E+01 -0.13022257682E+03  0.16459025097E+03  0.80643741241E+02 0.  0.
         -6    2    1    2    0  501  0.33572679236E+03 -0.61099795888E+02 -0.46040060128E+03  0.59850747958E+03  0.17261756946E+03 0.  0.
        -24    2    5    5    0    0  0.18275218183E+03 -0.72073186003E+02 -0.18138839794E+03  0.28008708706E+03  0.83391374419E+02 0.  0.
          5    1    3    3  502    0 -0.27614064054E+03  0.52261882629E+02 -0.31608816169E+03  0.42298791200E+03  0.47000000000E+01 0. -1.
        -13    1    4    4    0    0 -0.10403303070E+02  0.36720792880E+02 -0.26513060902E+02  0.46471364763E+02  0.00000000000E+00 0.  1.
         14    1    4    4    0    0 -0.49182848742E+02 -0.27882879621E+02 -0.10370951592E+03  0.11811888620E+03  0.00000000000E+00 0. -1.
         -5    1    5    5    0  501  0.15297461052E+03  0.10973390115E+02 -0.27901220334E+03  0.31842039251E+03  0.47000000000E+01 0.  1.
         13    1    6    6    0    0  0.18007915199E+03 -0.53427305561E+02 -0.18157208041E+03  0.26124968583E+03  0.00000000000E+00 0. -1.
        -14    1    6    6    0    0  0.26730298431E+01 -0.18645880441E+02  0.18368247350E+00  0.18837401233E+02  0.00000000000E+00 0.  1.
</event>
<event>
12    1  0.9656379E-001  0.7842742E+03  0.7818608E-02  0.9583063E-01
         -2   -1    0    0    0  501 -0.00000000000E+00  0.00000000000E+00  0.24875311902E+03  0.24875311902E+03  0.00000000000E+00 0.  1.
          2   -1    0    0  502    0  0.00000000000E+00 -0.00000000000E+00 -0.27252177124E+04  0.27252177124E+04  0.00000000000E+00 0. -1.
          6    2    1    2  502    0 -0.69012559909E+03  0.32941459712E+03 -0.78567718682E+03  0.11101753661E+04  0.17439433020E+03 0.  0.
         24    2    3    3    0    0 -0.41778094414E+03  0.23481274406E+03 -0.40191337423E+03  0.63015674616E+03  0.76715202468E+02 0.  0.
         -6    2    1    2    0  501  0.69012559909E+03 -0.32941459712E+03 -0.16907874065E+04  0.18637954652E+04  0.17373589965E+03 0.  0.
        -24    2    5    5    0    0  0.22520077509E+03 -0.60054378327E+02 -0.56697821915E+03  0.61813130541E+03  0.79373120597E+02 0.  0.
          5    1    3    3  502    0 -0.27234465495E+03  0.94601853057E+02 -0.38376381259E+03  0.48001861998E+03  0.47000000000E+01 0. -1.
        -13    1    4    4    0    0 -0.27165179745E+03  0.19102535176E+03 -0.29098777226E+03  0.44154192063E+03  0.00000000000E+00 0.  1.
         14    1    4    4    0    0 -0.14612914669E+03  0.43787392306E+02 -0.11092560197E+03  0.18861482553E+03  0.00000000000E+00 0. -1.
         -5    1    5    5    0  501  0.46492482400E+03 -0.26936021879E+03 -0.11238091874E+04  0.12456641598E+04  0.47000000000E+01 0.  1.
         11    1    6    6    0    0  0.10265933664E+03 -0.67319163916E+02 -0.30671162862E+03  0.33036772294E+03  0.00000000000E+00 0. -1.
        -12    1    6    6    0    0  0.12254143845E+03  0.72647855887E+01 -0.26026659054E+03  0.28776358247E+03  0.00000000000E+00 0.  1.
</event>
<event>
12    1  0.9656379E-001  0.9529725E+03  0.7818608E-02  0.9361683E-01
          2   -1    0    0  502    0  0.00000000000E+00  0.00000000000E+00  0.81572267634E+03  0.81572267634E+03  0.00000000000E+00 0. -1.
         -2   -1    0    0    0  501 -0.00000000000E+00 -0.00000000000E+00 -0.11456553948E+04  0.11456553948E+04  0.00000000000E+00 0.  1.
          6    2    1    2  502    0  0.87829521566E+03 -0.32653225218E+03 -0.32975883241E+03  0.10085492963E+04  0.17437028963E+03 0.  0.
         24    2    3    3    0    0  0.87387998557E+03 -0.30641208542E+03 -0.31069615826E+03  0.98009247086E+03  0.80588792030E+02 0.  0.
         -6    2    1    2    0  501 -0.87829521566E+03  0.32653225218E+03 -0.17388600920E+00  0.95282877483E+03  0.17279133760E+03 0.  0.
        -24    2    5    5    0    0 -0.44872088469E+03  0.23236277270E+03  0.26018297178E+02  0.51224947760E+03  0.79872930437E+02 0.  0.
          5    1    3    3  502    0  0.44152300817E+01 -0.20120166754E+02 -0.19062674149E+02  0.28456825413E+02  0.47000000000E+01 0. -1.
        -13    1    4    4    0    0  0.29054701174E+03 -0.76667220429E+02 -0.13177823286E+03  0.32811725248E+03  0.00000000000E+00 0.  1.
         14    1    4    4    0    0  0.58333297383E+03 -0.22974486499E+03 -0.17891792540E+03  0.65197521838E+03  0.00000000000E+00 0. -1.
         -5    1    5    5    0  501 -0.42957433097E+03  0.94169479478E+02 -0.26192183188E+02  0.44057929723E+03  0.47000000000E+01 0.  1.
         11    1    6    6    0    0 -0.33575496208E+03  0.15791339448E+03 -0.13568683150E+02  0.37128445144E+03  0.00000000000E+00 0. -1.
        -12    1    6    6    0    0 -0.11296592261E+03  0.74449378218E+02  0.39586980329E+02  0.14096502616E+03  0.00000000000E+00 0.  1.
</event>
<event>
12    1  0.9656379E-001  0.2967197E+03  0.7818608E-02  0.1086892E+00
          1   -1    0    0  502    0  0.00000000000E+00  0.00000000000E+00  0.10989224145E+04  0.10989224145E+04  0.00000000000E+00 0. -1.
         -1   -1    0    0    0  501 -0.00000000000E+00 -0.00000000000E+00 -0.35369372219E+03  0.35369372219E+03  0.00000000000E+00 0.  1.
          6    2    1    2  502    0  0.21241689826E+03 -0.10903666191E+03 -0.26549694428E+03  0.39987718705E+03  0.18000890254E+03 0.  0.
         24    2    3    3    0    0  0.23016726194E+03 -0.95781844986E+02 -0.27070720680E+03  0.37663923495E+03  0.80147309318E+02 0.  0.
         -6    2    1    2    0  501 -0.21241689826E+03  0.10903666191E+03  0.10107256366E+04  0.10527389496E+04  0.17228769924E+03 0.  0.
        -24    2    5    5    0    0 -0.12460337435E+03  0.12559180225E+03  0.80842512207E+03  0.83153118343E+03  0.81201165833E+02 0.  0.
          5    1    3    3  502    0 -0.17750363678E+02 -0.13254816927E+02  0.52102625186E+01  0.23237952104E+02  0.47000000000E+01 0. -1.
        -13    1    4    4    0    0  0.24845961893E+02  0.29822913945E+01 -0.31585528346E+01  0.25222853533E+02  0.00000000000E+00 0.  1.
         14    1    4    4    0    0  0.20532130004E+03 -0.98764136381E+02 -0.26754865397E+03  0.35141638142E+03  0.00000000000E+00 0. -1.
         -5    1    5    5    0  501 -0.87813523913E+02 -0.16555140337E+02  0.20230051452E+03  0.22120776621E+03  0.47000000000E+01 0.  1.
         13    1    6    6    0    0 -0.75730862372E+02  0.22011155957E+02  0.37714811065E+03  0.38530553055E+03  0.00000000000E+00 0. -1.
        -14    1    6    6    0    0 -0.48872511974E+02  0.10358064629E+03  0.43127701141E+03  0.44622565288E+03  0.00000000000E+00 0.  1.
</event>
<event>
12    1  0.9656379E-001  0.6048281E+03  0.7818608E-02  0.9895440E-01
         -1   -1    0    0    0  501 -0.00000000000E+00  0.00000000000E+00  0.21627749024E+03  0.21627749024E+03  0.00000000000E+00 0.  1.
          1   -1    0    0  502    0  0.00000000000E+00 -0.00000000000E+00 -0.17011737211E+04  0.17011737211E+04  0.00000000000E+00 0. -1.
          6    2    1    2  502    0 -0.25665261849E+03 -0.52007313130E+03 -0.66978254155E+03  0.90240702290E+03  0.17141514966E+03 0.  0.
         24    2    3    3    0    0 -0.40176667467E+02 -0.17426254611E+03 -0.25188624662E+03  0.31836404373E+03  0.76989502647E+02 0.  0.
         -6    2    1    2    0  501  0.25665261849E+03  0.52007313130E+03 -0.81511368933E+03  0.10150441885E+04  0.17192367356E+03 0.  0.
        -24    2    5    5    0    0  0.71991443997E+02  0.11322994648E+03 -0.18142080552E+03  0.23966693359E+03  0.80764729859E+02 0.  0.
          5    1    3    3  502    0 -0.21647595102E+03 -0.34581058518E+03 -0.41789629494E+03  0.58404297917E+03  0.47000000000E+01 0. -1.
        -11    1    4    4    0    0 -0.40135439540E+02 -0.15239492645E+03 -0.16259339462E+03  0.22643250448E+03  0.00000000000E+00 0.  1.
         12    1    4    4    0    0 -0.41227926717E-01 -0.21867619666E+02 -0.89292851999E+02  0.91931539244E+02  0.00000000000E+00 0. -1.
         -5    1    5    5    0  501  0.18466117449E+03  0.40684318481E+03 -0.63369288381E+03  0.77537725488E+03  0.47000000000E+01 0.  1.
         13    1    6    6    0    0  0.48926112709E+02  0.12237714522E+03 -0.15221345925E+03  0.20134266153E+03  0.00000000000E+00 0. -1.
        -14    1    6    6    0    0  0.23065331288E+02 -0.91471987352E+01 -0.29207346277E+02  0.38324272056E+02  0.00000000000E+00 0.  1.
</event>
<event>
12    1  0.9656379E-001  0.6744382E+03  0.7818608E-02  0.9761973E-01
          2   -1    0    0  502    0  0.00000000000E+00  0.00000000000E+00  0.15818797050E+04  0.15818797050E+04  0.00000000000E+00 0. -1.
         -2   -1    0    0    0  501 -0.00000000000E+00 -0.00000000000E+00 -0.33633490243E+03  0.33633490243E+03  0.00000000000E+00 0.  1.
          6    2    1    2  502    0  0.62626539953E+03  0.18113607132E+03  0.25730721216E+03  0.72164065954E+03  0.17187091984E+03 0.  0.
         24    2    3    3    0    0  0.37878021642E+03  0.11247363040E+03  0.83720171419E+02  0.41161163288E+03  0.79311407375E+02 0.  0.
         -6    2    1    2    0  501 -0.62626539953E+03 -0.18113607132E+03  0.98823759045E+03  0.11965739479E+04  0.17365785528E+03 0.  0.
        -24    2    5    5    0    0 -0.59298939821E+03 -0.13214476518E+03  0.86828253416E+03  0.10627130280E+04  0.79660250472E+02 0.  0.
          5    1    3    3  502    0  0.24748518312E+03  0.68662440916E+02  0.17358704075E+03  0.31002902666E+03  0.47000000000E+01 0. -1.
        -13    1    4    4    0    0  0.23478134097E+03  0.29006671411E+02  0.48762290698E+02  0.24153969870E+03  0.00000000000E+00 0.  1.
         14    1    4    4    0    0  0.14399887545E+03  0.83466958992E+02  0.34957880721E+02  0.17007193419E+03  0.00000000000E+00 0. -1.
         -5    1    5    5    0  501 -0.33276001318E+02 -0.48991306136E+02  0.11995505630E+03  0.13386091988E+03  0.47000000000E+01 0.  1.
         13    1    6    6    0    0 -0.20782030603E+03 -0.27865713155E+02  0.24306901963E+03  0.32101141081E+03  0.00000000000E+00 0. -1.
        -14    1    6    6    0    0 -0.38516909219E+03 -0.10427905203E+03  0.62521351453E+03  0.74170161724E+03  0.00000000000E+00 0.  1.
</event>
<event>
12    1  0.9656379E-001  0.2052663E+03  0.7818608E-02  0.1145370E+00
         -2   -1    0    0    0  501 -0.00000000000E+00  0.00000000000E+00  0.69260674759E+02  0.69260674759E+02  0.00000000000E+00 0.  1.
          2   -1    0    0  502    0  0.00000000000E+00 -0.00000000000E+00 -0.66834100274E+03  0.66834100274E+03  0.00000000000E+00 0. -1.
          6    2    1    2  502    0  0.24210866650E+02  0.11006500296E+03 -0.18881654420E+03  0.27877707723E+03  0.17136073204E+03 0.  0.
         24    2    3    3    0    0 -0.16133840314E+02 -0.16114018652E+02 -0.61266968595E+02  0.94821035984E+02  0.68683513479E+02 0.  0.
         -6    2    1    2    0  501 -0.24210866650E+02 -0.11006500296E+03 -0.41026378378E+03  0.45882460026E+03  0.17176487007E+03 0.  0.
        -24    2    5    5    0    0 -0.76042642255E+02 -0.53454710605E+02 -0.30300092875E+03  0.32684479790E+03  0.79862817174E+02 0.  0.
          5    1    3    3  502    0  0.40344706964E+02  0.12617902161E+03 -0.12754957560E+03  0.18395604125E+03  0.47000000000E+01 0. -1.
        -13    1    4    4    0    0  0.18107359338E+02 -0.28559629537E+02 -0.40944401575E+02  0.53103417233E+02  0.00000000000E+00 0.  1.
         14    1    4    4    0    0 -0.34241199653E+02  0.12445610885E+02 -0.20322567020E+02  0.41717618751E+02  0.00000000000E+00 0. -1.
         -5    1    5    5    0  501  0.51831775605E+02 -0.56610292352E+02 -0.10726285503E+03  0.13197980236E+03  0.47000000000E+01 0.  1.
         13    1    6    6    0    0 -0.35358683854E+02 -0.39603350960E+02 -0.26241757179E+03  0.26773427856E+03  0.00000000000E+00 0. -1.
        -14    1    6    6    0    0 -0.40683958401E+02 -0.13851359645E+02 -0.40583356958E+02  0.59110519345E+02  0.00000000000E+00 0.  1.
</event>
<event>
12    1  0.9656379E-001  0.1110951E+04  0.7818608E-02  0.9194583E-01
          2   -1    0    0  502    0  0.00000000000E+00  0.00000000000E+00  0.16663830963E+04  0.16663830963E+04  0.00000000000E+00 0. -1.
         -2   -1    0    0    0  501 -0.00000000000E+00 -0.00000000000E+00 -0.86441777597E+03  0.86441777597E+03  0.00000000000E+00 0.  1.
          6    2    1    2  502    0  0.41261836530E+03  0.10175612048E+04 -0.77917135718E+02  0.11133903709E+04  0.16697999021E+03 0.  0.
         24    2    3    3    0    0  0.18404798069E+03  0.33185877986E+03 -0.19194351551E+02  0.38819888471E+03  0.79536419301E+02 0.  0.
         -6    2    1    2    0  501 -0.41261836530E+03 -0.10175612048E+04  0.87988245605E+03  0.14174105013E+04  0.17080594785E+03 0.  0.
        -24    2    5    5    0    0 -0.14069620376E+03 -0.26189110658E+03  0.26554397326E+03  0.40626618879E+03  0.78461716514E+02 0.  0.
          5    1    3    3  502    0  0.22857038461E+03  0.68570242497E+03 -0.58722784168E+02  0.72519148624E+03  0.47000000000E+01 0. -1.
        -13    1    4    4    0    0  0.18862877046E+03  0.33319715383E+03 -0.19750023872E+02  0.38339433983E+03  0.00000000000E+00 0.  1.
         14    1    4    4    0    0 -0.45807897695E+01 -0.13383739774E+01  0.55567232155E+00  0.48045448842E+01  0.00000000000E+00 0. -1.
         -5    1    5    5    0  501 -0.27192216154E+03 -0.75567009825E+03  0.61433848279E+03  0.10111443125E+04  0.47000000000E+01 0.  1.
         11    1    6    6    0    0 -0.14885679028E+03 -0.25911943941E+03  0.25732304404E+03  0.39435564772E+03  0.00000000000E+00 0. -1.
        -12    1    6    6    0    0  0.81605865245E+01 -0.27716671746E+01  0.82209292237E+01  0.11910541073E+02  0.00000000000E+00 0.  1.
</event>
<event>
12    1  0.9656379E-001  0.1038168E+04  0.7818608E-02  0.9267646E-01
         -2   -1    0    0    0  501 -0.00000000000E+00  0.00000000000E+00  0.34813006785E+03  0.34813006785E+03  0.00000000000E+00 0.  1.
          2   -1    0    0  502    0  0.00000000000E+00 -0.00000000000E+00 -0.31756072358E+04  0.31756072358E+04  0.00000000000E+00 0. -1.
          6    2    1    2  502    0 -0.14458495036E+03  0.10135187536E+04 -0.16929470608E+04  0.19859778077E+04  0.17295383753E+03 0.  0.
         24    2    3    3    0    0 -0.51327283423E+02  0.32665611885E+03 -0.47774821827E+03  0.58697545296E+03  0.83415300218E+02 0.  0.
         -6    2    1    2    0  501  0.14458495036E+03 -0.10135187536E+04 -0.11345301071E+04  0.15377594960E+04  0.17152443466E+03 0.  0.
        -24    2    5    5    0    0  0.12998109220E+03 -0.96248995666E+03 -0.10176702813E+04  0.14093246109E+04  0.85211834108E+02 0.  0.
          5    1    3    3  502    0 -0.93257666939E+02  0.68686263478E+03 -0.12151988426E+04  0.13990023547E+04  0.47000000000E+01 0. -1.
        -13    1    4    4    0    0 -0.54211123962E+02  0.20399148621E+03 -0.35760949307E+03  0.41525404506E+03  0.00000000000E+00 0.  1.
         14    1    4    4    0    0  0.28838405382E+01  0.12266463264E+03 -0.12013872520E+03  0.17172140790E+03  0.00000000000E+00 0. -1.
         -5    1    5    5    0  501  0.14603858159E+02 -0.51028796965E+02 -0.11685982583E+03  0.12843488500E+03  0.47000000000E+01 0.  1.
         13    1    6    6    0    0  0.92182244281E+02 -0.87225665919E+03 -0.91775733978E+03  0.12694911502E+04  0.00000000000E+00 0. -1.
        -14    1    6    6    0    0  0.37798847923E+02 -0.90233297479E+02 -0.99912941476E+02  0.13983346078E+03  0.00000000000E+00 0.  1.
</event>
<event>
12    1  0.9656379E-001  0.1064428E+04  0.7818608E-02  0.9240573E-01
         -2   -1    0    0    0  501 -0.00000000000E+00  0.00000000000E+00  0.48928897869E+03  0.48928897869E+03  0.00000000000E+00 0.  1.
          2   -1    0    0  502    0  0.00000000000E+00 -0.00000000000E+00 -0.23588165864E+04  0.23588165864E+04  0.00000000000E+00 0. -1.
          6    2    1    2  502    0 -0.10054662857E+04  0.30430489438E+03 -0.11276493444E+04  0.15508195211E+04  0.17287053719E+03 0.  0.
         24    2    3    3    0    0 -0.93074716129E+03  0.28460405575E+03 -0.10921632869E+04  0.14656583746E+04  0.89688789818E+02 0.  0.
         -6    2    1    2    0  501  0.10054662857E+04 -0.30430489438E+03 -0.74187826326E+03  0.12972860440E+04  0.17030502615E+03 0.  0.
        -24    2    5    5    0    0  0.79579536192E+03 -0.18860541388E+03 -0.61395682546E+03  0.10257455307E+04  0.79678416925E+02 0.  0.
          5    1    3    3  502    0 -0.74719124404E+02  0.19700838634E+02 -0.35486057563E+02  0.85161146516E+02  0.47000000000E+01 0. -1.
        -13    1    4    4    0    0 -0.78225056495E+03  0.24895231537E+03 -0.87093103463E+03  0.11968350215E+04  0.00000000000E+00 0.  1.
         14    1    4    4    0    0 -0.14849659634E+03  0.35651740376E+02 -0.22123225222E+03  0.26882335304E+03  0.00000000000E+00 0. -1.
         -5    1    5    5    0  501  0.20967092378E+03 -0.11569948050E+03 -0.12792143781E+03  0.27154051321E+03  0.47000000000E+01 0.  1.
         13    1    6    6    0    0  0.45023771895E+03 -0.14543446373E+03 -0.36786184767E+03  0.59932255570E+03  0.00000000000E+00 0. -1.
        -14    1    6    6    0    0  0.34555764297E+03 -0.43170950153E+02 -0.24609497779E+03  0.42642297504E+03  0.00000000000E+00 0.  1.
</event>
<event>
12    1  0.9656379E-001  0.4626476E+03  0.7818608E-02  0.1024016E+00
          2   -1    0    0  502    0  0.00000000000E+00  0.00000000000E+00  0.20757172392E+04  0.20757172392E+04  0.00000000000E+00 0. -1.
         -2   -1    0    0    0  501 -0.00000000000E+00 -0.00000000000E+00 -0.22096049508E+03  0.22096049508E+03  0.00000000000E+00 0.  1.
          6    2    1    2  502    0  0.13568777692E+03 -0.40749882430E+03  0.88572649988E+02  0.47085352946E+03  0.17143939822E+03 0.  0.
         24    2    3    3    0    0  0.35337140499E+02 -0.20470992810E+03 -0.33859877424E+01  0.22657486132E+03  0.90387137958E+02 0.  0.
         -6    2    1    2    0  501 -0.13568777692E+03  0.40749882430E+03  0.17661840942E+04  0.18258242049E+04  0.17251466005E+03 0.  0.
        -24    2    5    5    0    0 -0.12121768368E+03  0.28156019656E+03  0.14680779703E+04  0.15018500197E+04  0.79565593664E+02 0.  0.
          5    1    3    3  502    0  0.10035063642E+03 -0.20278889620E+03  0.91958637730E+02  0.24427866813E+03  0.47000000000E+01 0. -1.
        -13    1    4    4    0    0  0.34135023732E+02 -0.16611357744E+02 -0.61207179345E+01  0.38452571296E+02  0.00000000000E+00 0.  1.
         14    1    4    4    0    0  0.12021167675E+01 -0.18809857036E+03  0.27347301921E+01  0.18812229003E+03  0.00000000000E+00 0. -1.
         -5    1    5    5    0  501 -0.14470093245E+02  0.12593862774E+03  0.29810612390E+03  0.32397418518E+03  0.47000000000E+01 0.  1.
         11    1    6    6    0    0 -0.99703094615E+02  0.27102755273E+03  0.12752216033E+04  0.13075116745E+04  0.00000000000E+00 0. -1.
        -12    1    6    6    0    0 -0.21514589062E+02  0.10532643830E+02  0.19285636696E+03  0.19433834518E+03  0.00000000000E+00 0.  1.
</event>
<event>
12    1  0.9656379E-001  0.1202205E+04  0.7818608E-02  0.9110928E-01
          2   -1    0    0  502    0  0.00000000000E+00  0.00000000000E+00  0.27799878858E+04  0.27799878858E+04  0.00000000000E+00 0. -1.
         -2   -1    0    0    0  501 -0.00000000000E+00 -0.00000000000E+00 -0.61956269990E+03  0.61956269990E+03  0.00000000000E+00 0.  1.
          6    2    1    2  502    0  0.10093549582E+04 -0.63028844222E+03  0.39825449908E+03  0.12661993791E+04  0.16909544535E+03 0.  0.
         24    2    3    3    0    0  0.55582045135E+03 -0.34104086795E+03  0.15044836773E+03  0.67392606649E+03  0.79349757405E+02 0.  0.
         -6    2    1    2    0  501 -0.10093549582E+04  0.63028844222E+03  0.17621706868E+04  0.21333512066E+04  0.17286089562E+03 0.  0.
        -24    2    5    5    0    0 -0.40912081317E+03  0.30646747288E+03  0.82701164837E+03  0.97590333900E+03  0.84480227482E+02 0.  0.
          5    1    3    3  502    0  0.45353450681E+03 -0.28924757427E+03  0.24780613135E+03  0.59227331261E+03  0.47000000000E+01 0. -1.
        -11    1    4    4    0    0  0.35009799716E+03 -0.20091935586E+03  0.13046981991E+03  0.42421641774E+03  0.00000000000E+00 0.  1.
         12    1    4    4    0    0  0.20572245419E+03 -0.14012151208E+03  0.19978547820E+02  0.24970964875E+03  0.00000000000E+00 0. -1.
         -5    1    5    5    0  501 -0.60023414499E+03  0.32382096934E+03  0.93515903840E+03  0.11574478676E+04  0.47000000000E+01 0.  1.
         11    1    6    6    0    0 -0.20362312178E+03  0.15362106581E+03  0.33314465119E+03  0.41957974951E+03  0.00000000000E+00 0. -1.
        -12    1    6    6    0    0 -0.20549769139E+03  0.15284640707E+03  0.49386699718E+03  0.55632358949E+03  0.00000000000E+00 0.  1.
</event>
<event>
12    1  0.9656379E-001  0.3221439E+03  0.7818608E-02  0.1074667E+00
         -1   -1    0    0    0  501 -0.00000000000E+00  0.00000000000E+00  0.15336658540E+03  0.15336658540E+03  0.00000000000E+00 0.  1.
          1   -1    0    0  502    0  0.00000000000E+00 -0.00000000000E+00 -0.77511484521E+03  0.77511484521E+03  0.00000000000E+00 0. -1.
          6    2    1    2  502    0  0.13556957702E+02 -0.27240380106E+03 -0.14587304536E+03  0.35412292269E+03  0.17244267767E+03 0.  0.
         24    2    3    3    0    0  0.62735061162E+02 -0.13372411093E+03 -0.39177933808E+02  0.17230851418E+03  0.79608340133E+02 0.  0.
         -6    2    1    2    0  501 -0.13556957702E+02  0.27240380106E+03 -0.47587521445E+03  0.57435850792E+03  0.17041964074E+03 0.  0.
        -24    2    5    5    0    0  0.27100263031E+02  0.86838838487E+02 -0.11318049754E+03  0.16489921494E+03  0.78144212432E+02 0.  0.
          5    1    3    3  502    0 -0.49178103460E+02 -0.13867969013E+03 -0.10669511155E+03  0.18181440852E+03  0.47000000000E+01 0. -1.
        -13    1    4    4    0    0 -0.71086558098E+01 -0.26361806629E+02  0.17305382954E+02  0.32325750035E+02  0.00000000000E+00 0.  1.
         14    1    4    4    0    0  0.69843716972E+02 -0.10736230430E+03 -0.56483316763E+02  0.13998276414E+03  0.00000000000E+00 0. -1.
         -5    1    5    5    0  501 -0.40657220734E+02  0.18556496257E+03 -0.36269471691E+03  0.40945929298E+03  0.47000000000E+01 0.  1.
         11    1    6    6    0    0 -0.97220349925E+01  0.76732986652E+02 -0.95295479871E+02  0.12273425638E+03  0.00000000000E+00 0. -1.
        -12    1    6    6    0    0  0.36822298024E+02  0.10105851835E+02 -0.17885017670E+02  0.42164958557E+02  0.00000000000E+00 0.  1.
</event>
<event>
12    1  0.9656379E-001  0.1658961E+04  0.7818608E-02  0.8785123E-01
          2   -1    0    0  502    0  0.00000000000E+00  0.00000000000E+00  0.36618538232E+04  0.36618538232E+04  0.00000000000E+00 0. -1.
         -2   -1    0    0    0  501 -0.00000000000E+00 -0.00000000000E+00 -0.82045109250E+03  0.82045109250E+03  0.00000000000E+00 0.  1.
          6    2    1    2  502    0  0.11403811796E+04 -0.11925270297E+04  0.77141366115E+03  0.18296265826E+04  0.17281332073E+03 0.  0.
         24    2    3    3    0    0  0.10632334976E+04 -0.10711477896E+04  0.73791505980E+03  0.16818804115E+04  0.79875063304E+02 0.  0.
         -6    2    1    2    0  501 -0.11403811796E+04  0.11925270297E+04  0.20699890695E+04  0.26526783331E+04  0.17104864638E+03 0.  0.
        -24    2    5    5    0    0 -0.94550558843E+03  0.10609447859E+04  0.17857093443E+04  0.22837238168E+04  0.83975904452E+02 0.  0.
          5    1    3    3  502    0  0.77147682016E+02 -0.12137924012E+03  0.33498601349E+02  0.14774617107E+03  0.47000000000E+01 0. -1.
        -11    1    4    4    0    0  0.99823979046E+03 -0.10092018362E+04  0.67218400847E+03  0.15706057324E+04  0.00000000000E+00 0.  1.
         12    1    4    4    0    0  0.64993707094E+02 -0.61945953409E+02  0.65731051337E+02  0.11127467913E+03  0.00000000000E+00 0. -1.
         -5    1    5    5    0  501 -0.19487559115E+03  0.13158224381E+03  0.28427972519E+03  0.36895451625E+03  0.47000000000E+01 0.  1.
         11    1    6    6    0    0 -0.21742602101E+03  0.28223007856E+03  0.48979030735E+03  0.60565868031E+03  0.00000000000E+00 0. -1.
        -12    1    6    6    0    0 -0.72807956741E+03  0.77871470735E+03  0.12959190370E+04  0.16780651365E+04  0.00000000000E+00 0.  1.
</event>
<event>
12    1  0.9656379E-001  0.2465575E+03  0.7818608E-02  0.1115500E+00
          2   -1    0    0  502    0  0.00000000000E+00  0.00000000000E+00  0.19287383658E+04  0.19287383658E+04  0.00000000000E+00 0. -1.
         -2   -1    0    0    0  501 -0.00000000000E+00 -0.00000000000E+00 -0.76338257580E+02  0.76338257580E+02  0.00000000000E+00 0.  1.
          6    2    1    2  502    0 -0.84196077031E+02 -0.15458908372E+03  0.15759540958E+03  0.29239233892E+03  0.17225040653E+03 0.  0.
         24    2    3    3    0    0 -0.81161406618E+01 -0.14686420186E+03  0.12754866001E+03  0.21009575529E+03  0.78972148218E+02 0.  0.
         -6    2    1    2    0  501  0.84196077031E+02  0.15458908372E+03  0.16948046986E+04  0.17126842845E+04  0.17302522212E+03 0.  0.
        -24    2    5    5    0    0  0.19005666088E+02  0.11637986891E+03  0.65844873451E+03  0.67356662598E+03  0.78941588640E+02 0.  0.
          5    1    3    3  502    0 -0.76079936370E+02 -0.77248818571E+01  0.30046749569E+02  0.82296583631E+02  0.47000000000E+01 0. -1.
        -13    1    4    4    0    0 -0.23020434354E+02 -0.12077095893E+03  0.13122605737E+03  0.17982169794E+03  0.00000000000E+00 0.  1.
         14    1    4    4    0    0  0.14904293693E+02 -0.26093242936E+02 -0.36773973563E+01  0.30274057354E+02  0.00000000000E+00 0. -1.
         -5    1    5    5    0  501  0.65190410943E+02  0.38209214808E+02  0.10363559641E+04  0.10391176585E+04  0.47000000000E+01 0.  1.
         13    1    6    6    0    0 -0.26322073619E+01  0.21823657060E+02  0.33908697334E+03  0.33979872868E+03  0.00000000000E+00 0. -1.
        -14    1    6    6    0    0  0.21637873450E+02  0.94556211852E+02  0.31936176117E+03  0.33376789730E+03  0.00000000000E+00 0.  1.
</event>
<event>
12    1  0.9656379E-001  0.5032775E+03  0.7818608E-02  0.1012927E+00
         -2   -1    0    0    0  501 -0.00000000000E+00  0.00000000000E+00  0.11953679454E+03  0.11953679454E+03  0.00000000000E+00 0.  1.
          2   -1    0    0  502    0  0.00000000000E+00 -0.00000000000E+00 -0.24086701377E+04  0.24086701377E+04  0.00000000000E+00 0. -1.
          6    2    1    2  502    0 -0.46963483081E+03  0.57129279768E+02 -0.70595216152E+03  0.86693063210E+03  0.17140489372E+03 0.  0.
         24    2    3    3    0    0 -0.39970410511E+03  0.62799038659E+02 -0.67252835139E+03  0.78907375285E+03  0.81461114070E+02 0.  0.
         -6    2    1    2    0  501  0.46963483081E+03 -0.57129279768E+02 -0.15831811816E+04  0.16612763001E+04  0.17191760407E+03 0.  0.
        -24    2    5    5    0    0  0.33935306064E+03 -0.94424018139E+02 -0.12615051794E+04  0.13121892371E+04  0.79805271770E+02 0.  0.
          5    1    3    3  502    0 -0.69930725701E+02 -0.56697588914E+01 -0.33423810127E+02  0.77856879249E+02  0.47000000000E+01 0. -1.
        -11    1    4    4    0    0 -0.29961837734E+02  0.27272646419E+02 -0.52788955988E+02  0.66544592849E+02  0.00000000000E+00 0.  1.
         12    1    4    4    0    0 -0.36974226738E+03  0.35526392240E+02 -0.61973939541E+03  0.72252916000E+03  0.00000000000E+00 0. -1.
         -5    1    5    5    0  501  0.13028177017E+03  0.37294738371E+02 -0.32167600226E+03  0.34908706303E+03  0.47000000000E+01 0.  1.
         11    1    6    6    0    0  0.20880266705E+02 -0.18912414476E+02 -0.18164078101E+03  0.18381250851E+03  0.00000000000E+00 0. -1.
        -12    1    6    6    0    0  0.31847279394E+03 -0.75511603663E+02 -0.10798643984E+04  0.11283767286E+04  0.00000000000E+00 0.  1.
</event>
<event>
12    1  0.9656379E-001  0.1478527E+04  0.7818608E-02  0.8898859E-01
          1   -1    0    0  502    0  0.00000000000E+00  0.00000000000E+00  0.21255804229E+04  0.21255804229E+04  0.00000000000E+00 0. -1.
         -1   -1    0    0    0  501 -0.00000000000E+00 -0.00000000000E+00 -0.13583539351E+04  0.13583539351E+04  0.00000000000E+00 0.  1.
          6    2    1    2  502    0 -0.12965531184E+04  0.68946113267E+03 -0.47483072140E+03  0.15530844350E+04  0.17378263933E+03 0.  0.
         24    2    3    3    0    0 -0.32308340033E+03  0.19123387142E+03 -0.98302920575E+02  0.39650803423E+03  0.81251953020E+02 0.  0.
         -6    2    1    2    0  501  0.12965531184E+04 -0.68946113267E+03  0.12420572092E+04  0.19308499231E+04  0.17049537328E+03 0.  0.
        -24    2    5    5    0    0  0.79273524016E+03 -0.46816456205E+03  0.70832161844E+03  0.11642337235E+04  0.78188424358E+02 0.  0.
          5    1    3    3  502    0 -0.97346971811E+03  0.49822726125E+03 -0.37652780083E+03  0.11565764007E+04  0.47000000000E+01 0. -1.
        -13    1    4    4    0    0 -0.32237150894E+03  0.18144368814E+03 -0.10510253924E+03  0.38456695840E+03  0.00000000000E+00 0.  1.
         14    1    4    4    0    0 -0.71189139494E+00  0.97901832815E+01  0.67996186640E+01  0.11941075832E+02  0.00000000000E+00 0. -1.
         -5    1    5    5    0  501  0.50381787828E+03 -0.22129657062E+03  0.53373559071E+03  0.76661619957E+03  0.47000000000E+01 0.  1.
         13    1    6    6    0    0  0.29272229353E+03 -0.17122085861E+03  0.30907419057E+03  0.45883524149E+03  0.00000000000E+00 0. -1.
        -14    1    6    6    0    0  0.50001294662E+03 -0.29694370344E+03  0.39924742787E+03  0.70539848204E+03  0.00000000000E+00 0.  1.
</event>
<event>
12    1  0.9656379E-001  0.2163817E+03  0.7818608E-02  0.1136610E+00
         -1   -1    0    0    0  501 -0.00000000000E+00  0.00000000000E+00  0.11292138440E+04  0.11292138440E+04  0.00000000000E+00 0.  1.
          1   -1    0    0  502    0  0.00000000000E+00 -0.00000000000E+00 -0.46579432062E+03  0.46579432062E+03  0.00000000000E+00 0. -1.
          6    2    1    2  502    0  0.11046315058E+03  0.68728491496E+02  0.10927502786E+04  0.11137704422E+04  0.17162666867E+03 0.  0.
         24    2    3    3    0    0  0.27098645142E+02  0.76228633559E+01  0.77250138635E+03  0.77722181045E+03  0.80764510219E+02 0.  0.
         -6    2    1    2    0  501 -0.11046315058E+03 -0.68728491496E+02 -0.42933075514E+03  0.48123772247E+03  0.17418132805E+03 0.  0.
        -24    2    5    5    0    0 -0.79954292282E+02  0.22352675900E+02 -0.17484487118E+03  0.20918676286E+03  0.79347601130E+02 0.  0.
          5    1    3    3  502    0  0.83364505435E+02  0.61105628140E+02  0.32024889220E+03  0.33654863172E+03  0.47000000000E+01 0. -1.
        -13    1    4    4    0    0  0.20836862472E+02  0.41824167530E+02  0.55446740127E+03  0.55643286648E+03  0.00000000000E+00 0.  1.
         14    1    4    4    0    0  0.62617826705E+01 -0.34201304174E+02  0.21803398508E+03  0.22078894397E+03  0.00000000000E+00 0. -1.
         -5    1    5    5    0  501 -0.30508858295E+02 -0.91081167396E+02 -0.25448588396E+03  0.27205095961E+03  0.47000000000E+01 0.  1.
         13    1    6    6    0    0 -0.68439556824E+02 -0.17407365044E+02 -0.86812093450E+02  0.11190768010E+03  0.00000000000E+00 0. -1.
        -14    1    6    6    0    0 -0.11514735458E+02  0.39760040944E+02 -0.88032777732E+02  0.97279082766E+02  0.00000000000E+00 0.  1.
</event>
<event>
12    1  0.9656379E-001  0.2118978E+03  0.7818608E-02  0.1140072E+00
         -2   -1    0    0    0  501 -0.00000000000E+00  0.00000000000E+00  0.30666987111E+02  0.30666987111E+02  0.00000000000E+00 0.  1.
          2   -1    0    0  502    0  0.00000000000E+00 -0.00000000000E+00 -0.19281080216E+04  0.19281080216E+04  0.00000000000E+00 0. -1.
          6    2    1    2  502    0  0.84005330254E+02  0.91252921956E+02 -0.46926643787E+03  0.51500856271E+03  0.17215934094E+03 0.  0.
         24    2    3    3    0    0  0.71911151631E+02  0.30826204818E+02 -0.13655718651E+03  0.17660762706E+03  0.80130644065E+02 0.  0.
         -6    2    1    2    0  501 -0.84005330254E+02 -0.91252921956E+02 -0.14281745966E+04  0.14437664460E+04  0.17144935375E+03 0.  0.
        -24    2    5    5    0    0 -0.80587840889E+02 -0.29697185259E+02 -0.12436434871E+04  0.12491524477E+04  0.79726982205E+02 0.  0.
          5    1    3    3  502    0  0.12094178623E+02  0.60426717138E+02 -0.33270925137E+03  0.33840093565E+03  0.47000000000E+01 0. -1.
        -11    1    4    4    0    0  0.49631648057E+02  0.50054349523E+02 -0.12771886976E+03  0.14587956707E+03  0.00000000000E+00 0.  1.
         12    1    4    4    0    0  0.22279503574E+02 -0.19228144705E+02 -0.88383167479E+01  0.30728059998E+02  0.00000000000E+00 0. -1.
         -5    1    5    5    0  501 -0.34174893650E+01 -0.61555736697E+02 -0.18453110956E+03  0.19461399834E+03  0.47000000000E+01 0.  1.
         13    1    6    6    0    0 -0.28864419377E+02 -0.43623579349E+02 -0.34807695077E+03  0.35198541879E+03  0.00000000000E+00 0. -1.
        -14    1    6    6    0    0 -0.51723421512E+02  0.13926394090E+02 -0.89556653631E+03  0.89716702890E+03  0.00000000000E+00 0.  1.
</event>
<event>
12    1  0.9656379E-001  0.5528898E+03  0.7818608E-02  0.1000827E+00
          2   -1    0    0  502    0  0.00000000000E+00  0.00000000000E+00  0.18925465597E+04  0.18925465597E+04  0.00000000000E+00 0. -1.
         -2   -1    0    0    0  501 -0.00000000000E+00 -0.00000000000E+00 -0.41013147289E+03  0.41013147289E+03  0.00000000000E+00 0.  1.
          6    2    1    2  502    0 -0.44325973117E+03  0.28173452704E+03 -0.15513595946E+03  0.57434169117E+03  0.17305397799E+03 0.  0.
         24    2    3    3    0    0 -0.20341388836E+03  0.12733510712E+03 -0.14399306850E+03  0.28883956648E+03  0.71434248839E+02 0.  0.
         -6    2    1    2    0  501  0.44325973117E+03 -0.28173452704E+03  0.16375510462E+04  0.17283363414E+04  0.17239358148E+03 0.  0.
        -24    2    5    5    0    0  0.20482713328E+03 -0.18378852206E+03  0.71116939437E+03  0.76674985098E+03  0.80069039693E+02 0.  0.
          5    1    3    3  502    0 -0.23984584281E+03  0.15439941992E+03 -0.11142890965E+02  0.28550212469E+03  0.47000000000E+01 0. -1.
        -13    1    4    4    0    0 -0.14030246391E+03  0.48777058236E+02 -0.98824067197E+02  0.17841014278E+03  0.00000000000E+00 0.  1.
         14    1    4    4    0    0 -0.63111424447E+02  0.78558048884E+02 -0.45169001298E+02  0.11042942370E+03  0.00000000000E+00 0. -1.
         -5    1    5    5    0  501  0.23843259788E+03 -0.97946004975E+02  0.92638165186E+03  0.96158649040E+03  0.47000000000E+01 0.  1.
         11    1    6    6    0    0  0.43269345400E+02 -0.29221858420E+02  0.23456211433E+03  0.24030301442E+03  0.00000000000E+00 0. -1.
        -12    1    6    6    0    0  0.16155778788E+03 -0.15456666364E+03  0.47660728004E+03  0.52644683656E+03  0.00000000000E+00 0.  1.
</event>
<event>
12    1  0.9656379E-001  0.1831022E+03  0.7818608E-02  0.1164834E+00
          2   -1    0    0  502    0  0.00000000000E+00  0.00000000000E+00  0.21827164809E+04  0.21827164809E+04  0.00000000000E+00 0. -1.
         -2   -1    0    0    0  501 -0.00000000000E+00 -0.00000000000E+00 -0.42773227234E+02  0.42773227234E+02  0.00000000000E+00 0.  1.
          6    2    1    2  502    0 -0.31643493744E+02 -0.59272512792E+02  0.18473726151E+03  0.26196977987E+03  0.17316399252E+03 0.  0.
         24    2    3    3    0    0  0.47791153296E+01 -0.26269391992E+02  0.19377871439E+03  0.21177366145E+03  0.81147844316E+02 0.  0.
         -6    2    1    2    0  501  0.31643493744E+02  0.59272512792E+02  0.19552059921E+04  0.19635199282E+04  0.16752759608E+03 0.  0.
        -24    2    5    5    0    0 -0.70751817169E+01 -0.28085834069E+02  0.99057006796E+03  0.99415148806E+03  0.79178591906E+02 0.  0.
          5    1    3    3  502    0 -0.36422609074E+02 -0.33003120800E+02 -0.90414528754E+01  0.50196118419E+02  0.47000000000E+01 0. -1.
        -11    1    4    4    0    0  0.11199360873E+01  0.34896098087E+01 -0.74610281333E+01  0.83125552186E+01  0.00000000000E+00 0.  1.
         12    1    4    4    0    0  0.36591792423E+01 -0.29759001801E+02  0.20123974252E+03  0.20346110623E+03  0.00000000000E+00 0. -1.
         -5    1    5    5    0  501  0.38718675461E+02  0.87358346861E+02  0.96463592416E+03  0.96936844016E+03  0.47000000000E+01 0.  1.
         11    1    6    6    0    0 -0.28275635926E+02 -0.37948795296E+02  0.87283280766E+03  0.87411482814E+03  0.00000000000E+00 0. -1.
        -12    1    6    6    0    0  0.21200454209E+02  0.98629612276E+01  0.11773726030E+03  0.12003665993E+03  0.00000000000E+00 0.  1.
</event>
<event>
12    1  0.9656379E-001  0.1799396E+03  0.7818608E-02  0.1167862E+00
         -2   -1    0    0    0  501 -0.00000000000E+00  0.00000000000E+00  0.17805005552E+03  0.17805005552E+03  0.00000000000E+00 0.  1.
          2   -1    0    0  502    0  0.00000000000E+00 -0.00000000000E+00 -0.88386906236E+03  0.88386906236E+03  0.00000000000E+00 0. -1.
          6    2    1    2  502    0  0.44639503934E+02 -0.35355203568E+02  0.12052543477E+03  0.21608394819E+03  0.17006827014E+03 0.  0.
         24    2    3    3    0    0  0.91631699477E+02 -0.19887554151E+02  0.10987196225E+03  0.16525973057E+03  0.80293507208E+02 0.  0.
         -6    2    1    2    0  501 -0.44639503934E+02  0.35355203568E+02 -0.82634444161E+03  0.84583516968E+03  0.17131643925E+03 0.  0.
        -24    2    5    5    0    0 -0.11819667490E+02  0.38987342471E+02 -0.20759307276E+03  0.22618552629E+03  0.80033062130E+02 0.  0.
          5    1    3    3  502    0 -0.46992195543E+02 -0.15467649416E+02  0.10653472524E+02  0.50824217626E+02  0.47000000000E+01 0. -1.
        -13    1    4    4    0    0  0.46358318467E+02  0.30654576215E+02  0.48192768480E+02  0.73561808487E+02  0.00000000000E+00 0.  1.
         14    1    4    4    0    0  0.45273381010E+02 -0.50542130367E+02  0.61679193766E+02  0.91697922080E+02  0.00000000000E+00 0. -1.
         -5    1    5    5    0  501 -0.32819836445E+02 -0.36321389029E+01 -0.61875136885E+03  0.61964964339E+03  0.47000000000E+01 0.  1.
         11    1    6    6    0    0 -0.20650814568E+02  0.59186421486E+02 -0.18153485817E+03  0.19205310037E+03  0.00000000000E+00 0. -1.
        -12    1    6    6    0    0  0.88311470785E+01 -0.20199079015E+02 -0.26058214589E+02  0.34132425922E+02  0.00000000000E+00 0.  1.
</event>
<event>
12    1  0.9656379E-001  0.4731529E+03  0.7818608E-02  0.1021034E+00
         -2   -1    0    0    0  501 -0.00000000000E+00  0.00000000000E+00  0.25348784916E+03  0.25348784916E+03  0.00000000000E+00 0.  1.
          2   -1    0    0  502    0  0.00000000000E+00 -0.00000000000E+00 -0.88323494657E+03  0.88323494657E+03  0.00000000000E+00 0. -1.
          6    2    1    2  502    0  0.32211281534E+03 -0.30224518803E+03 -0.30976820977E+03  0.56501014096E+03  0.16784306990E+03 0.  0.
         24    2    3    3    0    0  0.55337834544E+02 -0.30987931084E+02 -0.77364094567E+02  0.11915909791E+03  0.64739166527E+02 0.  0.
         -6    2    1    2    0  501 -0.32211281534E+03  0.30224518803E+03 -0.31997888764E+03  0.57171265476E+03  0.17134775046E+03 0.  0.
        -24    2    5    5    0    0 -0.23373763447E+03  0.12979619839E+03 -0.17108509540E+03  0.32729441079E+03  0.79819712970E+02 0.  0.
          5    1    3    3  502    0  0.26677498080E+03 -0.27125725694E+03 -0.23240411520E+03  0.44585104305E+03  0.47000000000E+01 0. -1.
        -11    1    4    4    0    0  0.36907884029E+02  0.73504131057E+01 -0.64574100800E+02  0.74739781713E+02  0.00000000000E+00 0.  1.
         12    1    4    4    0    0  0.18429950515E+02 -0.38338344190E+02 -0.12789993767E+02  0.44419316201E+02  0.00000000000E+00 0. -1.
         -5    1    5    5    0  501 -0.88375180866E+02  0.17244898964E+03 -0.14889379224E+03  0.24441824397E+03  0.47000000000E+01 0.  1.
         11    1    6    6    0    0 -0.21495724017E+03  0.13425132934E+03 -0.17448845300E+03  0.30769506782E+03  0.00000000000E+00 0. -1.
        -12    1    6    6    0    0 -0.18780394307E+02 -0.44551309474E+01  0.34033575929E+01  0.19599342973E+02  0.00000000000E+00 0.  1.
</event>
<event>
12    1  0.9656379E-001  0.3759309E+03  0.7818608E-02  0.1052448E+00
          1   -1    0    0  502    0  0.00000000000E+00  0.00000000000E+00  0.21752635122E+04  0.21752635122E+04  0.00000000000E+00 0. -1.
         -1   -1    0    0    0  501 -0.00000000000E+00 -0.00000000000E+00 -0.94085529722E+02  0.94085529722E+02  0.00000000000E+00 0.  1.
          6    2    1    2  502    0  0.62264799570E+02  0.32849094336E+03  0.40915001497E+03  0.55555586844E+03  0.17162570633E+03 0.  0.
         24    2    3    3    0    0  0.79759171491E+02  0.22076542200E+03  0.19617664399E+03  0.31620134530E+03  0.79994488158E+02 0.  0.
         -6    2    1    2    0  501 -0.62264799570E+02 -0.32849094336E+03  0.16720279675E+04  0.17137931735E+04  0.17212295667E+03 0.  0.
        -24    2    5    5    0    0 -0.10968417474E+03 -0.23753211270E+03  0.12387782262E+04  0.12685409592E+04  0.78565568843E+02 0.  0.
          5    1    3    3  502    0 -0.17494371921E+02  0.10772552136E+03  0.21297337098E+03  0.23935452314E+03  0.47000000000E+01 0. -1.
        -11    1    4    4    0    0  0.51483123700E+02  0.10647576831E+03  0.49737116796E+02  0.12830191756E+03  0.00000000000E+00 0.  1.
         12    1    4    4    0    0  0.28276047791E+02  0.11428965368E+03  0.14643952720E+03  0.18789942774E+03  0.00000000000E+00 0. -1.
         -5    1    5    5    0  501  0.47419375166E+02 -0.90958830655E+02  0.43324974127E+03  0.44525221428E+03  0.47000000000E+01 0.  1.
         13    1    6    6    0    0 -0.10654449194E+02 -0.58536759007E+02  0.43910807889E+03  0.44312072214E+03  0.00000000000E+00 0. -1.
        -14    1    6    6    0    0 -0.99029725543E+02 -0.17899535370E+03  0.79967014734E+03  0.82542023705E+03  0.00000000000E+00 0.  1.
</event>
<event>
12    1  0.9656379E-001  0.7015110E+03  0.7818608E-02  0.9714652E-01
          1   -1    0    0  502    0  0.00000000000E+00  0.00000000000E+00  0.22601794227E+04  0.22601794227E+04  0.00000000000E+00 0. -1.
         -1   -1    0    0    0  501 -0.00000000000E+00 -0.00000000000E+00 -0.24587689888E+03  0.24587689888E+03  0.00000000000E+00 0.  1.
          6    2    1    2  502    0  0.23337240684E+02  0.67906549144E+03  0.58250415566E+03  0.91138855865E+03  0.17217271854E+03 0.  0.
         24    2    3    3    0    0 -0.26065382139E+02  0.60959130596E+03  0.51711358550E+03  0.80384648197E+03  0.80509265471E+02 0.  0.
         -6    2    1    2    0  501 -0.23337240684E+02 -0.67906549144E+03  0.14317983681E+04  0.15946677629E+04  0.17676011592E+03 0.  0.
        -24    2    5    5    0    0 -0.29147436972E+02 -0.23901924866E+03  0.64601664673E+03  0.69402940160E+03  0.79746649542E+02 0.  0.
          5    1    3    3  502    0  0.49402622823E+02  0.69474185483E+02  0.65390570166E+02  0.10754207668E+03  0.47000000000E+01 0. -1.
        -11    1    4    4    0    0  0.22646283804E+01  0.21416398135E+03  0.13463085985E+03  0.25297590374E+03  0.00000000000E+00 0.  1.
         12    1    4    4    0    0 -0.28330010519E+02  0.39542732461E+03  0.38248272565E+03  0.55087057823E+03  0.00000000000E+00 0. -1.
         -5    1    5    5    0  501  0.58101962889E+01 -0.44004624278E+03  0.78578172140E+03  0.90063836131E+03  0.47000000000E+01 0.  1.
         11    1    6    6    0    0  0.19311501364E+01 -0.18421916783E+03  0.40531492759E+03  0.44521974536E+03  0.00000000000E+00 0. -1.
        -12    1    6    6    0    0 -0.31078587109E+02 -0.54800080835E+02  0.24070171915E+03  0.24880965623E+03  0.00000000000E+00 0.  1.
</event>
<event>
12    1  0.9656379E-001  0.2521735E+03  0.7818608E-02  0.1111939E+00
         -1   -1    0    0    0  501 -0.00000000000E+00  0.00000000000E+00  0.99024978279E+02  0.99024978279E+02  0.00000000000E+00 0. -1.
          1   -1    0    0  502    0  0.00000000000E+00 -0.00000000000E+00 -0.96352422784E+03  0.96352422784E+03  0.00000000000E+00 0.  1.
          6    2    1    2  502    0 -0.17726372029E+03  0.51234252255E+02 -0.12524379618E+03  0.28141232697E+03  0.17163774106E+03 0.  0.
         24    2    3    3    0    0 -0.67282154479E+02 -0.34512762743E+02 -0.31521068645E+02  0.11332147340E+03  0.78295334860E+02 0.  0.
         -6    2    1    2    0  501  0.17726372029E+03 -0.51234252255E+02 -0.73925545338E+03  0.78113687915E+03  0.17213025147E+03 0.  0.
        -24    2    5    5    0    0  0.12431647260E+03  0.56073794078E+01 -0.28863319121E+03  0.32384387100E+03  0.77972467299E+02 0.  0.
          5    1    3    3  502    0 -0.10998156581E+03  0.85747014998E+02 -0.93722727534E+02  0.16809085358E+03  0.47000000000E+01 0. -1.
        -11    1    4    4    0    0 -0.58041557613E+00 -0.30828797421E+02  0.12550079938E+02  0.33290481209E+02  0.00000000000E+00 0.  1.
         12    1    4    4    0    0 -0.66701738903E+02 -0.36839653215E+01 -0.44071148582E+02  0.80030992188E+02  0.00000000000E+00 0. -1.
         -5    1    5    5    0  501  0.52947247689E+02 -0.56841631663E+02 -0.45062226218E+03  0.45729300814E+03  0.47000000000E+01 0.  1.
         13    1    6    6    0    0  0.73834148088E+02 -0.27905360069E+02 -0.11132401634E+03  0.13646694529E+03  0.00000000000E+00 0. -1.
        -14    1    6    6    0    0  0.50482324514E+02  0.33512739476E+02 -0.17730917487E+03  0.18737692571E+03  0.00000000000E+00 0.  1.
</event>
<event>
12    1  0.9656379E-001  0.2970601E+03  0.7818608E-02  0.1086720E+00
          2   -1    0    0  502    0  0.00000000000E+00  0.00000000000E+00  0.35250328670E+03  0.35250328670E+03  0.00000000000E+00 0. -1.
         -2   -1    0    0    0  501 -0.00000000000E+00 -0.00000000000E+00 -0.26410269812E+03  0.26410269812E+03  0.00000000000E+00 0.  1.
          6    2    1    2  502    0  0.19734951567E+03 -0.13507397497E+03 -0.26474822608E+02  0.29590988995E+03  0.17224963480E+03 0.  0.
         24    2    3    3    0    0  0.87864858999E+02 -0.29793372016E+02  0.45425659539E+02  0.12779485571E+03  0.75234009184E+02 0.  0.
         -6    2    1    2    0  501 -0.19734951567E+03  0.13507397497E+03  0.11487541119E+03  0.32069609487E+03  0.18016052598E+03 0.  0.
        -24    2    5    5    0    0 -0.90778026658E+02  0.68004273638E+01  0.65717200377E+01  0.12179067815E+03  0.80640472736E+02 0.  0.
          5    1    3    3  502    0  0.10948465667E+03 -0.10528060296E+03 -0.71900482147E+02  0.16811503424E+03  0.47000000000E+01 0. -1.
        -13    1    4    4    0    0  0.96153671620E+02 -0.27756739031E+02  0.55621731207E+02  0.11449778212E+03  0.00000000000E+00 0.  1.
         14    1    4    4    0    0 -0.82888126202E+01 -0.20366329856E+01 -0.10196071669E+02  0.13297073590E+02  0.00000000000E+00 0. -1.
         -5    1    5    5    0  501 -0.10657148901E+03  0.12827354761E+03  0.10830369115E+03  0.19890541673E+03  0.47000000000E+01 0.  1.
         13    1    6    6    0    0 -0.27832431496E+02  0.17242748473E+02  0.38419770378E+02  0.50478068246E+02  0.00000000000E+00 0. -1.
        -14    1    6    6    0    0 -0.62945595162E+02 -0.10442321109E+02 -0.31848050341E+02  0.71312609901E+02  0.00000000000E+00 0.  1.
</event>
<event>
12    1  0.9656379E-001  0.8700654E+03  0.7818608E-02  0.9463795E-01
         -1   -1    0    0    0  501 -0.00000000000E+00  0.00000000000E+00  0.11650055272E+04  0.11650055272E+04  0.00000000000E+00 0.  1.
          1   -1    0    0  502    0  0.00000000000E+00 -0.00000000000E+00 -0.14840007959E+04  0.14840007959E+04  0.00000000000E+00 0. -1.
          6    2    1    2  502    0  0.81786307697E+03 -0.24191003814E+03  0.83355608495E+03  0.12049188554E+04  0.17202680622E+03 0.  0.
         24    2    3    3    0    0  0.54682159173E+03 -0.12221296568E+03  0.62628409830E+03  0.84329108774E+03  0.70414662641E+02 0.  0.
         -6    2    1    2    0  501 -0.81786307697E+03  0.24191003814E+03 -0.11525513537E+04  0.14440874677E+04  0.17202764984E+03 0.  0.
        -24    2    5    5    0    0 -0.52870632124E+03  0.17072254520E+03 -0.63736688467E+03  0.84901065281E+03  0.76850382804E+02 0.  0.
          5    1    3    3  502    0  0.27104148524E+03 -0.11969707246E+03  0.20727198666E+03  0.36162776764E+03  0.47000000000E+01 0. -1.
        -11    1    4    4    0    0  0.40814855067E+03 -0.66105733011E+02  0.43048243459E+03  0.59688385289E+03  0.00000000000E+00 0.  1.
         12    1    4    4    0    0  0.13867304106E+03 -0.56107232668E+02  0.19580166371E+03  0.24640723485E+03  0.00000000000E+00 0. -1.
         -5    1    5    5    0  501 -0.28915675573E+03  0.71187492944E+02 -0.51518446901E+03  0.59507681491E+03  0.47000000000E+01 0.  1.
         11    1    6    6    0    0 -0.50560843183E+03  0.17546910979E+03 -0.59322419599E+03  0.79896448077E+03  0.00000000000E+00 0. -1.
        -12    1    6    6    0    0 -0.23097889414E+02 -0.47465645981E+01 -0.44142688683E+02  0.50046172032E+02  0.00000000000E+00 0.  1.
</event>
<event>
12    1  0.9656379E-001  0.3882068E+03  0.7818608E-02  0.1047942E+00
          1   -1    0    0  502    0  0.00000000000E+00  0.00000000000E+00  0.12417158128E+04  0.12417158128E+04  0.00000000000E+00 0. -1.
         -1   -1    0    0    0  501 -0.00000000000E+00 -0.00000000000E+00 -0.34352171985E+03  0.34352171985E+03  0.00000000000E+00 0.  1.
          6    2    1    2  502    0  0.26279890374E+03  0.22765347434E+03 -0.18852162414E+03  0.43108552854E+03  0.17147875077E+03 0.  0.
         24    2    3    3    0    0  0.28168929830E+03  0.20551625947E+03 -0.16836283622E+03  0.39537320547E+03  0.79925798720E+02 0.  0.
         -6    2    1    2    0  501 -0.26279890374E+03 -0.22765347434E+03  0.10867157170E+04  0.11541520041E+04  0.17385750087E+03 0.  0.
        -24    2    5    5    0    0 -0.99430093154E+02 -0.45551407275E+02  0.51135543437E+03  0.52892238545E+03  0.79455871039E+02 0.  0.
          5    1    3    3  502    0 -0.18890394562E+02  0.22137214871E+02 -0.20158787917E+02  0.35712323073E+02  0.47000000000E+01 0. -1.
        -13    1    4    4    0    0  0.85485949239E+02  0.10642903098E+03 -0.81770583522E+02  0.15912703881E+03  0.00000000000E+00 0.  1.
         14    1    4    4    0    0  0.19620334906E+03  0.99087228496E+02 -0.86592252698E+02  0.23624616666E+03  0.00000000000E+00 0. -1.
         -5    1    5    5    0  501 -0.16336881058E+03 -0.18210206707E+03  0.57536028268E+03  0.62522961861E+03  0.47000000000E+01 0.  1.
         11    1    6    6    0    0 -0.49059038000E+02 -0.46167396440E+02  0.41257483735E+03  0.41803853186E+03  0.00000000000E+00 0. -1.
        -12    1    6    6    0    0 -0.50371055154E+02  0.61598916517E+00  0.98780597014E+02  0.11088385359E+03  0.00000000000E+00 0.  1.
</event>
<event>
12    1  0.9656379E-001  0.1841241E+03  0.7818608E-02  0.1163870E+00
          1   -1    0    0  502    0  0.00000000000E+00  0.00000000000E+00  0.28859308615E+04  0.28859308615E+04  0.00000000000E+00 0. -1.
         -1   -1    0    0    0  501 -0.00000000000E+00 -0.00000000000E+00 -0.19524720850E+02  0.19524720850E+02  0.00000000000E+00 0.  1.
          6    2    1    2  502    0 -0.64061668417E+02 -0.15603700949E+02  0.51617482933E+03  0.54802037916E+03  0.17187934344E+03 0.  0.
         24    2    3    3    0    0 -0.92787238593E+02  0.30597255781E+02  0.31636013921E+03  0.34087867122E+03  0.81048547801E+02 0.  0.
         -6    2    1    2    0  501  0.64061668417E+02  0.15603700949E+02  0.23502313114E+04  0.23574352032E+04  0.17194809585E+03 0.  0.
        -24    2    5    5    0    0  0.64831532392E+02 -0.52884029801E+02  0.14875581839E+04  0.14920346158E+04  0.79612159374E+02 0.  0.
          5    1    3    3  502    0  0.28725570175E+02 -0.46200956729E+02  0.19981469012E+03  0.20714170795E+03  0.47000000000E+01 0. -1.
        -11    1    4    4    0    0 -0.38185943683E+02 -0.43606334891E+01  0.34464152787E+02  0.51623243280E+02  0.00000000000E+00 0.  1.
         12    1    4    4    0    0 -0.54601294910E+02  0.34957889270E+02  0.28189598642E+03  0.28925542794E+03  0.00000000000E+00 0. -1.
         -5    1    5    5    0  501 -0.76986397515E+00  0.68487730750E+02  0.86267312744E+03  0.86540058745E+03  0.47000000000E+01 0.  1.
         13    1    6    6    0    0  0.48684070215E+02 -0.26769202825E+02  0.13477492582E+04  0.13488939143E+04  0.00000000000E+00 0. -1.
        -14    1    6    6    0    0  0.16147462177E+02 -0.26114826977E+02  0.13980892572E+03  0.14314070152E+03  0.00000000000E+00 0.  1.
</event>
<event>
12    1  0.9656379E-001  0.6729354E+03  0.7818608E-02  0.9764670E-01
         -2   -1    0    0    0  501 -0.00000000000E+00  0.00000000000E+00  0.45203678076E+03  0.45203678076E+03  0.00000000000E+00 0.  1.
          2   -1    0    0  502    0  0.00000000000E+00 -0.00000000000E+00 -0.13304990675E+04  0.13304990675E+04  0.00000000000E+00 0. -1.
          6    2    1    2  502    0 -0.62142811855E+03 -0.19154897502E+03  0.39322198349E+01  0.67263253102E+03  0.17191609313E+03 0.  0.
         24    2    3    3    0    0 -0.38648562075E+03 -0.18106411371E+03  0.33582919415E+02  0.43554781288E+03  0.80117017596E+02 0.  0.
         -6    2    1    2    0  501  0.62142811855E+03  0.19154897502E+03 -0.88239450662E+03  0.11099033173E+04  0.17435994966E+03 0.  0.
        -24    2    5    5    0    0  0.59161624016E+03  0.21341793161E+03 -0.81045486473E+03  0.10288823235E+04  0.78770290892E+02 0.  0.
          5    1    3    3  502    0 -0.23494249780E+03 -0.10484861306E+02 -0.29650699580E+02  0.23708471814E+03  0.47000000000E+01 0. -1.
        -13    1    4    4    0    0 -0.28005599026E+03 -0.14833434878E+03 -0.71176873040E+01  0.31699384565E+03  0.00000000000E+00 0.  1.
         14    1    4    4    0    0 -0.10642963048E+03 -0.32729764936E+02  0.40700606719E+02  0.11855396723E+03  0.00000000000E+00 0. -1.
         -5    1    5    5    0  501  0.29811878386E+02 -0.21868956589E+02 -0.71939641887E+02  0.81020993761E+02  0.47000000000E+01 0.  1.
         13    1    6    6    0    0  0.18901469716E+03  0.81646621023E+02 -0.21058085606E+03  0.29451149961E+03  0.00000000000E+00 0. -1.
        -14    1    6    6    0    0  0.40260154301E+03  0.13177131059E+03 -0.59987400867E+03  0.73437082390E+03  0.00000000000E+00 0.  1.
</event>
<event>
12    1  0.9656379E-001  0.5085359E+03  0.7818608E-02  0.1011575E+00
         -2   -1    0    0    0  501 -0.00000000000E+00  0.00000000000E+00  0.57386968305E+03  0.57386968305E+03  0.00000000000E+00 0.  1.
          2   -1    0    0  502    0  0.00000000000E+00 -0.00000000000E+00 -0.57670654161E+03  0.57670654161E+03  0.00000000000E+00 0. -1.
          6    2    1    2  502    0 -0.26047825364E+03  0.40206969907E+03  0.26755435156E+03  0.57415759715E+03  0.16900488689E+03 0.  0.
         24    2    3    3    0    0 -0.22839353411E+03  0.37554654080E+03  0.18780865174E+03  0.48407777814E+03  0.76553216063E+02 0.  0.
         -6    2    1    2    0  501  0.26047825364E+03 -0.40206969907E+03 -0.27039121012E+03  0.57641862751E+03  0.17215709135E+03 0.  0.
        -24    2    5    5    0    0  0.12456770075E+03 -0.18429497612E+03 -0.20034347669E+03  0.31028654883E+03  0.81599530899E+02 0.  0.
          5    1    3    3  502    0 -0.32084719537E+02  0.26523158264E+02  0.79745699824E+02  0.90079819007E+02  0.47000000000E+01 0. -1.
        -13    1    4    4    0    0 -0.15615774559E+03  0.18546981815E+03  0.11189090232E+03  0.26702784306E+03  0.00000000000E+00 0.  1.
         14    1    4    4    0    0 -0.72235788520E+02  0.19007672266E+03  0.75917749418E+02  0.21704993507E+03  0.00000000000E+00 0. -1.
         -5    1    5    5    0  501  0.13591055290E+03 -0.21777472295E+03 -0.70047733434E+02  0.26613207868E+03  0.47000000000E+01 0.  1.
         11    1    6    6    0    0  0.12518656903E+03 -0.12651431245E+03 -0.13744686460E+03  0.22487594115E+03  0.00000000000E+00 0. -1.
        -12    1    6    6    0    0 -0.61886828722E+00 -0.57780663671E+02 -0.62896612085E+02  0.85410607679E+02  0.00000000000E+00 0.  1.
</event>
<event>
12    1  0.9656379E-001  0.2763185E+03  0.7818608E-02  0.1097717E+00
         -1   -1    0    0    0  501 -0.00000000000E+00  0.00000000000E+00  0.27585250322E+03  0.27585250322E+03  0.00000000000E+00 0. -1.
          1   -1    0    0  502    0  0.00000000000E+00 -0.00000000000E+00 -0.30700471457E+03  0.30700471457E+03  0.00000000000E+00 0.  1.
          6    2    1    2  502    0 -0.10577783445E+03  0.18944548718E+03  0.75855231612E+02  0.28657171110E+03  0.17114551284E+03 0.  0.
         24    2    3    3    0    0 -0.33899608472E+02  0.15191690576E+03  0.90580845389E+00  0.17605302569E+03  0.82255198343E+02 0.  0.
         -6    2    1    2    0  501  0.10577783445E+03 -0.18944548718E+03 -0.10700744297E+03  0.29628550669E+03  0.17104375391E+03 0.  0.
        -24    2    5    5    0    0  0.10841773108E+03 -0.19270381049E+03 -0.13271309747E+03  0.26981936987E+03  0.79376086616E+02 0.  0.
          5    1    3    3  502    0 -0.71878225976E+02  0.37528581418E+02  0.74949423158E+02  0.11051868541E+03  0.47000000000E+01 0. -1.
        -13    1    4    4    0    0 -0.25952991795E+02  0.75229262870E+02  0.40597752288E+02  0.89337434852E+02  0.00000000000E+00 0.  1.
         14    1    4    4    0    0 -0.79466166770E+01  0.76687642894E+02 -0.39691943834E+02  0.86715590839E+02  0.00000000000E+00 0. -1.
         -5    1    5    5    0  501 -0.26398966375E+01  0.32583233103E+01  0.25705654497E+02  0.26466136820E+02  0.47000000000E+01 0.  1.
         13    1    6    6    0    0  0.44045901944E+02 -0.65706263718E+02 -0.61891844360E+01  0.79345198807E+02  0.00000000000E+00 0. -1.
        -14    1    6    6    0    0  0.64371829141E+02 -0.12699754677E+03 -0.12652391303E+03  0.19047417106E+03  0.00000000000E+00 0.  1.
</event>
<event>
12    1  0.9656379E-001  0.3669451E+03  0.7818608E-02  0.1055867E+00
          1   -1    0    0  502    0  0.00000000000E+00  0.00000000000E+00  0.88731961034E+03  0.88731961034E+03  0.00000000000E+00 0. -1.
         -1   -1    0    0    0  501 -0.00000000000E+00 -0.00000000000E+00 -0.15231392637E+03  0.15231392637E+03  0.00000000000E+00 0.  1.
          6    2    1    2  502    0  0.74500912617E+02  0.31535638319E+03  0.39964065484E+03  0.54285641098E+03  0.17314847828E+03 0.  0.
         24    2    3    3    0    0 -0.30095405155E+01  0.75728985648E+02  0.79830665194E+02  0.13575730820E+03  0.79455490833E+02 0.  0.
         -6    2    1    2    0  501 -0.74500912617E+02 -0.31535638319E+03  0.33536502912E+03  0.49677712573E+03  0.17122434256E+03 0.  0.
        -24    2    5    5    0    0 -0.99396794479E+02 -0.31303943561E+03  0.29172652565E+03  0.44626393769E+03  0.78573057221E+02 0.  0.
          5    1    3    3  502    0  0.77510453132E+02  0.23962739755E+03  0.31980998965E+03  0.40709910277E+03  0.47000000000E+01 0. -1.
        -11    1    4    4    0    0  0.31170354837E+02  0.63903882418E+02  0.38568335074E+02  0.80887660858E+02  0.00000000000E+00 0.  1.
         12    1    4    4    0    0 -0.34179895353E+02  0.11825103231E+02  0.41262330120E+02  0.54869647344E+02  0.00000000000E+00 0. -1.
         -5    1    5    5    0  501  0.24895881862E+02 -0.23169475869E+01  0.43638503476E+02  0.50513188035E+02  0.47000000000E+01 0.  1.
         13    1    6    6    0    0 -0.25307511944E+02 -0.19911186585E+03  0.15614460244E+03  0.25429734988E+03  0.00000000000E+00 0. -1.
        -14    1    6    6    0    0 -0.74089282534E+02 -0.11392756976E+03  0.13558192321E+03  0.19196658781E+03  0.00000000000E+00 0.  1.
</event>
<event>
12    1  0.9656379E-001  0.5316415E+03  0.7818608E-02  0.1005835E+00
         -1   -1    0    0    0  501 -0.00000000000E+00  0.00000000000E+00  0.40324049564E+03  0.40324049564E+03  0.00000000000E+00 0.  1.
          1   -1    0    0  502    0  0.00000000000E+00 -0.00000000000E+00 -0.10652549074E+04  0.10652549074E+04  0.00000000000E+00 0. -1.
          6    2    1    2  502    0  0.48734729915E+03  0.12424840010E+03  0.98348071860E+02  0.54076709177E+03  0.17266050326E+03 0.  0.
         24    2    3    3    0    0  0.41462317682E+03  0.49149832261E+02  0.62197423796E+02  0.43005326148E+03  0.82153535650E+02 0.  0.
         -6    2    1    2    0  501 -0.48734729915E+03 -0.12424840010E+03 -0.76036248362E+03  0.92772831128E+03  0.17199900623E+03 0.  0.
        -24    2    5    5    0    0 -0.34885837585E+03 -0.10520624243E+03 -0.43976922512E+03  0.57795136373E+03  0.88658263158E+02 0.  0.
          5    1    3    3  502    0  0.72724122330E+02  0.75098567842E+02  0.36150648064E+02  0.11071383028E+03  0.47000000000E+01 0. -1.
        -11    1    4    4    0    0  0.23314414226E+03 -0.30745574579E+01  0.61774370837E+02  0.24120886564E+03  0.00000000000E+00 0.  1.
         12    1    4    4    0    0  0.18147903456E+03  0.52224389719E+02  0.42305295902E+00  0.18884439584E+03  0.00000000000E+00 0. -1.
         -5    1    5    5    0  501 -0.13848892330E+03 -0.19042157673E+02 -0.32059325850E+03  0.34977694756E+03  0.47000000000E+01 0.  1.
         13    1    6    6    0    0 -0.11888535710E+03 -0.62039406390E+02 -0.10913630775E+03  0.17289693388E+03  0.00000000000E+00 0. -1.
        -14    1    6    6    0    0 -0.22997301875E+03 -0.43166836039E+02 -0.33063291737E+03  0.40505442984E+03  0.00000000000E+00 0.  1.
</event>
<event>
12    1  0.9656379E-001  0.6873647E+03  0.7818608E-02  0.9739087E-01
          1   -1    0    0  502    0  0.00000000000E+00  0.00000000000E+00  0.52230230771E+03  0.52230230771E+03  0.00000000000E+00 0. -1.
         -1   -1    0    0    0  501 -0.00000000000E+00 -0.00000000000E+00 -0.11514736566E+04  0.11514736566E+04  0.00000000000E+00 0.  1.
          6    2    1    2  502    0 -0.29557805633E+03  0.59618349791E+03 -0.70211923405E+03  0.98261106383E+03  0.17248748760E+03 0.  0.
         24    2    3    3    0    0 -0.26510605476E+03  0.49236111654E+03 -0.64797418315E+03  0.86152676968E+03  0.98270766244E+02 0.  0.
         -6    2    1    2    0  501  0.29557805633E+03 -0.59618349791E+03  0.72947885175E+02  0.69116490046E+03  0.17200690426E+03 0.  0.
        -24    2    5    5    0    0  0.24250052417E+03 -0.57578669322E+03  0.70310369139E+02  0.63404834811E+03  0.82078860965E+02 0.  0.
          5    1    3    3  502    0 -0.30472001564E+02  0.10382238137E+03 -0.54145050903E+02  0.12108429415E+03  0.47000000000E+01 0. -1.
        -11    1    4    4    0    0 -0.10420564249E+03  0.29337175508E+03 -0.37418915541E+03  0.48676824735E+03  0.00000000000E+00 0.  1.
         12    1    4    4    0    0 -0.16090041227E+03  0.19898936147E+03 -0.27378502773E+03  0.37475852233E+03  0.00000000000E+00 0. -1.
         -5    1    5    5    0  501  0.53077532160E+02 -0.20396804691E+02  0.26375160359E+01  0.57116552353E+02  0.47000000000E+01 0.  1.
         11    1    6    6    0    0  0.17953497698E+03 -0.41843181646E+03  0.87639799239E+02  0.46367955249E+03  0.00000000000E+00 0. -1.
        -12    1    6    6    0    0  0.62965547191E+02 -0.15735487676E+03 -0.17329430099E+02  0.17036879562E+03  0.00000000000E+00 0.  1.
</event>
<event>
12    1  0.9656379E-001  0.6820952E+03  0.7818608E-02  0.9748351E-01
         -2   -1    0    0    0  501 -0.00000000000E+00  0.00000000000E+00  0.11249268292E+04  0.11249268292E+04  0.00000000000E+00 0.  1.
          2   -1    0    0  502    0  0.00000000000E+00 -0.00000000000E+00 -0.23126711968E+04  0.23126711968E+04  0.00000000000E+00 0. -1.
          6    2    1    2  502    0  0.40010868695E+02 -0.65882992547E+03  0.96367356013E+03  0.11806384743E+04  0.17199632600E+03 0.  0.
         24    2    3    3    0    0 -0.71862650424E+00 -0.25464998893E+03  0.30397934931E+03  0.40588764036E+03  0.86569038932E+02 0.  0.
         -6    2    1    2    0  501 -0.40010868695E+02  0.65882992547E+03 -0.21514179277E+04  0.22569595518E+04  0.17207433930E+03 0.  0.
        -24    2    5    5    0    0  0.28061336391E+02  0.19664493679E+03 -0.63883776489E+03  0.67387091625E+03  0.80818637458E+02 0.  0.
          5    1    3    3  502    0  0.40729495199E+02 -0.40417993654E+03  0.65969421082E+03  0.77475083393E+03  0.47000000000E+01 0. -1.
        -13    1    4    4    0    0  0.16142084290E+02 -0.22932568943E+03  0.22684350685E+03  0.32296875285E+03  0.00000000000E+00 0.  1.
         14    1    4    4    0    0 -0.16860710794E+02 -0.25324299503E+02  0.77135842455E+02  0.82918887505E+02  0.00000000000E+00 0. -1.
         -5    1    5    5    0  501 -0.68072205086E+02  0.46218498868E+03 -0.15125801629E+04  0.15830886355E+04  0.47000000000E+01 0.  1.
         13    1    6    6    0    0  0.13440052797E+02  0.16850622102E+03 -0.41990424578E+03  0.45265279980E+03  0.00000000000E+00 0. -1.
        -14    1    6    6    0    0  0.14621283594E+02  0.28138715772E+02 -0.21893351911E+03  0.22121811646E+03  0.00000000000E+00 0.  1.
</event>
<event>
12    1  0.9656379E-001  0.5057213E+03  0.7818608E-02  0.1012296E+00
          2   -1    0    0  502    0  0.00000000000E+00  0.00000000000E+00  0.23252422775E+04  0.23252422775E+04  0.00000000000E+00 0. -1.
         -2   -1    0    0    0  501 -0.00000000000E+00 -0.00000000000E+00 -0.23253355838E+03  0.23253355838E+03  0.00000000000E+00 0.  1.
          6    2    1    2  502    0  0.20912613658E+03  0.42723253297E+03  0.11760984300E+03  0.51887223949E+03  0.17068962331E+03 0.  0.
         24    2    3    3    0    0  0.13797764597E+03  0.17342174580E+03  0.95784878102E+02  0.25433407118E+03  0.79988400303E+02 0.  0.
         -6    2    1    2    0  501 -0.20912613658E+03 -0.42723253297E+03  0.19750988761E+04  0.20389035964E+04  0.17277420728E+03 0.  0.
        -24    2    5    5    0    0 -0.18861361885E+03 -0.43660068352E+03  0.19122449864E+04  0.19719616284E+04  0.75871745249E+02 0.  0.
          5    1    3    3  502    0  0.71148490612E+02  0.25381078717E+03  0.21824964896E+02  0.26453816831E+03  0.47000000000E+01 0. -1.
        -11    1    4    4    0    0  0.27637752130E+02  0.39377287225E+01 -0.50230073437E+01  0.28365148564E+02  0.00000000000E+00 0.  1.
         12    1    4    4    0    0  0.11033989384E+03  0.16948401708E+03  0.10080788545E+03  0.22596892261E+03  0.00000000000E+00 0. -1.
         -5    1    5    5    0  501 -0.20512517733E+02  0.93681505512E+01  0.62853889768E+02  0.66941968058E+02  0.47000000000E+01 0.  1.
         11    1    6    6    0    0 -0.50750344821E+02 -0.17531604859E+03  0.85185699122E+03  0.87118978867E+03  0.00000000000E+00 0. -1.
        -12    1    6    6    0    0 -0.13786327403E+03 -0.26128463494E+03  0.10603879952E+04  0.11007718397E+04  0.00000000000E+00 0.  1.
</event>
<event>
12    1  0.9656379E-001  0.3170885E+03  0.7818608E-02  0.1076997E+00
          2   -1    0    0  502    0  0.00000000000E+00  0.00000000000E+00  0.64055838365E+03  0.64055838365E+03  0.00000000000E+00 0. -1.
         -2   -1    0    0    0  501 -0.00000000000E+00 -0.00000000000E+00 -0.24284634935E+03  0.24284634935E+03  0.00000000000E+00 0.  1.
          6    2    1    2  502    0 -0.19539167743E+02  0.26592673906E+03 -0.63735249773E+02  0.32362569723E+03  0.17196685790E+03 0.  0.
         24    2    3    3    0    0 -0.22960647289E+02  0.17396411937E+03 -0.10812655969E+03  0.22134418209E+03  0.80691931942E+02 0.  0.
         -6    2    1    2    0  501  0.19539167743E+02 -0.26592673906E+03  0.46144728407E+03  0.55977903577E+03  0.17123131516E+03 0.  0.
        -24    2    5    5    0    0 -0.15275769480E+02 -0.59711890418E+02  0.11574321072E+03  0.15571216014E+03  0.83969798123E+02 0.  0.
          5    1    3    3  502    0  0.34214795464E+01  0.91962619695E+02  0.44391309920E+02  0.10228151514E+03  0.47000000000E+01 0. -1.
        -13    1    4    4    0    0 -0.17627871883E+02  0.98652349125E+02 -0.14799934598E+02  0.10130185546E+03  0.00000000000E+00 0.  1.
         14    1    4    4    0    0 -0.53327754061E+01  0.75311770243E+02 -0.93326625094E+02  0.12004232663E+03  0.00000000000E+00 0. -1.
         -5    1    5    5    0  501  0.34814937222E+02 -0.20621484865E+03  0.34570407335E+03  0.40406687563E+03  0.47000000000E+01 0.  1.
         11    1    6    6    0    0 -0.35309792244E+02 -0.14622000350E+02  0.10745782572E+02  0.39699573872E+02  0.00000000000E+00 0. -1.
        -12    1    6    6    0    0  0.20034022764E+02 -0.45089890068E+02  0.10499742815E+03  0.11601258627E+03  0.00000000000E+00 0.  1.
</event>
<event>
12    1  0.9656379E-001  0.2818810E+03  0.7818608E-02  0.1094666E+00
          1   -1    0    0  502    0  0.00000000000E+00  0.00000000000E+00  0.18669503321E+04  0.18669503321E+04  0.00000000000E+00 0. -1.
         -1   -1    0    0    0  501 -0.00000000000E+00 -0.00000000000E+00 -0.65466170384E+03  0.65466170384E+03  0.00000000000E+00 0.  1.
          6    2    1    2  502    0 -0.13947602417E+03  0.17506091124E+03 -0.61295767770E+03  0.67476352828E+03  0.17172309248E+03 0.  0.
         24    2    3    3    0    0 -0.30234822722E+02  0.74469269112E+02 -0.14624660022E+03  0.18497414661E+03  0.79796931588E+02 0.  0.
         -6    2    1    2    0  501  0.13947602417E+03 -0.17506091124E+03  0.18252463060E+04  0.18468485077E+04  0.17095452278E+03 0.  0.
        -24    2    5    5    0    0  0.15305148380E+03 -0.19267568375E+03  0.16994334866E+04  0.17189988740E+04  0.79588174934E+02 0.  0.
          5    1    3    3  502    0 -0.10924120145E+03  0.10059164213E+03 -0.46671107748E+03  0.48978938167E+03  0.47000000000E+01 0. -1.
        -11    1    4    4    0    0 -0.36679799227E+02  0.10745741278E+01 -0.69461099760E+02  0.78558301666E+02  0.00000000000E+00 0.  1.
         12    1    4    4    0    0  0.64449765047E+01  0.73394694984E+02 -0.76785500461E+02  0.10641584494E+03  0.00000000000E+00 0. -1.
         -5    1    5    5    0  501 -0.13575459633E+02  0.17614772508E+02  0.12581281937E+03  0.12784963368E+03  0.47000000000E+01 0.  1.
         13    1    6    6    0    0  0.87960964632E+02 -0.98541957128E+02  0.11640073399E+04  0.11714780134E+04  0.00000000000E+00 0. -1.
        -14    1    6    6    0    0  0.65090519172E+02 -0.94133726622E+02  0.53542614675E+03  0.54752086060E+03  0.00000000000E+00 0.  1.
</event>
<event>
12    1  0.9656379E-001  0.3857187E+03  0.7818608E-02  0.1048840E+00
         -1   -1    0    0    0  501 -0.00000000000E+00  0.00000000000E+00  0.22105713989E+03  0.22105713989E+03  0.00000000000E+00 0.  1.
          1   -1    0    0  502    0  0.00000000000E+00 -0.00000000000E+00 -0.28140305590E+04  0.28140305590E+04  0.00000000000E+00 0. -1.
          6    2    1    2  502    0 -0.31542911660E+03 -0.13942456781E+03  0.26952820255E+02  0.38696446795E+03  0.17343675284E+03 0.  0.
         24    2    3    3    0    0 -0.29369003076E+03 -0.15901553744E+03  0.52953328405E+02  0.34753718846E+03  0.80238812662E+02 0.  0.
         -6    2    1    2    0  501  0.31542911660E+03  0.13942456781E+03 -0.26199262393E+04  0.26481232309E+04  0.17207094122E+03 0.  0.
        -24    2    5    5    0    0  0.31480579814E+03  0.94602961052E+02 -0.23796126859E+04  0.24036195317E+04  0.82328048244E+02 0.  0.
          5    1    3    3  502    0 -0.21739085833E+02  0.19590969636E+02 -0.26000508149E+02  0.39427279492E+02  0.47000000000E+01 0. -1.
        -13    1    4    4    0    0 -0.16574024333E+03 -0.68836867492E+02  0.64185309767E+02  0.19059930895E+03  0.00000000000E+00 0.  1.
         14    1    4    4    0    0 -0.12794978744E+03 -0.90178669950E+02 -0.11231981363E+02  0.15693787951E+03  0.00000000000E+00 0. -1.
         -5    1    5    5    0  501  0.62331845527E+00  0.44821606754E+02 -0.24031355341E+03  0.24450369918E+03  0.47000000000E+01 0.  1.
         13    1    6    6    0    0  0.38534146741E+02  0.35515750079E+02 -0.25706715962E+03  0.26235429008E+03  0.00000000000E+00 0. -1.
        -14    1    6    6    0    0  0.27627165140E+03  0.59087210973E+02 -0.21225455263E+04  0.21412652416E+04  0.00000000000E+00 0.  1.
</event>
