<event>
12    1  0.8488291E-002  0.1849918E+03  0.7818608E-02  0.1163525E+00
         21   -1    0    0  503  502  0.00000000000E+00  0.00000000000E+00  0.62039528733E+03  0.62039528733E+03  0.00000000000E+00 0. -1.
         21   -1    0    0  501  503 -0.00000000000E+00 -0.00000000000E+00 -0.69984550941E+02  0.69984550941E+02  0.00000000000E+00 0.  1.
          6    2    1    2  501    0  0.18440142062E+02 -0.59260436340E+02  0.43836830696E+03  0.47580325356E+03  0.17427026540E+03 0.  0.
         24    2    3    3    0    0 -0.22971321271E+02  0.18386307416E+02  0.13157281370E+03  0.15660192087E+03  0.79668176918E+02 0.  0.
         -6    2    1    2    0  502 -0.18440142062E+02  0.59260436340E+02  0.11204242944E+03  0.21457658471E+03  0.17215622718E+03 0.  0.
        -24    2    5    5    0    0 -0.60010597923E+02  0.73405498250E+02  0.11773415473E+03  0.17004938725E+03  0.77883399257E+02 0.  0.
          5    1    3    3  501    0  0.41411463333E+02 -0.77646743756E+02  0.30679549325E+03  0.31920133269E+03  0.47000000000E+01 0. -1.
        -11    1    4    4    0    0  0.26734257990E+02  0.21579674981E+02  0.43628451546E+02  0.55532375304E+02  0.00000000000E+00 0.  1.
         12    1    4    4    0    0 -0.49705579261E+02 -0.31933675653E+01  0.87944362158E+02  0.10106954557E+03  0.00000000000E+00 0. -1.
         -5    1    5    5    0  502  0.41570455860E+02 -0.14145061910E+02 -0.56917252879E+01  0.44527197460E+02  0.47000000000E+01 0.  1.
         13    1    6    6    0    0 -0.39997126294E+02  0.56756072575E+01  0.10659119459E+02  0.41780371674E+02  0.00000000000E+00 0. -1.
        -14    1    6    6    0    0 -0.20013471629E+02  0.67729890992E+02  0.10707503527E+03  0.12826901558E+03  0.00000000000E+00 0.  1.
</event>
<event>
12    1  0.1468100E-001  0.1726702E+03  0.7818608E-02  0.1180550E+00
         21   -1    0    0  501  502  0.00000000000E+00  0.00000000000E+00  0.21518995887E+03  0.21518995887E+03  0.00000000000E+00 0.  1.
         21   -1    0    0  502  503 -0.00000000000E+00 -0.00000000000E+00 -0.13153914717E+03  0.13153914717E+03  0.00000000000E+00 0.  1.
         -6    2    1    2    0  503 -0.45791998178E+01  0.14031031399E+02  0.37652258740E-01  0.17267016610E+03  0.17203821067E+03 0.  0.
        -24    2    3    3    0    0 -0.20818511579E+02  0.70830769546E+02 -0.17953382354E+02  0.11073719567E+03  0.80560500425E+02 0.  0.
          6    2    1    2  501    0  0.45791998178E+01 -0.14031031399E+02  0.83613159445E+02  0.17405893994E+03  0.15194576410E+03 0.  0.
         24    2    5    5    0    0  0.17695858517E+02  0.29369198761E+02  0.93864800684E+02  0.12733835709E+03  0.78922513484E+02 0.  0.
          5    1    5    5  501    0 -0.13116658699E+02 -0.43400230161E+02 -0.10251641239E+02  0.46720582847E+02  0.47000000000E+01 0. -1.
        -11    1    6    6    0    0 -0.27881889548E+02  0.13664626830E+02  0.62607021184E+02  0.69883910114E+02  0.00000000000E+00 0.  1.
         12    1    6    6    0    0  0.45577748065E+02  0.15704571931E+02  0.31257779500E+02  0.57454446978E+02  0.00000000000E+00 0. -1.
         -5    1    3    3    0  503  0.16239311761E+02 -0.56799738147E+02  0.17991034612E+02  0.61932970431E+02  0.47000000000E+01 0.  1.
         11    1    4    4    0    0  0.75742261707E+01  0.12650005611E+02  0.27796084444E+02  0.31464485606E+02  0.00000000000E+00 0. -1.
        -12    1    4    4    0    0 -0.28392737749E+02  0.58180763935E+02 -0.45749466798E+02  0.79272710067E+02  0.00000000000E+00 0.  1.
</event>
<event>
12    1  0.8488291E-002  0.1821597E+03  0.7818608E-02  0.1166715E+00
         21   -1    0    0  503  502  0.00000000000E+00  0.00000000000E+00  0.21208024165E+04  0.21208024165E+04  0.00000000000E+00 0. -1.
         21   -1    0    0  501  503 -0.00000000000E+00 -0.00000000000E+00 -0.16003345202E+02  0.16003345202E+02  0.00000000000E+00 0. -1.
          6    2    1    2  501    0  0.19767229863E+02  0.57504293999E+02  0.83932560346E+03  0.85886530799E+03  0.17171098234E+03 0.  0.
         24    2    3    3    0    0  0.11245729115E+00  0.62882237701E+02  0.82918015077E+03  0.83562197404E+03  0.82281058531E+02 0.  0.
         -6    2    1    2    0  502 -0.19767229863E+02 -0.57504293999E+02  0.12654734679E+04  0.12779404537E+04  0.16736552275E+03 0.  0.
        -24    2    5    5    0    0 -0.10172257358E+02 -0.40575523886E+02  0.32194953676E+03  0.33420418479E+03  0.79316359910E+02 0.  0.
          5    1    3    3  501    0  0.19654772572E+02 -0.53779437019E+01  0.10145452684E+02  0.23243333958E+02  0.47000000000E+01 0. -1.
        -11    1    4    4    0    0 -0.64379281618E+01  0.36287046118E+02  0.76441859250E+03  0.76530646227E+03  0.00000000000E+00 0.  1.
         12    1    4    4    0    0  0.65503854530E+01  0.26595191583E+02  0.64761558272E+02  0.70315511765E+02  0.00000000000E+00 0. -1.
         -5    1    5    5    0  502 -0.95949725051E+01 -0.16928770113E+02  0.94352393109E+03  0.94373626893E+03  0.47000000000E+01 0.  1.
         13    1    6    6    0    0  0.11201968324E+02 -0.16960081067E+02  0.28370775768E+03  0.28443491384E+03  0.00000000000E+00 0. -1.
        -14    1    6    6    0    0 -0.21374225683E+02 -0.23615442820E+02  0.38241779083E+02  0.49769270946E+02  0.00000000000E+00 0.  1.
</event>
<event>
12    1  0.8488291E-002  0.2101986E+03  0.7818608E-02  0.1141738E+00
         21   -1    0    0  503  502  0.00000000000E+00  0.00000000000E+00  0.15032323830E+04  0.15032323830E+04  0.00000000000E+00 0. -1.
         21   -1    0    0  501  503 -0.00000000000E+00 -0.00000000000E+00 -0.35862598346E+02  0.35862598346E+02  0.00000000000E+00 0.  1.
          6    2    1    2  501    0 -0.13538674239E+02 -0.11964882605E+03  0.39865604141E+03  0.44990606396E+03  0.17026358906E+03 0.  0.
         24    2    3    3    0    0 -0.59402412351E+02 -0.64682387468E+02  0.33026286710E+03  0.35078740711E+03  0.79156716456E+02 0.  0.
         -6    2    1    2    0  502  0.13538674239E+02  0.11964882605E+03  0.10687137433E+04  0.10891889174E+04  0.17229130995E+03 0.  0.
        -24    2    5    5    0    0  0.15362605811E+02  0.14689850546E+03  0.71614967316E+03  0.73553741482E+03  0.79559749015E+02 0.  0.
          5    1    3    3  501    0  0.45863738112E+02 -0.54966438580E+02  0.68393174314E+02  0.99118656854E+02  0.47000000000E+01 0. -1.
        -13    1    4    4    0    0  0.80538113048E+01 -0.14194896999E+02  0.89554677366E+01  0.18616105385E+02  0.00000000000E+00 0.  1.
         14    1    4    4    0    0 -0.67456223656E+02 -0.50487490469E+02  0.32130739936E+03  0.33217130172E+03  0.00000000000E+00 0. -1.
         -5    1    5    5    0  502 -0.18239315723E+01 -0.27249679416E+02  0.35256407013E+03  0.35365150261E+03  0.47000000000E+01 0.  1.
         11    1    6    6    0    0  0.45026209537E+02  0.87463016372E+02  0.49263634294E+03  0.50236212553E+03  0.00000000000E+00 0. -1.
        -12    1    6    6    0    0 -0.29663603726E+02  0.59435489093E+02  0.22351333022E+03  0.23317528929E+03  0.00000000000E+00 0.  1.
</event>
<event>
12    1  0.8488291E-002  0.1794279E+03  0.7818608E-02  0.1168876E+00
         21   -1    0    0  503  502  0.00000000000E+00  0.00000000000E+00  0.18841657980E+03  0.18841657980E+03  0.00000000000E+00 0.  1.
         21   -1    0    0  501  503 -0.00000000000E+00 -0.00000000000E+00 -0.77764110928E+03  0.77764110928E+03  0.00000000000E+00 0.  1.
          6    2    1    2  501    0  0.99605991571E+01 -0.43581416292E+02 -0.72161208286E+03  0.74307598737E+03  0.17157905321E+03 0.  0.
         24    2    3    3    0    0 -0.27641656462E+02 -0.85580182694E+00 -0.62687945512E+03  0.63246057924E+03  0.79143789819E+02 0.  0.
         -6    2    1    2    0  502 -0.99605991571E+01  0.43581416292E+02  0.13238755338E+03  0.22298170172E+03  0.17376944964E+03 0.  0.
        -24    2    5    5    0    0  0.45356772343E+02  0.33445729798E+01  0.26439122295E+02  0.96782750857E+02  0.81237003330E+02 0.  0.
          5    1    3    3  501    0  0.37602255619E+02 -0.42725614465E+02 -0.94732627733E+02  0.11061540813E+03  0.47000000000E+01 0. -1.
        -11    1    4    4    0    0 -0.19573120112E+02 -0.29876078678E+02 -0.13452800286E+03  0.13918861541E+03  0.00000000000E+00 0.  1.
         12    1    4    4    0    0 -0.80685363501E+01  0.29020276851E+02 -0.49235145227E+03  0.49327196382E+03  0.00000000000E+00 0. -1.
         -5    1    5    5    0  502 -0.55317371500E+02  0.40236843312E+02  0.10594843108E+03  0.12619895086E+03  0.47000000000E+01 0.  1.
         13    1    6    6    0    0  0.60908267924E+02  0.18832978319E+02  0.35576541158E+02  0.73008139646E+02  0.00000000000E+00 0. -1.
        -14    1    6    6    0    0 -0.15551495581E+02 -0.15488405339E+02 -0.91374188628E+01  0.23774611211E+02  0.00000000000E+00 0.  1.
</event>
<event>
12    1  0.8488291E-002  0.2170470E+03  0.7818608E-02  0.1136367E+00
         21   -1    0    0  503  502  0.00000000000E+00  0.00000000000E+00  0.11397592095E+03  0.11397592095E+03  0.00000000000E+00 0.  1.
         21   -1    0    0  501  503 -0.00000000000E+00 -0.00000000000E+00 -0.44021822546E+03  0.44021822546E+03  0.00000000000E+00 0. -1.
          6    2    1    2  501    0  0.10795601512E+03 -0.72632148185E+02 -0.23439017896E+03  0.31851173694E+03  0.17199139637E+03 0.  0.
         24    2    3    3    0    0 -0.35193688817E-02 -0.51242016111E+02 -0.58784323612E+02  0.11121411209E+03  0.79292104259E+02 0.  0.
         -6    2    1    2    0  502 -0.10795601512E+03  0.72632148185E+02 -0.91852125548E+02  0.23568240947E+03  0.17372235036E+03 0.  0.
        -24    2    5    5    0    0  0.48281890095E+01 -0.61294624195E+01 -0.22612919848E+02  0.81605073002E+02  0.78020267091E+02 0.  0.
          5    1    3    3  501    0  0.10795953449E+03 -0.21390132073E+02 -0.17560585535E+03  0.20729762485E+03  0.47000000000E+01 0. -1.
        -13    1    4    4    0    0 -0.13642754759E+02 -0.13234343402E+02  0.16898184609E+02  0.25432680664E+02  0.00000000000E+00 0.  1.
         14    1    4    4    0    0  0.13639235390E+02 -0.38007672709E+02 -0.75682508220E+02  0.85781431425E+02  0.00000000000E+00 0. -1.
         -5    1    5    5    0  502 -0.11278420413E+03  0.78761610604E+02 -0.69239205700E+02  0.15407733647E+03  0.47000000000E+01 0.  1.
         13    1    6    6    0    0 -0.20777526492E+02  0.10547858893E+02 -0.40113785136E+02  0.46390502178E+02  0.00000000000E+00 0. -1.
        -14    1    6    6    0    0  0.25605715501E+02 -0.16677321312E+02  0.17500865288E+02  0.35214570824E+02  0.00000000000E+00 0.  1.
</event>
<event>
12    1  0.8488291E-002  0.1866550E+03  0.7818608E-02  0.1161605E+00
         21   -1    0    0  503  502  0.00000000000E+00  0.00000000000E+00  0.95029528917E+03  0.95029528917E+03  0.00000000000E+00 0. -1.
         21   -1    0    0  501  503 -0.00000000000E+00 -0.00000000000E+00 -0.64884652991E+02  0.64884652991E+02  0.00000000000E+00 0. -1.
          6    2    1    2  501    0 -0.60308072834E+02  0.39472379056E+02  0.10774669641E+03  0.21552128427E+03  0.17217706302E+03 0.  0.
         24    2    3    3    0    0  0.16178662532E+02 -0.26111738647E+01  0.68193133173E+01  0.81993486521E+02  0.80049118967E+02 0.  0.
         -6    2    1    2    0  502  0.60308072834E+02 -0.39472379056E+02  0.77766393977E+03  0.79965865789E+03  0.17174875129E+03 0.  0.
        -24    2    5    5    0    0  0.63208176908E+02 -0.27623730968E+02  0.23706817501E+03  0.25890485815E+03  0.77923435683E+02 0.  0.
          5    1    3    3  501    0 -0.76486735366E+02  0.42083552921E+02  0.10092738310E+03  0.13352779775E+03  0.47000000000E+01 0. -1.
        -13    1    4    4    0    0  0.13315793771E+02  0.53824386236E+01  0.42737006655E+02  0.45085837545E+02  0.00000000000E+00 0.  1.
         14    1    4    4    0    0  0.28628687608E+01 -0.79936124883E+01 -0.35917693338E+02  0.36907648975E+02  0.00000000000E+00 0. -1.
         -5    1    5    5    0  502 -0.29001040737E+01 -0.11848648089E+02  0.54059576476E+03  0.54075379974E+03  0.47000000000E+01 0.  1.
         11    1    6    6    0    0  0.48191533163E+02  0.21439052796E+02  0.11800020923E+03  0.12925210339E+03  0.00000000000E+00 0. -1.
        -12    1    6    6    0    0  0.15016643745E+02 -0.49062783763E+02  0.11906796579E+03  0.12965275476E+03  0.00000000000E+00 0.  1.
</event>
<event>
12    1  0.8488291E-002  0.2508836E+03  0.7818608E-02  0.1112776E+00
         21   -1    0    0  503  502  0.00000000000E+00  0.00000000000E+00  0.32689109869E+04  0.32689109869E+04  0.00000000000E+00 0.  1.
         21   -1    0    0  501  503 -0.00000000000E+00 -0.00000000000E+00 -0.63929361326E+02  0.63929361326E+02  0.00000000000E+00 0.  1.
          6    2    1    2  501    0 -0.18208244829E+03 -0.18281035853E+02  0.20906325755E+03  0.32643560694E+03  0.17136086361E+03 0.  0.
         24    2    3    3    0    0 -0.74603507539E+02 -0.13406844449E+00  0.14573335150E+02  0.10343458666E+03  0.70147204572E+02 0.  0.
         -6    2    1    2    0  502  0.18208244829E+03  0.18281035853E+02  0.29959183680E+04  0.30064047413E+04  0.17162280234E+03 0.  0.
        -24    2    5    5    0    0  0.19561330438E+03  0.35853489809E+02  0.22534841780E+04  0.22636244967E+04  0.79087824831E+02 0.  0.
          5    1    3    3  501    0 -0.10747894075E+03 -0.18146967409E+02  0.19448992240E+03  0.22300102028E+03  0.47000000000E+01 0. -1.
        -11    1    4    4    0    0 -0.69589513605E+02  0.26001047501E+02  0.28170266119E+01  0.74341714493E+02  0.00000000000E+00 0.  1.
         12    1    4    4    0    0 -0.50139939336E+01 -0.26135115945E+02  0.11756308538E+02  0.29092872169E+02  0.00000000000E+00 0. -1.
         -5    1    5    5    0  502 -0.13530856089E+02 -0.17572453956E+02  0.74243419006E+03  0.74278024460E+03  0.47000000000E+01 0.  1.
         11    1    6    6    0    0  0.11385355046E+03  0.10933011510E+02  0.86756037360E+03  0.87506751942E+03  0.00000000000E+00 0. -1.
        -12    1    6    6    0    0  0.81759753921E+02  0.24920478299E+02  0.13859238044E+04  0.13885569773E+04  0.00000000000E+00 0.  1.
</event>
<event>
12    1  0.8488291E-002  0.1755847E+03  0.7818608E-02  0.1172443E+00
         21   -1    0    0  501  502  0.00000000000E+00  0.00000000000E+00  0.11680320777E+04  0.11680320777E+04  0.00000000000E+00 0. -1.
         21   -1    0    0  502  503 -0.00000000000E+00 -0.00000000000E+00 -0.55101868638E+02  0.55101868638E+02  0.00000000000E+00 0. -1.
         -6    2    1    2    0  503  0.18584807441E+02 -0.31847388452E+02  0.11278097777E+03  0.20768899246E+03  0.17045679050E+03 0.  0.
        -24    2    3    3    0    0  0.27045425052E+02 -0.61963289177E+02  0.16568971270E+02  0.10641022015E+03  0.80484159449E+02 0.  0.
          6    2    1    2  501    0 -0.18584807441E+02  0.31847388452E+02  0.10001492313E+04  0.10154449539E+04  0.17166921176E+03 0.  0.
         24    2    5    5    0    0 -0.47069972617E+02  0.66884006127E+02  0.87336824113E+03  0.88078063536E+03  0.79456846247E+02 0.  0.
          5    1    5    5  501    0  0.28485165176E+02 -0.35036617675E+02  0.12678099019E+03  0.13466431854E+03  0.47000000000E+01 0. -1.
        -11    1    6    6    0    0  0.13404282389E+02  0.28361657579E+02  0.12088128850E+03  0.12488532467E+03  0.00000000000E+00 0.  1.
         12    1    6    6    0    0 -0.60474255006E+02  0.38522348548E+02  0.75248695263E+03  0.75589531070E+03  0.00000000000E+00 0. -1.
         -5    1    3    3    0  503 -0.84606176113E+01  0.30115900725E+02  0.96212006495E+02  0.10127877231E+03  0.47000000000E+01 0.  1.
         11    1    4    4    0    0 -0.14521002971E+02  0.11801117001E+02  0.10658763897E+02  0.21534510386E+02  0.00000000000E+00 0. -1.
        -12    1    4    4    0    0  0.41566428023E+02 -0.73764406178E+02  0.59102073731E+01  0.84875709768E+02  0.00000000000E+00 0.  1.
</event>
<event>
12    1  0.8488291E-002  0.2794765E+03  0.7818608E-02  0.1096882E+00
         21   -1    0    0  503  502  0.00000000000E+00  0.00000000000E+00  0.18356937895E+03  0.18356937895E+03  0.00000000000E+00 0. -1.
         21   -1    0    0  501  503 -0.00000000000E+00 -0.00000000000E+00 -0.43440136033E+03  0.43440136033E+03  0.00000000000E+00 0.  1.
          6    2    1    2  501    0 -0.17477563207E+03 -0.13864998947E+03 -0.59707445646E+02  0.27939177077E+03  0.15724007556E+03 0.  0.
         24    2    3    3    0    0 -0.14007825196E+03 -0.15450076302E+03 -0.78300092002E+02  0.23669596644E+03  0.80010459783E+02 0.  0.
         -6    2    1    2    0  502  0.17477563207E+03  0.13864998947E+03 -0.19112453574E+03  0.33857896852E+03  0.16833534571E+03 0.  0.
        -24    2    5    5    0    0  0.65716706704E+02  0.10605726724E+03 -0.48563160354E+02  0.15609069356E+03  0.80243969237E+02 0.  0.
          5    1    3    3  501    0 -0.34697380109E+02  0.15850773554E+02  0.18592646356E+02  0.42695804328E+02  0.47000000000E+01 0. -1.
        -11    1    4    4    0    0  0.55885287133E+01 -0.59222263865E+01 -0.18480293962E+02  0.20194694439E+02  0.00000000000E+00 0.  1.
         12    1    4    4    0    0 -0.14566678067E+03 -0.14857853664E+03 -0.59819798040E+02  0.21650127200E+03  0.00000000000E+00 0. -1.
         -5    1    5    5    0  502  0.10905892536E+03  0.32592722229E+02 -0.14256137538E+03  0.18248827495E+03  0.47000000000E+01 0.  1.
         13    1    6    6    0    0  0.63238559545E+02  0.10232988308E+03 -0.13847734780E+02  0.12108790255E+03  0.00000000000E+00 0. -1.
        -14    1    6    6    0    0  0.24781471589E+01  0.37273841571E+01 -0.34715425574E+02  0.35002791014E+02  0.00000000000E+00 0.  1.
</event>
<event>
12    1  0.8488291E-002  0.1813427E+03  0.7818608E-02  0.1168392E+00
         21   -1    0    0  501  502  0.00000000000E+00  0.00000000000E+00  0.16866634165E+02  0.16866634165E+02  0.00000000000E+00 0.  1.
         21   -1    0    0  502  503 -0.00000000000E+00 -0.00000000000E+00 -0.19459266682E+04  0.19459266682E+04  0.00000000000E+00 0.  1.
         -6    2    1    2    0  503  0.19310302645E+02  0.18412035938E+02 -0.78830416107E+03  0.80889345020E+03  0.17936909586E+03 0.  0.
        -24    2    3    3    0    0  0.10569809549E+02  0.28885742401E+02 -0.78979716574E+03  0.79438780269E+03  0.79538110791E+02 0.  0.
          6    2    1    2  501    0 -0.19310302645E+02 -0.18412035938E+02 -0.11407558730E+04  0.11538998522E+04  0.17160715686E+03 0.  0.
         24    2    5    5    0    0  0.50291438401E+02 -0.33096574320E+02 -0.64551383791E+03  0.65355317106E+03  0.82577360394E+02 0.  0.
          5    1    5    5  501    0 -0.69601741046E+02  0.14684538382E+02 -0.49524203509E+03  0.50034668116E+03  0.47000000000E+01 0. -1.
        -11    1    6    6    0    0  0.22429228162E+02  0.11523600132E+02 -0.52831080569E+02  0.58540470702E+02  0.00000000000E+00 0.  1.
         12    1    6    6    0    0  0.27862210239E+02 -0.44620174452E+02 -0.59268275735E+03  0.59501270035E+03  0.00000000000E+00 0. -1.
         -5    1    3    3    0  503  0.87404930963E+01 -0.10473706463E+02  0.14930046641E+01  0.14505647506E+02  0.47000000000E+01 0.  1.
         13    1    4    4    0    0 -0.26333197765E+02  0.15336239339E+02 -0.58846754184E+03  0.58925604396E+03  0.00000000000E+00 0. -1.
        -14    1    4    4    0    0  0.36903007313E+02  0.13549503062E+02 -0.20132962390E+03  0.20513175873E+03  0.00000000000E+00 0.  1.
</event>
<event>
12    1  0.8488291E-002  0.2933974E+03  0.7818608E-02  0.1088604E+00
         21   -1    0    0  503  502  0.00000000000E+00  0.00000000000E+00  0.51819067502E+03  0.51819067502E+03  0.00000000000E+00 0.  1.
         21   -1    0    0  501  503 -0.00000000000E+00 -0.00000000000E+00 -0.20129861587E+03  0.20129861587E+03  0.00000000000E+00 0.  1.
          6    2    1    2  501    0 -0.93521744318E+02 -0.21747894873E+03  0.30895348930E+03  0.42598454416E+03  0.17311026401E+03 0.  0.
         24    2    3    3    0    0 -0.11882106948E+03 -0.21752341761E+03  0.24627315006E+03  0.35822782672E+03  0.79005237984E+02 0.  0.
         -6    2    1    2    0  502  0.93521744318E+02  0.21747894873E+03  0.79385698528E+01  0.29350474673E+03  0.17331648987E+03 0.  0.
        -24    2    5    5    0    0  0.66333742987E+01  0.61036310463E+02 -0.40630881444E+02  0.10801898040E+03  0.79043018352E+02 0.  0.
          5    1    3    3  501    0  0.25299325163E+02  0.44468882516E-01  0.62680339240E+02  0.67756717441E+02  0.47000000000E+01 0. -1.
        -11    1    4    4    0    0 -0.50778148282E+02 -0.14387086447E+03  0.10590400537E+03  0.18572265436E+03  0.00000000000E+00 0.  1.
         12    1    4    4    0    0 -0.68042921199E+02 -0.73652553140E+02  0.14036914469E+03  0.17250517236E+03  0.00000000000E+00 0. -1.
         -5    1    5    5    0  502  0.86888370020E+02  0.15644263827E+03  0.48569451297E+02  0.18548576633E+03  0.47000000000E+01 0.  1.
         13    1    6    6    0    0  0.12633187745E+02 -0.11976392144E+02 -0.29027257070E+02  0.33846906127E+02  0.00000000000E+00 0. -1.
        -14    1    6    6    0    0 -0.59998134459E+01  0.73012702607E+02 -0.11603624375E+02  0.74172074273E+02  0.00000000000E+00 0.  1.
</event>
<event>
12    1  0.8488291E-002  0.1790189E+03  0.7818608E-02  0.1169007E+00
         21   -1    0    0  503  502  0.00000000000E+00  0.00000000000E+00  0.29796595896E+03  0.29796595896E+03  0.00000000000E+00 0.  1.
         21   -1    0    0  501  503 -0.00000000000E+00 -0.00000000000E+00 -0.11157122485E+03  0.11157122485E+03  0.00000000000E+00 0. -1.
          6    2    1    2  501    0  0.43369735384E+02 -0.20313473166E+02  0.13466482087E+03  0.22319405405E+03  0.17142753758E+03 0.  0.
         24    2    3    3    0    0  0.93546367301E+01  0.11366304448E+02  0.15265440240E+03  0.17313059142E+03  0.80337618890E+02 0.  0.
         -6    2    1    2    0  502 -0.43369735384E+02  0.20313473166E+02  0.51729913240E+02  0.18634312977E+03  0.17249407801E+03 0.  0.
        -24    2    5    5    0    0 -0.87223128478E+02  0.37548486797E+02  0.16028964049E+02  0.12704040172E+03  0.82852718597E+02 0.  0.
          5    1    3    3  501    0  0.34015098654E+02 -0.31679777614E+02 -0.17989581528E+02  0.50063462621E+02  0.47000000000E+01 0. -1.
        -11    1    4    4    0    0 -0.31683007569E+02 -0.10825236270E+02  0.80763146117E+02  0.87428167541E+02  0.00000000000E+00 0.  1.
         12    1    4    4    0    0  0.41037644299E+02  0.22191540718E+02  0.71891256285E+02  0.85702423883E+02  0.00000000000E+00 0. -1.
         -5    1    5    5    0  502  0.43853393094E+02 -0.17235013630E+02  0.35700949191E+02  0.59302728047E+02  0.47000000000E+01 0.  1.
         11    1    6    6    0    0 -0.59171838502E+02  0.23138933595E+01 -0.26700735343E+02  0.64958370069E+02  0.00000000000E+00 0. -1.
        -12    1    6    6    0    0 -0.28051289976E+02  0.35234593437E+02  0.42729699392E+02  0.62082031652E+02  0.00000000000E+00 0.  1.
</event>
<event>
12    1  0.8488291E-002  0.2327797E+03  0.7818608E-02  0.1124981E+00
         21   -1    0    0  503  502  0.00000000000E+00  0.00000000000E+00  0.24935113161E+03  0.24935113161E+03  0.00000000000E+00 0. -1.
         21   -1    0    0  501  503 -0.00000000000E+00 -0.00000000000E+00 -0.35610178677E+03  0.35610178677E+03  0.00000000000E+00 0. -1.
          6    2    1    2  501    0  0.23955678863E+02 -0.15397919867E+03 -0.24328154275E+03  0.33558801552E+03  0.17073353199E+03 0.  0.
         24    2    3    3    0    0 -0.47019136703E+01 -0.92423376773E+01 -0.11183760804E+03  0.13792766413E+03  0.80055363107E+02 0.  0.
         -6    2    1    2    0  502 -0.23955678863E+02  0.15397919867E+03  0.13653088760E+03  0.26986490286E+03  0.17292459153E+03 0.  0.
        -24    2    5    5    0    0 -0.66688728843E+02  0.14573949733E+03  0.73879919438E+02  0.19343689720E+03  0.79197241522E+02 0.  0.
          5    1    3    3  501    0  0.28657592533E+02 -0.14473686099E+03 -0.13144393471E+03  0.19766035139E+03  0.47000000000E+01 0. -1.
        -13    1    4    4    0    0 -0.37679444887E+02 -0.23693551644E+02 -0.56858538844E+02  0.72208160176E+02  0.00000000000E+00 0.  1.
         14    1    4    4    0    0  0.32977531217E+02  0.14451213966E+02 -0.54979069195E+02  0.65719503953E+02  0.00000000000E+00 0. -1.
         -5    1    5    5    0  502  0.42733049980E+02  0.82397013430E+01  0.62650968158E+02  0.76428005665E+02  0.47000000000E+01 0.  1.
         13    1    6    6    0    0 -0.40020846165E+01  0.63602076853E+02  0.62880302428E+02  0.89527500215E+02  0.00000000000E+00 0. -1.
        -14    1    6    6    0    0 -0.62686644226E+02  0.82137420474E+02  0.10999617010E+02  0.10390939698E+03  0.00000000000E+00 0.  1.
</event>
<event>
12    1  0.8488291E-002  0.1898838E+03  0.7818608E-02  0.1158628E+00
         21   -1    0    0  503  502  0.00000000000E+00  0.00000000000E+00  0.22935218896E+04  0.22935218896E+04  0.00000000000E+00 0. -1.
         21   -1    0    0  501  503 -0.00000000000E+00 -0.00000000000E+00 -0.34208942226E+02  0.34208942226E+02  0.00000000000E+00 0. -1.
          6    2    1    2  501    0 -0.67134123694E+02  0.44608274240E+02  0.27388757980E+03  0.33327205002E+03  0.17192720630E+03 0.  0.
         24    2    3    3    0    0  0.74243527558E+01  0.32377921278E+02  0.56802201014E+02  0.10336620054E+03  0.79715936769E+02 0.  0.
         -6    2    1    2    0  502  0.67134123694E+02 -0.44608274240E+02  0.19854253676E+04  0.19944587818E+04  0.17162474584E+03 0.  0.
        -24    2    5    5    0    0  0.34250327432E+01 -0.81931690143E+02  0.12793560759E+04  0.12845237001E+04  0.80775208810E+02 0.  0.
          5    1    3    3  501    0 -0.74558476449E+02  0.12230352962E+02  0.21708537878E+03  0.22990584948E+03  0.47000000000E+01 0. -1.
        -11    1    4    4    0    0 -0.87772882485E+01 -0.16475139391E+02 -0.82549101751E+01  0.20411137865E+02  0.00000000000E+00 0.  1.
         12    1    4    4    0    0  0.16201641004E+02  0.48853060669E+02  0.65057111189E+02  0.82955062680E+02  0.00000000000E+00 0. -1.
         -5    1    5    5    0  502  0.63709090950E+02  0.37323415903E+02  0.70606929165E+03  0.70993508172E+03  0.47000000000E+01 0.  1.
         11    1    6    6    0    0  0.23030269479E+02 -0.87534875220E-02  0.51999264503E+03  0.52050239603E+03  0.00000000000E+00 0. -1.
        -12    1    6    6    0    0 -0.19605236736E+02 -0.81922936655E+02  0.75936343091E+03  0.76402130406E+03  0.00000000000E+00 0.  1.
</event>
<event>
12    1  0.8488291E-002  0.1723226E+03  0.7818608E-02  0.1175689E+00
         21   -1    0    0  503  502  0.00000000000E+00  0.00000000000E+00  0.14159853549E+04  0.14159853549E+04  0.00000000000E+00 0. -1.
         21   -1    0    0  501  503 -0.00000000000E+00 -0.00000000000E+00 -0.12238885633E+03  0.12238885633E+03  0.00000000000E+00 0. -1.
          6    2    1    2  501    0 -0.94570979525E+01  0.15648834017E+02 -0.54089302490E+02  0.17971601990E+03  0.17040502474E+03 0.  0.
         24    2    3    3    0    0  0.41805605502E+02  0.54578688592E+02 -0.26754509532E+02  0.10962551235E+03  0.81088885043E+02 0.  0.
         -6    2    1    2    0  502  0.94570979525E+01 -0.15648834017E+02  0.13476858011E+04  0.13586581913E+04  0.17134975869E+03 0.  0.
        -24    2    5    5    0    0  0.56345198996E+02  0.18714988734E+02  0.98738825489E+03  0.99367082428E+03  0.94451621921E+02 0.  0.
          5    1    3    3  501    0 -0.51262703454E+02 -0.38929854575E+02 -0.27334792958E+02  0.70090507551E+02  0.47000000000E+01 0. -1.
        -13    1    4    4    0    0  0.80644117846E+01 -0.94297214714E+01  0.19957602800E+02  0.23500219020E+02  0.00000000000E+00 0.  1.
         14    1    4    4    0    0  0.33741193717E+02  0.64008410063E+02 -0.46712112332E+02  0.86125293328E+02  0.00000000000E+00 0. -1.
         -5    1    5    5    0  502 -0.46888101044E+02 -0.34363822752E+02  0.36029754617E+03  0.36498736706E+03  0.47000000000E+01 0.  1.
         13    1    6    6    0    0 -0.23709552296E+01  0.24891720774E+02  0.69138416104E+03  0.69183616365E+03  0.00000000000E+00 0. -1.
        -14    1    6    6    0    0  0.58716154226E+02 -0.61767320399E+01  0.29600409385E+03  0.30183466064E+03  0.00000000000E+00 0.  1.
</event>
<event>
12    1  0.8488291E-002  0.1769567E+03  0.7818608E-02  0.1171102E+00
         21   -1    0    0  501  502  0.00000000000E+00  0.00000000000E+00  0.15771407253E+03  0.15771407253E+03  0.00000000000E+00 0. -1.
         21   -1    0    0  502  503 -0.00000000000E+00 -0.00000000000E+00 -0.10324969414E+04  0.10324969414E+04  0.00000000000E+00 0. -1.
         -6    2    1    2    0  503 -0.14435405577E+02 -0.33335084577E+02 -0.97299458602E+03  0.98895508115E+03  0.17318798838E+03 0.  0.
        -24    2    3    3    0    0  0.52597466546E+02 -0.24315665095E+02 -0.66582741279E+03  0.67439424732E+03  0.90131637842E+02 0.  0.
          6    2    1    2  501    0  0.14435405577E+02  0.33335084577E+02  0.98211717151E+02  0.20125593278E+03  0.17186855528E+03 0.  0.
         24    2    5    5    0    0  0.34848128284E+02 -0.35998555459E+02  0.86032762471E+02  0.12781037589E+03  0.80147164192E+02 0.  0.
          5    1    5    5  501    0 -0.20412722707E+02  0.69333640036E+02  0.12178954680E+02  0.73445556884E+02  0.47000000000E+01 0. -1.
        -13    1    6    6    0    0  0.38529625446E+02 -0.32514331273E+02  0.97378210002E+01  0.51347238805E+02  0.00000000000E+00 0.  1.
         14    1    6    6    0    0 -0.36814971621E+01 -0.34842241861E+01  0.76294941471E+02  0.76463137089E+02  0.00000000000E+00 0. -1.
         -5    1    3    3    0  503 -0.67032872123E+02 -0.90194194827E+01 -0.30716717323E+03  0.31456083384E+03  0.47000000000E+01 0.  1.
         11    1    4    4    0    0 -0.10738418618E+02 -0.30772453646E+02 -0.10441217940E+03  0.10938080611E+03  0.00000000000E+00 0. -1.
        -12    1    4    4    0    0  0.63335885165E+02  0.64567885512E+01 -0.56141523339E+03  0.56501344121E+03  0.00000000000E+00 0.  1.
</event>
<event>
12    1  0.8488291E-002  0.1832690E+03  0.7818608E-02  0.1164828E+00
         21   -1    0    0  503  502  0.00000000000E+00  0.00000000000E+00  0.90726152493E+03  0.90726152493E+03  0.00000000000E+00 0. -1.
         21   -1    0    0  501  503 -0.00000000000E+00 -0.00000000000E+00 -0.91621766425E+02  0.91621766425E+02  0.00000000000E+00 0. -1.
          6    2    1    2  501    0  0.60178416249E+02 -0.33113029126E+01  0.21522428287E+02  0.18389258754E+03  0.17239739651E+03 0.  0.
         24    2    3    3    0    0  0.58471455351E+00  0.59890013781E+01  0.69774113244E+02  0.10650899727E+03  0.80246679635E+02 0.  0.
         -6    2    1    2    0  502 -0.60178416249E+02  0.33113029126E+01  0.79411733022E+03  0.81499070381E+03  0.17307543628E+03 0.  0.
        -24    2    5    5    0    0 -0.95718810007E+02  0.37052663089E+02  0.48843287914E+03  0.50536726703E+03  0.79337297218E+02 0.  0.
          5    1    3    3  501    0  0.59593701695E+02 -0.93003042907E+01 -0.48251684957E+02  0.77383590268E+02  0.47000000000E+01 0. -1.
        -11    1    4    4    0    0 -0.23112977656E+02 -0.21215389558E+02  0.62170185572E+02  0.69637880958E+02  0.00000000000E+00 0.  1.
         12    1    4    4    0    0  0.23697692210E+02  0.27204390936E+02  0.76039276715E+01  0.36871116315E+02  0.00000000000E+00 0. -1.
         -5    1    5    5    0  502  0.35540393759E+02 -0.33741360176E+02  0.30568445107E+03  0.30962343678E+03  0.47000000000E+01 0.  1.
         11    1    6    6    0    0  0.36004563498E+00 -0.80873012415E+01  0.16000933711E+03  0.16021398827E+03  0.00000000000E+00 0. -1.
        -12    1    6    6    0    0 -0.96078855642E+02  0.45139964330E+02  0.32842354203E+03  0.34515327876E+03  0.00000000000E+00 0.  1.
</event>
<event>
12    1  0.8488291E-002  0.1868253E+03  0.7818608E-02  0.1161398E+00
         21   -1    0    0  503  502  0.00000000000E+00  0.00000000000E+00  0.71748950214E+02  0.71748950214E+02  0.00000000000E+00 0.  1.
         21   -1    0    0  501  503 -0.00000000000E+00 -0.00000000000E+00 -0.59765522523E+03  0.59765522523E+03  0.00000000000E+00 0.  1.
          6    2    1    2  501    0 -0.15067059442E+02 -0.61386610927E+02 -0.40772399120E+03  0.44848920103E+03  0.17580778753E+03 0.  0.
         24    2    3    3    0    0  0.48760976078E+02 -0.24581630242E+01 -0.25949387733E+03  0.27661472139E+03  0.82431525327E+02 0.  0.
         -6    2    1    2    0  502  0.15067059442E+02  0.61386610927E+02 -0.11818228381E+03  0.22091497441E+03  0.17561617645E+03 0.  0.
        -24    2    5    5    0    0  0.17157772568E+02  0.29291408420E+01  0.10497269112E+02  0.79485966672E+02  0.76843068741E+02 0.  0.
          5    1    3    3  501    0 -0.63828035520E+02 -0.58928447903E+02 -0.14823011388E+03  0.17187447964E+03  0.47000000000E+01 0. -1.
        -11    1    4    4    0    0  0.58627520690E+02  0.46676654884E+01 -0.95412897164E+02  0.11208297921E+03  0.00000000000E+00 0.  1.
         12    1    4    4    0    0 -0.98665446122E+01 -0.71258285126E+01 -0.16408098016E+03  0.16453174218E+03  0.00000000000E+00 0. -1.
         -5    1    5    5    0  502 -0.20907131265E+01  0.58457470085E+02 -0.12867955292E+03  0.14142900774E+03  0.47000000000E+01 0.  1.
         11    1    6    6    0    0  0.45908757262E+02  0.13976888530E+02  0.63954706400E+01  0.48413525497E+02  0.00000000000E+00 0. -1.
        -12    1    6    6    0    0 -0.28750984694E+02 -0.11047747688E+02  0.41017984723E+01  0.31072441175E+02  0.00000000000E+00 0.  1.
</event>
<event>
12    1  0.8488291E-002  0.1844476E+03  0.7818608E-02  0.1164491E+00
         21   -1    0    0  501  502  0.00000000000E+00  0.00000000000E+00  0.29975247411E+03  0.29975247411E+03  0.00000000000E+00 0. -1.
         21   -1    0    0  502  503 -0.00000000000E+00 -0.00000000000E+00 -0.12931783793E+03  0.12931783793E+03  0.00000000000E+00 0. -1.
         -6    2    1    2    0  503  0.53395124513E+02  0.40058397487E+02  0.55034466736E+01  0.18452965516E+03  0.17194531450E+03 0.  0.
        -24    2    3    3    0    0 -0.80757801462E+01 -0.12256589730E+02 -0.43838442255E+02  0.89807735785E+02  0.76994663261E+02 0.  0.
          6    2    1    2  501    0 -0.53395124513E+02 -0.40058397487E+02  0.16493118951E+03  0.24454065688E+03  0.16775613570E+03 0.  0.
         24    2    5    5    0    0 -0.13514677721E+02 -0.46002830558E+02  0.21827116728E+02  0.95790356154E+02  0.80002889786E+02 0.  0.
          5    1    5    5  501    0 -0.39880446792E+02  0.59444330704E+01  0.14310407278E+03  0.14875030073E+03  0.47000000000E+01 0. -1.
        -13    1    6    6    0    0 -0.38168336287E+02 -0.54737397731E+02  0.11730681240E+02  0.67754066208E+02  0.00000000000E+00 0.  1.
         14    1    6    6    0    0  0.24653658566E+02  0.87345671738E+01  0.10096435487E+02  0.28036289946E+02  0.00000000000E+00 0. -1.
         -5    1    3    3    0  503  0.61470904659E+02  0.52314987217E+02  0.49341888928E+02  0.94721919375E+02  0.47000000000E+01 0.  1.
         13    1    4    4    0    0  0.19365759599E+02 -0.23360457855E+02  0.68506694529E+01  0.31107479936E+02  0.00000000000E+00 0. -1.
        -14    1    4    4    0    0 -0.27441539745E+02  0.11103868125E+02 -0.50689111708E+02  0.58700255848E+02  0.00000000000E+00 0.  1.
</event>
<event>
12    1  0.8488291E-002  0.2156660E+03  0.7818608E-02  0.1137354E+00
         21   -1    0    0  501  502  0.00000000000E+00  0.00000000000E+00  0.44079322367E+02  0.44079322367E+02  0.00000000000E+00 0.  1.
         21   -1    0    0  502  503 -0.00000000000E+00 -0.00000000000E+00 -0.33289872632E+04  0.33289872632E+04  0.00000000000E+00 0.  1.
         -6    2    1    2    0  503 -0.10525476948E+03 -0.75179366431E+02 -0.30366022839E+04  0.30441782951E+04  0.17128209959E+03 0.  0.
        -24    2    3    3    0    0 -0.38197328438E+02 -0.15653433712E+02 -0.75215371867E+03  0.75796584333E+03  0.84100756605E+02 0.  0.
          6    2    1    2  501    0  0.10525476948E+03  0.75179366431E+02 -0.24830565686E+03  0.32888829047E+03  0.17257260718E+03 0.  0.
         24    2    5    5    0    0  0.12023167884E+03  0.21209323406E+02 -0.21986925846E+03  0.26589787762E+03  0.86334804747E+02 0.  0.
          5    1    5    5  501    0 -0.14976909356E+02  0.53970043025E+02 -0.28436398400E+02  0.62990412857E+02  0.47000000000E+01 0. -1.
        -11    1    6    6    0    0  0.55070420386E+02  0.46391615414E+02 -0.15344984907E+03  0.16950454083E+03  0.00000000000E+00 0.  1.
         12    1    6    6    0    0  0.65161258451E+02 -0.25182292008E+02 -0.66419409395E+02  0.96393336793E+02  0.00000000000E+00 0. -1.
         -5    1    3    3    0  503 -0.67057441043E+02 -0.59525932719E+02 -0.22844485653E+04  0.22862124517E+04  0.47000000000E+01 0.  1.
         11    1    4    4    0    0 -0.88501404047E+01  0.29007059310E+02 -0.45758683724E+03  0.45859071958E+03  0.00000000000E+00 0. -1.
        -12    1    4    4    0    0 -0.29347188033E+02 -0.44660493022E+02 -0.29456688143E+03  0.29937512375E+03  0.00000000000E+00 0.  1.
</event>
<event>
12    1  0.8488291E-002  0.1913266E+03  0.7818608E-02  0.1157535E+00
         21   -1    0    0  501  502  0.00000000000E+00  0.00000000000E+00  0.21164805351E+03  0.21164805351E+03  0.00000000000E+00 0. -1.
         21   -1    0    0  502  503 -0.00000000000E+00 -0.00000000000E+00 -0.18692950631E+03  0.18692950631E+03  0.00000000000E+00 0. -1.
         -6    2    1    2    0  503 -0.63211796236E+02  0.54899706410E+02 -0.44129862671E+02  0.19635002003E+03  0.17203539357E+03 0.  0.
        -24    2    3    3    0    0 -0.73975033166E+02  0.68966080909E+02 -0.83955582317E+02  0.15251067576E+03  0.77345591800E+02 0.  0.
          6    2    1    2  501    0  0.63211796236E+02 -0.54899706410E+02  0.68848409871E+02  0.20222753979E+03  0.17072248054E+03 0.  0.
         24    2    5    5    0    0  0.46669189433E+02  0.10633999833E+02  0.92004197930E+02  0.13062722545E+03  0.79420428079E+02 0.  0.
          5    1    5    5  501    0  0.16542606803E+02 -0.65533706243E+02 -0.23155788060E+02  0.71600314346E+02  0.47000000000E+01 0. -1.
        -13    1    6    6    0    0  0.67548855484E+02  0.36525965691E+01  0.53391828085E+02  0.86179328410E+02  0.00000000000E+00 0.  1.
         14    1    6    6    0    0 -0.20879666051E+02  0.69814032641E+01  0.38612369845E+02  0.44447897037E+02  0.00000000000E+00 0. -1.
         -5    1    3    3    0  503  0.10763236931E+02 -0.14066374500E+02  0.39825719646E+02  0.43839344271E+02  0.47000000000E+01 0.  1.
         13    1    4    4    0    0 -0.25638144854E+02  0.70546662429E+02 -0.32201192451E+02  0.81676574651E+02  0.00000000000E+00 0. -1.
        -14    1    4    4    0    0 -0.48336888312E+02 -0.15805815194E+01 -0.51754389867E+02  0.70834101111E+02  0.00000000000E+00 0.  1.
</event>
<event>
12    1  0.8488291E-002  0.1784754E+03  0.7818608E-02  0.1169364E+00
         21   -1    0    0  501  502  0.00000000000E+00  0.00000000000E+00  0.38260484015E+03  0.38260484015E+03  0.00000000000E+00 0. -1.
         21   -1    0    0  502  503 -0.00000000000E+00 -0.00000000000E+00 -0.19431668924E+03  0.19431668924E+03  0.00000000000E+00 0. -1.
         -6    2    1    2    0  503 -0.29019361239E+02  0.36897774289E+02 -0.12411647727E+03  0.21712977109E+03  0.17186293518E+03 0.  0.
        -24    2    3    3    0    0 -0.78334358468E+02  0.41830084344E+02 -0.11772103453E+03  0.16693725848E+03  0.78254575752E+02 0.  0.
          6    2    1    2  501    0  0.29019361239E+02 -0.36897774289E+02  0.31240462817E+03  0.35979175830E+03  0.17219142999E+03 0.  0.
         24    2    5    5    0    0  0.74989687908E+02 -0.32973264604E+02  0.28188035412E+03  0.30427154561E+03  0.80087139787E+02 0.  0.
          5    1    5    5  501    0 -0.45970326669E+02 -0.39245096845E+01  0.30524274058E+02  0.55520212689E+02  0.47000000000E+01 0. -1.
        -13    1    6    6    0    0 -0.96483926303E+00 -0.42026598781E+01 -0.47150346524E+01  0.63894300706E+01  0.00000000000E+00 0.  1.
         14    1    6    6    0    0  0.75954527171E+02 -0.28770604726E+02  0.28659538877E+03  0.29788211554E+03  0.00000000000E+00 0. -1.
         -5    1    3    3    0  503  0.49314997228E+02 -0.49323100549E+01 -0.63954427416E+01  0.50192512609E+02  0.47000000000E+01 0.  1.
         11    1    4    4    0    0 -0.74557898520E+02  0.28265659185E+02 -0.42393838527E+02  0.90305399982E+02  0.00000000000E+00 0. -1.
        -12    1    4    4    0    0 -0.37764599478E+01  0.13564425158E+02 -0.75327196002E+02  0.76631858499E+02  0.00000000000E+00 0.  1.
</event>
<event>
12    1  0.8488291E-002  0.2129289E+03  0.7818608E-02  0.1139293E+00
         21   -1    0    0  501  502  0.00000000000E+00  0.00000000000E+00  0.80174028833E+03  0.80174028833E+03  0.00000000000E+00 0. -1.
         21   -1    0    0  502  503 -0.00000000000E+00 -0.00000000000E+00 -0.10244222531E+03  0.10244222531E+03  0.00000000000E+00 0. -1.
         -6    2    1    2    0  503 -0.10350444075E+03  0.71921663006E+02  0.46887490309E+02  0.21790393727E+03  0.17145784982E+03 0.  0.
        -24    2    3    3    0    0 -0.13506426618E+03  0.50979091421E+02  0.63170754272E+02  0.17640877405E+03  0.79298723858E+02 0.  0.
          6    2    1    2  501    0  0.10350444075E+03 -0.71921663006E+02  0.65241057271E+03  0.68627857636E+03  0.17161828028E+03 0.  0.
         24    2    5    5    0    0  0.79532140971E+02 -0.24533264569E+02  0.20214839582E+03  0.23287097894E+03  0.80235131841E+02 0.  0.
          5    1    5    5  501    0  0.23972299777E+02 -0.47388398437E+02  0.45026217689E+03  0.45340759743E+03  0.47000000000E+01 0. -1.
        -13    1    6    6    0    0  0.90769368013E+02 -0.36162770378E+02  0.18551112088E+03  0.20966926361E+03  0.00000000000E+00 0.  1.
         14    1    6    6    0    0 -0.11237227042E+02  0.11629505809E+02  0.16637274938E+02  0.23201715331E+02  0.00000000000E+00 0. -1.
         -5    1    3    3    0  503  0.31559825428E+02  0.20942571585E+02 -0.16283263963E+02  0.41495163224E+02  0.47000000000E+01 0.  1.
         13    1    4    4    0    0 -0.27889451080E+02  0.77148943073E+01 -0.18983198254E+02  0.34607844366E+02  0.00000000000E+00 0. -1.
        -14    1    4    4    0    0 -0.10717481510E+03  0.43264197113E+02  0.82153952525E+02  0.14180092968E+03  0.00000000000E+00 0.  1.
</event>
<event>
12    1  0.8488291E-002  0.2179689E+03  0.7818608E-02  0.1135417E+00
         21   -1    0    0  503  502  0.00000000000E+00  0.00000000000E+00  0.11306224301E+03  0.11306224301E+03  0.00000000000E+00 0.  1.
         21   -1    0    0  501  503 -0.00000000000E+00 -0.00000000000E+00 -0.42238250826E+03  0.42238250826E+03  0.00000000000E+00 0.  1.
          6    2    1    2  501    0  0.11000855419E+02  0.13306773556E+03 -0.17433614996E+03  0.27911203704E+03  0.17228579446E+03 0.  0.
         24    2    3    3    0    0  0.52623114663E+02  0.10672615352E+03 -0.18038792513E+03  0.22926220864E+03  0.76561692343E+02 0.  0.
         -6    2    1    2    0  502 -0.11000855419E+02 -0.13306773556E+03 -0.13498411529E+03  0.25633271423E+03  0.17221413396E+03 0.  0.
        -24    2    5    5    0    0 -0.10254551339E+02 -0.71600725611E+02 -0.15789361972E+03  0.19056276915E+03  0.78434393641E+02 0.  0.
          5    1    3    3  501    0 -0.41622259244E+02  0.26341582045E+02  0.60517751739E+01  0.49849828405E+02  0.47000000000E+01 0. -1.
        -11    1    4    4    0    0  0.19891392863E+02  0.75227948943E+02 -0.16300252457E+03  0.18062318463E+03  0.00000000000E+00 0.  1.
         12    1    4    4    0    0  0.32731721799E+02  0.31498204572E+02 -0.17385400568E+02  0.48639024005E+02  0.00000000000E+00 0. -1.
         -5    1    5    5    0  502 -0.74630407930E+00 -0.61467009949E+02  0.22909504434E+02  0.65769945076E+02  0.47000000000E+01 0.  1.
         13    1    6    6    0    0  0.19298477923E+02  0.84990320323E+01 -0.36468796321E+02  0.42126451319E+02  0.00000000000E+00 0. -1.
        -14    1    6    6    0    0 -0.29553029263E+02 -0.80099757643E+02 -0.12142482340E+03  0.14843631783E+03  0.00000000000E+00 0.  1.
</event>
<event>
12    1  0.8488291E-002  0.2145046E+03  0.7818608E-02  0.1138142E+00
         21   -1    0    0  503  502  0.00000000000E+00  0.00000000000E+00  0.15860706238E+03  0.15860706238E+03  0.00000000000E+00 0.  1.
         21   -1    0    0  501  503 -0.00000000000E+00 -0.00000000000E+00 -0.32549621535E+03  0.32549621535E+03  0.00000000000E+00 0.  1.
          6    2    1    2  501    0  0.59789807596E+02 -0.11416218434E+03 -0.16392163914E+03  0.26957813025E+03  0.17086321753E+03 0.  0.
         24    2    3    3    0    0  0.72288024267E+01 -0.45725139243E+02 -0.12695205047E+02  0.95400597903E+02  0.82444295775E+02 0.  0.
         -6    2    1    2    0  502 -0.59789807596E+02  0.11416218434E+03 -0.29675138293E+01  0.21452514749E+03  0.17147713358E+03 0.  0.
        -24    2    5    5    0    0 -0.36924728547E+02  0.14792481290E+03 -0.12946207529E+02  0.17228309196E+03  0.79174955868E+02 0.  0.
          5    1    3    3  501    0  0.52561005169E+02 -0.68437045098E+02 -0.15122643409E+03  0.17417753234E+03  0.47000000000E+01 0. -1.
        -13    1    4    4    0    0  0.40510827415E+02 -0.33889063823E+02  0.95255755431E+01  0.53668728083E+02  0.00000000000E+00 0.  1.
         14    1    4    4    0    0 -0.33282024988E+02 -0.11836075420E+02 -0.22220780590E+02  0.41731869820E+02  0.00000000000E+00 0. -1.
         -5    1    5    5    0  502 -0.22865079049E+02 -0.33762628560E+02  0.99786936995E+01  0.42242055527E+02  0.47000000000E+01 0.  1.
         13    1    6    6    0    0 -0.18587056252E+02  0.64095675243E+02  0.33538662549E+02  0.74689866318E+02  0.00000000000E+00 0. -1.
        -14    1    6    6    0    0 -0.18337672294E+02  0.83829137657E+02 -0.46484870077E+02  0.97593225644E+02  0.00000000000E+00 0.  1.
</event>
<event>
12    1  0.8488291E-002  0.2051675E+03  0.7818608E-02  0.1147566E+00
         21   -1    0    0  503  502  0.00000000000E+00  0.00000000000E+00  0.63239632112E+02  0.63239632112E+02  0.00000000000E+00 0.  1.
         21   -1    0    0  501  503 -0.00000000000E+00 -0.00000000000E+00 -0.82187165922E+03  0.82187165922E+03  0.00000000000E+00 0. -1.
          6    2    1    2  501    0 -0.12327011655E+02 -0.98399360039E+02 -0.58388705778E+03  0.61561267314E+03  0.16798951698E+03 0.  0.
         24    2    3    3    0    0 -0.32766600544E+01 -0.33252033713E+02 -0.12682065168E+03  0.15381415368E+03  0.80367169492E+02 0.  0.
         -6    2    1    2    0  502  0.12327011655E+02  0.98399360039E+02 -0.17474496932E+03  0.26949861819E+03  0.17960877381E+03 0.  0.
        -24    2    5    5    0    0  0.53764345126E+02  0.10007560577E+03 -0.69949442931E+02  0.15669766625E+03  0.82191863139E+02 0.  0.
          5    1    3    3  501    0 -0.90503516001E+01 -0.65147326326E+02 -0.45706640610E+03  0.46179851946E+03  0.47000000000E+01 0. -1.
        -13    1    4    4    0    0  0.16182446656E+02 -0.54385886420E+02 -0.69702822912E+02  0.89878694602E+02  0.00000000000E+00 0.  1.
         14    1    4    4    0    0 -0.19459106710E+02  0.21133852707E+02 -0.57117828769E+02  0.63935459077E+02  0.00000000000E+00 0. -1.
         -5    1    5    5    0  502 -0.41437333471E+02 -0.16762457312E+01 -0.10479552639E+03  0.11280095193E+03  0.47000000000E+01 0.  1.
         13    1    6    6    0    0 -0.16827314609E+02  0.52391055398E+02 -0.27985263107E+02  0.61734562069E+02  0.00000000000E+00 0. -1.
        -14    1    6    6    0    0  0.70591659735E+02  0.47684550372E+02 -0.41964179824E+02  0.94963104186E+02  0.00000000000E+00 0.  1.
</event>
<event>
12    1  0.8488291E-002  0.1794246E+03  0.7818608E-02  0.1168453E+00
         21   -1    0    0  501  502  0.00000000000E+00  0.00000000000E+00  0.21432261451E+03  0.21432261451E+03  0.00000000000E+00 0.  1.
         21   -1    0    0  502  503 -0.00000000000E+00 -0.00000000000E+00 -0.15309859362E+03  0.15309859362E+03  0.00000000000E+00 0.  1.
         -6    2    1    2    0  503 -0.41107313104E+02  0.25911696026E+02  0.57166595616E+02  0.18795074422E+03  0.17232595689E+03 0.  0.
        -24    2    3    3    0    0  0.20454132365E+02  0.16508110954E+02  0.84566902093E+02  0.11975172828E+03  0.80610335802E+02 0.  0.
          6    2    1    2  501    0  0.41107313104E+02 -0.25911696026E+02  0.40574252761E+01  0.17947046392E+03  0.17271930273E+03 0.  0.
         24    2    5    5    0    0  0.19200536302E+02  0.35406499422E+02 -0.43246383235E+02  0.98850564000E+02  0.79239532713E+02 0.  0.
          5    1    5    5  501    0  0.21906776801E+02 -0.61318195447E+02  0.47303808511E+02  0.80619899916E+02  0.47000000000E+01 0. -1.
        -11    1    6    6    0    0 -0.89397169634E+01 -0.35764638996E+01 -0.49445283602E+02  0.50374057846E+02  0.00000000000E+00 0.  1.
         12    1    6    6    0    0  0.28140253266E+02  0.38982963321E+02  0.61989003662E+01  0.48476506154E+02  0.00000000000E+00 0. -1.
         -5    1    3    3    0  503 -0.61561445468E+02  0.94035850718E+01 -0.27400306477E+02  0.68199015941E+02  0.47000000000E+01 0.  1.
         13    1    4    4    0    0 -0.24252177621E+02  0.11215014514E+02  0.33987614878E+01  0.26935037583E+02  0.00000000000E+00 0. -1.
        -14    1    4    4    0    0  0.44706309986E+02  0.52930964399E+01  0.81168140605E+02  0.92816690696E+02  0.00000000000E+00 0.  1.
</event>
<event>
12    1  0.8488291E-002  0.2101320E+03  0.7818608E-02  0.1141950E+00
         21   -1    0    0  501  502  0.00000000000E+00  0.00000000000E+00  0.16312506228E+02  0.16312506228E+02  0.00000000000E+00 0. -1.
         21   -1    0    0  502  503 -0.00000000000E+00 -0.00000000000E+00 -0.29916373664E+04  0.29916373664E+04  0.00000000000E+00 0. -1.
         -6    2    1    2    0  503 -0.84382783574E+02  0.81562544756E+02 -0.19688906408E+04  0.19798130723E+04  0.17133751135E+03 0.  0.
        -24    2    3    3    0    0 -0.75037630295E+02  0.23933908512E+02 -0.17381701670E+04  0.17417743808E+04  0.79617750613E+02 0.  0.
          6    2    1    2  501    0  0.84382783574E+02 -0.81562544756E+02 -0.10064342193E+04  0.10281368003E+04  0.17430587905E+03 0.  0.
         24    2    5    5    0    0  0.17727329584E+02  0.23606890689E+02 -0.42447043902E+03  0.43298346605E+03  0.80174714050E+02 0.  0.
          5    1    5    5  501    0  0.66655453990E+02 -0.10516943545E+03 -0.58196378028E+03  0.59515333424E+03  0.47000000000E+01 0. -1.
        -11    1    6    6    0    0 -0.22123878525E+02 -0.17475163085E+02 -0.14308141303E+03  0.14583256865E+03  0.00000000000E+00 0.  1.
         12    1    6    6    0    0  0.39851208109E+02  0.41082053774E+02 -0.28138902599E+03  0.28715089740E+03  0.00000000000E+00 0. -1.
         -5    1    3    3    0  503 -0.93451532792E+01  0.57628636244E+02 -0.23072047389E+03  0.23803869155E+03  0.47000000000E+01 0.  1.
         11    1    4    4    0    0 -0.13882604045E+02 -0.27288242240E+02 -0.36112345675E+03  0.36241899216E+03  0.00000000000E+00 0. -1.
        -12    1    4    4    0    0 -0.61155026250E+02  0.51222150753E+02 -0.13770467102E+04  0.13793553886E+04  0.00000000000E+00 0.  1.
</event>
<event>
12    1  0.8488291E-002  0.1967860E+03  0.7818608E-02  0.1152858E+00
         21   -1    0    0  501  502  0.00000000000E+00  0.00000000000E+00  0.55091124994E+02  0.55091124994E+02  0.00000000000E+00 0. -1.
         21   -1    0    0  502  503 -0.00000000000E+00 -0.00000000000E+00 -0.12845282613E+04  0.12845282613E+04  0.00000000000E+00 0. -1.
         -6    2    1    2    0  503  0.27765005061E+02  0.88363931731E+02 -0.10693192688E+04  0.10872756999E+04  0.17362508171E+03 0.  0.
        -24    2    3    3    0    0 -0.31778903879E+02  0.72617368411E+02 -0.88862826806E+03  0.89631822007E+03  0.86272660283E+02 0.  0.
          6    2    1    2  501    0 -0.27765005061E+02 -0.88363931731E+02 -0.16011786747E+03  0.25234368637E+03  0.17164068466E+03 0.  0.
         24    2    5    5    0    0 -0.87821577062E+01  0.95908840967E+01 -0.26848228698E+02  0.85795251807E+02  0.80441820571E+02 0.  0.
          5    1    5    5  501    0 -0.18982847355E+02 -0.97954815828E+02 -0.13326963878E+03  0.16654843457E+03  0.47000000000E+01 0. -1.
        -11    1    6    6    0    0  0.22651701011E+02  0.32642890376E+01 -0.43879125250E+02  0.49488713605E+02  0.00000000000E+00 0.  1.
         12    1    6    6    0    0 -0.31433858717E+02  0.63265950591E+01  0.17030896552E+02  0.36306538202E+02  0.00000000000E+00 0. -1.
         -5    1    3    3    0  503  0.59543908939E+02  0.15746563320E+02 -0.18069100074E+03  0.19095747982E+03  0.47000000000E+01 0.  1.
         13    1    4    4    0    0 -0.13633338244E+02 -0.11653378065E+02 -0.38106994870E+03  0.38149177571E+03  0.00000000000E+00 0. -1.
        -14    1    4    4    0    0 -0.18145565634E+02  0.84270746475E+02 -0.50755831935E+03  0.51482644436E+03  0.00000000000E+00 0.  1.
</event>
<event>
12    1  0.8488291E-002  0.2047076E+03  0.7818608E-02  0.1146478E+00
         21   -1    0    0  501  502  0.00000000000E+00  0.00000000000E+00  0.10966074389E+04  0.10966074389E+04  0.00000000000E+00 0.  1.
         21   -1    0    0  502  503 -0.00000000000E+00 -0.00000000000E+00 -0.66160845601E+02  0.66160845601E+02  0.00000000000E+00 0. -1.
         -6    2    1    2    0  503 -0.10277313255E+03  0.44640702304E+02  0.13114556873E+03  0.24046273163E+03  0.16753523816E+03 0.  0.
        -24    2    3    3    0    0 -0.45077738606E+02  0.31648579130E+02 -0.68539152629E+00  0.95897708781E+02  0.78500100058E+02 0.  0.
          6    2    1    2  501    0  0.10277313255E+03 -0.44640702304E+02  0.89930102461E+03  0.92230555292E+03  0.17131868260E+03 0.  0.
         24    2    5    5    0    0  0.61367269756E+01 -0.58833671279E+02  0.33406979374E+03  0.34867808705E+03  0.80465651085E+02 0.  0.
          5    1    5    5  501    0  0.96636405576E+02  0.14192968976E+02  0.56523123087E+03  0.57362746587E+03  0.47000000000E+01 0. -1.
        -13    1    6    6    0    0  0.39411426914E+02 -0.44532107690E+02  0.25285045062E+03  0.25974933988E+03  0.00000000000E+00 0.  1.
         14    1    6    6    0    0 -0.33274699938E+02 -0.14301563589E+02  0.81219343115E+02  0.88928747170E+02  0.00000000000E+00 0. -1.
         -5    1    3    3    0  503 -0.57695393946E+02  0.12992123173E+02  0.13183096026E+03  0.14456502285E+03  0.47000000000E+01 0.  1.
         13    1    4    4    0    0 -0.54114705741E+02  0.50589393023E+02 -0.57732434538E+01  0.74303555796E+02  0.00000000000E+00 0. -1.
        -14    1    4    4    0    0  0.90369671356E+01 -0.18940813893E+02  0.50878519275E+01  0.21594152986E+02  0.00000000000E+00 0.  1.
</event>
<event>
12    1  0.8488291E-002  0.2172480E+03  0.7818608E-02  0.1136278E+00
         21   -1    0    0  501  502  0.00000000000E+00  0.00000000000E+00  0.71023515108E+02  0.71023515108E+02  0.00000000000E+00 0. -1.
         21   -1    0    0  502  503 -0.00000000000E+00 -0.00000000000E+00 -0.10023337792E+04  0.10023337792E+04  0.00000000000E+00 0. -1.
         -6    2    1    2    0  503 -0.80251739959E+02 -0.10219661772E+03 -0.78083192053E+03  0.81049071113E+03  0.17410403292E+03 0.  0.
        -24    2    3    3    0    0  0.23768984307E+01 -0.40406799177E+02 -0.55604475408E+03  0.56311077307E+03  0.79180901356E+02 0.  0.
          6    2    1    2  501    0  0.80251739959E+02  0.10219661772E+03 -0.15047834360E+03  0.26286658321E+03  0.17196109513E+03 0.  0.
         24    2    5    5    0    0  0.89777843461E+01  0.65483876240E+02 -0.14943456252E+03  0.18254858016E+03  0.81391381500E+02 0.  0.
          5    1    5    5  501    0  0.71273955612E+02  0.36712741476E+02 -0.10437810766E+01  0.80318003052E+02  0.47000000000E+01 0. -1.
        -13    1    6    6    0    0 -0.18433077427E+02  0.45110963539E+02 -0.27572630196E+02  0.55991314601E+02  0.00000000000E+00 0.  1.
         14    1    6    6    0    0  0.27410861773E+02  0.20372912701E+02 -0.12186193233E+03  0.12655726556E+03  0.00000000000E+00 0. -1.
         -5    1    3    3    0  503 -0.82628638389E+02 -0.61789818539E+02 -0.22478716645E+03  0.24737993807E+03  0.47000000000E+01 0.  1.
         11    1    4    4    0    0 -0.25397170727E+02 -0.51794508646E+02 -0.40755493513E+03  0.41161719176E+03  0.00000000000E+00 0. -1.
        -12    1    4    4    0    0  0.27774069157E+02  0.11387709469E+02 -0.14848981895E+03  0.15149358130E+03  0.00000000000E+00 0.  1.
</event>
<event>
12    1  0.8488291E-002  0.1880437E+03  0.7818608E-02  0.1160618E+00
         21   -1    0    0  501  502  0.00000000000E+00  0.00000000000E+00  0.16946646883E+03  0.16946646883E+03  0.00000000000E+00 0. -1.
         21   -1    0    0  502  503 -0.00000000000E+00 -0.00000000000E+00 -0.27867451253E+03  0.27867451253E+03  0.00000000000E+00 0. -1.
         -6    2    1    2    0  503  0.50682174657E+02  0.53326340158E+02 -0.16855763899E+03  0.25253144233E+03  0.17305510776E+03 0.  0.
        -24    2    3    3    0    0 -0.29441211160E+02 -0.12659931944E+01 -0.48966392168E+02  0.98504703964E+02  0.80231424565E+02 0.  0.
          6    2    1    2  501    0 -0.50682174657E+02 -0.53326340158E+02  0.59349595286E+02  0.19560953902E+03  0.17125517777E+03 0.  0.
         24    2    5    5    0    0  0.23430745980E+02 -0.71514658280E+02  0.29574704161E+02  0.11355971231E+03  0.79735807065E+02 0.  0.
          5    1    5    5  501    0 -0.74112920638E+02  0.18188318122E+02  0.29774891125E+02  0.82049826710E+02  0.47000000000E+01 0. -1.
        -13    1    6    6    0    0  0.18391951609E+02 -0.11517951190E+02  0.46247595922E+02  0.51085880751E+02  0.00000000000E+00 0.  1.
         14    1    6    6    0    0  0.50387943715E+01 -0.59996707090E+02 -0.16672891761E+02  0.62473831562E+02  0.00000000000E+00 0. -1.
         -5    1    3    3    0  503  0.80123385818E+02  0.54592333353E+02 -0.11959124682E+03  0.15402673837E+03  0.47000000000E+01 0.  1.
         11    1    4    4    0    0  0.19645158359E+02  0.23996395755E+01  0.96030380765E+01  0.21997928478E+02  0.00000000000E+00 0. -1.
        -12    1    4    4    0    0 -0.49086369519E+02 -0.36656327698E+01 -0.58569430244E+02  0.76506775486E+02  0.00000000000E+00 0.  1.
</event>
<event>
12    1  0.8488291E-002  0.2243948E+03  0.7818608E-02  0.1130667E+00
         21   -1    0    0  503  502  0.00000000000E+00  0.00000000000E+00  0.54400185516E+02  0.54400185516E+02  0.00000000000E+00 0.  1.
         21   -1    0    0  501  503 -0.00000000000E+00 -0.00000000000E+00 -0.12654487537E+04  0.12654487537E+04  0.00000000000E+00 0.  1.
          6    2    1    2  501    0 -0.13435498304E+03 -0.52593269853E+02 -0.94782313073E+03  0.97402347470E+03  0.17185961893E+03 0.  0.
         24    2    3    3    0    0 -0.16093964550E+03 -0.68004756750E+02 -0.75482835474E+03  0.77854116919E+03  0.76382527958E+02 0.  0.
         -6    2    1    2    0  502  0.13435498304E+03  0.52593269853E+02 -0.26322543746E+03  0.34582546452E+03  0.17172742205E+03 0.  0.
        -24    2    5    5    0    0  0.97819728790E+02 -0.24679569377E+02 -0.20475733746E+03  0.24216001607E+03  0.80858677046E+02 0.  0.
          5    1    3    3  501    0  0.26584662457E+02  0.15411486897E+02 -0.19299477599E+03  0.19548230550E+03  0.47000000000E+01 0. -1.
        -13    1    4    4    0    0 -0.19230299112E+02 -0.39525247526E+02 -0.13067123393E+03  0.13786595292E+03  0.00000000000E+00 0.  1.
         14    1    4    4    0    0 -0.14170934638E+03 -0.28479509224E+02 -0.62415712081E+03  0.64067521628E+03  0.00000000000E+00 0. -1.
         -5    1    5    5    0  502  0.36535254248E+02  0.77272839230E+02 -0.58468100002E+02  0.10366544846E+03  0.47000000000E+01 0.  1.
         13    1    6    6    0    0  0.84590830036E+02 -0.15282351109E+02 -0.20848466033E+03  0.22551055935E+03  0.00000000000E+00 0. -1.
        -14    1    6    6    0    0  0.13228898753E+02 -0.93972182678E+01  0.37273228735E+01  0.16649456724E+02  0.00000000000E+00 0.  1.
</event>
<event>
12    1  0.8488291E-002  0.3399483E+03  0.7818608E-02  0.1067384E+00
         21   -1    0    0  503  502  0.00000000000E+00  0.00000000000E+00  0.90592821202E+02  0.90592821202E+02  0.00000000000E+00 0.  1.
         21   -1    0    0  501  503 -0.00000000000E+00 -0.00000000000E+00 -0.12904190426E+04  0.12904190426E+04  0.00000000000E+00 0. -1.
          6    2    1    2  501    0 -0.67635283898E+02 -0.27905059943E+03 -0.49163267042E+03  0.59771860323E+03  0.18199197058E+03 0.  0.
         24    2    3    3    0    0 -0.24538508017E+02 -0.28007910634E+03 -0.45520691882E+03  0.54108543894E+03  0.80707305165E+02 0.  0.
         -6    2    1    2    0  502  0.67635283898E+02  0.27905059943E+03 -0.70819355095E+03  0.78329326054E+03  0.17194899748E+03 0.  0.
        -24    2    5    5    0    0  0.85996900203E+02  0.10030226854E+03 -0.36143719453E+03  0.39271653893E+03  0.78316169724E+02 0.  0.
          5    1    3    3  501    0 -0.43096775881E+02  0.10285069144E+01 -0.36425751602E+02  0.56633164291E+02  0.47000000000E+01 0. -1.
        -13    1    4    4    0    0 -0.38617729348E+02 -0.10519558935E+03 -0.13051019085E+03  0.17201846109E+03  0.00000000000E+00 0.  1.
         14    1    4    4    0    0  0.14079221332E+02 -0.17488351699E+03 -0.32469672797E+03  0.36906697785E+03  0.00000000000E+00 0. -1.
         -5    1    5    5    0  502 -0.18361616305E+02  0.17874833089E+03 -0.34675635641E+03  0.39057672161E+03  0.47000000000E+01 0.  1.
         13    1    6    6    0    0  0.39270331447E+02  0.89465083078E+02 -0.29510199677E+03  0.31085583237E+03  0.00000000000E+00 0. -1.
        -14    1    6    6    0    0  0.46726568756E+02  0.10837185465E+02 -0.66335197767E+02  0.81860706565E+02  0.00000000000E+00 0.  1.
</event>
<event>
12    1  0.8488291E-002  0.1874235E+03  0.7818608E-02  0.1161079E+00
         21   -1    0    0  503  502  0.00000000000E+00  0.00000000000E+00  0.37541346649E+03  0.37541346649E+03  0.00000000000E+00 0.  1.
         21   -1    0    0  501  503 -0.00000000000E+00 -0.00000000000E+00 -0.15205222194E+03  0.15205222194E+03  0.00000000000E+00 0.  1.
          6    2    1    2  501    0  0.68293996651E+02 -0.16383726277E+02 -0.52486438660E+02  0.19463403987E+03  0.17376733516E+03 0.  0.
         24    2    3    3    0    0  0.69519219176E+02 -0.64982752496E+02 -0.68973029784E+02  0.14308538124E+03  0.81611687464E+02 0.  0.
         -6    2    1    2    0  502 -0.68293996651E+02  0.16383726277E+02  0.27584768322E+03  0.33283164856E+03  0.17248903003E+03 0.  0.
        -24    2    5    5    0    0  0.18746611261E+02  0.33796602528E+02  0.89423766303E+02  0.12630019216E+03  0.80383348918E+02 0.  0.
          5    1    3    3  501    0 -0.12252225248E+01  0.48599026219E+02  0.16486591124E+02  0.51548658630E+02  0.47000000000E+01 0. -1.
        -11    1    4    4    0    0  0.89821596175E+01 -0.48219857534E+02 -0.63207363791E+02  0.80006279062E+02  0.00000000000E+00 0.  1.
         12    1    4    4    0    0  0.60537059558E+02 -0.16762894963E+02 -0.57656659933E+01  0.63079102180E+02  0.00000000000E+00 0. -1.
         -5    1    5    5    0  502 -0.87040607911E+02 -0.17412876251E+02  0.18642391692E+03  0.20653145640E+03  0.47000000000E+01 0.  1.
         11    1    6    6    0    0  0.47541308738E+02  0.17112248238E+02  0.74039058114E+02  0.89636974529E+02  0.00000000000E+00 0. -1.
        -12    1    6    6    0    0 -0.28794697478E+02  0.16684354290E+02  0.15384708190E+02  0.36663217630E+02  0.00000000000E+00 0.  1.
</event>
<event>
12    1  0.8488291E-002  0.1770375E+03  0.7818608E-02  0.1170940E+00
         21   -1    0    0  501  502  0.00000000000E+00  0.00000000000E+00  0.18824609091E+03  0.18824609091E+03  0.00000000000E+00 0. -1.
         21   -1    0    0  502  503 -0.00000000000E+00 -0.00000000000E+00 -0.23133692465E+03  0.23133692465E+03  0.00000000000E+00 0.  1.
         -6    2    1    2    0  503 -0.13874717777E+02 -0.37447351002E+02 -0.13342677839E+03  0.22168667162E+03  0.17247452940E+03 0.  0.
        -24    2    3    3    0    0  0.53403603153E+01 -0.83217487160E+02 -0.55455945883E+02  0.12913579204E+03  0.81529266117E+02 0.  0.
          6    2    1    2  501    0  0.13874717777E+02  0.37447351002E+02  0.90335944654E+02  0.19789634394E+03  0.17148634977E+03 0.  0.
         24    2    5    5    0    0 -0.50854421690E+02  0.38384512419E+02  0.84944117075E+02  0.13276646161E+03  0.79698728365E+02 0.  0.
          5    1    5    5  501    0  0.64729139467E+02 -0.93716141721E+00  0.53918275790E+01  0.65129882330E+02  0.47000000000E+01 0. -1.
        -13    1    6    6    0    0  0.55962966893E+01  0.44865858812E+02  0.37306774386E+02  0.58617908857E+02  0.00000000000E+00 0.  1.
         14    1    6    6    0    0 -0.56450718379E+02 -0.64813463935E+01  0.47637342689E+02  0.74148552751E+02  0.00000000000E+00 0. -1.
         -5    1    3    3    0  503 -0.19215078093E+02  0.45770136158E+02 -0.77970832508E+02  0.92550879586E+02  0.47000000000E+01 0.  1.
         13    1    4    4    0    0 -0.10857721116E+02 -0.89187052801E+02 -0.63570166468E+02  0.11006083118E+03  0.00000000000E+00 0. -1.
        -14    1    4    4    0    0  0.16198081431E+02  0.59695656411E+01  0.81142205848E+01  0.19074960857E+02  0.00000000000E+00 0.  1.
</event>
<event>
12    1  0.8488291E-002  0.2059403E+03  0.7818608E-02  0.1145380E+00
         21   -1    0    0  501  502  0.00000000000E+00  0.00000000000E+00  0.57338280931E+02  0.57338280931E+02  0.00000000000E+00 0.  1.
         21   -1    0    0  502  503 -0.00000000000E+00 -0.00000000000E+00 -0.79869673301E+03  0.79869673301E+03  0.00000000000E+00 0.  1.
         -6    2    1    2    0  503 -0.99289989142E+02 -0.45089256177E+02 -0.49403332011E+03  0.53419478674E+03  0.17147479649E+03 0.  0.
        -24    2    3    3    0    0 -0.54471979174E+02 -0.12482287581E+02 -0.45640918308E+03  0.46704172199E+03  0.81826790562E+02 0.  0.
          6    2    1    2  501    0  0.99289989142E+02  0.45089256177E+02 -0.24732513197E+03  0.32184022720E+03  0.17469936456E+03 0.  0.
         24    2    5    5    0    0  0.12947482052E+03  0.59585812912E+02 -0.23377164119E+03  0.28541137443E+03  0.80599467625E+02 0.  0.
          5    1    5    5  501    0 -0.30184831373E+02 -0.14496556734E+02 -0.13553490781E+02  0.36428852776E+02  0.47000000000E+01 0. -1.
        -11    1    6    6    0    0  0.19987921528E+02  0.49490677933E+02 -0.86107367148E+02  0.10130805934E+03  0.00000000000E+00 0.  1.
         12    1    6    6    0    0  0.10948689899E+03  0.10095134978E+02 -0.14766427404E+03  0.18410331509E+03  0.00000000000E+00 0. -1.
         -5    1    3    3    0  503 -0.44818009968E+02 -0.32606968597E+02 -0.37624137026E+02  0.67153064751E+02  0.47000000000E+01 0.  1.
         11    1    4    4    0    0  0.40912855382E+01 -0.30496513591E+02 -0.80658721840E+02  0.86328473677E+02  0.00000000000E+00 0. -1.
        -12    1    4    4    0    0 -0.58563264712E+02  0.18014226011E+02 -0.37575046124E+03  0.38071324831E+03  0.00000000000E+00 0.  1.
</event>
<event>
12    1  0.8488291E-002  0.2019561E+03  0.7818608E-02  0.1148119E+00
         21   -1    0    0  503  502  0.00000000000E+00  0.00000000000E+00  0.37955439558E+03  0.37955439558E+03  0.00000000000E+00 0.  1.
         21   -1    0    0  501  503 -0.00000000000E+00 -0.00000000000E+00 -0.11469093885E+03  0.11469093885E+03  0.00000000000E+00 0. -1.
          6    2    1    2  501    0 -0.45528956175E+02  0.94986920091E+02  0.19473397981E+03  0.28054872865E+03  0.17231037524E+03 0.  0.
         24    2    3    3    0    0 -0.74506792284E+02  0.80933410005E+01  0.89122251731E+02  0.14066972315E+03  0.78920409222E+02 0.  0.
         -6    2    1    2    0  502  0.45528956175E+02 -0.94986920091E+02  0.70129476923E+02  0.21369660578E+03  0.17219957883E+03 0.  0.
        -24    2    5    5    0    0  0.32299671514E+02  0.19637101452E+02  0.42185555991E+02  0.94883167973E+02  0.76120364535E+02 0.  0.
          5    1    3    3  501    0  0.28977836109E+02  0.86893579090E+02  0.10561172807E+03  0.13987900550E+03  0.47000000000E+01 0. -1.
        -13    1    4    4    0    0 -0.55263459841E+02  0.13534872929E+02  0.10206246962E+03  0.11685029091E+03  0.00000000000E+00 0.  1.
         14    1    4    4    0    0 -0.19243332442E+02 -0.54415319288E+01 -0.12940217893E+02  0.23819432242E+02  0.00000000000E+00 0. -1.
         -5    1    5    5    0  502  0.13229284661E+02 -0.11462402154E+03  0.27943920932E+02  0.11881343781E+03  0.47000000000E+01 0.  1.
         11    1    6    6    0    0 -0.21969050966E+02 -0.73946211473E+01  0.19002336999E+02  0.29973462157E+02  0.00000000000E+00 0. -1.
        -12    1    6    6    0    0  0.54268722480E+02  0.27031722599E+02  0.23183218992E+02  0.64909705815E+02  0.00000000000E+00 0.  1.
</event>
<event>
12    1  0.8488291E-002  0.1885908E+03  0.7818608E-02  0.1159809E+00
         21   -1    0    0  503  502  0.00000000000E+00  0.00000000000E+00  0.12832390543E+04  0.12832390543E+04  0.00000000000E+00 0. -1.
         21   -1    0    0  501  503 -0.00000000000E+00 -0.00000000000E+00 -0.28656827403E+02  0.28656827403E+02  0.00000000000E+00 0. -1.
          6    2    1    2  501    0 -0.45431671054E+02 -0.63524343010E+02  0.74946298583E+03  0.77282679868E+03  0.17165988098E+03 0.  0.
         24    2    3    3    0    0 -0.65210827398E+02 -0.10201562420E+03  0.56027179115E+03  0.57869233008E+03  0.79502788312E+02 0.  0.
         -6    2    1    2    0  502  0.45431671054E+02  0.63524343010E+02  0.50511924112E+03  0.53906908307E+03  0.17132031312E+03 0.  0.
        -24    2    5    5    0    0 -0.36058272663E+02  0.20812352990E+02  0.18920321943E+03  0.20999470276E+03  0.81034337665E+02 0.  0.
          5    1    3    3  501    0  0.19779156344E+02  0.38491281185E+02  0.18919119467E+03  0.19413446859E+03  0.47000000000E+01 0. -1.
        -11    1    4    4    0    0 -0.38020140095E+01  0.12175671804E+02  0.26655885528E+02  0.29550609599E+02  0.00000000000E+00 0.  1.
         12    1    4    4    0    0 -0.61408813388E+02 -0.11419129600E+03  0.53361590562E+03  0.54914172049E+03  0.00000000000E+00 0. -1.
         -5    1    5    5    0  502  0.81489943717E+02  0.42711990020E+02  0.31591602169E+03  0.32907438031E+03  0.47000000000E+01 0.  1.
         13    1    6    6    0    0  0.24662638616E+02  0.16201873976E+02  0.50066061341E+02  0.58115032152E+02  0.00000000000E+00 0. -1.
        -14    1    6    6    0    0 -0.60720911279E+02  0.46104790144E+01  0.13913715809E+03  0.15187967061E+03  0.00000000000E+00 0.  1.
</event>
<event>
12    1  0.8488291E-002  0.1896280E+03  0.7818608E-02  0.1158819E+00
         21   -1    0    0  503  502  0.00000000000E+00  0.00000000000E+00  0.12450327321E+04  0.12450327321E+04  0.00000000000E+00 0.  1.
         21   -1    0    0  501  503 -0.00000000000E+00 -0.00000000000E+00 -0.74441792669E+02  0.74441792669E+02  0.00000000000E+00 0.  1.
          6    2    1    2  501    0 -0.76269299716E+02  0.25665696604E+02  0.69030601554E+02  0.20171159274E+03  0.17160014170E+03 0.  0.
         24    2    3    3    0    0 -0.15612864577E+02 -0.50905132009E+02 -0.45066959680E+01  0.79350982059E+02  0.58661520949E+02 0.  0.
         -6    2    1    2    0  502  0.76269299716E+02 -0.25665696604E+02  0.11015603379E+04  0.11177629320E+04  0.17170631958E+03 0.  0.
        -24    2    5    5    0    0  0.11150040975E+03  0.90846864648E+01  0.72751179504E+03  0.74042591737E+03  0.80263654821E+02 0.  0.
          5    1    3    3  501    0 -0.60656435139E+02  0.76570828613E+02  0.73537297522E+02  0.12236061068E+03  0.47000000000E+01 0. -1.
        -13    1    4    4    0    0 -0.29930033299E+02 -0.40859375087E+01 -0.27248290717E+00  0.30208873292E+02  0.00000000000E+00 0.  1.
         14    1    4    4    0    0  0.14317168722E+02 -0.46819194500E+02 -0.42342130609E+01  0.49142108768E+02  0.00000000000E+00 0. -1.
         -5    1    5    5    0  502 -0.35231110038E+02 -0.34750383068E+02  0.37404854282E+03  0.37733701465E+03  0.47000000000E+01 0.  1.
         13    1    6    6    0    0  0.21199513642E+02  0.23750072612E+02  0.37100232491E+03  0.37236569447E+03  0.00000000000E+00 0. -1.
        -14    1    6    6    0    0  0.90300896113E+02 -0.14665386147E+02  0.35650947013E+03  0.36806022290E+03  0.00000000000E+00 0.  1.
</event>
<event>
12    1  0.8488291E-002  0.2393452E+03  0.7818608E-02  0.1120446E+00
         21   -1    0    0  501  502  0.00000000000E+00  0.00000000000E+00  0.10292434031E+04  0.10292434031E+04  0.00000000000E+00 0. -1.
         21   -1    0    0  502  503 -0.00000000000E+00 -0.00000000000E+00 -0.79300792026E+02  0.79300792026E+02  0.00000000000E+00 0.  1.
         -6    2    1    2    0  503  0.58405447726E+02 -0.15622124359E+03  0.17131422691E+03  0.29433769593E+03  0.17166782352E+03 0.  0.
        -24    2    3    3    0    0  0.17860314090E+01 -0.61652541818E+02  0.13368955003E+02  0.10167790102E+03  0.79721018412E+02 0.  0.
          6    2    1    2  501    0 -0.58405447726E+02  0.15622124359E+03  0.77862838420E+03  0.81420649923E+03  0.16986403219E+03 0.  0.
         24    2    5    5    0    0 -0.80089876613E+01  0.90720140760E+02  0.23901319182E+03  0.26827899167E+03  0.80944571689E+02 0.  0.
          5    1    5    5  501    0 -0.50396460065E+02  0.65501102830E+02  0.53961519238E+03  0.54592750756E+03  0.47000000000E+01 0. -1.
        -13    1    6    6    0    0  0.34341530231E+02  0.42160354491E+02  0.80235183569E+02  0.96925336583E+02  0.00000000000E+00 0.  1.
         14    1    6    6    0    0 -0.42350517892E+02  0.48559786269E+02  0.15877800825E+03  0.17135365509E+03  0.00000000000E+00 0. -1.
         -5    1    3    3    0  503  0.56619416317E+02 -0.94568701772E+02  0.15794527191E+03  0.19265979491E+03  0.47000000000E+01 0.  1.
         13    1    4    4    0    0 -0.12630968637E+02 -0.77466738722E+02  0.16041334172E+02  0.80112179966E+02  0.00000000000E+00 0. -1.
        -14    1    4    4    0    0  0.14417000047E+02  0.15814196904E+02 -0.26723791691E+01  0.21565721052E+02  0.00000000000E+00 0.  1.
</event>
<event>
12    1  0.8488291E-002  0.2978575E+03  0.7818608E-02  0.1086373E+00
         21   -1    0    0  501  502  0.00000000000E+00  0.00000000000E+00  0.55824939390E+03  0.55824939390E+03  0.00000000000E+00 0. -1.
         21   -1    0    0  502  503 -0.00000000000E+00 -0.00000000000E+00 -0.18086805649E+03  0.18086805649E+03  0.00000000000E+00 0.  1.
         -6    2    1    2    0  503 -0.13904413745E+03 -0.19866412325E+03  0.59391645976E+02  0.30372102771E+03  0.17296932975E+03 0.  0.
        -24    2    3    3    0    0 -0.95597268167E+02 -0.46939480111E+02 -0.44955131281E+01  0.13339294170E+03  0.80195478566E+02 0.  0.
          6    2    1    2  501    0  0.13904413745E+03  0.19866412325E+03  0.31798969144E+03  0.43539642267E+03  0.17219725603E+03 0.  0.
         24    2    5    5    0    0  0.13724646521E+03  0.97884741098E+02  0.25630541263E+03  0.31713080744E+03  0.80383267748E+02 0.  0.
          5    1    5    5  501    0  0.17976722477E+01  0.10077938216E+03  0.61684278804E+02  0.11826561523E+03  0.47000000000E+01 0. -1.
        -13    1    6    6    0    0  0.10330944380E+03  0.94161300069E+02  0.14801856122E+03  0.20358950384E+03  0.00000000000E+00 0.  1.
         14    1    6    6    0    0  0.33937021410E+02  0.37234410292E+01  0.10828685141E+03  0.11354130360E+03  0.00000000000E+00 0. -1.
         -5    1    3    3    0  503 -0.43446869287E+02 -0.15172464314E+03  0.63887159104E+02  0.17032808602E+03  0.47000000000E+01 0.  1.
         11    1    4    4    0    0 -0.75778413165E+02 -0.27475067072E+02  0.32685924376E+02  0.86980554521E+02  0.00000000000E+00 0. -1.
        -12    1    4    4    0    0 -0.19818855002E+02 -0.19464413039E+02 -0.37181437504E+02  0.46412387177E+02  0.00000000000E+00 0.  1.
</event>
<event>
12    1  0.8488291E-002  0.2220948E+03  0.7818608E-02  0.1132536E+00
         21   -1    0    0  501  502  0.00000000000E+00  0.00000000000E+00  0.71374596978E+02  0.71374596978E+02  0.00000000000E+00 0. -1.
         21   -1    0    0  502  503 -0.00000000000E+00 -0.00000000000E+00 -0.70294455546E+03  0.70294455546E+03  0.00000000000E+00 0.  1.
         -6    2    1    2    0  503  0.68886608234E+02  0.12162559205E+03 -0.37371084409E+03  0.43472506906E+03  0.17259183422E+03 0.  0.
        -24    2    3    3    0    0  0.54016723553E+02  0.33698752412E+02 -0.90619174974E+02  0.13788298019E+03  0.82136891928E+02 0.  0.
          6    2    1    2  501    0 -0.68886608234E+02 -0.12162559205E+03 -0.25785911439E+03  0.33959408338E+03  0.17115685542E+03 0.  0.
         24    2    5    5    0    0 -0.49086583030E+02 -0.12794824365E+03 -0.11348098368E+03  0.19365179497E+03  0.76438461189E+02 0.  0.
          5    1    5    5  501    0 -0.19800025204E+02  0.63226515953E+01 -0.14437813071E+03  0.14594228842E+03  0.47000000000E+01 0. -1.
        -11    1    6    6    0    0 -0.36276130187E+02 -0.56700002004E+02 -0.99175868092E+02  0.11986117245E+03  0.00000000000E+00 0.  1.
         12    1    6    6    0    0 -0.12810452843E+02 -0.71248241645E+02 -0.14305115592E+02  0.73790622518E+02  0.00000000000E+00 0. -1.
         -5    1    3    3    0  503  0.14869884681E+02  0.87926839642E+02 -0.28309166912E+03  0.29684208887E+03  0.47000000000E+01 0.  1.
         13    1    4    4    0    0  0.26556022507E+02  0.55402270596E+02 -0.31164283754E+02  0.68890104518E+02  0.00000000000E+00 0. -1.
        -14    1    4    4    0    0  0.27460701046E+02 -0.21703518184E+02 -0.59454891220E+02  0.68992875672E+02  0.00000000000E+00 0.  1.
</event>
<event>
12    1  0.8488291E-002  0.2698158E+03  0.7818608E-02  0.1101435E+00
         21   -1    0    0  501  502  0.00000000000E+00  0.00000000000E+00  0.13335996535E+03  0.13335996535E+03  0.00000000000E+00 0. -1.
         21   -1    0    0  502  503 -0.00000000000E+00 -0.00000000000E+00 -0.72275024352E+03  0.72275024352E+03  0.00000000000E+00 0.  1.
         -6    2    1    2    0  503 -0.17771403214E+03  0.10681657119E+03 -0.50671588184E+03  0.57391236026E+03  0.17211146172E+03 0.  0.
        -24    2    3    3    0    0 -0.13898433331E+03  0.22477002165E+02 -0.22269891791E+03  0.27507983480E+03  0.79071151152E+02 0.  0.
          6    2    1    2  501    0  0.17771403214E+03 -0.10681657119E+03 -0.82674396326E+02  0.28219784861E+03  0.17265142007E+03 0.  0.
         24    2    5    5    0    0  0.20550992718E+02 -0.22058853799E+01 -0.21665896575E+02  0.83734392054E+02  0.78197366364E+02 0.  0.
          5    1    5    5  501    0  0.15716303942E+03 -0.10461068581E+03 -0.61008499751E+02  0.19846345655E+03  0.47000000000E+01 0. -1.
        -11    1    6    6    0    0  0.33453109707E+02  0.14133841336E+02  0.16785924586E+02  0.40008040245E+02  0.00000000000E+00 0.  1.
         12    1    6    6    0    0 -0.12902116990E+02 -0.16339726716E+02 -0.38451821161E+02  0.43726351810E+02  0.00000000000E+00 0. -1.
         -5    1    3    3    0  503 -0.38729698829E+02  0.84339569022E+02 -0.28401696393E+03  0.29883252546E+03  0.47000000000E+01 0.  1.
         13    1    4    4    0    0 -0.78840047827E+02  0.50952733028E+02 -0.11457696148E+03  0.14812094466E+03  0.00000000000E+00 0. -1.
        -14    1    4    4    0    0 -0.60144285483E+02 -0.28475730862E+02 -0.10812195643E+03  0.12695889014E+03  0.00000000000E+00 0.  1.
</event>
<event>
12    1  0.8488291E-002  0.1770553E+03  0.7818608E-02  0.1172160E+00
         21   -1    0    0  503  502  0.00000000000E+00  0.00000000000E+00  0.54765423061E+03  0.54765423061E+03  0.00000000000E+00 0.  1.
         21   -1    0    0  501  503 -0.00000000000E+00 -0.00000000000E+00 -0.19662223458E+03  0.19662223458E+03  0.00000000000E+00 0.  1.
          6    2    1    2  501    0  0.19958217235E+02  0.35703203261E+02 -0.13906664724E+03  0.22514022471E+03  0.17226589694E+03 0.  0.
         24    2    3    3    0    0 -0.95058117815E+01  0.62241238165E+02 -0.28151409138E+02  0.10725605976E+03  0.82140296638E+02 0.  0.
         -6    2    1    2    0  502 -0.19958217235E+02 -0.35703203261E+02  0.49009864328E+03  0.51913624048E+03  0.16623088427E+03 0.  0.
        -24    2    5    5    0    0 -0.75460370069E+02 -0.12478533966E+02  0.30205321477E+03  0.32164434846E+03  0.79805770983E+02 0.  0.
          5    1    3    3  501    0  0.29464029016E+02 -0.26538034903E+02 -0.11091523810E+03  0.11788416495E+03  0.47000000000E+01 0. -1.
        -13    1    4    4    0    0 -0.24105607762E+02  0.52143819478E+02 -0.52027347627E+02  0.77504213669E+02  0.00000000000E+00 0.  1.
         14    1    4    4    0    0  0.14599795981E+02  0.10097418687E+02  0.23875938489E+02  0.29751846086E+02  0.00000000000E+00 0. -1.
         -5    1    5    5    0  502  0.55502152834E+02 -0.23224669296E+02  0.18804542851E+03  0.19749189203E+03  0.47000000000E+01 0.  1.
         13    1    6    6    0    0 -0.19889636378E+02  0.47100189956E+00  0.69481916987E+01  0.21073605432E+02  0.00000000000E+00 0. -1.
        -14    1    6    6    0    0 -0.55570733691E+02 -0.12949535865E+02  0.29510502307E+03  0.30057074302E+03  0.00000000000E+00 0.  1.
</event>
<event>
12    1  0.8488291E-002  0.2057597E+03  0.7818608E-02  0.1145691E+00
         21   -1    0    0  503  502  0.00000000000E+00  0.00000000000E+00  0.25521154270E+03  0.25521154270E+03  0.00000000000E+00 0. -1.
         21   -1    0    0  501  503 -0.00000000000E+00 -0.00000000000E+00 -0.19516889022E+03  0.19516889022E+03  0.00000000000E+00 0.  1.
          6    2    1    2  501    0  0.20914870731E+02 -0.10813140984E+03 -0.61528416922E+02  0.21138968943E+03  0.16961727830E+03 0.  0.
         24    2    3    3    0    0  0.32959592011E+02 -0.79729354105E+02  0.23894286392E+02  0.12044530906E+03  0.80579345617E+02 0.  0.
         -6    2    1    2    0  502 -0.20914870731E+02  0.10813140984E+03  0.12157106940E+03  0.23899074348E+03  0.17380223515E+03 0.  0.
        -24    2    5    5    0    0 -0.21777891274E+02  0.69802149372E+02 -0.13271277509E+01  0.11016553680E+03  0.82389730096E+02 0.  0.
          5    1    3    3  501    0 -0.12044721279E+02 -0.28402055731E+02 -0.85422703314E+02  0.90944380375E+02  0.47000000000E+01 0. -1.
        -11    1    4    4    0    0  0.15540514503E+02 -0.69337382866E+02 -0.18519249439E+02  0.73431211712E+02  0.00000000000E+00 0.  1.
         12    1    4    4    0    0  0.17419077508E+02 -0.10391971239E+02  0.42413535831E+02  0.47014097345E+02  0.00000000000E+00 0. -1.
         -5    1    5    5    0  502  0.86302054307E+00  0.38329260464E+02  0.12289819715E+03  0.12882520668E+03  0.47000000000E+01 0.  1.
         11    1    6    6    0    0 -0.48998576569E+02  0.60232546314E+02  0.11673540698E+02  0.78518097874E+02  0.00000000000E+00 0. -1.
        -12    1    6    6    0    0  0.27220685294E+02  0.95696030580E+01 -0.13000668449E+02  0.31647438928E+02  0.00000000000E+00 0.  1.
</event>
<event>
12    1  0.8488291E-002  0.2492941E+03  0.7818608E-02  0.1114713E+00
         21   -1    0    0  501  502  0.00000000000E+00  0.00000000000E+00  0.21168261980E+04  0.21168261980E+04  0.00000000000E+00 0.  1.
         21   -1    0    0  502  503 -0.00000000000E+00 -0.00000000000E+00 -0.29969670721E+02  0.29969670721E+02  0.00000000000E+00 0.  1.
         -6    2    1    2    0  503  0.65165542348E+01 -0.17786636915E+03  0.12558072680E+04  0.12791609208E+04  0.16589712570E+03 0.  0.
        -24    2    3    3    0    0 -0.18267548122E+02 -0.41288348156E+02  0.70710842884E+03  0.71315711022E+03  0.80946295265E+02 0.  0.
          6    2    1    2  501    0 -0.65165542348E+01  0.17786636915E+03  0.83104925930E+03  0.86763494789E+03  0.17455263007E+03 0.  0.
         24    2    5    5    0    0 -0.83957959648E+01  0.37305099299E+02  0.16850620972E+03  0.19032675757E+03  0.79798321466E+02 0.  0.
          5    1    5    5  501    0  0.18792417300E+01  0.14056126985E+03  0.66254304958E+03  0.67730819032E+03  0.47000000000E+01 0. -1.
        -13    1    6    6    0    0  0.87907712561E+01  0.55602728717E+02  0.76642158038E+02  0.95094487164E+02  0.00000000000E+00 0.  1.
         14    1    6    6    0    0 -0.17186567221E+02 -0.18297629419E+02  0.91864051680E+02  0.95232270404E+02  0.00000000000E+00 0. -1.
         -5    1    3    3    0  503  0.24784102357E+02 -0.13657802099E+03  0.54869883912E+03  0.56600381059E+03  0.47000000000E+01 0.  1.
         13    1    4    4    0    0 -0.23345758866E+02 -0.38692274163E+02  0.70587742543E+03  0.70732245566E+03  0.00000000000E+00 0. -1.
        -14    1    4    4    0    0  0.50782107445E+01 -0.25960739930E+01  0.12310034066E+01  0.58346545682E+01  0.00000000000E+00 0.  1.
</event>
<event>
12    1  0.8488291E-002  0.2422849E+03  0.7818608E-02  0.1118594E+00
         21   -1    0    0  503  502  0.00000000000E+00  0.00000000000E+00  0.68653537410E+02  0.68653537410E+02  0.00000000000E+00 0.  1.
         21   -1    0    0  501  503 -0.00000000000E+00 -0.00000000000E+00 -0.10331100640E+04  0.10331100640E+04  0.00000000000E+00 0.  1.
          6    2    1    2  501    0 -0.16213255969E+03  0.51763431177E+02 -0.71674391544E+03  0.75658696553E+03  0.17244006601E+03 0.  0.
         24    2    3    3    0    0 -0.11429902615E+03  0.86609001056E+02 -0.37566002937E+03  0.41037522683E+03  0.81987698416E+02 0.  0.
         -6    2    1    2    0  502  0.16213255969E+03 -0.51763431177E+02 -0.24771261114E+03  0.34517663587E+03  0.16976145768E+03 0.  0.
        -24    2    5    5    0    0  0.36983681482E+02 -0.39957837926E+02 -0.17618277187E+03  0.20046927028E+03  0.78632930230E+02 0.  0.
          5    1    3    3  501    0 -0.47833533547E+02 -0.34845569880E+02 -0.34108388607E+03  0.34621173869E+03  0.47000000000E+01 0. -1.
        -13    1    4    4    0    0 -0.16567311245E+02 -0.11300176552E+02 -0.18206596158E+02  0.27085973042E+02  0.00000000000E+00 0.  1.
         14    1    4    4    0    0 -0.97731714900E+02  0.97909177608E+02 -0.35745343321E+03  0.38328925379E+03  0.00000000000E+00 0. -1.
         -5    1    5    5    0  502  0.12514887821E+03 -0.11805593251E+02 -0.71529839269E+02  0.14470736559E+03  0.47000000000E+01 0.  1.
         11    1    6    6    0    0 -0.22853788806E+02 -0.25180410709E+02 -0.61940515247E+02  0.70660994723E+02  0.00000000000E+00 0. -1.
        -12    1    6    6    0    0  0.59837470287E+02 -0.14777427217E+02 -0.11424225662E+03  0.12980827556E+03  0.00000000000E+00 0.  1.
</event>
<event>
12    1  0.8488291E-002  0.2448534E+03  0.7818608E-02  0.1117354E+00
         21   -1    0    0  501  502  0.00000000000E+00  0.00000000000E+00  0.53835606457E+03  0.53835606457E+03  0.00000000000E+00 0.  1.
         21   -1    0    0  502  503 -0.00000000000E+00 -0.00000000000E+00 -0.21871344461E+03  0.21871344461E+03  0.00000000000E+00 0. -1.
         -6    2    1    2    0  503 -0.51948029985E+01 -0.16903074411E+03 -0.10868126689E+03  0.26369892785E+03  0.17066671716E+03 0.  0.
        -24    2    3    3    0    0  0.44287342967E+02 -0.89838842688E+02 -0.11202263325E+03  0.17014095252E+03  0.79790268583E+02 0.  0.
          6    2    1    2  501    0  0.51948029985E+01  0.16903074411E+03  0.42832388684E+03  0.49337058133E+03  0.17707286650E+03 0.  0.
         24    2    5    5    0    0  0.16454999423E+02  0.24779584992E+02  0.24608633231E+03  0.26063080129E+03  0.80530347046E+02 0.  0.
          5    1    5    5  501    0 -0.11260196425E+02  0.14425115911E+03  0.18223755453E+03  0.23273978004E+03  0.47000000000E+01 0. -1.
        -11    1    6    6    0    0 -0.17704955043E+02  0.43185500229E+02  0.12221908824E+03  0.13082797252E+03  0.00000000000E+00 0.  1.
         12    1    6    6    0    0  0.34159954467E+02 -0.18405915237E+02  0.12386724407E+03  0.12980282877E+03  0.00000000000E+00 0. -1.
         -5    1    3    3    0  503 -0.49482145965E+02 -0.79191901418E+02  0.33413663619E+01  0.93557975335E+02  0.47000000000E+01 0.  1.
         11    1    4    4    0    0 -0.17365521106E+02 -0.41432696509E+02 -0.64071949725E+02  0.78252440249E+02  0.00000000000E+00 0. -1.
        -12    1    4    4    0    0  0.61652864073E+02 -0.48406146178E+02 -0.47950683522E+02  0.91888512266E+02  0.00000000000E+00 0.  1.
</event>
<event>
12    1  0.8488291E-002  0.3086715E+03  0.7818608E-02  0.1082458E+00
         21   -1    0    0  503  502  0.00000000000E+00  0.00000000000E+00  0.16026799946E+04  0.16026799946E+04  0.00000000000E+00 0.  1.
         21   -1    0    0  501  503 -0.00000000000E+00 -0.00000000000E+00 -0.21801157784E+03  0.21801157784E+03  0.00000000000E+00 0. -1.
          6    2    1    2  501    0 -0.21651540683E+03 -0.10642679511E+03 -0.85972383825E+02  0.32042054380E+03  0.19254217719E+03 0.  0.
         24    2    3    3    0    0 -0.49764562073E+01 -0.41721229590E+02 -0.30398479827E+02  0.92284429510E+02  0.76334279582E+02 0.  0.
         -6    2    1    2    0  502  0.21651540683E+03  0.10642679511E+03  0.14706408006E+04  0.15002710287E+04  0.17269398053E+03 0.  0.
        -24    2    5    5    0    0  0.53815422081E+02  0.79779388907E+02  0.48321406945E+03  0.49916413691E+03  0.80050909545E+02 0.  0.
          5    1    3    3  501    0 -0.21153895062E+03 -0.64705565522E+02 -0.55573903997E+02  0.22813611429E+03  0.47000000000E+01 0. -1.
        -11    1    4    4    0    0 -0.88465693795E+00 -0.32201019298E+01  0.24709882192E+02  0.24934513275E+02  0.00000000000E+00 0.  1.
         12    1    4    4    0    0 -0.40917992694E+01 -0.38501127660E+02 -0.55108362019E+02  0.67349916235E+02  0.00000000000E+00 0. -1.
         -5    1    5    5    0  502  0.16269998475E+03  0.26647406205E+02  0.98742673117E+03  0.10011068918E+04  0.47000000000E+01 0.  1.
         11    1    6    6    0    0  0.50474920644E+01  0.91497012800E+01  0.23637233252E+01  0.10713608058E+02  0.00000000000E+00 0. -1.
        -12    1    6    6    0    0  0.48767930016E+02  0.70629687627E+02  0.48085034612E+03  0.48845052885E+03  0.00000000000E+00 0.  1.
</event>
<event>
12    1  0.8488291E-002  0.2719101E+03  0.7818608E-02  0.1100248E+00
         21   -1    0    0  503  502  0.00000000000E+00  0.00000000000E+00  0.15640982828E+03  0.15640982828E+03  0.00000000000E+00 0. -1.
         21   -1    0    0  501  503 -0.00000000000E+00 -0.00000000000E+00 -0.49824772668E+03  0.49824772668E+03  0.00000000000E+00 0. -1.
          6    2    1    2  501    0 -0.15101480973E+03  0.14663270068E+03 -0.95671965210E+02  0.28787043587E+03  0.17149239415E+03 0.  0.
         24    2    3    3    0    0 -0.11271541666E+03  0.28448493615E+02 -0.22077393062E+02  0.14339690418E+03  0.81001104324E+02 0.  0.
         -6    2    1    2    0  502  0.15101480973E+03 -0.14663270068E+03 -0.24616593319E+03  0.36678711910E+03  0.17212931884E+03 0.  0.
        -24    2    5    5    0    0  0.36293208519E+02 -0.24970131956E+02 -0.14920935814E+03  0.17343383141E+03  0.76649571725E+02 0.  0.
          5    1    3    3  501    0 -0.38299393078E+02  0.11818420707E+03 -0.73594572147E+02  0.14447353169E+03  0.47000000000E+01 0. -1.
        -11    1    4    4    0    0  0.10821273082E+02  0.59158579619E+01  0.74351992123E+01  0.14400677549E+02  0.00000000000E+00 0.  1.
         12    1    4    4    0    0 -0.12353668974E+03  0.22532635653E+02 -0.29512592275E+02  0.12899622663E+03  0.00000000000E+00 0. -1.
         -5    1    5    5    0  502  0.11472160122E+03 -0.12166256872E+03 -0.96956575045E+02  0.19335328769E+03  0.47000000000E+01 0.  1.
         13    1    6    6    0    0  0.74112711966E+01 -0.26059526499E+02 -0.65463880392E+01  0.27872586146E+02  0.00000000000E+00 0. -1.
        -14    1    6    6    0    0  0.28881937323E+02  0.10893945431E+01 -0.14266297010E+03  0.14556124526E+03  0.00000000000E+00 0.  1.
</event>
<event>
12    1  0.8488291E-002  0.1750145E+03  0.7818608E-02  0.1172805E+00
         21   -1    0    0  501  502  0.00000000000E+00  0.00000000000E+00  0.64997280769E+02  0.64997280769E+02  0.00000000000E+00 0. -1.
         21   -1    0    0  502  503 -0.00000000000E+00 -0.00000000000E+00 -0.47147536413E+03  0.47147536413E+03  0.00000000000E+00 0. -1.
         -6    2    1    2    0  503  0.29269646556E+02 -0.53286275863E+01 -0.21679873355E+03  0.27862477397E+03  0.17246729348E+03 0.  0.
        -24    2    3    3    0    0  0.76126579232E+02  0.31564645215E+02 -0.13454030046E+03  0.17691329216E+03  0.80035227252E+02 0.  0.
          6    2    1    2  501    0 -0.29269646556E+02  0.53286275863E+01 -0.18967934981E+03  0.25784787092E+03  0.17211090121E+03 0.  0.
         24    2    5    5    0    0 -0.42977662411E+02  0.18071004589E+02 -0.28003575471E+02  0.95024580584E+02  0.77921948145E+02 0.  0.
          5    1    5    5  501    0  0.13708015855E+02 -0.12742377003E+02 -0.16167577434E+03  0.16282329034E+03  0.47000000000E+01 0. -1.
        -13    1    6    6    0    0 -0.79276499732E+01  0.25421078519E+02 -0.47347472419E+02  0.54321837337E+02  0.00000000000E+00 0.  1.
         14    1    6    6    0    0 -0.35050012438E+02 -0.73500739302E+01  0.19343896948E+02  0.40702743247E+02  0.00000000000E+00 0. -1.
         -5    1    3    3    0  503 -0.46856932676E+02 -0.36893272802E+02 -0.82258433092E+02  0.10171148181E+03  0.47000000000E+01 0.  1.
         11    1    4    4    0    0  0.38626323390E+02  0.54495853333E+02 -0.10319155266E+03  0.12292390910E+03  0.00000000000E+00 0. -1.
        -12    1    4    4    0    0  0.37500255842E+02 -0.22931208117E+02 -0.31348747801E+02  0.53989383055E+02  0.00000000000E+00 0.  1.
</event>
<event>
12    1  0.8488291E-002  0.2043389E+03  0.7818608E-02  0.1146243E+00
         21   -1    0    0  503  502  0.00000000000E+00  0.00000000000E+00  0.16247256323E+03  0.16247256323E+03  0.00000000000E+00 0.  1.
         21   -1    0    0  501  503 -0.00000000000E+00 -0.00000000000E+00 -0.27263414411E+03  0.27263414411E+03  0.00000000000E+00 0.  1.
          6    2    1    2  501    0  0.10443186335E+03  0.30995409768E+02 -0.10826255599E+03  0.23075900054E+03  0.17222719237E+03 0.  0.
         24    2    3    3    0    0  0.93844838569E+02 -0.40316174052E+02 -0.61664478955E+02  0.14478866924E+03  0.82030501400E+02 0.  0.
         -6    2    1    2    0  502 -0.10443186335E+03 -0.30995409768E+02 -0.18990248970E+01  0.20434770680E+03  0.17288044848E+03 0.  0.
        -24    2    5    5    0    0 -0.90641058478E+02  0.43672862276E+02 -0.41471435503E+01  0.12823804127E+03  0.79401990198E+02 0.  0.
          5    1    3    3  501    0  0.10587024782E+02  0.71311583820E+02 -0.46598077031E+02  0.85970331299E+02  0.47000000000E+01 0. -1.
        -11    1    4    4    0    0  0.39051336302E+02  0.97835823374E+01 -0.57806280749E+02  0.70443533730E+02  0.00000000000E+00 0.  1.
         12    1    4    4    0    0  0.54793502267E+02 -0.50099756389E+02 -0.38581982063E+01  0.74345135512E+02  0.00000000000E+00 0. -1.
         -5    1    5    5    0  502 -0.13790804873E+02 -0.74668272044E+02  0.22481186533E+01  0.76109665527E+02  0.47000000000E+01 0.  1.
         13    1    6    6    0    0  0.58148164331E+01  0.14411627439E+02 -0.20914688364E+02  0.26056309887E+02  0.00000000000E+00 0. -1.
        -14    1    6    6    0    0 -0.96455874911E+02  0.29261234838E+02  0.16767544814E+02  0.10218173138E+03  0.00000000000E+00 0.  1.
</event>
<event>
12    1  0.8488291E-002  0.2116243E+03  0.7818608E-02  0.1140824E+00
         21   -1    0    0  501  502  0.00000000000E+00  0.00000000000E+00  0.40955157414E+02  0.40955157414E+02  0.00000000000E+00 0.  1.
         21   -1    0    0  502  503 -0.00000000000E+00 -0.00000000000E+00 -0.12421614515E+04  0.12421614515E+04  0.00000000000E+00 0.  1.
         -6    2    1    2    0  503 -0.57412119782E+02 -0.10998982075E+03 -0.37180819433E+03  0.42781556477E+03  0.17143777857E+03 0.  0.
        -24    2    3    3    0    0 -0.67391695265E+01 -0.12227206576E+03 -0.32626449800E+03  0.35842594231E+03  0.83813835344E+02 0.  0.
          6    2    1    2  501    0  0.57412119782E+02  0.10998982075E+03 -0.82939809974E+03  0.85530104413E+03  0.16806176266E+03 0.  0.
         24    2    5    5    0    0  0.16911756197E+02  0.11531075937E+03 -0.38693733215E+03  0.41093383934E+03  0.74589158580E+02 0.  0.
          5    1    5    5  501    0  0.40500363585E+02 -0.53209386138E+01 -0.44246076759E+03  0.44436720479E+03  0.47000000000E+01 0. -1.
        -13    1    6    6    0    0  0.45389038577E+02  0.77945130338E+02 -0.22781363445E+03  0.24501971392E+03  0.00000000000E+00 0.  1.
         14    1    6    6    0    0 -0.28477282380E+02  0.37365629027E+02 -0.15912369770E+03  0.16591412542E+03  0.00000000000E+00 0. -1.
         -5    1    3    3    0  503 -0.50672950255E+02  0.12282245007E+02 -0.45543696340E+02  0.69389622468E+02  0.47000000000E+01 0.  1.
         11    1    4    4    0    0  0.13305042841E+02 -0.68546760471E+00 -0.48150215115E+01  0.14166102604E+02  0.00000000000E+00 0. -1.
        -12    1    4    4    0    0 -0.20044212367E+02 -0.12158659815E+03 -0.32144947648E+03  0.34425983970E+03  0.00000000000E+00 0.  1.
</event>
<event>
12    1  0.8488291E-002  0.1841054E+03  0.7818608E-02  0.1164455E+00
         21   -1    0    0  503  502  0.00000000000E+00  0.00000000000E+00  0.57193960145E+03  0.57193960145E+03  0.00000000000E+00 0.  1.
         21   -1    0    0  501  503 -0.00000000000E+00 -0.00000000000E+00 -0.46352855930E+03  0.46352855930E+03  0.00000000000E+00 0.  1.
          6    2    1    2  501    0  0.32685725221E+02 -0.49837212713E+02 -0.42980350667E+03  0.46663630234E+03  0.17165744932E+03 0.  0.
         24    2    3    3    0    0  0.19833956875E+02 -0.99660992281E+02 -0.32166610491E+03  0.34678904696E+03  0.80423011759E+02 0.  0.
         -6    2    1    2    0  502 -0.32685725221E+02  0.49837212713E+02  0.53821454882E+03  0.56883185842E+03  0.17419149861E+03 0.  0.
        -24    2    5    5    0    0 -0.77215536841E+02  0.58377849516E+02  0.47100082250E+03  0.48761842600E+03  0.80992235025E+02 0.  0.
          5    1    3    3  501    0  0.12851768346E+02  0.49823779568E+02 -0.10813740176E+03  0.11984725537E+03  0.47000000000E+01 0. -1.
        -11    1    4    4    0    0 -0.23534850703E+02 -0.76540204156E+02 -0.21176127572E+03  0.22639595832E+03  0.00000000000E+00 0.  1.
         12    1    4    4    0    0  0.43368807578E+02 -0.23120788125E+02 -0.10990482919E+03  0.12039308864E+03  0.00000000000E+00 0. -1.
         -5    1    5    5    0  502  0.44529811621E+02 -0.85406368024E+01  0.67213726317E+02  0.81213432420E+02  0.47000000000E+01 0.  1.
         13    1    6    6    0    0  0.13826668565E+01  0.11540816431E+02  0.48860327702E+01  0.12608549789E+02  0.00000000000E+00 0. -1.
        -14    1    6    6    0    0 -0.78598203698E+02  0.46837033084E+02  0.46611478973E+03  0.47500987621E+03  0.00000000000E+00 0.  1.
</event>
<event>
12    1  0.8488291E-002  0.1793337E+03  0.7818608E-02  0.1169530E+00
         21   -1    0    0  501  502  0.00000000000E+00  0.00000000000E+00  0.13024289670E+03  0.13024289670E+03  0.00000000000E+00 0. -1.
         21   -1    0    0  502  503 -0.00000000000E+00 -0.00000000000E+00 -0.38478621735E+03  0.38478621735E+03  0.00000000000E+00 0. -1.
         -6    2    1    2    0  503  0.26215577436E+02 -0.21788131458E+02 -0.28373505677E+03  0.33333501280E+03  0.17159449042E+03 0.  0.
        -24    2    3    3    0    0  0.52898164435E+02  0.12255350758E+02 -0.27098295414E+03  0.28799600915E+03  0.81003274176E+02 0.  0.
          6    2    1    2  501    0 -0.26215577436E+02  0.21788131458E+02  0.29191736120E+02  0.18169410126E+03  0.17606422067E+03 0.  0.
         24    2    5    5    0    0 -0.81474611309E+02 -0.10140824429E+02  0.14355511358E+02  0.11600374722E+03  0.80683579829E+02 0.  0.
          5    1    5    5  501    0  0.55259033872E+02  0.31928955887E+02  0.14836224763E+02  0.65690354039E+02  0.47000000000E+01 0. -1.
        -11    1    6    6    0    0  0.93289587539E+01  0.12888347964E+02 -0.10526348646E+02  0.19077290177E+02  0.00000000000E+00 0.  1.
         12    1    6    6    0    0 -0.90803570063E+02 -0.23029172393E+02  0.24881860003E+02  0.96926457041E+02  0.00000000000E+00 0. -1.
         -5    1    3    3    0  503 -0.26682586999E+02 -0.34043482217E+02 -0.12752102632E+02  0.45339003649E+02  0.47000000000E+01 0.  1.
         11    1    4    4    0    0 -0.69098350542E+01 -0.20290633302E+02 -0.12612320571E+03  0.12793169521E+03  0.00000000000E+00 0. -1.
        -12    1    4    4    0    0  0.59807999489E+02  0.32545984060E+02 -0.14485974843E+03  0.16006431394E+03  0.00000000000E+00 0.  1.
</event>
<event>
12    1  0.8488291E-002  0.2054438E+03  0.7818608E-02  0.1146564E+00
         21   -1    0    0  503  502  0.00000000000E+00  0.00000000000E+00  0.18938580040E+03  0.18938580040E+03  0.00000000000E+00 0.  1.
         21   -1    0    0  501  503 -0.00000000000E+00 -0.00000000000E+00 -0.29706185998E+03  0.29706185998E+03  0.00000000000E+00 0. -1.
          6    2    1    2  501    0  0.79024886421E+02  0.61338105676E+02 -0.18032547157E+03  0.26853696087E+03  0.17201025485E+03 0.  0.
         24    2    3    3    0    0  0.71528645265E+02  0.46153351333E+02 -0.33812437474E+02  0.12097365393E+03  0.79024458769E+02 0.  0.
         -6    2    1    2    0  502 -0.79024886421E+02 -0.61338105676E+02  0.72649411990E+02  0.21791069952E+03  0.17944313868E+03 0.  0.
        -24    2    5    5    0    0 -0.36272604188E+02 -0.52323446458E+02 -0.30059478996E+02  0.10619575869E+03  0.79501710808E+02 0.  0.
          5    1    3    3  501    0  0.74962411565E+01  0.15184754343E+02 -0.14651303410E+03  0.14756330694E+03  0.47000000000E+01 0. -1.
        -11    1    4    4    0    0  0.22171751198E+02 -0.22400831336E+02 -0.12040080656E+02  0.33739403343E+02  0.00000000000E+00 0.  1.
         12    1    4    4    0    0  0.49356894067E+02  0.68554182670E+02 -0.21772356818E+02  0.87234250583E+02  0.00000000000E+00 0. -1.
         -5    1    5    5    0  502 -0.42752282233E+02 -0.90146592184E+01  0.10270889099E+03  0.11171494083E+03  0.47000000000E+01 0.  1.
         11    1    6    6    0    0  0.12480217815E+02 -0.51588599172E+02 -0.14681213704E+02  0.55069750654E+02  0.00000000000E+00 0. -1.
        -12    1    6    6    0    0 -0.48752822003E+02 -0.73484728553E+00 -0.15378265292E+02  0.51126008031E+02  0.00000000000E+00 0.  1.
</event>
<event>
12    1  0.8488291E-002  0.2623681E+03  0.7818608E-02  0.1105815E+00
         21   -1    0    0  501  502  0.00000000000E+00  0.00000000000E+00  0.11857184855E+03  0.11857184855E+03  0.00000000000E+00 0.  1.
         21   -1    0    0  502  503 -0.00000000000E+00 -0.00000000000E+00 -0.59132637873E+03  0.59132637873E+03  0.00000000000E+00 0.  1.
         -6    2    1    2    0  503 -0.18713957236E+03 -0.67411839147E+02 -0.28731576513E+03  0.38908528890E+03  0.17108897554E+03 0.  0.
        -24    2    3    3    0    0 -0.62996225813E+02 -0.85713969564E+02 -0.18073071193E+03  0.22437644872E+03  0.79785910162E+02 0.  0.
          6    2    1    2  501    0  0.18713957236E+03  0.67411839147E+02 -0.18543876506E+03  0.32081293838E+03  0.17019938379E+03 0.  0.
         24    2    5    5    0    0  0.14637613047E+03  0.94690732576E+02 -0.89115184926E+02  0.21261812190E+03  0.82901406323E+02 0.  0.
          5    1    5    5  501    0  0.40763441891E+02 -0.27278893429E+02 -0.96323580136E+02  0.10819481647E+03  0.47000000000E+01 0. -1.
        -11    1    6    6    0    0  0.13546757566E+03  0.49335632848E+02 -0.52931281764E+02  0.15358121406E+03  0.00000000000E+00 0.  1.
         12    1    6    6    0    0  0.10908554809E+02  0.45355099728E+02 -0.36183903162E+02  0.59036907841E+02  0.00000000000E+00 0. -1.
         -5    1    3    3    0  503 -0.12414334655E+03  0.18302130417E+02 -0.10658505320E+03  0.16470884019E+03  0.47000000000E+01 0.  1.
         11    1    4    4    0    0 -0.11257750858E+02 -0.21375089058E+02 -0.11863533835E+03  0.12107012386E+03  0.00000000000E+00 0. -1.
        -12    1    4    4    0    0 -0.51738474955E+02 -0.64338880506E+02 -0.62095373577E+02  0.10330632486E+03  0.00000000000E+00 0.  1.
</event>
<event>
12    1  0.8488291E-002  0.2435718E+03  0.7818608E-02  0.1117529E+00
         21   -1    0    0  501  502  0.00000000000E+00  0.00000000000E+00  0.66793275274E+02  0.66793275274E+02  0.00000000000E+00 0.  1.
         21   -1    0    0  502  503 -0.00000000000E+00 -0.00000000000E+00 -0.91727613741E+03  0.91727613741E+03  0.00000000000E+00 0. -1.
         -6    2    1    2    0  503 -0.99842782304E+02 -0.14082128401E+03 -0.51636886646E+03  0.57093261523E+03  0.17183721853E+03 0.  0.
        -24    2    3    3    0    0 -0.65167999872E+02 -0.16850511599E+03 -0.39100449100E+03  0.43786476891E+03  0.78741358542E+02 0.  0.
          6    2    1    2  501    0  0.99842782304E+02  0.14082128401E+03 -0.33411399568E+03  0.41313679746E+03  0.17102817341E+03 0.  0.
         24    2    5    5    0    0  0.49032635608E+02  0.91836286706E+02 -0.79797536835E+02  0.14916681393E+03  0.71028083052E+02 0.  0.
          5    1    5    5  501    0  0.50810146695E+02  0.48984997302E+02 -0.25431645884E+03  0.26396998353E+03  0.47000000000E+01 0. -1.
        -11    1    6    6    0    0 -0.46213866286E+01  0.14398069183E+01  0.98733783054E+01  0.10996083734E+02  0.00000000000E+00 0.  1.
         12    1    6    6    0    0  0.53654022237E+02  0.90396479788E+02 -0.89670915141E+02  0.13817073019E+03  0.00000000000E+00 0. -1.
         -5    1    3    3    0  503 -0.34674782432E+02  0.27683831979E+02 -0.12536437546E+03  0.13306784632E+03  0.47000000000E+01 0.  1.
         13    1    4    4    0    0 -0.87501932335E+01 -0.85330553228E+02 -0.11041648954E+03  0.13982013574E+03  0.00000000000E+00 0. -1.
        -14    1    4    4    0    0 -0.56417806639E+02 -0.83174562760E+02 -0.28058800146E+03  0.29804463316E+03  0.00000000000E+00 0.  1.
</event>
<event>
12    1  0.8488291E-002  0.3331163E+03  0.7818608E-02  0.1069974E+00
         21   -1    0    0  501  502  0.00000000000E+00  0.00000000000E+00  0.48621847444E+03  0.48621847444E+03  0.00000000000E+00 0. -1.
         21   -1    0    0  502  503 -0.00000000000E+00 -0.00000000000E+00 -0.36861059888E+03  0.36861059888E+03  0.00000000000E+00 0.  1.
         -6    2    1    2    0  503 -0.25039813659E+03  0.13536030922E+03 -0.20607809203E+03  0.39170733254E+03  0.17304569984E+03 0.  0.
        -24    2    3    3    0    0 -0.25943457216E+03  0.89189749348E+02 -0.17253976351E+03  0.33373934787E+03  0.79692369184E+02 0.  0.
          6    2    1    2  501    0  0.25039813659E+03 -0.13536030922E+03  0.32368596759E+03  0.46312174078E+03  0.16937384996E+03 0.  0.
         24    2    5    5    0    0  0.10719269510E+03 -0.47865907005E+02  0.23149442210E+03  0.27158991588E+03  0.79937450593E+02 0.  0.
          5    1    5    5  501    0  0.14320544149E+03 -0.87494402217E+02  0.92191545492E+02  0.19153182490E+03  0.47000000000E+01 0. -1.
        -13    1    6    6    0    0 -0.12934200474E+02 -0.18127262807E+01  0.16512666698E+02  0.21053448172E+02  0.00000000000E+00 0.  1.
         14    1    6    6    0    0  0.12012689558E+03 -0.46053180724E+02  0.21498175540E+03  0.25053646770E+03  0.00000000000E+00 0. -1.
         -5    1    3    3    0  503  0.90364355709E+01  0.46170559874E+02 -0.33538328522E+02  0.57967984672E+02  0.47000000000E+01 0.  1.
         11    1    4    4    0    0 -0.82423843923E+02  0.58922558657E+02 -0.33799181195E+02  0.10680797075E+03  0.00000000000E+00 0. -1.
        -12    1    4    4    0    0 -0.17701072824E+03  0.30267190691E+02 -0.13874058231E+03  0.22693137712E+03  0.00000000000E+00 0.  1.
</event>
<event>
12    1  0.8488291E-002  0.2552992E+03  0.7818608E-02  0.1110807E+00
         21   -1    0    0  503  502  0.00000000000E+00  0.00000000000E+00  0.80057907488E+03  0.80057907488E+03  0.00000000000E+00 0.  1.
         21   -1    0    0  501  503 -0.00000000000E+00 -0.00000000000E+00 -0.20201566903E+03  0.20201566903E+03  0.00000000000E+00 0. -1.
          6    2    1    2  501    0 -0.17762090485E+03  0.45698037627E+02 -0.91882874935E+02  0.26646040202E+03  0.17006230228E+03 0.  0.
         24    2    3    3    0    0 -0.71174279130E+02  0.67687254298E+02 -0.19047760211E+01  0.12527769040E+03  0.77740138513E+02 0.  0.
         -6    2    1    2    0  502  0.17762090485E+03 -0.45698037627E+02  0.69044628079E+03  0.73613434189E+03  0.17759562541E+03 0.  0.
        -24    2    5    5    0    0  0.34417572332E+02  0.31508433730E+02  0.22917770407E+03  0.24699343833E+03  0.79410250305E+02 0.  0.
          5    1    3    3  501    0 -0.10644662572E+03 -0.21989216671E+02 -0.89978098914E+02  0.14118271162E+03  0.47000000000E+01 0. -1.
        -11    1    4    4    0    0  0.15355239987E+02  0.85626484054E+01  0.92838381548E+01  0.19881951455E+02  0.00000000000E+00 0.  1.
         12    1    4    4    0    0 -0.86529519117E+02  0.59124605893E+02 -0.11188614176E+02  0.10539573894E+03  0.00000000000E+00 0. -1.
         -5    1    5    5    0  502  0.14320333252E+03 -0.77206471358E+02  0.46126857672E+03  0.48914090356E+03  0.47000000000E+01 0.  1.
         13    1    6    6    0    0  0.13792593183E+02  0.25911300407E+02  0.22275146729E+03  0.22467720689E+03  0.00000000000E+00 0. -1.
        -14    1    6    6    0    0  0.20624979149E+02  0.55971333230E+01  0.64262367729E+01  0.22316231433E+02  0.00000000000E+00 0.  1.
</event>
<event>
12    1  0.8488291E-002  0.1790720E+03  0.7818608E-02  0.1169614E+00
         21   -1    0    0  503  502  0.00000000000E+00  0.00000000000E+00  0.60997680858E+02  0.60997680858E+02  0.00000000000E+00 0.  1.
         21   -1    0    0  501  503 -0.00000000000E+00 -0.00000000000E+00 -0.53695840999E+03  0.53695840999E+03  0.00000000000E+00 0.  1.
          6    2    1    2  501    0  0.29707306194E+02 -0.24920911656E+02 -0.17978548517E+03  0.25375103705E+03  0.17482331723E+03 0.  0.
         24    2    3    3    0    0  0.83287106864E+02 -0.10250608931E+02 -0.86956223438E+02  0.14546726793E+03  0.80978540922E+02 0.  0.
         -6    2    1    2    0  502 -0.29707306194E+02  0.24920911656E+02 -0.29617524397E+03  0.34420505380E+03  0.17103732940E+03 0.  0.
        -24    2    5    5    0    0 -0.76944393753E+02 -0.15320946826E+02 -0.21946657132E+03  0.24542722190E+03  0.76901067515E+02 0.  0.
          5    1    3    3  501    0 -0.53579800670E+02 -0.14670302725E+02 -0.92829261731E+02  0.10828376912E+03  0.47000000000E+01 0. -1.
        -13    1    4    4    0    0  0.37465243032E+02  0.12902584978E+02 -0.85353766704E+02  0.94103063845E+02  0.00000000000E+00 0.  1.
         14    1    4    4    0    0  0.45821863832E+02 -0.23153193909E+02 -0.16024567346E+01  0.51364204080E+02  0.00000000000E+00 0. -1.
         -5    1    5    5    0  502  0.47237087559E+02  0.40241858482E+02 -0.76708672651E+02  0.98777831901E+02  0.47000000000E+01 0.  1.
         11    1    6    6    0    0 -0.55382611296E+01 -0.13015351191E+02 -0.13078461384E+03  0.13154728017E+03  0.00000000000E+00 0. -1.
        -12    1    6    6    0    0 -0.71406132623E+02 -0.23055956345E+01 -0.88681957473E+02  0.11387994173E+03  0.00000000000E+00 0.  1.
</event>
<event>
12    1  0.8488291E-002  0.1845405E+03  0.7818608E-02  0.1164221E+00
         21   -1    0    0  503  502  0.00000000000E+00  0.00000000000E+00  0.21418547359E+03  0.21418547359E+03  0.00000000000E+00 0.  1.
         21   -1    0    0  501  503 -0.00000000000E+00 -0.00000000000E+00 -0.17516230686E+03  0.17516230686E+03  0.00000000000E+00 0.  1.
          6    2    1    2  501    0 -0.15865172185E+02  0.64971777893E+02  0.83226619969E+02  0.19958704237E+03  0.16862764186E+03 0.  0.
         24    2    3    3    0    0  0.21373484932E+02  0.99480117372E+02  0.69060852994E+02  0.14666916229E+03  0.79933235522E+02 0.  0.
         -6    2    1    2    0  502  0.15865172185E+02 -0.64971777893E+02 -0.44203453238E+02  0.18976073809E+03  0.17199464187E+03 0.  0.
        -24    2    5    5    0    0  0.52925579496E+02  0.14586914723E+02 -0.22548650078E+02  0.99239581112E+02  0.79537147251E+02 0.  0.
          5    1    3    3  501    0 -0.37238657117E+02 -0.34508339480E+02  0.14165766974E+02  0.52917880074E+02  0.47000000000E+01 0. -1.
        -11    1    4    4    0    0  0.24910650062E+02  0.16388719170E+02  0.54660837177E+02  0.62265060214E+02  0.00000000000E+00 0.  1.
         12    1    4    4    0    0 -0.35371651301E+01  0.83091398202E+02  0.14400015817E+02  0.84404102080E+02  0.00000000000E+00 0. -1.
         -5    1    5    5    0  502 -0.37060407310E+02 -0.79558692616E+02 -0.21654803159E+02  0.90521156978E+02  0.47000000000E+01 0.  1.
         13    1    6    6    0    0  0.28350356441E+02 -0.25790602864E+02  0.12590172026E+02  0.40341174228E+02  0.00000000000E+00 0. -1.
        -14    1    6    6    0    0  0.24575223054E+02  0.40377517587E+02 -0.35138822104E+02  0.58898406884E+02  0.00000000000E+00 0.  1.
</event>
<event>
12    1  0.8488291E-002  0.2021229E+03  0.7818608E-02  0.1148255E+00
         21   -1    0    0  503  502  0.00000000000E+00  0.00000000000E+00  0.54741735468E+03  0.54741735468E+03  0.00000000000E+00 0.  1.
         21   -1    0    0  501  503 -0.00000000000E+00 -0.00000000000E+00 -0.77107439113E+02  0.77107439113E+02  0.00000000000E+00 0.  1.
          6    2    1    2  501    0 -0.10354924007E+03  0.47410772444E+01  0.29593057457E+03  0.35757573145E+03  0.17187372056E+03 0.  0.
         24    2    3    3    0    0 -0.37902222061E+02  0.49108456782E+02  0.23857487086E+03  0.25964840080E+03  0.81554301329E+02 0.  0.
         -6    2    1    2    0  502  0.10354924007E+03 -0.47410772444E+01  0.17437934100E+03  0.26694906235E+03  0.17351865718E+03 0.  0.
        -24    2    5    5    0    0  0.10765109825E+03  0.38683125432E+00  0.19929400703E+03  0.24075839092E+03  0.81594074344E+02 0.  0.
          5    1    3    3  501    0 -0.65647018005E+02 -0.44367379538E+02  0.57355703713E+02  0.97927330651E+02  0.47000000000E+01 0. -1.
        -13    1    4    4    0    0  0.53334610458E+01  0.15411571710E+02  0.17477417928E+03  0.17553340449E+03  0.00000000000E+00 0.  1.
         14    1    4    4    0    0 -0.43235683107E+02  0.33696885072E+02  0.63800691581E+02  0.84114996306E+02  0.00000000000E+00 0. -1.
         -5    1    5    5    0  502 -0.41018581825E+01 -0.51279084987E+01 -0.24914666035E+02  0.26190671426E+02  0.47000000000E+01 0.  1.
         11    1    6    6    0    0  0.52423961461E+02 -0.37416676942E+02  0.12598843785E+03  0.14149687601E+03  0.00000000000E+00 0. -1.
        -12    1    6    6    0    0  0.55227136787E+02  0.37803508197E+02  0.73305569184E+02  0.99261514915E+02  0.00000000000E+00 0.  1.
</event>
<event>
12    1  0.8488291E-002  0.3787108E+03  0.7818608E-02  0.1051480E+00
         21   -1    0    0  501  502  0.00000000000E+00  0.00000000000E+00  0.23846801368E+03  0.23846801368E+03  0.00000000000E+00 0. -1.
         21   -1    0    0  502  503 -0.00000000000E+00 -0.00000000000E+00 -0.60044736526E+03  0.60044736526E+03  0.00000000000E+00 0.  1.
         -6    2    1    2    0  503  0.30927006422E+03 -0.13488226212E+03 -0.18821670436E+03  0.42224368716E+03  0.17036139907E+03 0.  0.
        -24    2    3    3    0    0  0.72857519749E+02 -0.68710831682E+02 -0.33529552408E+02  0.13203728756E+03  0.79247825510E+02 0.  0.
          6    2    1    2  501    0 -0.30927006422E+03  0.13488226212E+03 -0.17376264723E+03  0.41667169178E+03  0.17199024361E+03 0.  0.
         24    2    5    5    0    0 -0.54487611591E+02  0.23938174943E+02 -0.20194772621E+02  0.99137645162E+02  0.76671427602E+02 0.  0.
          5    1    5    5  501    0 -0.25478245263E+03  0.11094408717E+03 -0.15356787461E+03  0.31753404661E+03  0.47000000000E+01 0. -1.
        -11    1    6    6    0    0  0.12978135810E+01  0.27330505549E+02 -0.31910135955E+02  0.42034481444E+02  0.00000000000E+00 0.  1.
         12    1    6    6    0    0 -0.55785425172E+02 -0.33923306057E+01  0.11715363334E+02  0.57103163718E+02  0.00000000000E+00 0. -1.
         -5    1    3    3    0  503  0.23641254447E+03 -0.66171430433E+02 -0.15468715195E+03  0.29020639960E+03  0.47000000000E+01 0.  1.
         13    1    4    4    0    0  0.20779063735E+02 -0.47971617517E+00  0.21637259276E+02  0.30002843303E+02  0.00000000000E+00 0. -1.
        -14    1    4    4    0    0  0.52078456014E+02 -0.68231115507E+02 -0.55166811684E+02  0.10203444426E+03  0.00000000000E+00 0.  1.
</event>
<event>
12    1  0.8488291E-002  0.1938725E+03  0.7818608E-02  0.1155148E+00
         21   -1    0    0  503  502  0.00000000000E+00  0.00000000000E+00  0.22804613514E+04  0.22804613514E+04  0.00000000000E+00 0. -1.
         21   -1    0    0  501  503 -0.00000000000E+00 -0.00000000000E+00 -0.52819257871E+02  0.52819257871E+02  0.00000000000E+00 0. -1.
          6    2    1    2  501    0 -0.78566322266E+02 -0.36931554563E+02  0.14494668394E+03  0.24158113367E+03  0.17267106372E+03 0.  0.
         24    2    3    3    0    0 -0.95338981677E+02 -0.25005627793E+02  0.16816925383E+03  0.21019757770E+03  0.78659525092E+02 0.  0.
         -6    2    1    2    0  502  0.78566322266E+02  0.36931554563E+02  0.20826954096E+04  0.20916994756E+04  0.17334912855E+03 0.  0.
        -24    2    5    5    0    0  0.67910593281E+02  0.82809944617E+02  0.18119265027E+04  0.18168244818E+04  0.79399062695E+02 0.  0.
          5    1    3    3  501    0  0.16772659411E+02 -0.11925926770E+02 -0.23222569894E+02  0.31383555973E+02  0.47000000000E+01 0. -1.
        -13    1    4    4    0    0 -0.51124128384E+02 -0.34932465607E+02  0.14831943074E+03  0.16072525374E+03  0.00000000000E+00 0.  1.
         14    1    4    4    0    0 -0.44214853294E+02  0.99268378134E+01  0.19849823093E+02  0.49472323956E+02  0.00000000000E+00 0. -1.
         -5    1    5    5    0  502  0.10655728985E+02 -0.45878390054E+02  0.27076890697E+03  0.27487499380E+03  0.47000000000E+01 0.  1.
         13    1    6    6    0    0  0.78007106172E+02  0.56580354231E+02  0.16185462464E+04  0.16214124697E+04  0.00000000000E+00 0. -1.
        -14    1    6    6    0    0 -0.10096512891E+02  0.26229590386E+02  0.19338025624E+03  0.19541201214E+03  0.00000000000E+00 0.  1.
</event>
<event>
12    1  0.8488291E-002  0.1739719E+03  0.7818608E-02  0.1174125E+00
         21   -1    0    0  501  502  0.00000000000E+00  0.00000000000E+00  0.98936462285E+02  0.98936462285E+02  0.00000000000E+00 0. -1.
         21   -1    0    0  502  503 -0.00000000000E+00 -0.00000000000E+00 -0.35101944148E+03  0.35101944148E+03  0.00000000000E+00 0. -1.
         -6    2    1    2    0  503 -0.43623979117E+01 -0.14981422083E+02 -0.20842089682E+03  0.27058869844E+03  0.17185895371E+03 0.  0.
        -24    2    3    3    0    0 -0.11307803394E+02 -0.61016707386E+02 -0.19995759154E+03  0.22303658296E+03  0.76885459785E+02 0.  0.
          6    2    1    2  501    0  0.43623979117E+01  0.14981422083E+02 -0.43662082373E+02  0.17936720532E+03  0.17327072281E+03 0.  0.
         24    2    5    5    0    0  0.36419847821E+02  0.68875611103E+02 -0.21278197253E+02  0.11261848235E+03  0.78485067174E+02 0.  0.
          5    1    5    5  501    0 -0.32057449909E+02 -0.53894189020E+02 -0.22383885120E+02  0.66748722968E+02  0.47000000000E+01 0. -1.
        -13    1    6    6    0    0 -0.38980894712E+01  0.53393164007E+02 -0.38689683073E+02  0.66052378008E+02  0.00000000000E+00 0.  1.
         14    1    6    6    0    0  0.40317937292E+02  0.15482447096E+02  0.17411485820E+02  0.46566104347E+02  0.00000000000E+00 0. -1.
         -5    1    3    3    0  503  0.69454054822E+01  0.46035285303E+02 -0.84633052776E+01  0.47552115478E+02  0.47000000000E+01 0.  1.
         11    1    4    4    0    0 -0.11364963883E+02  0.81997767283E+01 -0.10276585823E+03  0.10371702059E+03  0.00000000000E+00 0. -1.
        -12    1    4    4    0    0  0.57160488750E-01 -0.69216484115E+02 -0.97191733316E+02  0.11931956238E+03  0.00000000000E+00 0.  1.
</event>
<event>
12    1  0.8488291E-002  0.1753843E+03  0.7818608E-02  0.1172769E+00
         21   -1    0    0  501  502  0.00000000000E+00  0.00000000000E+00  0.49209752088E+03  0.49209752088E+03  0.00000000000E+00 0. -1.
         21   -1    0    0  502  503 -0.00000000000E+00 -0.00000000000E+00 -0.92590564629E+02  0.92590564629E+02  0.00000000000E+00 0. -1.
         -6    2    1    2    0  503  0.26618464599E+02  0.20186758348E+02  0.32113887680E+02  0.17830015410E+03  0.17217315499E+03 0.  0.
        -24    2    3    3    0    0  0.67165341336E+02  0.51648138691E+02 -0.33209731119E+01  0.11575747247E+03  0.78803872130E+02 0.  0.
          6    2    1    2  501    0 -0.26618464599E+02 -0.20186758348E+02  0.36739306857E+03  0.40638793141E+03  0.17046241842E+03 0.  0.
         24    2    5    5    0    0 -0.29185315791E+02 -0.42175908411E+02  0.10048122699E+03  0.13851831271E+03  0.80375718169E+02 0.  0.
          5    1    5    5  501    0  0.25668511927E+01  0.21989150063E+02  0.26691184158E+03  0.26786961870E+03  0.47000000000E+01 0. -1.
        -11    1    6    6    0    0  0.24597015938E+02 -0.11725343328E+02  0.10171929277E+02  0.29085477724E+02  0.00000000000E+00 0.  1.
         12    1    6    6    0    0 -0.53782331730E+02 -0.30450565082E+02  0.90309297713E+02  0.10943283499E+03  0.00000000000E+00 0. -1.
         -5    1    3    3    0  503 -0.40546876737E+02 -0.31461380343E+02  0.35434860792E+02  0.62542681631E+02  0.47000000000E+01 0.  1.
         13    1    4    4    0    0 -0.13607996711E+02  0.34697274531E+01 -0.15506919392E+02  0.20920830101E+02  0.00000000000E+00 0. -1.
        -14    1    4    4    0    0  0.80773338047E+02  0.48178411238E+02  0.12185946280E+02  0.94836642366E+02  0.00000000000E+00 0.  1.
</event>
<event>
12    1  0.8488291E-002  0.2176577E+03  0.7818608E-02  0.1135750E+00
         21   -1    0    0  501  502  0.00000000000E+00  0.00000000000E+00  0.43230732403E+03  0.43230732403E+03  0.00000000000E+00 0.  1.
         21   -1    0    0  502  503 -0.00000000000E+00 -0.00000000000E+00 -0.12243832000E+03  0.12243832000E+03  0.00000000000E+00 0.  1.
         -6    2    1    2    0  503  0.11470951838E+03 -0.65668556798E+02  0.63878417072E+02  0.22628522049E+03  0.17220312392E+03 0.  0.
        -24    2    3    3    0    0  0.44902547963E+02 -0.10221950040E+03  0.33524443068E+02  0.14171313092E+03  0.80583237196E+02 0.  0.
          6    2    1    2  501    0 -0.11470951838E+03  0.65668556798E+02  0.24599058696E+03  0.32846042354E+03  0.17292844763E+03 0.  0.
         24    2    5    5    0    0 -0.11229833792E+03 -0.53902328760E+01  0.20158190767E+03  0.24449980076E+03  0.80653057976E+02 0.  0.
          5    1    5    5  501    0 -0.24111804594E+01  0.71058789674E+02  0.44408679291E+02  0.83960622779E+02  0.47000000000E+01 0. -1.
        -13    1    6    6    0    0 -0.71971310311E+02  0.34371633415E+02  0.97105518444E+02  0.12566129238E+03  0.00000000000E+00 0.  1.
         14    1    6    6    0    0 -0.40327027606E+02 -0.39761866291E+02  0.10447638923E+03  0.11883850837E+03  0.00000000000E+00 0. -1.
         -5    1    3    3    0  503  0.69806970413E+02  0.36550943603E+02  0.30353974004E+02  0.84572089571E+02  0.47000000000E+01 0.  1.
         11    1    4    4    0    0 -0.23454939924E+02 -0.32038074037E+02  0.10595511329E+02  0.41095465141E+02  0.00000000000E+00 0. -1.
        -12    1    4    4    0    0  0.68357487887E+02 -0.70181426363E+02  0.22928931739E+02  0.10061766578E+03  0.00000000000E+00 0.  1.
</event>
<event>
12    1  0.8488291E-002  0.1932582E+03  0.7818608E-02  0.1156095E+00
         21   -1    0    0  503  502  0.00000000000E+00  0.00000000000E+00  0.33313913972E+03  0.33313913972E+03  0.00000000000E+00 0.  1.
         21   -1    0    0  501  503 -0.00000000000E+00 -0.00000000000E+00 -0.11422674647E+03  0.11422674647E+03  0.00000000000E+00 0. -1.
          6    2    1    2  501    0 -0.31199112473E+02  0.79265090392E+02  0.14805996247E+03  0.24152908723E+03  0.17075774746E+03 0.  0.
         24    2    3    3    0    0 -0.23691066114E+02  0.10262497700E+03  0.16509037815E+03  0.21129367553E+03  0.79353839514E+02 0.  0.
         -6    2    1    2    0  502  0.31199112473E+02 -0.79265090392E+02  0.70852430777E+02  0.20583679896E+03  0.17347155872E+03 0.  0.
        -24    2    5    5    0    0  0.57219725430E+02  0.38539880414E+01  0.16514608670E+02  0.10307229920E+03  0.84036994007E+02 0.  0.
          5    1    3    3  501    0 -0.75080463595E+01 -0.23359886607E+02 -0.17030415678E+02  0.30235411699E+02  0.47000000000E+01 0. -1.
        -11    1    4    4    0    0 -0.19526495576E+02  0.57445274438E+02  0.27872225224E+02  0.66769038660E+02  0.00000000000E+00 0.  1.
         12    1    4    4    0    0 -0.41645705383E+01  0.45179702562E+02  0.13721815293E+03  0.14452463687E+03  0.00000000000E+00 0. -1.
         -5    1    5    5    0  502 -0.26020612956E+02 -0.83119078434E+02  0.54337822107E+02  0.10276449975E+03  0.47000000000E+01 0.  1.
         13    1    6    6    0    0  0.69159415482E+01 -0.22043765100E+02 -0.24130727506E+02  0.33407332088E+02  0.00000000000E+00 0. -1.
        -14    1    6    6    0    0  0.50303783881E+02  0.25897753141E+02  0.40645336175E+02  0.69664967117E+02  0.00000000000E+00 0.  1.
</event>
<event>
12    1  0.8488291E-002  0.2948337E+03  0.7818608E-02  0.1087901E+00
         21   -1    0    0  503  502  0.00000000000E+00  0.00000000000E+00  0.85771635671E+03  0.85771635671E+03  0.00000000000E+00 0. -1.
         21   -1    0    0  501  503 -0.00000000000E+00 -0.00000000000E+00 -0.10172967386E+03  0.10172967386E+03  0.00000000000E+00 0.  1.
          6    2    1    2  501    0  0.21388972821E+03 -0.10669134049E+03  0.41182333527E+03  0.50626246277E+03  0.17196326286E+03 0.  0.
         24    2    3    3    0    0  0.16498045395E+03 -0.14256223682E+03  0.34575490642E+03  0.41645174180E+03  0.79643307173E+02 0.  0.
         -6    2    1    2    0  502 -0.21388972821E+03  0.10669134049E+03  0.34416334758E+03  0.45318356780E+03  0.17261250922E+03 0.  0.
        -24    2    5    5    0    0 -0.10785212612E+03  0.21698132470E+02  0.25893969967E+03  0.29270622165E+03  0.80772978541E+02 0.  0.
          5    1    3    3  501    0  0.48909274258E+02  0.35870896331E+02  0.66068428843E+02  0.89810720974E+02  0.47000000000E+01 0. -1.
        -11    1    4    4    0    0  0.58072477473E+02 -0.55982673231E+01  0.83476695435E+02  0.10184356591E+03  0.00000000000E+00 0.  1.
         12    1    4    4    0    0  0.10690797648E+03 -0.13696396950E+03  0.26227821099E+03  0.31460817588E+03  0.00000000000E+00 0. -1.
         -5    1    5    5    0  502 -0.10603760209E+03  0.84993208017E+02  0.85223647906E+02  0.16047734615E+03  0.47000000000E+01 0.  1.
         11    1    6    6    0    0 -0.97863614352E+02  0.46471257967E+02  0.18913327472E+03  0.21796389710E+03  0.00000000000E+00 0. -1.
        -12    1    6    6    0    0 -0.99885117630E+01 -0.24773125497E+02  0.69806424955E+02  0.74742324549E+02  0.00000000000E+00 0.  1.
</event>
<event>
12    1  0.8488291E-002  0.3443322E+03  0.7818608E-02  0.1064972E+00
         21   -1    0    0  501  502  0.00000000000E+00  0.00000000000E+00  0.34766814802E+03  0.34766814802E+03  0.00000000000E+00 0. -1.
         21   -1    0    0  502  503 -0.00000000000E+00 -0.00000000000E+00 -0.35318651917E+03  0.35318651917E+03  0.00000000000E+00 0.  1.
         -6    2    1    2    0  503  0.28976320687E+03 -0.71407194298E+02  0.62421536714E+02  0.34988384902E+03  0.17164077636E+03 0.  0.
        -24    2    3    3    0    0  0.52219166375E+02 -0.38900201688E+02  0.84663386755E+01  0.10408488821E+03  0.80758392965E+02 0.  0.
          6    2    1    2  501    0 -0.28976320687E+03  0.71407194298E+02 -0.67939907864E+02  0.35097081816E+03  0.17176431721E+03 0.  0.
         24    2    5    5    0    0 -0.21818311564E+03  0.48760159819E+02 -0.11285317921E+03  0.26335866390E+03  0.81489389858E+02 0.  0.
          5    1    5    5  501    0 -0.71580091234E+02  0.22647034479E+02  0.44913271343E+02  0.87612154262E+02  0.47000000000E+01 0. -1.
        -11    1    6    6    0    0 -0.61369772654E+02 -0.22336006339E+02 -0.23758311245E+02  0.69495348967E+02  0.00000000000E+00 0.  1.
         12    1    6    6    0    0 -0.15681334298E+03  0.71096166158E+02 -0.89094867962E+02  0.19386331493E+03  0.00000000000E+00 0. -1.
         -5    1    3    3    0  503  0.23754404049E+03 -0.32506992610E+02  0.53955198038E+02  0.24579896082E+03  0.47000000000E+01 0.  1.
         11    1    4    4    0    0  0.72246868102E+02 -0.18420367684E+02  0.10838744831E+02  0.75341876043E+02  0.00000000000E+00 0. -1.
        -12    1    4    4    0    0 -0.20027701727E+02 -0.20479834004E+02 -0.23724061556E+01  0.28743012164E+02  0.00000000000E+00 0.  1.
</event>
<event>
12    1  0.8488291E-002  0.2752917E+03  0.7818608E-02  0.1098330E+00
         21   -1    0    0  503  502  0.00000000000E+00  0.00000000000E+00  0.63144664177E+03  0.63144664177E+03  0.00000000000E+00 0. -1.
         21   -1    0    0  501  503 -0.00000000000E+00 -0.00000000000E+00 -0.17091570300E+03  0.17091570300E+03  0.00000000000E+00 0. -1.
          6    2    1    2  501    0  0.21178966960E+03  0.38211894239E+02  0.11148334054E+02  0.27551736944E+03  0.17166980660E+03 0.  0.
         24    2    3    3    0    0  0.96409577605E+02  0.82591533977E+02 -0.73252202040E+01  0.15043547523E+03  0.80380378310E+02 0.  0.
         -6    2    1    2    0  502 -0.21178966960E+03 -0.38211894239E+02  0.44938260472E+03  0.52684497534E+03  0.17118963056E+03 0.  0.
        -24    2    5    5    0    0 -0.20487510270E+03 -0.66202301334E+02  0.31833978470E+03  0.39258558162E+03  0.80166501510E+02 0.  0.
          5    1    3    3  501    0  0.11538009200E+03 -0.44379639737E+02  0.18473554257E+02  0.12508189421E+03  0.47000000000E+01 0. -1.
        -13    1    4    4    0    0  0.18771811040E+02  0.30633098468E+02 -0.37819899303E+02  0.52164282749E+02  0.00000000000E+00 0.  1.
         14    1    4    4    0    0  0.77637766565E+02  0.51958435509E+02  0.30494679099E+02  0.98271192478E+02  0.00000000000E+00 0. -1.
         -5    1    5    5    0  502 -0.69145669020E+01  0.27990407095E+02  0.13104282002E+03  0.13425939372E+03  0.47000000000E+01 0.  1.
         11    1    6    6    0    0 -0.36836941461E+02 -0.37841519766E+02  0.40115199493E+02  0.66318701018E+02  0.00000000000E+00 0. -1.
        -12    1    6    6    0    0 -0.16803816124E+03 -0.28360781568E+02  0.27822458520E+03  0.32626688060E+03  0.00000000000E+00 0.  1.
</event>
<event>
12    1  0.8488291E-002  0.1758471E+03  0.7818608E-02  0.1172183E+00
         21   -1    0    0  501  502  0.00000000000E+00  0.00000000000E+00  0.91249837359E+02  0.91249837359E+02  0.00000000000E+00 0. -1.
         21   -1    0    0  502  503 -0.00000000000E+00 -0.00000000000E+00 -0.44076028093E+03  0.44076028093E+03  0.00000000000E+00 0. -1.
         -6    2    1    2    0  503 -0.31763175721E+02 -0.10892443171E+02 -0.30362834548E+03  0.35027575619E+03  0.17139249851E+03 0.  0.
        -24    2    3    3    0    0  0.19032624940E+02  0.31998530390E+02 -0.60423736697E+02  0.98104344823E+02  0.67729519100E+02 0.  0.
          6    2    1    2  501    0  0.31763175721E+02  0.10892443171E+02 -0.45882098090E+02  0.18173436210E+03  0.17261131710E+03 0.  0.
         24    2    5    5    0    0  0.58415282728E+02 -0.52606517618E+01 -0.95282310534E+02  0.12313633932E+03  0.51418086777E+02 0.  0.
          5    1    5    5  501    0 -0.26652107006E+02  0.16153094933E+02  0.49400212443E+02  0.58598022776E+02  0.47000000000E+01 0. -1.
        -13    1    6    6    0    0  0.13383522428E+02  0.10018744742E+02 -0.64163906372E+02  0.66306114346E+02  0.00000000000E+00 0.  1.
         14    1    6    6    0    0  0.45031760299E+02 -0.15279396504E+02 -0.31118404162E+02  0.56830224975E+02  0.00000000000E+00 0. -1.
         -5    1    3    3    0  503 -0.50795800661E+02 -0.42890973561E+02 -0.24320460878E+03  0.25217141137E+03  0.47000000000E+01 0.  1.
         11    1    4    4    0    0 -0.52348126695E+01  0.15114859655E+02 -0.66094419136E+02  0.68002459418E+02  0.00000000000E+00 0. -1.
        -12    1    4    4    0    0  0.24267437610E+02  0.16883670735E+02  0.56706824381E+01  0.30101885405E+02  0.00000000000E+00 0.  1.
</event>
<event>
12    1  0.8488291E-002  0.3012959E+03  0.7818608E-02  0.1084705E+00
         21   -1    0    0  503  502  0.00000000000E+00  0.00000000000E+00  0.22057575020E+03  0.22057575020E+03  0.00000000000E+00 0. -1.
         21   -1    0    0  501  503 -0.00000000000E+00 -0.00000000000E+00 -0.20382491448E+04  0.20382491448E+04  0.00000000000E+00 0. -1.
          6    2    1    2  501    0 -0.21085103283E+03  0.12748505870E+03 -0.19179083175E+04  0.19412934280E+04  0.17186407815E+03 0.  0.
         24    2    3    3    0    0 -0.78251790296E+02  0.22738359010E+01 -0.93334361048E+03  0.93996922397E+03  0.79267482460E+02 0.  0.
         -6    2    1    2    0  502  0.21085103283E+03 -0.12748505870E+03  0.10023492284E+03  0.31753146697E+03  0.17340298303E+03 0.  0.
        -24    2    5    5    0    0  0.18597575454E+03 -0.35286425006E+02  0.62068876096E+02  0.21458437061E+03  0.79760852958E+02 0.  0.
          5    1    3    3  501    0 -0.13259924254E+03  0.12521122280E+03 -0.98456470698E+03  0.10013242041E+04  0.47000000000E+01 0. -1.
        -11    1    4    4    0    0 -0.43486184608E+02 -0.11541206026E+02 -0.17459115433E+03  0.18029508829E+03  0.00000000000E+00 0.  1.
         12    1    4    4    0    0 -0.34765605688E+02  0.13815041927E+02 -0.75875245615E+03  0.75967413569E+03  0.00000000000E+00 0. -1.
         -5    1    5    5    0  502  0.24875278294E+02 -0.92198633696E+02  0.38166046740E+02  0.10294709636E+03  0.47000000000E+01 0.  1.
         11    1    6    6    0    0  0.10782061719E+03 -0.56552570817E+02  0.53990408099E+02  0.13318574595E+03  0.00000000000E+00 0. -1.
        -12    1    6    6    0    0  0.78155137347E+02  0.21266145811E+02  0.80784679965E+01  0.81398624660E+02  0.00000000000E+00 0.  1.
</event>
<event>
12    1  0.8488291E-002  0.2328687E+03  0.7818608E-02  0.1124702E+00
         21   -1    0    0  501  502  0.00000000000E+00  0.00000000000E+00  0.25914092795E+03  0.25914092795E+03  0.00000000000E+00 0.  1.
         21   -1    0    0  502  503 -0.00000000000E+00 -0.00000000000E+00 -0.20892384274E+03  0.20892384274E+03  0.00000000000E+00 0.  1.
         -6    2    1    2    0  503 -0.13967542722E+03  0.74222821189E+02  0.24957742891E+02  0.23383012701E+03  0.17039773242E+03 0.  0.
        -24    2    3    3    0    0 -0.57094241470E+02  0.74442171577E+02  0.70242666103E+02  0.13952999644E+03  0.75717887242E+02 0.  0.
          6    2    1    2  501    0  0.13967542722E+03 -0.74222821189E+02  0.25259342318E+02  0.23423464367E+03  0.17090810913E+03 0.  0.
         24    2    5    5    0    0  0.15966122252E+03 -0.47191033647E+02  0.51247232420E+02  0.19148408831E+03  0.79505833835E+02 0.  0.
          5    1    5    5  501    0 -0.19985795295E+02 -0.27031787541E+02 -0.25987890102E+02  0.42750555356E+02  0.47000000000E+01 0. -1.
        -11    1    6    6    0    0  0.73279007621E+02 -0.51904045889E+02  0.54263591017E+02  0.10492082847E+03  0.00000000000E+00 0.  1.
         12    1    6    6    0    0  0.86382214898E+02  0.47130122414E+01 -0.30163585966E+01  0.86563259840E+02  0.00000000000E+00 0. -1.
         -5    1    3    3    0  503 -0.82581185753E+02 -0.21935038857E+00 -0.45284923212E+02  0.94300130569E+02  0.47000000000E+01 0.  1.
         13    1    4    4    0    0  0.10987753921E+01 -0.13066703588E+02  0.17720760348E+02  0.22044758953E+02  0.00000000000E+00 0. -1.
        -14    1    4    4    0    0 -0.58193016862E+02  0.87508875165E+02  0.52521905755E+02  0.11748523749E+03  0.00000000000E+00 0.  1.
</event>
<event>
12    1  0.8488291E-002  0.2305155E+03  0.7818608E-02  0.1126455E+00
         21   -1    0    0  501  502  0.00000000000E+00  0.00000000000E+00  0.22011220873E+04  0.22011220873E+04  0.00000000000E+00 0.  1.
         21   -1    0    0  502  503 -0.00000000000E+00 -0.00000000000E+00 -0.76602321546E+02  0.76602321546E+02  0.00000000000E+00 0.  1.
         -6    2    1    2    0  503  0.15012686851E+03 -0.34123077792E+02  0.11956932017E+03  0.25968095163E+03  0.17156606083E+03 0.  0.
        -24    2    3    3    0    0  0.14353303919E+03 -0.79400787236E+02  0.10465523897E+03  0.21132736464E+03  0.82464038513E+02 0.  0.
          6    2    1    2  501    0 -0.15012686851E+03  0.34123077792E+02  0.20049504456E+04  0.20180434572E+04  0.17020765215E+03 0.  0.
         24    2    5    5    0    0 -0.13708892693E+03  0.81275082755E+02  0.16422050875E+04  0.16519839207E+04  0.82548844454E+02 0.  0.
          5    1    5    5  501    0 -0.13037941583E+02 -0.47152004963E+02  0.36274535804E+03  0.36605953651E+03  0.47000000000E+01 0. -1.
        -11    1    6    6    0    0 -0.10792509507E+03  0.61269796507E+02  0.85235543769E+03  0.86134290865E+03  0.00000000000E+00 0.  1.
         12    1    6    6    0    0 -0.29163831857E+02  0.20005286249E+02  0.78984964983E+03  0.79064101203E+03  0.00000000000E+00 0. -1.
         -5    1    3    3    0  503  0.65938293192E+01  0.45277709443E+02  0.14914081198E+02  0.48353586997E+02  0.47000000000E+01 0.  1.
         13    1    4    4    0    0  0.54295157757E+01  0.28190581193E+01 -0.11497776094E+02  0.13024038749E+02  0.00000000000E+00 0. -1.
        -14    1    4    4    0    0  0.13810352341E+03 -0.82219845355E+02  0.11615301506E+03  0.19830332589E+03  0.00000000000E+00 0.  1.
</event>
<event>
12    1  0.8488291E-002  0.2083304E+03  0.7818608E-02  0.1143213E+00
         21   -1    0    0  501  502  0.00000000000E+00  0.00000000000E+00  0.15571002071E+03  0.15571002071E+03  0.00000000000E+00 0. -1.
         21   -1    0    0  502  503 -0.00000000000E+00 -0.00000000000E+00 -0.43361871870E+03  0.43361871870E+03  0.00000000000E+00 0. -1.
         -6    2    1    2    0  503  0.69202594293E+02  0.94721716162E+02 -0.31592026752E+03  0.37755901495E+03  0.17024685538E+03 0.  0.
        -24    2    3    3    0    0 -0.15281400352E+02  0.76720438843E+02 -0.23013788989E+03  0.25573004611E+03  0.79466100858E+02 0.  0.
          6    2    1    2  501    0 -0.69202594293E+02 -0.94721716162E+02  0.38011569528E+02  0.21176972447E+03  0.17216368436E+03 0.  0.
         24    2    5    5    0    0 -0.92759771550E+02 -0.45294272147E+02 -0.20407366369E+02  0.13156451956E+03  0.78973513903E+02 0.  0.
          5    1    5    5  501    0  0.23557177257E+02 -0.49427444014E+02  0.58418935898E+02  0.80205204903E+02  0.47000000000E+01 0. -1.
        -11    1    6    6    0    0 -0.35117863891E+02  0.17538344888E+02 -0.24372957925E+02  0.46204967089E+02  0.00000000000E+00 0.  1.
         12    1    6    6    0    0 -0.57641907659E+02 -0.62832617035E+02  0.39655915558E+01  0.85359552473E+02  0.00000000000E+00 0. -1.
         -5    1    3    3    0  503  0.84483994645E+02  0.18001277319E+02 -0.85782377626E+02  0.12182896884E+03  0.47000000000E+01 0.  1.
         11    1    4    4    0    0  0.18816350444E+01  0.87330543863E+02 -0.20893897477E+03  0.22646337368E+03  0.00000000000E+00 0. -1.
        -12    1    4    4    0    0 -0.17163035397E+02 -0.10610105020E+02 -0.21198915125E+02  0.29266672429E+02  0.00000000000E+00 0.  1.
</event>
<event>
12    1  0.8488291E-002  0.2281962E+03  0.7818608E-02  0.1127972E+00
         21   -1    0    0  503  502  0.00000000000E+00  0.00000000000E+00  0.10185671573E+03  0.10185671573E+03  0.00000000000E+00 0. -1.
         21   -1    0    0  501  503 -0.00000000000E+00 -0.00000000000E+00 -0.51108247507E+03  0.51108247507E+03  0.00000000000E+00 0. -1.
          6    2    1    2  501    0 -0.13988718150E+03 -0.54336406675E+02 -0.19445378716E+03  0.29956959205E+03  0.17148993119E+03 0.  0.
         24    2    3    3    0    0 -0.66603047316E+02 -0.98374912454E+02 -0.99801907864E+02  0.17193330187E+03  0.74074625666E+02 0.  0.
         -6    2    1    2    0  502  0.13988718150E+03  0.54336406675E+02 -0.21477197219E+03  0.31336959875E+03  0.17190880357E+03 0.  0.
        -24    2    5    5    0    0  0.36342897473E+02  0.46698373351E+02 -0.32646125109E+02  0.10367536306E+03  0.78621035041E+02 0.  0.
          5    1    3    3  501    0 -0.73284134188E+02  0.44038505779E+02 -0.94651879297E+02  0.12763629017E+03  0.47000000000E+01 0. -1.
        -13    1    4    4    0    0 -0.26701719341E+02  0.17325921431E+01 -0.27360127614E+01  0.26897387552E+02  0.00000000000E+00 0.  1.
         14    1    4    4    0    0 -0.39901327975E+02 -0.10010750460E+03 -0.97065895102E+02  0.14503591432E+03  0.00000000000E+00 0. -1.
         -5    1    5    5    0  502  0.10354428403E+03  0.76380333235E+01 -0.18212584708E+03  0.20969423569E+03  0.47000000000E+01 0.  1.
         13    1    6    6    0    0  0.26786559435E+02  0.36609287633E+02 -0.58677216195E+02  0.74167212485E+02  0.00000000000E+00 0. -1.
        -14    1    6    6    0    0  0.95563380380E+01  0.10089085718E+02  0.26031091086E+02  0.29508150576E+02  0.00000000000E+00 0.  1.
</event>
<event>
12    1  0.8488291E-002  0.2714646E+03  0.7818608E-02  0.1100478E+00
         21   -1    0    0  503  502  0.00000000000E+00  0.00000000000E+00  0.30362889037E+03  0.30362889037E+03  0.00000000000E+00 0. -1.
         21   -1    0    0  501  503 -0.00000000000E+00 -0.00000000000E+00 -0.87188059032E+03  0.87188059032E+03  0.00000000000E+00 0. -1.
          6    2    1    2  501    0 -0.20870685143E+03  0.48307940582E+01 -0.78346504188E+03  0.82908514857E+03  0.17315549462E+03 0.  0.
         24    2    3    3    0    0 -0.50169151895E+02 -0.36258665275E+02 -0.21757081506E+03  0.23994941565E+03  0.80043912309E+02 0.  0.
         -6    2    1    2    0  502  0.20870685143E+03 -0.48307940582E+01  0.21521334193E+03  0.34642433213E+03  0.17352564347E+03 0.  0.
        -24    2    5    5    0    0  0.20677054926E+03  0.91458931031E+01  0.23418132203E+03  0.32232098549E+03  0.78817629379E+02 0.  0.
          5    1    3    3  501    0 -0.15853769953E+03  0.41089459334E+02 -0.56589422683E+03  0.58913573291E+03  0.47000000000E+01 0. -1.
        -11    1    4    4    0    0  0.19679249105E+00  0.21264834409E+02 -0.25396325170E+02  0.33124088544E+02  0.00000000000E+00 0.  1.
         12    1    4    4    0    0 -0.50365944386E+02 -0.57523499685E+02 -0.19217448989E+03  0.20682532711E+03  0.00000000000E+00 0. -1.
         -5    1    5    5    0  502  0.19363021658E+01 -0.13976687161E+02 -0.18967980096E+02  0.24103346635E+02  0.47000000000E+01 0.  1.
         13    1    6    6    0    0  0.18290569301E+03  0.10373282494E+01  0.15673476827E+03  0.24087622583E+03  0.00000000000E+00 0. -1.
        -14    1    6    6    0    0  0.23864856250E+02  0.81085648537E+01  0.77446553755E+02  0.81444759662E+02  0.00000000000E+00 0.  1.
</event>
<event>
12    1  0.8488291E-002  0.2667440E+03  0.7818608E-02  0.1103541E+00
         21   -1    0    0  501  502  0.00000000000E+00  0.00000000000E+00  0.40854238771E+03  0.40854238771E+03  0.00000000000E+00 0.  1.
         21   -1    0    0  502  503 -0.00000000000E+00 -0.00000000000E+00 -0.49943072437E+03  0.49943072437E+03  0.00000000000E+00 0. -1.
         -6    2    1    2    0  503  0.67067845391E+01 -0.20388398395E+03 -0.41285610342E+03  0.49153079671E+03  0.17186826966E+03 0.  0.
        -24    2    3    3    0    0  0.64443413808E+02 -0.14484394550E+03 -0.18413582259E+03  0.24831422375E+03  0.51197953326E+02 0.  0.
          6    2    1    2  501    0 -0.67067845391E+01  0.20388398395E+03  0.32196776676E+03  0.41644231537E+03  0.16777156889E+03 0.  0.
         24    2    5    5    0    0 -0.56080055703E+02  0.17314775161E+03  0.28587126641E+03  0.34783121407E+03  0.78352128166E+02 0.  0.
          5    1    5    5  501    0  0.49373271164E+02  0.30736232337E+02  0.36096500352E+02  0.68611101299E+02  0.47000000000E+01 0. -1.
        -11    1    6    6    0    0 -0.43658601844E+02  0.61183274016E+02  0.17174323227E+03  0.18747054266E+03  0.00000000000E+00 0.  1.
         12    1    6    6    0    0 -0.12421453860E+02  0.11196447759E+03  0.11412803414E+03  0.16036067141E+03  0.00000000000E+00 0. -1.
         -5    1    3    3    0  503 -0.57736629269E+02 -0.59040038445E+02 -0.22872028083E+03  0.24321657296E+03  0.47000000000E+01 0.  1.
         11    1    4    4    0    0  0.30281249428E+01  0.12630484913E+01 -0.19553871941E+02  0.19827222197E+02  0.00000000000E+00 0. -1.
        -12    1    4    4    0    0  0.61415288866E+02 -0.14610699399E+03 -0.16458195065E+03  0.22848700156E+03  0.00000000000E+00 0.  1.
</event>
<event>
12    1  0.8488291E-002  0.3740654E+03  0.7818608E-02  0.1053438E+00
         21   -1    0    0  503  502  0.00000000000E+00  0.00000000000E+00  0.14881889264E+04  0.14881889264E+04  0.00000000000E+00 0.  1.
         21   -1    0    0  501  503 -0.00000000000E+00 -0.00000000000E+00 -0.10161426671E+03  0.10161426671E+03  0.00000000000E+00 0. -1.
          6    2    1    2  501    0  0.76407636020E+02  0.32217905477E+03  0.46794597397E+03  0.59908125175E+03  0.17403287468E+03 0.  0.
         24    2    3    3    0    0  0.27884548716E+02  0.61010518296E+02  0.93718288336E+02  0.14013469153E+03  0.79716891564E+02 0.  0.
         -6    2    1    2    0  502 -0.76407636020E+02 -0.32217905477E+03  0.91862868570E+03  0.99072194134E+03  0.16737333328E+03 0.  0.
        -24    2    5    5    0    0 -0.85679354785E+02 -0.13428319509E+03  0.34934931447E+03  0.39114549804E+03  0.74678837679E+02 0.  0.
          5    1    3    3  501    0  0.48523087304E+02  0.26116853647E+03  0.37422768563E+03  0.45894656022E+03  0.47000000000E+01 0. -1.
        -13    1    4    4    0    0 -0.15375592288E+02  0.14344570841E+02  0.68554265923E+02  0.71706784387E+02  0.00000000000E+00 0.  1.
         14    1    4    4    0    0  0.43260141003E+02  0.46665947454E+02  0.25164022412E+02  0.68427907139E+02  0.00000000000E+00 0. -1.
         -5    1    5    5    0  502  0.92717187649E+01 -0.18789585968E+03  0.56927937123E+03  0.59957644330E+03  0.47000000000E+01 0.  1.
         13    1    6    6    0    0 -0.20387827466E+02 -0.41567980259E+02  0.38355330734E+02  0.60122307734E+02  0.00000000000E+00 0. -1.
        -14    1    6    6    0    0 -0.65291527318E+02 -0.92715214834E+02  0.31099398373E+03  0.33102319030E+03  0.00000000000E+00 0.  1.
</event>
<event>
12    1  0.8488291E-002  0.1951713E+03  0.7818608E-02  0.1154443E+00
         21   -1    0    0  503  502  0.00000000000E+00  0.00000000000E+00  0.37568314691E+03  0.37568314691E+03  0.00000000000E+00 0. -1.
         21   -1    0    0  501  503 -0.00000000000E+00 -0.00000000000E+00 -0.11097376052E+03  0.11097376052E+03  0.00000000000E+00 0.  1.
          6    2    1    2  501    0  0.79209540819E+02 -0.35033646584E+02  0.56841178934E+02  0.20328001251E+03  0.17490093228E+03 0.  0.
         24    2    3    3    0    0 -0.21198725162E+02 -0.43965819802E+01  0.51951625016E+02  0.98082829357E+02  0.80327792148E+02 0.  0.
         -6    2    1    2    0  502 -0.79209540819E+02  0.35033646584E+02  0.20786820746E+03  0.28337689493E+03  0.17202257165E+03 0.  0.
        -24    2    5    5    0    0 -0.11176427197E+03 -0.86271148400E+01  0.15448650858E+03  0.20697160465E+03  0.80034268891E+02 0.  0.
          5    1    3    3  501    0  0.10040826598E+03 -0.30637064604E+02  0.48895539177E+01  0.10519718315E+03  0.47000000000E+01 0. -1.
        -11    1    4    4    0    0 -0.20221673982E+02  0.36780872034E+02  0.27579240236E+02  0.50223133496E+02  0.00000000000E+00 0.  1.
         12    1    4    4    0    0 -0.97705117993E+00 -0.41177454014E+02  0.24372384780E+02  0.47859695861E+02  0.00000000000E+00 0. -1.
         -5    1    5    5    0  502  0.32554731148E+02  0.43660761424E+02  0.53381698876E+02  0.76405290283E+02  0.47000000000E+01 0.  1.
         13    1    6    6    0    0 -0.47633406103E+02  0.25857185566E+01  0.12815325316E+03  0.13674386134E+03  0.00000000000E+00 0. -1.
        -14    1    6    6    0    0 -0.64130865864E+02 -0.11212833397E+02  0.26333255421E+02  0.70227743310E+02  0.00000000000E+00 0.  1.
</event>
<event>
12    1  0.8488291E-002  0.2053057E+03  0.7818608E-02  0.1145340E+00
         21   -1    0    0  501  502  0.00000000000E+00  0.00000000000E+00  0.20610136779E+03  0.20610136779E+03  0.00000000000E+00 0. -1.
         21   -1    0    0  502  503 -0.00000000000E+00 -0.00000000000E+00 -0.23553889421E+03  0.23553889421E+03  0.00000000000E+00 0. -1.
         -6    2    1    2    0  503 -0.92369806002E+01 -0.10840972061E+03 -0.94871343194E+02  0.22615937416E+03  0.17409624186E+03 0.  0.
        -24    2    3    3    0    0 -0.45817310781E+02 -0.10496805442E+03 -0.11808136643E+03  0.18244712415E+03  0.78906435712E+02 0.  0.
          6    2    1    2  501    0  0.92369806002E+01  0.10840972061E+03  0.65433816772E+02  0.21548088784E+03  0.17410467919E+03 0.  0.
         24    2    5    5    0    0 -0.39717667861E+02  0.58542262206E+02 -0.15288731493E+02  0.10860927883E+03  0.80978642454E+02 0.  0.
          5    1    5    5  501    0  0.48954648461E+02  0.49867458400E+02  0.80722548265E+02  0.10687160901E+03  0.47000000000E+01 0. -1.
        -13    1    6    6    0    0  0.93826507962E+01 -0.15825066811E+02 -0.19089562026E+01  0.18496242573E+02  0.00000000000E+00 0.  1.
         14    1    6    6    0    0 -0.49100318657E+02  0.74367329017E+02 -0.13379775290E+02  0.90113036261E+02  0.00000000000E+00 0. -1.
         -5    1    3    3    0  503  0.36580330181E+02 -0.34416661826E+01  0.23210023239E+02  0.43712250011E+02  0.47000000000E+01 0.  1.
         11    1    4    4    0    0 -0.11363050942E+02 -0.10230368786E+03 -0.75749814722E+02  0.12780140026E+03  0.00000000000E+00 0. -1.
        -12    1    4    4    0    0 -0.34454259839E+02 -0.26643665627E+01 -0.42331551711E+02  0.54645723899E+02  0.00000000000E+00 0.  1.
</event>
<event>
12    1  0.8488291E-002  0.2100996E+03  0.7818608E-02  0.1141508E+00
         21   -1    0    0  503  502  0.00000000000E+00  0.00000000000E+00  0.71586976968E+03  0.71586976968E+03  0.00000000000E+00 0.  1.
         21   -1    0    0  501  503 -0.00000000000E+00 -0.00000000000E+00 -0.76010538331E+02  0.76010538331E+02  0.00000000000E+00 0. -1.
          6    2    1    2  501    0  0.49513282008E+02 -0.10934592925E+03  0.14765326452E+03  0.25670880698E+03  0.17230736409E+03 0.  0.
         24    2    3    3    0    0  0.18125411187E+02 -0.68584483127E+02  0.16545391616E+03  0.20206773156E+03  0.91782394332E+02 0.  0.
         -6    2    1    2    0  502 -0.49513282008E+02  0.10934592925E+03  0.49220596684E+03  0.53517150103E+03  0.17243469602E+03 0.  0.
        -24    2    5    5    0    0 -0.54218363664E+02  0.14390422029E+03  0.38644676786E+03  0.42371069429E+03  0.80880111822E+02 0.  0.
          5    1    3    3  501    0  0.31387870821E+02 -0.40761446122E+02 -0.17800651640E+02  0.54641075423E+02  0.47000000000E+01 0. -1.
        -13    1    4    4    0    0  0.32214866068E+02 -0.80671148262E+02  0.16105955583E+03  0.18299129018E+03  0.00000000000E+00 0.  1.
         14    1    4    4    0    0 -0.14089454880E+02  0.12086665135E+02  0.43943603235E+01  0.19076441376E+02  0.00000000000E+00 0. -1.
         -5    1    5    5    0  502  0.47050816560E+01 -0.34558291037E+02  0.10575919897E+03  0.11146080674E+03  0.47000000000E+01 0.  1.
         13    1    6    6    0    0 -0.43431312244E+02  0.23603247239E+02  0.76710073689E+02  0.91256931621E+02  0.00000000000E+00 0. -1.
        -14    1    6    6    0    0 -0.10787051420E+02  0.12030097305E+03  0.30973669417E+03  0.33245376267E+03  0.00000000000E+00 0.  1.
</event>
<event>
12    1  0.8488291E-002  0.2286689E+03  0.7818608E-02  0.1128844E+00
         21   -1    0    0  501  502  0.00000000000E+00  0.00000000000E+00  0.69316837571E+02  0.69316837571E+02  0.00000000000E+00 0. -1.
         21   -1    0    0  502  503 -0.00000000000E+00 -0.00000000000E+00 -0.92227041413E+03  0.92227041413E+03  0.00000000000E+00 0. -1.
         -6    2    1    2    0  503  0.99563654735E+02  0.10185880932E+03 -0.65726273522E+03  0.69590500229E+03  0.17888915767E+03 0.  0.
        -24    2    3    3    0    0  0.57885072390E+02  0.36459301518E+02 -0.56799152274E+03  0.57755957896E+03  0.79251088768E+02 0.  0.
          6    2    1    2  501    0 -0.99563654735E+02 -0.10185880932E+03 -0.19569084135E+03  0.29568224941E+03  0.16983800767E+03 0.  0.
         24    2    5    5    0    0 -0.11330247978E+03 -0.52972710544E+02 -0.79723492124E+02  0.16899711985E+03  0.80997724251E+02 0.  0.
          5    1    5    5  501    0  0.13738825045E+02 -0.48886098775E+02 -0.11596734922E+03  0.12668512956E+03  0.47000000000E+01 0. -1.
        -13    1    6    6    0    0 -0.50864526459E+02 -0.52405347725E+02 -0.77541370424E+02  0.10651847093E+03  0.00000000000E+00 0.  1.
         14    1    6    6    0    0 -0.62437953321E+02 -0.56736281878E+00 -0.21821217000E+01  0.62478648918E+02  0.00000000000E+00 0. -1.
         -5    1    3    3    0  503  0.41678582345E+02  0.65399507800E+02 -0.89271212475E+02  0.11834542333E+03  0.47000000000E+01 0.  1.
         11    1    4    4    0    0  0.65432161736E+02  0.53948320827E+02 -0.48936187693E+03  0.49665565103E+03  0.00000000000E+00 0. -1.
        -12    1    4    4    0    0 -0.75470893456E+01 -0.17489019309E+02 -0.78629645810E+02  0.80903927928E+02  0.00000000000E+00 0.  1.
</event>
<event>
12    1  0.8488291E-002  0.2144607E+03  0.7818608E-02  0.1139199E+00
         21   -1    0    0  503  502  0.00000000000E+00  0.00000000000E+00  0.13105358813E+04  0.13105358813E+04  0.00000000000E+00 0. -1.
         21   -1    0    0  501  503 -0.00000000000E+00 -0.00000000000E+00 -0.34418210432E+02  0.34418210432E+02  0.00000000000E+00 0. -1.
          6    2    1    2  501    0 -0.11387111390E+03  0.36147132148E+02  0.58903891104E+03  0.62686541335E+03  0.17810154968E+03 0.  0.
         24    2    3    3    0    0 -0.78356214769E+02  0.43866236499E+02  0.18622664671E+03  0.22238957610E+03  0.81931779628E+02 0.  0.
         -6    2    1    2    0  502  0.11387111390E+03 -0.36147132148E+02  0.68707875979E+03  0.71808867834E+03  0.17117500420E+03 0.  0.
        -24    2    5    5    0    0  0.70625640044E+02 -0.55842076423E+02  0.64622346415E+03  0.65524516618E+03  0.60292152512E+02 0.  0.
          5    1    3    3  501    0 -0.35514899127E+02 -0.77191043516E+01  0.40281226433E+03  0.40447583726E+03  0.47000000000E+01 0. -1.
        -11    1    4    4    0    0 -0.19196730092E+02 -0.23941795350E+02  0.59709101747E+02  0.67133455462E+02  0.00000000000E+00 0.  1.
         12    1    4    4    0    0 -0.59159484677E+02  0.67808031849E+02  0.12651754496E+03  0.15525612063E+03  0.00000000000E+00 0. -1.
         -5    1    5    5    0  502  0.43245473852E+02  0.19694944275E+02  0.40855295638E+02  0.62843512158E+02  0.47000000000E+01 0.  1.
         11    1    6    6    0    0  0.64991589279E+02 -0.48966298400E+02  0.36841858677E+03  0.37729810513E+03  0.00000000000E+00 0. -1.
        -12    1    6    6    0    0  0.56340507651E+01 -0.68757780223E+01  0.27780487738E+03  0.27794706106E+03  0.00000000000E+00 0.  1.
</event>
<event>
12    1  0.8488291E-002  0.2887924E+03  0.7818608E-02  0.1091540E+00
         21   -1    0    0  501  502  0.00000000000E+00  0.00000000000E+00  0.13668367418E+03  0.13668367418E+03  0.00000000000E+00 0. -1.
         21   -1    0    0  502  503 -0.00000000000E+00 -0.00000000000E+00 -0.64713386450E+03  0.64713386450E+03  0.00000000000E+00 0.  1.
         -6    2    1    2    0  503 -0.23023158778E+03 -0.21027421656E+02 -0.15265698100E+03  0.32665764374E+03  0.17306740275E+03 0.  0.
        -24    2    3    3    0    0 -0.12856247925E+03  0.54955967253E+02 -0.67385641490E+02  0.17367602929E+03  0.77936314145E+02 0.  0.
          6    2    1    2  501    0  0.23023158778E+03  0.21027421656E+02 -0.35779320932E+03  0.45715989495E+03  0.16592303167E+03 0.  0.
         24    2    5    5    0    0  0.86342568316E+02  0.42130586268E+02 -0.23737533964E+03  0.26828970985E+03  0.80014318357E+02 0.  0.
          5    1    5    5  501    0  0.14388901946E+03 -0.21103164613E+02 -0.12041786969E+03  0.18887018510E+03  0.47000000000E+01 0. -1.
        -13    1    6    6    0    0 -0.14109223385E+02  0.67662271483E+01 -0.14749714353E+02  0.21503629643E+02  0.00000000000E+00 0.  1.
         14    1    6    6    0    0  0.10045179170E+03  0.35364359120E+02 -0.22262562528E+03  0.24678608021E+03  0.00000000000E+00 0. -1.
         -5    1    3    3    0  503 -0.10166910853E+03 -0.75983388909E+02 -0.85271339507E+02  0.15298161445E+03  0.47000000000E+01 0.  1.
         11    1    4    4    0    0 -0.70988654307E+01  0.24585334193E+02 -0.36746252928E+02  0.44778562416E+02  0.00000000000E+00 0. -1.
        -12    1    4    4    0    0 -0.12146361382E+03  0.30370633061E+02 -0.30639388562E+02  0.12889746687E+03  0.00000000000E+00 0.  1.
</event>
<event>
12    1  0.8488291E-002  0.2388878E+03  0.7818608E-02  0.1120917E+00
         21   -1    0    0  503  502  0.00000000000E+00  0.00000000000E+00  0.64146819618E+02  0.64146819618E+02  0.00000000000E+00 0.  1.
         21   -1    0    0  501  503 -0.00000000000E+00 -0.00000000000E+00 -0.10251697361E+04  0.10251697361E+04  0.00000000000E+00 0. -1.
          6    2    1    2  501    0  0.13263318710E+02  0.16293588222E+03 -0.68263276385E+03  0.72248085068E+03  0.17107621687E+03 0.  0.
         24    2    3    3    0    0  0.38210012670E+02  0.55565465889E+02 -0.18220743626E+03  0.21003734907E+03  0.79803584568E+02 0.  0.
         -6    2    1    2    0  502 -0.13263318710E+02 -0.16293588222E+03 -0.27839015267E+03  0.36683570508E+03  0.17419339850E+03 0.  0.
        -24    2    5    5    0    0 -0.45563925598E+02 -0.47511764616E+02 -0.64234189629E+02  0.12137507150E+03  0.79198723298E+02 0.  0.
          5    1    3    3  501    0 -0.24946693960E+02  0.10737041633E+03 -0.50042532759E+03  0.51244350160E+03  0.47000000000E+01 0. -1.
        -11    1    4    4    0    0 -0.52436049943E+01 -0.95527625406E+01 -0.82756117120E+02  0.83470507284E+02  0.00000000000E+00 0.  1.
         12    1    4    4    0    0  0.43453617664E+02  0.65118228430E+02 -0.99451319139E+02  0.12656684179E+03  0.00000000000E+00 0. -1.
         -5    1    5    5    0  502  0.32300606887E+02 -0.11542411760E+03 -0.21415596304E+03  0.24546063358E+03  0.47000000000E+01 0.  1.
         11    1    6    6    0    0 -0.56636937151E+01 -0.17001116551E+02 -0.68652209836E+02  0.70952387598E+02  0.00000000000E+00 0. -1.
        -12    1    6    6    0    0 -0.39900231882E+02 -0.30510648064E+02  0.44180202069E+01  0.50422683904E+02  0.00000000000E+00 0.  1.
</event>
<event>
12    1  0.8488291E-002  0.1797136E+03  0.7818608E-02  0.1168364E+00
         21   -1    0    0  501  502  0.00000000000E+00  0.00000000000E+00  0.92915370223E+02  0.92915370223E+02  0.00000000000E+00 0. -1.
         21   -1    0    0  502  503 -0.00000000000E+00 -0.00000000000E+00 -0.65815088041E+03  0.65815088041E+03  0.00000000000E+00 0. -1.
         -6    2    1    2    0  503  0.23139032365E+02 -0.43710964415E+02 -0.54199478412E+03  0.57101253341E+03  0.17277414178E+03 0.  0.
        -24    2    3    3    0    0 -0.18375930085E+02  0.10122089601E+01 -0.46708387708E+03  0.47427893874E+03  0.80215111612E+02 0.  0.
          6    2    1    2  501    0 -0.23139032365E+02  0.43710964415E+02 -0.23240726074E+02  0.18005371723E+03  0.17156091196E+03 0.  0.
         24    2    5    5    0    0 -0.66537770429E+02  0.48041496802E+02  0.22989026593E+02  0.11632394391E+03  0.79167570849E+02 0.  0.
          5    1    5    5  501    0  0.43398738063E+02 -0.43305323869E+01 -0.46229752667E+02  0.63729773324E+02  0.47000000000E+01 0. -1.
        -11    1    6    6    0    0 -0.40598297008E+02 -0.15213100398E+02  0.20383387418E+02  0.47907646846E+02  0.00000000000E+00 0.  1.
         12    1    6    6    0    0 -0.25939473420E+02  0.63254597200E+02  0.26056391749E+01  0.68416297062E+02  0.00000000000E+00 0. -1.
         -5    1    3    3    0  503  0.41514962450E+02 -0.44723173375E+02 -0.74910907040E+02  0.96733594668E+02  0.47000000000E+01 0.  1.
         13    1    4    4    0    0  0.10052076298E+02  0.51495036451E+00 -0.41346986259E+03  0.41359235569E+03  0.00000000000E+00 0. -1.
        -14    1    4    4    0    0 -0.28428006383E+02  0.49725859559E+00 -0.53614014488E+02  0.60686583052E+02  0.00000000000E+00 0.  1.
</event>
<event>
12    1  0.8488291E-002  0.1924271E+03  0.7818608E-02  0.1156508E+00
         21   -1    0    0  503  502  0.00000000000E+00  0.00000000000E+00  0.53240751644E+03  0.53240751644E+03  0.00000000000E+00 0. -1.
         21   -1    0    0  501  503 -0.00000000000E+00 -0.00000000000E+00 -0.89127054622E+02  0.89127054622E+02  0.00000000000E+00 0. -1.
          6    2    1    2  501    0 -0.82399871921E+02 -0.24537373606E+02  0.74241313110E+02  0.20533979775E+03  0.17105799710E+03 0.  0.
         24    2    3    3    0    0 -0.22748226893E+02 -0.57595482180E+02  0.89845126692E+02  0.13522042599E+03  0.79860474710E+02 0.  0.
         -6    2    1    2    0  502  0.82399871921E+02  0.24537373606E+02  0.36903914871E+03  0.41619477331E+03  0.17215218401E+03 0.  0.
        -24    2    5    5    0    0  0.96951275830E+02 -0.20071080381E+02  0.33402539803E+03  0.35746053918E+03  0.80016700692E+02 0.  0.
          5    1    3    3  501    0 -0.59651645028E+02  0.33058108574E+02 -0.15603813582E+02  0.70119371755E+02  0.47000000000E+01 0. -1.
        -11    1    4    4    0    0 -0.36051073019E+01 -0.35680744910E+02  0.98530047942E+02  0.10485362513E+03  0.00000000000E+00 0.  1.
         12    1    4    4    0    0 -0.19143119592E+02 -0.21914737270E+02 -0.86849212502E+01  0.30366800859E+02  0.00000000000E+00 0. -1.
         -5    1    5    5    0  502 -0.14551403908E+02  0.44608453986E+02  0.35013750680E+02  0.58734234135E+02  0.47000000000E+01 0.  1.
         13    1    6    6    0    0  0.38761555311E+02 -0.47973352163E+02  0.18662651421E+03  0.19655369875E+03  0.00000000000E+00 0. -1.
        -14    1    6    6    0    0  0.58189720519E+02  0.27902271782E+02  0.14739888382E+03  0.16090684043E+03  0.00000000000E+00 0.  1.
</event>
<event>
12    1  0.8488291E-002  0.1855660E+03  0.7818608E-02  0.1162698E+00
         21   -1    0    0  501  502  0.00000000000E+00  0.00000000000E+00  0.10593544739E+03  0.10593544739E+03  0.00000000000E+00 0. -1.
         21   -1    0    0  502  503 -0.00000000000E+00 -0.00000000000E+00 -0.39747313575E+03  0.39747313575E+03  0.00000000000E+00 0. -1.
         -6    2    1    2    0  503  0.41865721887E+02  0.52110225255E+02 -0.25394082183E+03  0.31407217498E+03  0.17229966877E+03 0.  0.
        -24    2    3    3    0    0  0.16965206157E+02  0.34791716636E+02 -0.40069189083E+02  0.98009379202E+02  0.80635083750E+02 0.  0.
          6    2    1    2  501    0 -0.41865721887E+02 -0.52110225255E+02 -0.37596866527E+02  0.18933640815E+03  0.17310845397E+03 0.  0.
         24    2    5    5    0    0  0.23228059181E+02 -0.64084918291E+02 -0.58534551366E+02  0.11975860815E+03  0.79179612506E+02 0.  0.
          5    1    5    5  501    0 -0.65093781068E+02  0.11974693036E+02  0.20937684839E+02  0.69577800004E+02  0.47000000000E+01 0. -1.
        -13    1    6    6    0    0  0.21033773029E+02 -0.68244880038E+02 -0.74449920355E+02  0.10316285136E+03  0.00000000000E+00 0.  1.
         14    1    6    6    0    0  0.21942861520E+01  0.41599617473E+01  0.15915368989E+02  0.16595756792E+02  0.00000000000E+00 0. -1.
         -5    1    3    3    0  503  0.24900515730E+02  0.17318508619E+02 -0.21387163275E+03  0.21606279578E+03  0.47000000000E+01 0.  1.
         13    1    4    4    0    0  0.12543114657E+01  0.56557757776E+02 -0.42925840514E+02  0.71013949657E+02  0.00000000000E+00 0. -1.
        -14    1    4    4    0    0  0.15710894691E+02 -0.21766041141E+02  0.28566514309E+01  0.26995429545E+02  0.00000000000E+00 0.  1.
</event>
<event>
12    1  0.8488291E-002  0.1894740E+03  0.7818608E-02  0.1159032E+00
         21   -1    0    0  501  502  0.00000000000E+00  0.00000000000E+00  0.92020652535E+02  0.92020652535E+02  0.00000000000E+00 0.  1.
         21   -1    0    0  502  503 -0.00000000000E+00 -0.00000000000E+00 -0.39432082071E+03  0.39432082071E+03  0.00000000000E+00 0.  1.
         -6    2    1    2    0  503 -0.73941571480E+02 -0.27452043915E+02 -0.12379542945E+03  0.22633096865E+03  0.17227718453E+03 0.  0.
        -24    2    3    3    0    0 -0.19047141815E+02  0.44775602276E+02 -0.86986077503E+02  0.12831439008E+03  0.80810623391E+02 0.  0.
          6    2    1    2  501    0  0.73941571480E+02  0.27452043915E+02 -0.17850473872E+03  0.26001050459E+03  0.17181545346E+03 0.  0.
         24    2    5    5    0    0  0.10523939326E+03  0.29753118094E+02 -0.18361820892E+03  0.22786884676E+03  0.79044207549E+02 0.  0.
          5    1    5    5  501    0 -0.31297821781E+02 -0.23010741795E+01  0.51134702039E+01  0.32141657831E+02  0.47000000000E+01 0. -1.
        -11    1    6    6    0    0  0.78618052705E+02  0.56745301956E+02 -0.12866594801E+03  0.16110789454E+03  0.00000000000E+00 0.  1.
         12    1    6    6    0    0  0.26621340555E+02 -0.26992183861E+02 -0.54952260914E+02  0.66760952226E+02  0.00000000000E+00 0. -1.
         -5    1    3    3    0  503 -0.54894429665E+02 -0.72227646191E+02 -0.36809351951E+02  0.98016578565E+02  0.47000000000E+01 0.  1.
         13    1    4    4    0    0 -0.30654739131E+02  0.28028531917E+01 -0.77992100142E+02  0.83847103120E+02  0.00000000000E+00 0. -1.
        -14    1    4    4    0    0  0.11607597316E+02  0.41972749084E+02 -0.89939773616E+01  0.44467286964E+02  0.00000000000E+00 0.  1.
</event>
<event>
12    1  0.8488291E-002  0.1764527E+03  0.7818608E-02  0.1171350E+00
         21   -1    0    0  501  502  0.00000000000E+00  0.00000000000E+00  0.18431746873E+04  0.18431746873E+04  0.00000000000E+00 0. -1.
         21   -1    0    0  502  503 -0.00000000000E+00 -0.00000000000E+00 -0.35850485322E+02  0.35850485322E+02  0.00000000000E+00 0. -1.
         -6    2    1    2    0  503 -0.41507296277E+02  0.17686517169E+02  0.15870129773E+04  0.15967618149E+04  0.17030101211E+03 0.  0.
        -24    2    3    3    0    0 -0.38140847982E+02  0.63788866670E+02  0.14015115674E+04  0.14055299591E+04  0.75868625982E+02 0.  0.
          6    2    1    2  501    0  0.41507296277E+02 -0.17686517169E+02  0.22031122464E+03  0.28226335773E+03  0.17058692470E+03 0.  0.
         24    2    5    5    0    0  0.68123677641E+02 -0.67148660827E+02  0.15020207535E+03  0.19230604437E+03  0.72602845375E+02 0.  0.
          5    1    5    5  501    0 -0.26616381364E+02  0.49462143658E+02  0.70109149286E+02  0.89957313353E+02  0.47000000000E+01 0. -1.
        -11    1    6    6    0    0  0.41203254434E+01 -0.42614929627E+02  0.95332899781E+02  0.10450536393E+03  0.00000000000E+00 0.  1.
         12    1    6    6    0    0  0.64003352197E+02 -0.24533731200E+02  0.54869175571E+02  0.87800680447E+02  0.00000000000E+00 0. -1.
         -5    1    3    3    0  503 -0.33664482943E+01 -0.46102349501E+02  0.18550140993E+03  0.19123185584E+03  0.47000000000E+01 0.  1.
         13    1    4    4    0    0  0.22234061450E+02  0.25790932683E+02  0.53812870831E+03  0.53920500035E+03  0.00000000000E+00 0. -1.
        -14    1    4    4    0    0 -0.60374909432E+02  0.37997933987E+02  0.86338285911E+03  0.86632495871E+03  0.00000000000E+00 0.  1.
</event>
<event>
12    1  0.8488291E-002  0.2059867E+03  0.7818608E-02  0.1144887E+00
         21   -1    0    0  501  502  0.00000000000E+00  0.00000000000E+00  0.15056934884E+04  0.15056934884E+04  0.00000000000E+00 0. -1.
         21   -1    0    0  502  503 -0.00000000000E+00 -0.00000000000E+00 -0.82727984169E+02  0.82727984169E+02  0.00000000000E+00 0. -1.
         -6    2    1    2    0  503 -0.62093902894E+02  0.96466121122E+02  0.66462152483E+02  0.21644339550E+03  0.17108232066E+03 0.  0.
        -24    2    3    3    0    0  0.18180178453E+02  0.77271036751E+02  0.28218842108E+01  0.11211433365E+03  0.79122239422E+02 0.  0.
          6    2    1    2  501    0  0.62093902894E+02 -0.96466121122E+02  0.13565033518E+04  0.13719780771E+04  0.17047326872E+03 0.  0.
         24    2    5    5    0    0  0.27042540492E+02 -0.10393043175E+03  0.60176176653E+03  0.61637152310E+03  0.79144154511E+02 0.  0.
          5    1    5    5  501    0  0.35051362401E+02  0.74643106247E+01  0.75474158522E+03  0.75560655397E+03  0.47000000000E+01 0. -1.
        -13    1    6    6    0    0  0.15346559148E+02  0.60359624353E+01  0.32242918388E+02  0.36215404269E+02  0.00000000000E+00 0.  1.
         14    1    6    6    0    0  0.11695981344E+02 -0.10996639418E+03  0.56951884814E+03  0.58015611883E+03  0.00000000000E+00 0. -1.
         -5    1    3    3    0  503 -0.80274081347E+02  0.19195084372E+02  0.63640268272E+02  0.10432906185E+03  0.47000000000E+01 0.  1.
         11    1    4    4    0    0 -0.21958156712E+02  0.67092255437E+02 -0.21243852205E+00  0.70594451028E+02  0.00000000000E+00 0. -1.
        -12    1    4    4    0    0  0.40138335165E+02  0.10178781313E+02  0.30343227329E+01  0.41519882626E+02  0.00000000000E+00 0.  1.
</event>
<event>
12    1  0.8488291E-002  0.2103835E+03  0.7818608E-02  0.1142718E+00
         21   -1    0    0  501  502  0.00000000000E+00  0.00000000000E+00  0.10053570679E+04  0.10053570679E+04  0.00000000000E+00 0. -1.
         21   -1    0    0  502  503 -0.00000000000E+00 -0.00000000000E+00 -0.74228518359E+02  0.74228518359E+02  0.00000000000E+00 0.  1.
         -6    2    1    2    0  503 -0.75303404036E+02 -0.94951653120E+02  0.11748778987E+03  0.24096599524E+03  0.17197328572E+03 0.  0.
        -24    2    3    3    0    0 -0.83037998759E+01 -0.69770779995E+02  0.13001832466E+03  0.16815028518E+03  0.80204980063E+02 0.  0.
          6    2    1    2  501    0  0.75303404036E+02  0.94951653120E+02  0.81364075967E+03  0.83861959102E+03  0.16304942060E+03 0.  0.
         24    2    5    5    0    0  0.72503496530E+02  0.90864129499E+02  0.81816746001E+03  0.83042640193E+03  0.81835013079E+02 0.  0.
          5    1    5    5  501    0  0.27999075058E+01  0.40875236210E+01 -0.45267003448E+01  0.81931890863E+01  0.47000000000E+01 0. -1.
        -13    1    6    6    0    0  0.22268692062E+02 -0.13589134159E+02  0.13523551887E+03  0.13772873621E+03  0.00000000000E+00 0.  1.
         14    1    6    6    0    0  0.50234804468E+02  0.10445326366E+03  0.68293194114E+03  0.69269766572E+03  0.00000000000E+00 0. -1.
         -5    1    3    3    0  503 -0.66999604160E+02 -0.25180873125E+02 -0.12530534784E+02  0.72815710056E+02  0.47000000000E+01 0.  1.
         11    1    4    4    0    0  0.68684381138E+01  0.93393262819E+01  0.60946773252E+02  0.62039565016E+02  0.00000000000E+00 0. -1.
        -12    1    4    4    0    0 -0.15172237990E+02 -0.79110106277E+02  0.69071551404E+02  0.10611072017E+03  0.00000000000E+00 0.  1.
</event>
<event>
12    1  0.8488291E-002  0.1864841E+03  0.7818608E-02  0.1162193E+00
         21   -1    0    0  503  502  0.00000000000E+00  0.00000000000E+00  0.22197347945E+03  0.22197347945E+03  0.00000000000E+00 0.  1.
         21   -1    0    0  501  503 -0.00000000000E+00 -0.00000000000E+00 -0.67757398606E+03  0.67757398606E+03  0.00000000000E+00 0.  1.
          6    2    1    2  501    0  0.65844948304E+02  0.20552061471E+02 -0.62255664648E+03  0.64924627576E+03  0.17083911746E+03 0.  0.
         24    2    3    3    0    0  0.38425861061E+02 -0.51190163887E+02 -0.42582901858E+03  0.43800564797E+03  0.80134979358E+02 0.  0.
         -6    2    1    2    0  502 -0.65844948304E+02 -0.20552061471E+02  0.16695613988E+03  0.25030118975E+03  0.17325815566E+03 0.  0.
        -24    2    5    5    0    0 -0.98318789508E+02 -0.27965403077E+02  0.17280342047E+03  0.21615754193E+03  0.80090028514E+02 0.  0.
          5    1    3    3  501    0  0.27419087243E+02  0.71742225358E+02 -0.19672762791E+03  0.21124062779E+03  0.47000000000E+01 0. -1.
        -11    1    4    4    0    0  0.23307929263E+02 -0.51357309579E+01 -0.32759716223E+03  0.32846542588E+03  0.00000000000E+00 0.  1.
         12    1    4    4    0    0  0.15117931798E+02 -0.46054432929E+02 -0.98231856349E+02  0.10954022209E+03  0.00000000000E+00 0. -1.
         -5    1    5    5    0  502  0.32473841204E+02  0.74133416062E+01 -0.58472805936E+01  0.34143647823E+02  0.47000000000E+01 0.  1.
         11    1    6    6    0    0 -0.59115044189E+02 -0.37818042631E+02  0.15839279828E+03  0.17324281037E+03  0.00000000000E+00 0. -1.
        -12    1    6    6    0    0 -0.39203745319E+02  0.98526395535E+01  0.14410622195E+02  0.42914731565E+02  0.00000000000E+00 0.  1.
</event>
<event>
12    1  0.8488291E-002  0.2213764E+03  0.7818608E-02  0.1132979E+00
         21   -1    0    0  501  502  0.00000000000E+00  0.00000000000E+00  0.44893665143E+03  0.44893665143E+03  0.00000000000E+00 0.  1.
         21   -1    0    0  502  503 -0.00000000000E+00 -0.00000000000E+00 -0.11045614434E+03  0.11045614434E+03  0.00000000000E+00 0. -1.
         -6    2    1    2    0  503 -0.37730465112E+02  0.13387806776E+03  0.13574725525E+03  0.25968212869E+03  0.17222243067E+03 0.  0.
        -24    2    3    3    0    0 -0.65985735194E+02  0.78180752950E+02  0.14693760163E+03  0.19605929461E+03  0.79888928199E+02 0.  0.
          6    2    1    2  501    0  0.37730465112E+02 -0.13387806776E+03  0.20273325184E+03  0.29971066709E+03  0.17140241404E+03 0.  0.
         24    2    5    5    0    0  0.52840669977E+02 -0.16198012485E+03  0.16979601921E+03  0.25361299690E+03  0.80368941786E+02 0.  0.
          5    1    5    5  501    0 -0.15110204864E+02  0.28102057089E+02  0.32937232627E+02  0.46097670189E+02  0.47000000000E+01 0. -1.
        -11    1    6    6    0    0  0.45399010632E+02 -0.11858006136E+03  0.16659072167E+03  0.20946305083E+03  0.00000000000E+00 0.  1.
         12    1    6    6    0    0  0.74416593446E+01 -0.43400063497E+02  0.32052975456E+01  0.44149946067E+02  0.00000000000E+00 0. -1.
         -5    1    3    3    0  503  0.28255270082E+02  0.55697314813E+02 -0.11190346377E+02  0.63622834084E+02  0.47000000000E+01 0.  1.
         13    1    4    4    0    0 -0.53912344930E+02  0.61805681042E+02  0.47952118862E+02  0.95004678034E+02  0.00000000000E+00 0. -1.
        -14    1    4    4    0    0 -0.12073390264E+02  0.16375071908E+02  0.98985482765E+02  0.10105461657E+03  0.00000000000E+00 0.  1.
</event>
<event>
12    1  0.8488291E-002  0.2298312E+03  0.7818608E-02  0.1126838E+00
         21   -1    0    0  503  502  0.00000000000E+00  0.00000000000E+00  0.77826489354E+02  0.77826489354E+02  0.00000000000E+00 0.  1.
         21   -1    0    0  501  503 -0.00000000000E+00 -0.00000000000E+00 -0.69810640717E+03  0.69810640717E+03  0.00000000000E+00 0.  1.
          6    2    1    2  501    0 -0.13852685124E+03 -0.62675714796E+02 -0.37728117730E+03  0.44177309613E+03  0.17234978381E+03 0.  0.
         24    2    3    3    0    0 -0.14156664494E+03 -0.86431589155E+02 -0.24337280087E+03  0.30565871338E+03  0.81764260525E+02 0.  0.
         -6    2    1    2    0  502  0.13852685124E+03  0.62675714796E+02 -0.24299874052E+03  0.33415980040E+03  0.17174530727E+03 0.  0.
        -24    2    5    5    0    0  0.10089078601E+03  0.21943338989E+02 -0.61214434197E+02  0.14404608740E+03  0.79634210702E+02 0.  0.
          5    1    3    3  501    0  0.30397937028E+01  0.23755874360E+02 -0.13390837643E+03  0.13611438275E+03  0.47000000000E+01 0. -1.
        -13    1    4    4    0    0 -0.61700785313E+02 -0.54363355303E+02 -0.56071330883E+02  0.99530675950E+02  0.00000000000E+00 0.  1.
         14    1    4    4    0    0 -0.79865859628E+02 -0.32068233852E+02 -0.18730146998E+03  0.20612803743E+03  0.00000000000E+00 0. -1.
         -5    1    5    5    0  502  0.37636065230E+02  0.40732375807E+02 -0.18178430632E+03  0.19011371300E+03  0.47000000000E+01 0.  1.
         13    1    6    6    0    0  0.10002986154E+03 -0.57664452181E+01 -0.35690944268E+02  0.10636290986E+03  0.00000000000E+00 0. -1.
        -14    1    6    6    0    0  0.86092446772E+00  0.27709784207E+02 -0.25523489929E+02  0.37683177545E+02  0.00000000000E+00 0.  1.
</event>
<event>
12    1  0.8488291E-002  0.2150700E+03  0.7818608E-02  0.1137791E+00
         21   -1    0    0  503  502  0.00000000000E+00  0.00000000000E+00  0.16961035383E+03  0.16961035383E+03  0.00000000000E+00 0. -1.
         21   -1    0    0  501  503 -0.00000000000E+00 -0.00000000000E+00 -0.27161244837E+03  0.27161244837E+03  0.00000000000E+00 0.  1.
          6    2    1    2  501    0 -0.12384397409E+03 -0.32148318832E+02 -0.54434525316E+02  0.22095525124E+03  0.17171855223E+03 0.  0.
         24    2    3    3    0    0 -0.74068771080E+02 -0.77590493895E+02 -0.70392312945E+02  0.15153405062E+03  0.80628922752E+02 0.  0.
         -6    2    1    2    0  502  0.12384397409E+03  0.32148318832E+02 -0.47567569217E+02  0.22026755096E+03  0.17287069168E+03 0.  0.
        -24    2    5    5    0    0  0.10135027735E+03  0.62502083952E+02 -0.84463400877E+02  0.16725142281E+03  0.81612395678E+02 0.  0.
          5    1    3    3  501    0 -0.49775203007E+02  0.45442175062E+02  0.15957787629E+02  0.69421200615E+02  0.47000000000E+01 0. -1.
        -13    1    4    4    0    0 -0.24519136438E+02 -0.42765342288E+02  0.10579677859E+02  0.50418172678E+02  0.00000000000E+00 0.  1.
         14    1    4    4    0    0 -0.49549634642E+02 -0.34825151607E+02 -0.80971990804E+02  0.10111587794E+03  0.00000000000E+00 0. -1.
         -5    1    5    5    0  502  0.22493696737E+02 -0.30353765120E+02  0.36895831660E+02  0.53016128147E+02  0.47000000000E+01 0.  1.
         13    1    6    6    0    0 -0.10541650186E+01 -0.15513840241E+02 -0.75105080069E+01  0.17268417224E+02  0.00000000000E+00 0. -1.
        -14    1    6    6    0    0  0.10240444237E+03  0.78015924193E+02 -0.76952892870E+02  0.14998300559E+03  0.00000000000E+00 0.  1.
</event>
<event>
12    1  0.8488291E-002  0.1895386E+03  0.7818608E-02  0.1160080E+00
         21   -1    0    0  501  502  0.00000000000E+00  0.00000000000E+00  0.63811145784E+02  0.63811145784E+02  0.00000000000E+00 0. -1.
         21   -1    0    0  502  503 -0.00000000000E+00 -0.00000000000E+00 -0.10320180473E+04  0.10320180473E+04  0.00000000000E+00 0. -1.
         -6    2    1    2    0  503  0.56708303536E+02  0.34321199532E+02 -0.85589473592E+03  0.87551375567E+03  0.17197314025E+03 0.  0.
        -24    2    3    3    0    0  0.24882301450E+02  0.85332126642E+02 -0.47151177834E+03  0.48642847302E+03  0.79928727585E+02 0.  0.
          6    2    1    2  501    0 -0.56708303536E+02 -0.34321199532E+02 -0.11231216560E+03  0.22031543741E+03  0.17756996648E+03 0.  0.
         24    2    5    5    0    0 -0.74992660483E+02 -0.62458616195E+02 -0.26369164760E+02  0.12793404687E+03  0.78401592051E+02 0.  0.
          5    1    5    5  501    0  0.18284356947E+02  0.28137416663E+02 -0.85943000837E+02  0.92381390541E+02  0.47000000000E+01 0. -1.
        -13    1    6    6    0    0 -0.46534497931E+02 -0.44894601582E+01 -0.40470880577E+02  0.61834512409E+02  0.00000000000E+00 0.  1.
         14    1    6    6    0    0 -0.28458162552E+02 -0.57969156036E+02  0.14101715818E+02  0.66099534464E+02  0.00000000000E+00 0. -1.
         -5    1    3    3    0  503  0.31826002085E+02 -0.51010927111E+02 -0.38438295758E+03  0.38908528265E+03  0.47000000000E+01 0.  1.
         11    1    4    4    0    0  0.15410184549E+01 -0.14093280768E+02 -0.10502982199E+03  0.10598235140E+03  0.00000000000E+00 0. -1.
        -12    1    4    4    0    0  0.23341282995E+02  0.99425407411E+02 -0.36648195635E+03  0.38044612162E+03  0.00000000000E+00 0.  1.
</event>
<event>
12    1  0.8488291E-002  0.1856936E+03  0.7818608E-02  0.1162547E+00
         21   -1    0    0  503  502  0.00000000000E+00  0.00000000000E+00  0.32929297742E+03  0.32929297742E+03  0.00000000000E+00 0.  1.
         21   -1    0    0  501  503 -0.00000000000E+00 -0.00000000000E+00 -0.11999555021E+03  0.11999555021E+03  0.00000000000E+00 0. -1.
          6    2    1    2  501    0  0.58593354369E+02  0.39200708718E+02  0.23729783751E+02  0.18720371825E+03  0.17179130581E+03 0.  0.
         24    2    3    3    0    0  0.14888117872E+02 -0.12988350463E+01  0.72856438135E+02  0.10983525625E+03  0.80823139698E+02 0.  0.
         -6    2    1    2    0  502 -0.58593354369E+02 -0.39200708718E+02  0.18556764345E+03  0.26208480937E+03  0.17112340655E+03 0.  0.
        -24    2    5    5    0    0 -0.14796327140E+02 -0.64099684517E+02  0.18543614362E+03  0.21148593703E+03  0.77537328755E+02 0.  0.
          5    1    3    3  501    0  0.43705236497E+02  0.40499543765E+02 -0.49126654384E+02  0.77368462008E+02  0.47000000000E+01 0. -1.
        -11    1    4    4    0    0 -0.10828451533E+02 -0.34211899590E+02  0.51917589268E+02  0.63112166114E+02  0.00000000000E+00 0.  1.
         12    1    4    4    0    0  0.25716569405E+02  0.32913064544E+02  0.20938848867E+02  0.46723090132E+02  0.00000000000E+00 0. -1.
         -5    1    5    5    0  502 -0.43797027229E+02  0.24898975798E+02  0.13149983244E+00  0.50598872340E+02  0.47000000000E+01 0.  1.
         11    1    6    6    0    0  0.29749206658E+02 -0.22313647035E+02  0.45234845594E+02  0.58558563820E+02  0.00000000000E+00 0. -1.
        -12    1    6    6    0    0 -0.44545533799E+02 -0.41786037482E+02  0.14020129803E+03  0.15292737321E+03  0.00000000000E+00 0.  1.
</event>
<event>
12    1  0.8488291E-002  0.1846150E+03  0.7818608E-02  0.1163552E+00
         21   -1    0    0  503  502  0.00000000000E+00  0.00000000000E+00  0.55385472537E+02  0.55385472537E+02  0.00000000000E+00 0.  1.
         21   -1    0    0  501  503 -0.00000000000E+00 -0.00000000000E+00 -0.64388885994E+03  0.64388885994E+03  0.00000000000E+00 0.  1.
          6    2    1    2  501    0 -0.40628819536E+02 -0.52685662433E+02 -0.21856701496E+03  0.28610180822E+03  0.17220982735E+03 0.  0.
         24    2    3    3    0    0  0.16217362321E+02  0.19741598470E+02 -0.14269309553E+03  0.16670273719E+03  0.82314941067E+02 0.  0.
         -6    2    1    2    0  502  0.40628819536E+02  0.52685662433E+02 -0.36993637244E+03  0.41317252426E+03  0.17155796438E+03 0.  0.
        -24    2    5    5    0    0 -0.30517868214E+02  0.69291448355E+00 -0.11170584774E+03  0.14028025448E+03  0.79174067514E+02 0.  0.
          5    1    3    3  501    0 -0.56846181856E+02 -0.72427260903E+02 -0.75873919434E+02  0.11939907103E+03  0.47000000000E+01 0. -1.
        -13    1    4    4    0    0 -0.67107247087E+01 -0.44783373620E+01  0.85914068905E+01  0.11785652464E+02  0.00000000000E+00 0.  1.
         14    1    4    4    0    0  0.22928087029E+02  0.24219935832E+02 -0.15128450242E+03  0.15491708472E+03  0.00000000000E+00 0. -1.
         -5    1    5    5    0  502  0.71146687750E+02  0.51992747949E+02 -0.25823052470E+03  0.27289226978E+03  0.47000000000E+01 0.  1.
         13    1    6    6    0    0  0.46837545189E+01  0.32786950460E+02 -0.25540409503E+02  0.41823847198E+02  0.00000000000E+00 0. -1.
        -14    1    6    6    0    0 -0.35201622733E+02 -0.32094035976E+02 -0.86165438236E+02  0.98456407281E+02  0.00000000000E+00 0.  1.
</event>
<event>
12    1  0.8488291E-002  0.1733432E+03  0.7818608E-02  0.1174878E+00
         21   -1    0    0  501  502  0.00000000000E+00  0.00000000000E+00  0.16827781583E+03  0.16827781583E+03  0.00000000000E+00 0.  1.
         21   -1    0    0  502  503 -0.00000000000E+00 -0.00000000000E+00 -0.18028446166E+03  0.18028446166E+03  0.00000000000E+00 0. -1.
         -6    2    1    2    0  503  0.18230775981E+02 -0.11656752333E+02  0.18725876719E+02  0.17251587342E+03  0.17012591530E+03 0.  0.
        -24    2    3    3    0    0  0.16675168392E+02 -0.72091109831E+02  0.99032401261E+01  0.11124058968E+03  0.82469420214E+02 0.  0.
          6    2    1    2  501    0 -0.18230775981E+02  0.11656752333E+02 -0.30732522547E+02  0.17604640406E+03  0.17198723026E+03 0.  0.
         24    2    5    5    0    0 -0.49740916830E+02  0.57040098235E+02  0.86232658761E+01  0.10805004281E+03  0.76633670295E+02 0.  0.
          5    1    5    5  501    0  0.31510140849E+02 -0.45383345902E+02 -0.39355788423E+02  0.67996361255E+02  0.47000000000E+01 0. -1.
        -11    1    6    6    0    0 -0.23122386071E+02  0.63422882785E+02  0.29454097699E+02  0.73652227866E+02  0.00000000000E+00 0.  1.
         12    1    6    6    0    0 -0.26618530759E+02 -0.63827845503E+01 -0.20830831823E+02  0.34397814943E+02  0.00000000000E+00 0. -1.
         -5    1    3    3    0  503  0.15556075891E+01  0.60434357498E+02  0.88226365928E+01  0.61275283741E+02  0.47000000000E+01 0.  1.
         11    1    4    4    0    0 -0.18596276879E+01 -0.55142947633E+01 -0.30592566648E+02  0.31141143139E+02  0.00000000000E+00 0. -1.
        -12    1    4    4    0    0  0.18534796080E+02 -0.66576815067E+02  0.40495806775E+02  0.80099446543E+02  0.00000000000E+00 0.  1.
</event>
<event>
12    1  0.8488291E-002  0.1736892E+03  0.7818608E-02  0.1174191E+00
         21   -1    0    0  501  502  0.00000000000E+00  0.00000000000E+00  0.29926974553E+03  0.29926974553E+03  0.00000000000E+00 0. -1.
         21   -1    0    0  502  503 -0.00000000000E+00 -0.00000000000E+00 -0.12486845006E+03  0.12486845006E+03  0.00000000000E+00 0. -1.
         -6    2    1    2    0  503  0.11457611569E+02 -0.20481963931E+02 -0.66078070721E+01  0.17327524693E+03  0.17155133452E+03 0.  0.
        -24    2    3    3    0    0  0.45496415973E+02  0.25110197788E+02  0.36906760016E+02  0.10149159305E+03  0.78980938374E+02 0.  0.
          6    2    1    2  501    0 -0.11457611569E+02  0.20481963931E+02  0.18100910255E+03  0.25086294866E+03  0.17209629890E+03 0.  0.
         24    2    5    5    0    0  0.46876203728E+02 -0.22040234789E+02  0.73195822615E+02  0.12102934469E+03  0.81285443968E+02 0.  0.
          5    1    5    5  501    0 -0.58333815297E+02  0.42522198719E+02  0.10781327993E+03  0.12983360397E+03  0.47000000000E+01 0. -1.
        -11    1    6    6    0    0  0.44254116687E+01  0.20990722796E+02 -0.51637951121E+01  0.22064892747E+02  0.00000000000E+00 0.  1.
         12    1    6    6    0    0  0.42450792060E+02 -0.43030957585E+02  0.78359617727E+02  0.98964451939E+02  0.00000000000E+00 0. -1.
         -5    1    3    3    0  503 -0.34038804405E+02 -0.45592161718E+02 -0.43514567088E+02  0.71783653880E+02  0.47000000000E+01 0.  1.
         11    1    4    4    0    0  0.86197722919E+01 -0.49741701366E+01 -0.22953447306E+02  0.25018065195E+02  0.00000000000E+00 0. -1.
        -12    1    4    4    0    0  0.36876643681E+02  0.30084367924E+02  0.59860207322E+02  0.76473527859E+02  0.00000000000E+00 0.  1.
</event>
<event>
12    1  0.8488291E-002  0.1856071E+03  0.7818608E-02  0.1162763E+00
         21   -1    0    0  501  502  0.00000000000E+00  0.00000000000E+00  0.17591233304E+03  0.17591233304E+03  0.00000000000E+00 0. -1.
         21   -1    0    0  502  503 -0.00000000000E+00 -0.00000000000E+00 -0.23787100832E+03  0.23787100832E+03  0.00000000000E+00 0. -1.
         -6    2    1    2    0  503 -0.60981367243E+02  0.32028066569E+02 -0.11916212362E+03  0.21956124689E+03  0.17106433068E+03 0.  0.
        -24    2    3    3    0    0  0.23344244036E+02  0.17540020733E+02 -0.97967261023E+02  0.13128880277E+03  0.82380576865E+02 0.  0.
          6    2    1    2  501    0  0.60981367243E+02 -0.32028066569E+02  0.57203448340E+02  0.19422209447E+03  0.17235272925E+03 0.  0.
         24    2    5    5    0    0  0.48839192232E+01  0.25462481396E+02 -0.15458634708E+02  0.85806435581E+02  0.80321755299E+02 0.  0.
          5    1    5    5  501    0  0.56097448020E+02 -0.57490547965E+02  0.72662083048E+02  0.10841565889E+03  0.47000000000E+01 0. -1.
        -11    1    6    6    0    0 -0.35117562165E+02  0.53128100069E+01 -0.20043639273E+02  0.40782552616E+02  0.00000000000E+00 0.  1.
         12    1    6    6    0    0  0.40001481388E+02  0.20149671389E+02  0.45850045656E+01  0.45023882965E+02  0.00000000000E+00 0. -1.
         -5    1    3    3    0  503 -0.84325611279E+02  0.14488045836E+02 -0.21194862594E+02  0.88272444116E+02  0.47000000000E+01 0.  1.
         11    1    4    4    0    0 -0.10922685902E+02 -0.12161173714E+02 -0.81376132374E+02  0.83001651390E+02  0.00000000000E+00 0. -1.
        -12    1    4    4    0    0  0.34266929938E+02  0.29701194447E+02 -0.16591128649E+02  0.48287151384E+02  0.00000000000E+00 0.  1.
</event>
<event>
12    1  0.8488291E-002  0.2804839E+03  0.7818608E-02  0.1096311E+00
         21   -1    0    0  503  502  0.00000000000E+00  0.00000000000E+00  0.10625674651E+04  0.10625674651E+04  0.00000000000E+00 0. -1.
         21   -1    0    0  501  503 -0.00000000000E+00 -0.00000000000E+00 -0.75224918157E+02  0.75224918157E+02  0.00000000000E+00 0. -1.
          6    2    1    2  501    0  0.19220209382E+03 -0.92996355110E+02  0.38801813990E+03  0.47877896362E+03  0.18188252303E+03 0.  0.
         24    2    3    3    0    0  0.32143038446E+02 -0.10803814047E+02  0.20447460871E+03  0.22170925935E+03  0.78709800885E+02 0.  0.
         -6    2    1    2    0  502 -0.19220209382E+03  0.92996355110E+02  0.59932440707E+03  0.65901341966E+03  0.17181087116E+03 0.  0.
        -24    2    5    5    0    0 -0.21341548723E+03  0.75537758684E+02  0.48284135454E+03  0.53924196156E+03  0.79962467924E+02 0.  0.
          5    1    3    3  501    0  0.16005905537E+03 -0.82192541064E+02  0.18354353119E+03  0.25706970427E+03  0.47000000000E+01 0. -1.
        -13    1    4    4    0    0  0.11831957628E+02  0.34248185934E+02  0.90276875889E+02  0.97277169887E+02  0.00000000000E+00 0.  1.
         14    1    4    4    0    0  0.20311080818E+02 -0.45051999980E+02  0.11419773282E+03  0.12443208946E+03  0.00000000000E+00 0. -1.
         -5    1    5    5    0  502  0.21213393407E+02  0.17458596426E+02  0.11648305253E+03  0.11977145810E+03  0.47000000000E+01 0.  1.
         13    1    6    6    0    0 -0.63712093621E+02  0.52240250188E+02  0.11542110762E+03  0.14181081305E+03  0.00000000000E+00 0. -1.
        -14    1    6    6    0    0 -0.14970339361E+03  0.23297508496E+02  0.36742024692E+03  0.39743114851E+03  0.00000000000E+00 0.  1.
</event>
<event>
12    1  0.8488291E-002  0.2316751E+03  0.7818608E-02  0.1125494E+00
         21   -1    0    0  501  502  0.00000000000E+00  0.00000000000E+00  0.70875898179E+03  0.70875898179E+03  0.00000000000E+00 0.  1.
         21   -1    0    0  502  503 -0.00000000000E+00 -0.00000000000E+00 -0.11724526896E+03  0.11724526896E+03  0.00000000000E+00 0.  1.
         -6    2    1    2    0  503  0.11079708152E+03  0.10823611275E+03  0.49905144824E+02  0.23698916700E+03  0.17228549684E+03 0.  0.
        -24    2    3    3    0    0  0.21492366839E+02  0.95073603083E+02  0.68971555459E+02  0.14460842367E+03  0.81569656724E+02 0.  0.
          6    2    1    2  501    0 -0.11079708152E+03 -0.10823611275E+03  0.54160856801E+03  0.58901508375E+03  0.17206940045E+03 0.  0.
         24    2    5    5    0    0 -0.56918433267E+01  0.74922019436E-02  0.15187579793E+03  0.17107069609E+03  0.78527243208E+02 0.  0.
          5    1    5    5  501    0 -0.10510523819E+03 -0.10824360495E+03  0.38973277008E+03  0.41794438766E+03  0.47000000000E+01 0. -1.
        -11    1    6    6    0    0  0.63160319669E+01  0.18658961281E+02  0.14705730951E+03  0.14837082387E+03  0.00000000000E+00 0.  1.
         12    1    6    6    0    0 -0.12007875294E+02 -0.18651469079E+02  0.48184884189E+01  0.22699872214E+02  0.00000000000E+00 0. -1.
         -5    1    3    3    0  503  0.89304714678E+02  0.13162509664E+02 -0.19066410636E+02  0.92380743334E+02  0.47000000000E+01 0.  1.
         13    1    4    4    0    0 -0.14730830584E+02  0.37447983991E+02  0.64973983852E+02  0.76426222281E+02  0.00000000000E+00 0. -1.
        -14    1    4    4    0    0  0.36223197423E+02  0.57625619092E+02  0.39975716079E+01  0.68182201388E+02  0.00000000000E+00 0.  1.
</event>
<event>
12    1  0.8488291E-002  0.1985644E+03  0.7818608E-02  0.1151009E+00
         21   -1    0    0  501  502  0.00000000000E+00  0.00000000000E+00  0.23991679364E+03  0.23991679364E+03  0.00000000000E+00 0. -1.
         21   -1    0    0  502  503 -0.00000000000E+00 -0.00000000000E+00 -0.20045565846E+03  0.20045565846E+03  0.00000000000E+00 0. -1.
         -6    2    1    2    0  503 -0.84494455748E+02 -0.52351133938E+02 -0.73988458045E+02  0.21190117864E+03  0.17189491938E+03 0.  0.
        -24    2    3    3    0    0 -0.95109143669E+02 -0.14190370638E+02  0.20322218024E+01  0.12605160544E+03  0.81472458410E+02 0.  0.
          6    2    1    2  501    0  0.84494455748E+02  0.52351133938E+02  0.11344959322E+03  0.22847127345E+03  0.17160523976E+03 0.  0.
         24    2    5    5    0    0  0.25937233944E+02 -0.34275126964E+02  0.76381373464E+02  0.11743434167E+03  0.78161281710E+02 0.  0.
          5    1    5    5  501    0  0.58557221804E+02  0.86626260902E+02  0.37068219756E+02  0.11103693178E+03  0.47000000000E+01 0. -1.
        -13    1    6    6    0    0  0.21700300353E+02 -0.51417550286E+02  0.21542599326E+02  0.59822663753E+02  0.00000000000E+00 0.  1.
         14    1    6    6    0    0  0.42369335907E+01  0.17142423322E+02  0.54838774138E+02  0.57611677919E+02  0.00000000000E+00 0. -1.
         -5    1    3    3    0  503  0.10614687920E+02 -0.38160763300E+02 -0.76020679847E+02  0.85849573207E+02  0.47000000000E+01 0.  1.
         13    1    4    4    0    0  0.71803770514E+01  0.46606258129E+01 -0.18179370389E+02  0.20093997992E+02  0.00000000000E+00 0. -1.
        -14    1    4    4    0    0 -0.10228952072E+03 -0.18850996451E+02  0.20211592192E+02  0.10595760744E+03  0.00000000000E+00 0.  1.
</event>
<event>
12    1  0.8488291E-002  0.2139804E+03  0.7818608E-02  0.1138969E+00
         21   -1    0    0  501  502  0.00000000000E+00  0.00000000000E+00  0.46819600348E+03  0.46819600348E+03  0.00000000000E+00 0. -1.
         21   -1    0    0  502  503 -0.00000000000E+00 -0.00000000000E+00 -0.96596056109E+02  0.96596056109E+02  0.00000000000E+00 0. -1.
         -6    2    1    2    0  503  0.62902925104E+02  0.11241684259E+03  0.18167822913E+03  0.27868392123E+03  0.16752141513E+03 0.  0.
        -24    2    3    3    0    0  0.48064322505E+01  0.12190581687E+03  0.92900211168E+02  0.17205901988E+03  0.78036703595E+02 0.  0.
          6    2    1    2  501    0 -0.62902925104E+02 -0.11241684259E+03  0.18992171824E+03  0.28610813836E+03  0.17086042049E+03 0.  0.
         24    2    5    5    0    0  0.79085184491E+01 -0.61833324730E+01  0.45862236351E+02  0.93559330176E+02  0.80927283875E+02 0.  0.
          5    1    5    5  501    0 -0.70811443553E+02 -0.10623351012E+03  0.14405948189E+03  0.19254880818E+03  0.47000000000E+01 0. -1.
        -13    1    6    6    0    0  0.27774852284E+02  0.29513828626E+02  0.25830304897E+02  0.48059475139E+02  0.00000000000E+00 0.  1.
         14    1    6    6    0    0 -0.19866333835E+02 -0.35697161099E+02  0.20031931454E+02  0.45499855037E+02  0.00000000000E+00 0. -1.
         -5    1    3    3    0  503  0.58096492853E+02 -0.94889742819E+01  0.88778017961E+02  0.10662490135E+03  0.47000000000E+01 0.  1.
         11    1    4    4    0    0  0.72189226292E+01  0.39701751293E+02  0.78922315859E+02  0.88640136735E+02  0.00000000000E+00 0. -1.
        -12    1    4    4    0    0 -0.24124903787E+01  0.82204065580E+02  0.13977895308E+02  0.83418883144E+02  0.00000000000E+00 0.  1.
</event>
<event>
12    1  0.8488291E-002  0.1786151E+03  0.7818608E-02  0.1170814E+00
         21   -1    0    0  501  502  0.00000000000E+00  0.00000000000E+00  0.59254812815E+03  0.59254812815E+03  0.00000000000E+00 0. -1.
         21   -1    0    0  502  503 -0.00000000000E+00 -0.00000000000E+00 -0.55996094824E+02  0.55996094824E+02  0.00000000000E+00 0. -1.
         -6    2    1    2    0  503  0.21514143726E+02 -0.22960268185E+02  0.17532059221E+03  0.24556592680E+03  0.16904224932E+03 0.  0.
        -24    2    3    3    0    0 -0.29204147831E+02  0.23290597772E+02  0.14640122106E+03  0.17093411235E+03  0.79936343681E+02 0.  0.
          6    2    1    2  501    0 -0.21514143726E+02  0.22960268185E+02  0.36123144112E+03  0.40297829618E+03  0.17582184404E+03 0.  0.
         24    2    5    5    0    0 -0.53489392974E+02 -0.33490239890E+02  0.28553808861E+03  0.30317523991E+03  0.80003216926E+02 0.  0.
          5    1    5    5  501    0  0.31975249248E+02  0.56450508076E+02  0.75693352517E+02  0.99803056274E+02  0.47000000000E+01 0. -1.
        -11    1    6    6    0    0 -0.69994928545E+02 -0.17531630117E+02  0.25473317667E+03  0.26475581084E+03  0.00000000000E+00 0.  1.
         12    1    6    6    0    0  0.16505535571E+02 -0.15958609774E+02  0.30804911934E+02  0.38419429065E+02  0.00000000000E+00 0. -1.
         -5    1    3    3    0  503  0.50718291557E+02 -0.46250865957E+02  0.28919371142E+02  0.74631814446E+02  0.47000000000E+01 0.  1.
         13    1    4    4    0    0 -0.65263508541E+01 -0.28640410121E+02  0.33116159842E+02  0.44266763944E+02  0.00000000000E+00 0. -1.
        -14    1    4    4    0    0 -0.22677796977E+02  0.51931007893E+02  0.11328506122E+03  0.12666734841E+03  0.00000000000E+00 0.  1.
</event>
<event>
12    1  0.8488291E-002  0.2350317E+03  0.7818608E-02  0.1123149E+00
         21   -1    0    0  503  502  0.00000000000E+00  0.00000000000E+00  0.31726316940E+03  0.31726316940E+03  0.00000000000E+00 0.  1.
         21   -1    0    0  501  503 -0.00000000000E+00 -0.00000000000E+00 -0.17547014490E+03  0.17547014490E+03  0.00000000000E+00 0.  1.
          6    2    1    2  501    0  0.20154768632E+02 -0.15570606526E+03  0.49168252895E+02  0.24010860844E+03  0.17488291311E+03 0.  0.
         24    2    3    3    0    0  0.37798211713E+02 -0.17056571306E+03  0.80865596660E+01  0.19275994705E+03  0.81053300116E+02 0.  0.
         -6    2    1    2    0  502 -0.20154768632E+02  0.15570606526E+03  0.92624771610E+02  0.25262470586E+03  0.17489797094E+03 0.  0.
        -24    2    5    5    0    0 -0.37067346834E+01  0.91984202115E+02 -0.18524137342E+02  0.12336843474E+03  0.80011209871E+02 0.  0.
          5    1    3    3  501    0 -0.17643443081E+02  0.14859647804E+02  0.41081693229E+02  0.47348661387E+02  0.47000000000E+01 0. -1.
        -11    1    4    4    0    0 -0.17268603934E+02 -0.99415851421E+02 -0.85437556703E+01  0.10126555168E+03  0.00000000000E+00 0.  1.
         12    1    4    4    0    0  0.55066815647E+02 -0.71149861638E+02  0.16630315336E+02  0.91494395374E+02  0.00000000000E+00 0. -1.
         -5    1    5    5    0  502 -0.16448033949E+02  0.63721863141E+02  0.11114890895E+03  0.12925627112E+03  0.47000000000E+01 0.  1.
         13    1    6    6    0    0 -0.22194691870E+02  0.11985718314E+02 -0.31379827602E+02  0.40261090038E+02  0.00000000000E+00 0. -1.
        -14    1    6    6    0    0  0.18487957187E+02  0.79998483801E+02  0.12855690260E+02  0.83107344702E+02  0.00000000000E+00 0.  1.
</event>
<event>
12    1  0.8488291E-002  0.1933604E+03  0.7818608E-02  0.1156024E+00
         21   -1    0    0  501  502  0.00000000000E+00  0.00000000000E+00  0.10471213886E+03  0.10471213886E+03  0.00000000000E+00 0. -1.
         21   -1    0    0  502  503 -0.00000000000E+00 -0.00000000000E+00 -0.59148557093E+03  0.59148557093E+03  0.00000000000E+00 0. -1.
         -6    2    1    2    0  503 -0.36904114663E+02  0.72487146455E+02 -0.46563577549E+03  0.50418737751E+03  0.17541931521E+03 0.  0.
        -24    2    3    3    0    0  0.33430377348E+01  0.22049941747E+02 -0.41166824151E+03  0.41993579226E+03  0.79862085592E+02 0.  0.
          6    2    1    2  501    0  0.36904114663E+02 -0.72487146455E+02 -0.21137656576E+02  0.19201033228E+03  0.17264086161E+03 0.  0.
         24    2    5    5    0    0  0.15037936102E+02  0.86470317137E+01 -0.62142650244E+02  0.98392042733E+02  0.74285761854E+02 0.  0.
          5    1    5    5  501    0  0.21866178562E+02 -0.81134178169E+02  0.41004993668E+02  0.93618289547E+02  0.47000000000E+01 0. -1.
        -11    1    6    6    0    0 -0.19968556461E+02  0.29248621655E+02 -0.24984602337E+02  0.43341152151E+02  0.00000000000E+00 0.  1.
         12    1    6    6    0    0  0.35006492563E+02 -0.20601589941E+02 -0.37158047906E+02  0.55050890582E+02  0.00000000000E+00 0. -1.
         -5    1    3    3    0  503 -0.40247152398E+02  0.50437204708E+02 -0.53967533976E+02  0.84251585258E+02  0.47000000000E+01 0.  1.
         11    1    4    4    0    0 -0.27522993318E+02  0.34558356498E+02 -0.30517650646E+03  0.30835773909E+03  0.00000000000E+00 0. -1.
        -12    1    4    4    0    0  0.30866031053E+02 -0.12508414751E+02 -0.10649173506E+03  0.11157805317E+03  0.00000000000E+00 0.  1.
</event>
<event>
12    1  0.8488291E-002  0.1995493E+03  0.7818608E-02  0.1150151E+00
         21   -1    0    0  503  502  0.00000000000E+00  0.00000000000E+00  0.75598103492E+02  0.75598103492E+02  0.00000000000E+00 0.  1.
         21   -1    0    0  501  503 -0.00000000000E+00 -0.00000000000E+00 -0.64443656740E+03  0.64443656740E+03  0.00000000000E+00 0. -1.
          6    2    1    2  501    0 -0.94110297615E+02 -0.39053376772E+02 -0.43862359007E+03  0.48188230874E+03  0.17157503128E+03 0.  0.
         24    2    3    3    0    0 -0.19443439784E+02 -0.52894039319E+02 -0.12680624051E+03  0.16091680735E+03  0.81477417170E+02 0.  0.
         -6    2    1    2    0  502  0.94110297615E+02  0.39053376772E+02 -0.13021487383E+03  0.23815236215E+03  0.17140221665E+03 0.  0.
        -24    2    5    5    0    0  0.28225395033E+02  0.79488285867E+02 -0.10565480701E+03  0.15690527516E+03  0.79632070253E+02 0.  0.
          5    1    3    3  501    0 -0.74666857831E+02  0.13840662547E+02 -0.31181734956E+03  0.32096550140E+03  0.47000000000E+01 0. -1.
        -13    1    4    4    0    0 -0.35245457987E+02 -0.58853441742E+02 -0.12664113876E+03  0.14402759437E+03  0.00000000000E+00 0.  1.
         14    1    4    4    0    0  0.15802018203E+02  0.59594024225E+01 -0.16510175282E+00  0.16889212981E+02  0.00000000000E+00 0. -1.
         -5    1    5    5    0  502  0.65884902582E+02 -0.40434909095E+02 -0.24560066824E+02  0.81247086989E+02  0.47000000000E+01 0.  1.
         13    1    6    6    0    0  0.51911628380E+02  0.46054199057E+02 -0.88553310734E+02  0.11250553433E+03  0.00000000000E+00 0. -1.
        -14    1    6    6    0    0 -0.23686233347E+02  0.33434086810E+02 -0.17101496276E+02  0.44399740831E+02  0.00000000000E+00 0.  1.
</event>
<event>
12    1  0.8488291E-002  0.1869834E+03  0.7818608E-02  0.1161902E+00
         21   -1    0    0  503  502  0.00000000000E+00  0.00000000000E+00  0.52105782407E+03  0.52105782407E+03  0.00000000000E+00 0. -1.
         21   -1    0    0  501  503 -0.00000000000E+00 -0.00000000000E+00 -0.82016859420E+02  0.82016859420E+02  0.00000000000E+00 0. -1.
          6    2    1    2  501    0 -0.58111952759E+02  0.43696847713E+02  0.87835790935E+02  0.20658635095E+03  0.17226833915E+03 0.  0.
         24    2    3    3    0    0 -0.96973574367E+02  0.62260823607E+02  0.83785231472E+02  0.16307377958E+03  0.79327222894E+02 0.  0.
         -6    2    1    2    0  502  0.58111952759E+02 -0.43696847713E+02  0.35120517372E+03  0.39648833255E+03  0.16903109254E+03 0.  0.
        -24    2    5    5    0    0  0.49682053682E+02  0.15209412111E+02  0.30495530681E+03  0.32097574529E+03  0.85604072568E+02 0.  0.
          5    1    3    3  501    0  0.38861621608E+02 -0.18563975894E+02  0.40505594632E+01  0.43512571367E+02  0.47000000000E+01 0. -1.
        -13    1    4    4    0    0 -0.50573166725E+02  0.11602845030E+02  0.78599762492E+02  0.94181706659E+02  0.00000000000E+00 0.  1.
         14    1    4    4    0    0 -0.46400407642E+02  0.50657978577E+02  0.51854689799E+01  0.68892072922E+02  0.00000000000E+00 0. -1.
         -5    1    5    5    0  502  0.84298990774E+01 -0.58906259824E+02  0.46249866913E+02  0.75512587258E+02  0.47000000000E+01 0.  1.
         11    1    6    6    0    0 -0.73931425966E+01 -0.24388264314E+02  0.13478251073E+03  0.13717059158E+03  0.00000000000E+00 0. -1.
        -12    1    6    6    0    0  0.57075196278E+02  0.39597676425E+02  0.17017279607E+03  0.18380515371E+03  0.00000000000E+00 0.  1.
</event>
<event>
12    1  0.8488291E-002  0.2072204E+03  0.7818608E-02  0.1144099E+00
         21   -1    0    0  503  502  0.00000000000E+00  0.00000000000E+00  0.42627042632E+03  0.42627042632E+03  0.00000000000E+00 0.  1.
         21   -1    0    0  501  503 -0.00000000000E+00 -0.00000000000E+00 -0.13791898309E+03  0.13791898309E+03  0.00000000000E+00 0.  1.
          6    2    1    2  501    0  0.65642642291E+02 -0.90866490983E+02 -0.33753523342E+01  0.20724790048E+03  0.17428317067E+03 0.  0.
         24    2    3    3    0    0  0.88448990329E+02 -0.12089593420E+03 -0.25001913158E+01  0.16923799549E+03  0.78715928279E+02 0.  0.
         -6    2    1    2    0  502 -0.65642642291E+02  0.90866490983E+02  0.29172679556E+03  0.35694150893E+03  0.17244431531E+03 0.  0.
        -24    2    5    5    0    0 -0.63933265985E+02  0.37342272854E+02  0.99481017293E+02  0.15732113634E+03  0.96806814307E+02 0.  0.
          5    1    3    3  501    0 -0.22806348038E+02  0.30029443214E+02 -0.87516101845E+00  0.38009904990E+02  0.47000000000E+01 0. -1.
        -11    1    4    4    0    0 -0.70570945207E+01 -0.10978632335E+02 -0.18616478342E+02  0.22735571620E+02  0.00000000000E+00 0.  1.
         12    1    4    4    0    0  0.95506084850E+02 -0.10991730186E+03  0.16116287026E+02  0.14650242387E+03  0.00000000000E+00 0. -1.
         -5    1    5    5    0  502 -0.17093763058E+01  0.53524218130E+02  0.19224577827E+03  0.19962037259E+03  0.47000000000E+01 0.  1.
         11    1    6    6    0    0 -0.39589738745E+01 -0.30403262847E+02  0.32996260553E+02  0.45042036769E+02  0.00000000000E+00 0. -1.
        -12    1    6    6    0    0 -0.59974292111E+02  0.67745535701E+02  0.66484756740E+02  0.11227909957E+03  0.00000000000E+00 0.  1.
</event>
<event>
12    1  0.8488291E-002  0.1760375E+03  0.7818608E-02  0.1171887E+00
         21   -1    0    0  503  502  0.00000000000E+00  0.00000000000E+00  0.36927780715E+03  0.36927780715E+03  0.00000000000E+00 0. -1.
         21   -1    0    0  501  503 -0.00000000000E+00 -0.00000000000E+00 -0.17927744251E+03  0.17927744251E+03  0.00000000000E+00 0. -1.
          6    2    1    2  501    0 -0.15071124471E+02  0.34863332257E+02 -0.10551785742E+03  0.20457820720E+03  0.17110123874E+03 0.  0.
         24    2    3    3    0    0  0.23974557102E+01  0.20573595441E+02  0.12508796030E+02  0.84321278933E+02  0.80774918629E+02 0.  0.
         -6    2    1    2    0  502  0.15071124471E+02 -0.34863332257E+02  0.29551822207E+03  0.34397704246E+03  0.17189123139E+03 0.  0.
        -24    2    5    5    0    0  0.41312940366E+02 -0.80098145347E+02  0.23452754178E+03  0.26349863355E+03  0.79409634817E+02 0.  0.
          5    1    3    3  501    0 -0.17468580181E+02  0.14289736816E+02 -0.11802665345E+03  0.12025692827E+03  0.47000000000E+01 0. -1.
        -13    1    4    4    0    0  0.99444771401E+01  0.47475023376E+02  0.23990734030E+02  0.54114007331E+02  0.00000000000E+00 0.  1.
         14    1    4    4    0    0 -0.75470214298E+01 -0.26901427935E+02 -0.11481938000E+02  0.30207271602E+02  0.00000000000E+00 0. -1.
         -5    1    5    5    0  502 -0.26241815895E+02  0.45234813091E+02  0.60990680297E+02  0.80478408905E+02  0.47000000000E+01 0.  1.
         13    1    6    6    0    0 -0.20996398899E+02 -0.39166359526E+01  0.49867036955E+02  0.54248596098E+02  0.00000000000E+00 0. -1.
        -14    1    6    6    0    0  0.62309339264E+02 -0.76181509395E+02  0.18466050482E+03  0.20925003745E+03  0.00000000000E+00 0.  1.
</event>
<event>
12    1  0.8488291E-002  0.1815473E+03  0.7818608E-02  0.1167958E+00
         21   -1    0    0  501  502  0.00000000000E+00  0.00000000000E+00  0.14411364910E+03  0.14411364910E+03  0.00000000000E+00 0.  1.
         21   -1    0    0  502  503 -0.00000000000E+00 -0.00000000000E+00 -0.22052858808E+03  0.22052858808E+03  0.00000000000E+00 0.  1.
         -6    2    1    2    0  503 -0.29962027104E+02 -0.13528718756E+02 -0.31655232631E+02  0.17765867836E+03  0.17169683440E+03 0.  0.
        -24    2    3    3    0    0  0.42458253430E+02  0.98554595316E+01 -0.39825271698E+02  0.10097519666E+03  0.81915228789E+02 0.  0.
          6    2    1    2  501    0  0.29962027104E+02  0.13528718756E+02 -0.44759706342E+02  0.18698355882E+03  0.17854599032E+03 0.  0.
         24    2    5    5    0    0 -0.54260736122E+01  0.32966223195E+02 -0.90853470545E+02  0.12552740087E+03  0.79915962821E+02 0.  0.
          5    1    5    5  501    0  0.35388100717E+02 -0.19437504439E+02  0.46093764203E+02  0.61456157946E+02  0.47000000000E+01 0. -1.
        -11    1    6    6    0    0 -0.35589391551E+02  0.11688277672E+02 -0.77845336663E+02  0.86389334215E+02  0.00000000000E+00 0.  1.
         12    1    6    6    0    0  0.30163317939E+02  0.21277945523E+02 -0.13008133882E+02  0.39138066660E+02  0.00000000000E+00 0. -1.
         -5    1    3    3    0  503 -0.72420280534E+02 -0.23384178288E+02  0.81700390672E+01  0.76683481697E+02  0.47000000000E+01 0.  1.
         13    1    4    4    0    0 -0.97125327832E+01 -0.23934760686E+02 -0.27271560681E+02  0.37562535646E+02  0.00000000000E+00 0. -1.
        -14    1    4    4    0    0  0.52170786213E+02  0.33790220218E+02 -0.12553711018E+02  0.63412661013E+02  0.00000000000E+00 0.  1.
</event>
<event>
12    1  0.8488291E-002  0.2117376E+03  0.7818608E-02  0.1142425E+00
         21   -1    0    0  501  502  0.00000000000E+00  0.00000000000E+00  0.11186245566E+03  0.11186245566E+03  0.00000000000E+00 0. -1.
         21   -1    0    0  502  503 -0.00000000000E+00 -0.00000000000E+00 -0.67841396046E+03  0.67841396046E+03  0.00000000000E+00 0.  1.
         -6    2    1    2    0  503  0.95218740087E+02  0.34526949079E+02 -0.54948078785E+03  0.58886496613E+03  0.18594110209E+03 0.  0.
        -24    2    3    3    0    0  0.11632549871E+03 -0.25381748337E+02 -0.31691899217E+03  0.34773921866E+03  0.79429602774E+02 0.  0.
          6    2    1    2  501    0 -0.95218740087E+02 -0.34526949079E+02 -0.17070716953E+02  0.20141144999E+03  0.17325254438E+03 0.  0.
         24    2    5    5    0    0 -0.81766661996E+02 -0.55885953710E+01 -0.73555296572E+02  0.13636543201E+03  0.80424685156E+02 0.  0.
          5    1    5    5  501    0 -0.13452078091E+02 -0.28938353708E+02  0.56484579619E+02  0.65046017980E+02  0.47000000000E+01 0. -1.
        -13    1    6    6    0    0 -0.72193194611E+02 -0.16535230076E+02 -0.14400860162E+02  0.75449691551E+02  0.00000000000E+00 0.  1.
         14    1    6    6    0    0 -0.95734673849E+01  0.10946634705E+02 -0.59154436410E+02  0.60915740462E+02  0.00000000000E+00 0. -1.
         -5    1    3    3    0  503 -0.21106758622E+02  0.59908697416E+02 -0.23256179567E+03  0.24112574747E+03  0.47000000000E+01 0.  1.
         11    1    4    4    0    0  0.77576060474E+01 -0.23539819984E+02 -0.20856775852E+02  0.32393034366E+02  0.00000000000E+00 0. -1.
        -12    1    4    4    0    0  0.10856789266E+03 -0.18419283527E+01 -0.29606221632E+03  0.31534618430E+03  0.00000000000E+00 0.  1.
</event>
<event>
12    1  0.8488291E-002  0.2688169E+03  0.7818608E-02  0.1102061E+00
         21   -1    0    0  501  502  0.00000000000E+00  0.00000000000E+00  0.84482389030E+02  0.84482389030E+02  0.00000000000E+00 0.  1.
         21   -1    0    0  502  503 -0.00000000000E+00 -0.00000000000E+00 -0.16817323373E+04  0.16817323373E+04  0.00000000000E+00 0. -1.
         -6    2    1    2    0  503  0.59180549762E+02 -0.19671936232E+03 -0.17820178814E+03  0.32192935875E+03  0.17228403799E+03 0.  0.
        -24    2    3    3    0    0  0.73845051352E+02 -0.92641681926E+02 -0.16060970636E+03  0.21525798253E+03  0.80653260487E+02 0.  0.
          6    2    1    2  501    0 -0.59180549762E+02  0.19671936232E+03 -0.14190481601E+04  0.14442853675E+04  0.17338309391E+03 0.  0.
         24    2    5    5    0    0  0.17518082679E+01  0.65122648330E+02 -0.88822804887E+03  0.89399223851E+03  0.77646812867E+02 0.  0.
          5    1    5    5  501    0 -0.60932358030E+02  0.13159671399E+03 -0.53082011121E+03  0.55029312903E+03  0.47000000000E+01 0. -1.
        -13    1    6    6    0    0  0.26192360617E+02 -0.53613879134E+01 -0.22670555883E+03  0.22827657488E+03  0.00000000000E+00 0.  1.
         14    1    6    6    0    0 -0.24440552349E+02  0.70484036243E+02 -0.66152249004E+03  0.66571566363E+03  0.00000000000E+00 0. -1.
         -5    1    3    3    0  503 -0.14664501590E+02 -0.10407768040E+03 -0.17592081783E+02  0.10667137622E+03  0.47000000000E+01 0.  1.
         13    1    4    4    0    0  0.77739643483E+02 -0.10481479600E+03 -0.14771708411E+03  0.19710385731E+03  0.00000000000E+00 0. -1.
        -14    1    4    4    0    0 -0.38945921310E+01  0.12173114071E+02 -0.12892622252E+02  0.18154125222E+02  0.00000000000E+00 0.  1.
</event>
<event>
12    1  0.8488291E-002  0.2013785E+03  0.7818608E-02  0.1149780E+00
         21   -1    0    0  503  502  0.00000000000E+00  0.00000000000E+00  0.36652494570E+02  0.36652494570E+02  0.00000000000E+00 0. -1.
         21   -1    0    0  501  503 -0.00000000000E+00 -0.00000000000E+00 -0.13424005194E+04  0.13424005194E+04  0.00000000000E+00 0.  1.
          6    2    1    2  501    0  0.23466532503E+02  0.94378591329E+02 -0.96768254824E+03  0.98841429415E+03  0.17633861195E+03 0.  0.
         24    2    3    3    0    0  0.82654683285E+02  0.59386190624E+02 -0.58350615566E+03  0.59810506300E+03  0.83016362213E+02 0.  0.
         -6    2    1    2    0  502 -0.23466532503E+02 -0.94378591329E+02 -0.33806547662E+03  0.39063871985E+03  0.16985978428E+03 0.  0.
        -24    2    5    5    0    0  0.39948954173E+02 -0.83824862048E+02 -0.27052727284E+03  0.29727703541E+03  0.81031500011E+02 0.  0.
          5    1    3    3  501    0 -0.59188150782E+02  0.34992400706E+02 -0.38417639259E+03  0.39030923115E+03  0.47000000000E+01 0. -1.
        -11    1    4    4    0    0  0.88067504829E+02  0.59949450324E+02 -0.58298367515E+03  0.59263799025E+03  0.00000000000E+00 0.  1.
         12    1    4    4    0    0 -0.54128215434E+01 -0.56325969997E+00 -0.52248050515E+00  0.54670727477E+01  0.00000000000E+00 0. -1.
         -5    1    5    5    0  502 -0.63415486676E+02 -0.10553729281E+02 -0.67538203784E+02  0.93361684445E+02  0.47000000000E+01 0.  1.
         11    1    6    6    0    0  0.25694620286E+02 -0.15912772914E+02 -0.18349495355E+03  0.18596727624E+03  0.00000000000E+00 0. -1.
        -12    1    6    6    0    0  0.14254333886E+02 -0.67912089134E+02 -0.87032319284E+02  0.11130975916E+03  0.00000000000E+00 0.  1.
</event>
<event>
12    1  0.8488291E-002  0.1765811E+03  0.7818608E-02  0.1171458E+00
         21   -1    0    0  501  502  0.00000000000E+00  0.00000000000E+00  0.52738928495E+03  0.52738928495E+03  0.00000000000E+00 0.  1.
         21   -1    0    0  502  503 -0.00000000000E+00 -0.00000000000E+00 -0.58729501258E+02  0.58729501258E+02  0.00000000000E+00 0.  1.
         -6    2    1    2    0  503  0.77120414196E+01  0.31282385524E+02  0.22881703460E+03  0.28828419563E+03  0.17237308056E+03 0.  0.
        -24    2    3    3    0    0  0.19026351488E+02 -0.40706775576E+02  0.17740091045E+03  0.19897484142E+03  0.78108007651E+02 0.  0.
          6    2    1    2  501    0 -0.77120414196E+01 -0.31282385524E+02  0.23984274910E+03  0.29783459058E+03  0.17361692263E+03 0.  0.
         24    2    5    5    0    0 -0.84830107772E+01  0.16259499488E+02  0.23562861223E+03  0.24986924711E+03  0.81101571845E+02 0.  0.
          5    1    5    5  501    0  0.77096935759E+00 -0.47541885012E+02  0.42141368692E+01  0.47965343466E+02  0.47000000000E+01 0. -1.
        -11    1    6    6    0    0 -0.37140947556E+02  0.18119482610E+02  0.66314795236E+02  0.78137172349E+02  0.00000000000E+00 0.  1.
         12    1    6    6    0    0  0.28657936779E+02 -0.18599831223E+01  0.16931381699E+03  0.17173207476E+03  0.00000000000E+00 0. -1.
         -5    1    3    3    0  503 -0.11314310069E+02  0.71989161100E+02  0.51416124142E+02  0.89309354213E+02  0.47000000000E+01 0.  1.
         13    1    4    4    0    0 -0.23293121598E+02 -0.25898892836E+02  0.12619530504E+03  0.13091438874E+03  0.00000000000E+00 0. -1.
        -14    1    4    4    0    0  0.42319473087E+02 -0.14807882740E+02  0.51205605410E+02  0.68060452680E+02  0.00000000000E+00 0.  1.
</event>
<event>
12    1  0.8488291E-002  0.1973394E+03  0.7818608E-02  0.1156139E+00
         21   -1    0    0  501  502  0.00000000000E+00  0.00000000000E+00  0.14029240111E+03  0.14029240111E+03  0.00000000000E+00 0. -1.
         21   -1    0    0  502  503 -0.00000000000E+00 -0.00000000000E+00 -0.25519296943E+03  0.25519296943E+03  0.00000000000E+00 0. -1.
         -6    2    1    2    0  503 -0.39536480272E+02 -0.17138275405E+02 -0.75176039079E+02  0.19418736012E+03  0.17378273856E+03 0.  0.
        -24    2    3    3    0    0 -0.79046992850E+02 -0.11541499394E+02 -0.45695612401E+01  0.11294839644E+03  0.79717163036E+02 0.  0.
          6    2    1    2  501    0  0.39536480272E+02  0.17138275405E+02 -0.39724529239E+02  0.20129801042E+03  0.19257724948E+03 0.  0.
         24    2    5    5    0    0  0.13976186060E+02  0.10970253139E+02  0.52504123612E+02  0.10527932710E+03  0.89506276251E+02 0.  0.
          5    1    5    5  501    0  0.25560294212E+02  0.61680222665E+01 -0.92228652850E+02  0.96018683315E+02  0.47000000000E+01 0. -1.
        -11    1    6    6    0    0  0.31064744013E+02 -0.25756366595E+02  0.50608610110E+02  0.64727429719E+02  0.00000000000E+00 0.  1.
         12    1    6    6    0    0 -0.17088557953E+02  0.36726619734E+02  0.18955135015E+01  0.40551897384E+02  0.00000000000E+00 0. -1.
         -5    1    3    3    0  503  0.39510512578E+02 -0.55967760115E+01 -0.70606477839E+02  0.81238963673E+02  0.47000000000E+01 0.  1.
         13    1    4    4    0    0 -0.26768340602E+02 -0.22206892028E+01  0.36851227590E+02  0.45601408903E+02  0.00000000000E+00 0. -1.
        -14    1    4    4    0    0 -0.52278652249E+02 -0.93208101908E+01 -0.41420788830E+02  0.67346987541E+02  0.00000000000E+00 0.  1.
</event>
<event>
12    1  0.8488291E-002  0.2949763E+03  0.7818608E-02  0.1087829E+00
         21   -1    0    0  503  502  0.00000000000E+00  0.00000000000E+00  0.21797787706E+03  0.21797787706E+03  0.00000000000E+00 0. -1.
         21   -1    0    0  501  503 -0.00000000000E+00 -0.00000000000E+00 -0.40817386172E+03  0.40817386172E+03  0.00000000000E+00 0. -1.
          6    2    1    2  501    0  0.12074802557E+03 -0.20683721693E+03 -0.47328345489E+02  0.29874908421E+03  0.17218978787E+03 0.  0.
         24    2    3    3    0    0  0.79726431211E+02 -0.20633201009E+03 -0.12973610522E+02  0.24503349753E+03  0.10461308772E+03 0.  0.
         -6    2    1    2    0  502 -0.12074802557E+03  0.20683721693E+03 -0.14286763917E+03  0.32740265457E+03  0.17152147362E+03 0.  0.
        -24    2    5    5    0    0 -0.80659028643E+02  0.14675624821E+03 -0.20819045752E+02  0.18550551002E+03  0.77042756260E+02 0.  0.
          5    1    3    3  501    0  0.41021594362E+02 -0.50520684196E+00 -0.34354734966E+02  0.53715586681E+02  0.47000000000E+01 0. -1.
        -11    1    4    4    0    0 -0.25749053815E+02 -0.42872033616E+02 -0.60440085992E+01  0.50374150898E+02  0.00000000000E+00 0.  1.
         12    1    4    4    0    0  0.10547548503E+03 -0.16345997647E+03 -0.69296019230E+01  0.19465934663E+03  0.00000000000E+00 0. -1.
         -5    1    5    5    0  502 -0.40088996929E+02  0.60080968721E+02 -0.12204859342E+03  0.14189714455E+03  0.47000000000E+01 0.  1.
         13    1    6    6    0    0 -0.40071284271E+02  0.11340047097E+03 -0.44020442317E+02  0.12807487646E+03  0.00000000000E+00 0. -1.
        -14    1    6    6    0    0 -0.40587744371E+02  0.33355777242E+02  0.23201396565E+02  0.57430633560E+02  0.00000000000E+00 0.  1.
</event>
<event>
12    1  0.8488291E-002  0.2169935E+03  0.7818608E-02  0.1136250E+00
         21   -1    0    0  501  502  0.00000000000E+00  0.00000000000E+00  0.50040392747E+02  0.50040392747E+02  0.00000000000E+00 0.  1.
         21   -1    0    0  502  503 -0.00000000000E+00 -0.00000000000E+00 -0.13734965389E+04  0.13734965389E+04  0.00000000000E+00 0.  1.
         -6    2    1    2    0  503 -0.63389720983E+02 -0.11691760968E+03 -0.10616815570E+04  0.10835191192E+04  0.17075704652E+03 0.  0.
        -24    2    3    3    0    0 -0.30694285888E+02 -0.88346396831E+02 -0.36179516933E+03  0.38227140878E+03  0.80550980102E+02 0.  0.
          6    2    1    2  501    0  0.63389720983E+02  0.11691760968E+03 -0.26177458912E+03  0.34001781246E+03  0.17145901288E+03 0.  0.
         24    2    5    5    0    0  0.73199821280E+01  0.13270609038E+03 -0.16197470165E+03  0.22436661584E+03  0.80250144979E+02 0.  0.
          5    1    5    5  501    0  0.56069738855E+02 -0.15788480702E+02 -0.99799887475E+02  0.11565119661E+03  0.47000000000E+01 0. -1.
        -13    1    6    6    0    0 -0.13418339214E+02 -0.56314094620E+01 -0.91555579375E+01  0.17192697315E+02  0.00000000000E+00 0.  1.
         14    1    6    6    0    0  0.20738321342E+02  0.13833749984E+03 -0.15281914371E+03  0.20717391853E+03  0.00000000000E+00 0. -1.
         -5    1    3    3    0  503 -0.32695435094E+02 -0.28571212844E+02 -0.69988638771E+03  0.70124771043E+03  0.47000000000E+01 0.  1.
         13    1    4    4    0    0  0.12622239098E+01 -0.29836956395E+01 -0.16883985779E+03  0.16887093660E+03  0.00000000000E+00 0. -1.
        -14    1    4    4    0    0 -0.31956509798E+02 -0.85362701191E+02 -0.19295531155E+03  0.21340047218E+03  0.00000000000E+00 0.  1.
</event>
<event>
12    1  0.8488291E-002  0.2339547E+03  0.7818608E-02  0.1124398E+00
         21   -1    0    0  503  502  0.00000000000E+00  0.00000000000E+00  0.39686198449E+02  0.39686198449E+02  0.00000000000E+00 0.  1.
         21   -1    0    0  501  503 -0.00000000000E+00 -0.00000000000E+00 -0.13756980241E+04  0.13756980241E+04  0.00000000000E+00 0.  1.
          6    2    1    2  501    0  0.65747770991E+02  0.14410973046E+03 -0.74318754409E+03  0.77914217641E+03  0.17217555448E+03 0.  0.
         24    2    3    3    0    0  0.46305042596E+02  0.10095585179E+03 -0.26218166542E+03  0.29579031466E+03  0.80102706499E+02 0.  0.
         -6    2    1    2    0  502 -0.65747770991E+02 -0.14410973046E+03 -0.59282428153E+03  0.63624204611E+03  0.16814555797E+03 0.  0.
        -24    2    5    5    0    0 -0.66188280425E+02 -0.12672924746E+03 -0.59594437562E+03  0.61796363740E+03  0.79297967715E+02 0.  0.
          5    1    3    3  501    0  0.19442728395E+02  0.43153878676E+02 -0.48100587868E+03  0.48335186175E+03  0.47000000000E+01 0. -1.
        -11    1    4    4    0    0  0.16355031084E+01  0.88620360440E+02 -0.19473264000E+03  0.21395570625E+03  0.00000000000E+00 0.  1.
         12    1    4    4    0    0  0.44669539488E+02  0.12335491345E+02 -0.67449025417E+02  0.81834608415E+02  0.00000000000E+00 0. -1.
         -5    1    5    5    0  502  0.44050943331E+00 -0.17380483005E+02  0.31200940901E+01  0.18278408716E+02  0.47000000000E+01 0.  1.
         13    1    6    6    0    0  0.33707409788E+01  0.70632252125E+01 -0.81479774730E+02  0.81854778328E+02  0.00000000000E+00 0. -1.
        -14    1    6    6    0    0 -0.69559021404E+02 -0.13379247267E+03 -0.51446460089E+03  0.53610885907E+03  0.00000000000E+00 0.  1.
</event>
<event>
12    1  0.8488291E-002  0.1976158E+03  0.7818608E-02  0.1151957E+00
         21   -1    0    0  501  502  0.00000000000E+00  0.00000000000E+00  0.86199250371E+02  0.86199250371E+02  0.00000000000E+00 0. -1.
         21   -1    0    0  502  503 -0.00000000000E+00 -0.00000000000E+00 -0.11898779746E+04  0.11898779746E+04  0.00000000000E+00 0. -1.
         -6    2    1    2    0  503  0.11434964902E+02  0.93955526405E+02 -0.10541497143E+04  0.10723491413E+04  0.17246060826E+03 0.  0.
        -24    2    3    3    0    0 -0.40160286589E+02  0.34477645072E+00 -0.55126780044E+03  0.55821165800E+03  0.78045498503E+02 0.  0.
          6    2    1    2  501    0 -0.11434964902E+02 -0.93955526405E+02 -0.49529009959E+02  0.20372808366E+03  0.17347509874E+03 0.  0.
         24    2    5    5    0    0  0.45401143673E+02 -0.69871146773E+02  0.12566878526E+02  0.11604461916E+03  0.79782117061E+02 0.  0.
          5    1    5    5  501    0 -0.56836108575E+02 -0.24084379632E+02 -0.62095888485E+02  0.87683464501E+02  0.47000000000E+01 0. -1.
        -13    1    6    6    0    0  0.17538472278E+02  0.13460274038E+02 -0.11529862405E+02  0.24934207710E+02  0.00000000000E+00 0.  1.
         14    1    6    6    0    0  0.27862671395E+02 -0.83331420812E+02  0.24096740931E+02  0.91110411453E+02  0.00000000000E+00 0. -1.
         -5    1    3    3    0  503  0.51595251491E+02  0.93610749954E+02 -0.50288191385E+03  0.51413748332E+03  0.47000000000E+01 0.  1.
         11    1    4    4    0    0  0.25264401222E+01 -0.27419598449E+02 -0.33059665148E+03  0.33174141021E+03  0.00000000000E+00 0. -1.
        -12    1    4    4    0    0 -0.42686726711E+02  0.27764374899E+02 -0.22067114896E+03  0.22647024779E+03  0.00000000000E+00 0.  1.
</event>
<event>
12    1  0.8488291E-002  0.1965353E+03  0.7818608E-02  0.1152896E+00
         21   -1    0    0  501  502  0.00000000000E+00  0.00000000000E+00  0.58447236170E+03  0.58447236170E+03  0.00000000000E+00 0. -1.
         21   -1    0    0  502  503 -0.00000000000E+00 -0.00000000000E+00 -0.20296641591E+03  0.20296641591E+03  0.00000000000E+00 0. -1.
         -6    2    1    2    0  503  0.88080250533E+02  0.37453899520E+02 -0.13308905488E+03  0.23659022191E+03  0.17059106498E+03 0.  0.
        -24    2    3    3    0    0  0.71769236938E+02  0.72984507191E+01 -0.85287915743E+01  0.10731242238E+03  0.78988131748E+02 0.  0.
          6    2    1    2  501    0 -0.88080250533E+02 -0.37453899520E+02  0.51459500067E+03  0.55084855569E+03  0.17165427892E+03 0.  0.
         24    2    5    5    0    0 -0.60260395468E+02 -0.39477616681E+02  0.51112584634E+03  0.52235005049E+03  0.80063393461E+02 0.  0.
          5    1    5    5  501    0 -0.27819855065E+02  0.20237171603E+01  0.34691543309E+01  0.28498505202E+02  0.47000000000E+01 0. -1.
        -11    1    6    6    0    0 -0.32725098811E+02  0.22611461708E+02  0.18631986780E+03  0.19051851204E+03  0.00000000000E+00 0.  1.
         12    1    6    6    0    0 -0.27535296657E+02 -0.62089078388E+02  0.32480597854E+03  0.33183153845E+03  0.00000000000E+00 0. -1.
         -5    1    3    3    0  503  0.16311013595E+02  0.30155448801E+02 -0.12456026331E+03  0.12927779953E+03  0.47000000000E+01 0.  1.
         11    1    4    4    0    0  0.51968588354E+02  0.42123049359E+02 -0.44161761955E+01  0.67041689082E+02  0.00000000000E+00 0. -1.
        -12    1    4    4    0    0  0.19800648584E+02 -0.34824598640E+02 -0.41126153789E+01  0.40270733294E+02  0.00000000000E+00 0.  1.
</event>
<event>
12    1  0.8488291E-002  0.2197121E+03  0.7818608E-02  0.1134321E+00
         21   -1    0    0  503  502  0.00000000000E+00  0.00000000000E+00  0.28606879471E+03  0.28606879471E+03  0.00000000000E+00 0.  1.
         21   -1    0    0  501  503 -0.00000000000E+00 -0.00000000000E+00 -0.16806027560E+03  0.16806027560E+03  0.00000000000E+00 0. -1.
          6    2    1    2  501    0  0.12469436173E+03  0.56564595613E+02  0.67524966481E+02  0.22985439985E+03  0.17182894607E+03 0.  0.
         24    2    3    3    0    0  0.82518234214E+02  0.86365750795E+02  0.94210956756E+02  0.17153487774E+03  0.79247763500E+02 0.  0.
         -6    2    1    2    0  502 -0.12469436173E+03 -0.56564595613E+02  0.50483552627E+02  0.22427467046E+03  0.17030062066E+03 0.  0.
        -24    2    5    5    0    0  0.22484468102E+00 -0.45532588967E+02  0.16217273902E+02  0.94187080121E+02  0.80838968794E+02 0.  0.
          5    1    3    3  501    0  0.42176127518E+02 -0.29801155182E+02 -0.26685990274E+02  0.58319522113E+02  0.47000000000E+01 0. -1.
        -13    1    4    4    0    0  0.95285243606E+02  0.72788926043E+02  0.63684250580E+02  0.13576888147E+03  0.00000000000E+00 0.  1.
         14    1    4    4    0    0 -0.12767009392E+02  0.13576824752E+02  0.30526706175E+02  0.35765996268E+02  0.00000000000E+00 0. -1.
         -5    1    5    5    0  502 -0.12491920641E+03 -0.11032006645E+02  0.34266278726E+02  0.13008759033E+03  0.47000000000E+01 0.  1.
         13    1    6    6    0    0 -0.12292754970E+02 -0.51451784317E+02 -0.19107897717E+02  0.56245085913E+02  0.00000000000E+00 0. -1.
        -14    1    6    6    0    0  0.12517599651E+02  0.59191953497E+01  0.35325171618E+02  0.37941994208E+02  0.00000000000E+00 0.  1.
</event>
<event>
12    1  0.8488291E-002  0.1835249E+03  0.7818608E-02  0.1164566E+00
         21   -1    0    0  503  502  0.00000000000E+00  0.00000000000E+00  0.20251667711E+03  0.20251667711E+03  0.00000000000E+00 0. -1.
         21   -1    0    0  501  503 -0.00000000000E+00 -0.00000000000E+00 -0.49850245777E+03  0.49850245777E+03  0.00000000000E+00 0. -1.
          6    2    1    2  501    0  0.11133288050E+02  0.61868881020E+02 -0.43426178476E+03  0.47123307976E+03  0.17183017551E+03 0.  0.
         24    2    3    3    0    0  0.47483588234E+02  0.35895097241E+02 -0.13140578786E+03  0.16506347541E+03  0.80220450478E+02 0.  0.
         -6    2    1    2    0  502 -0.11133288050E+02 -0.61868881020E+02  0.13827600411E+03  0.22978605512E+03  0.17242293720E+03 0.  0.
        -24    2    5    5    0    0  0.31184696437E+02 -0.30497739761E+02  0.14858939332E+03  0.17590269672E+03  0.83428732959E+02 0.  0.
          5    1    3    3  501    0 -0.36350300184E+02  0.25973783779E+02 -0.30285599691E+03  0.30616960435E+03  0.47000000000E+01 0. -1.
        -11    1    4    4    0    0  0.11293475628E+02 -0.15787365143E+02 -0.12843107837E+00  0.19411336493E+02  0.00000000000E+00 0.  1.
         12    1    4    4    0    0  0.36190112606E+02  0.51682462384E+02 -0.13127735678E+03  0.14565213892E+03  0.00000000000E+00 0. -1.
         -5    1    5    5    0  502 -0.42317984487E+02 -0.31371141259E+02 -0.10313389217E+02  0.53883358397E+02  0.47000000000E+01 0.  1.
         11    1    6    6    0    0  0.18778051914E+02 -0.58916316745E+02  0.84534999633E+02  0.10473735616E+03  0.00000000000E+00 0. -1.
        -12    1    6    6    0    0  0.12406644523E+02  0.28418576984E+02  0.64054393692E+02  0.71165340562E+02  0.00000000000E+00 0.  1.
</event>
<event>
12    1  0.8488291E-002  0.2469266E+03  0.7818608E-02  0.1115566E+00
         21   -1    0    0  503  502  0.00000000000E+00  0.00000000000E+00  0.47381903852E+03  0.47381903852E+03  0.00000000000E+00 0. -1.
         21   -1    0    0  501  503 -0.00000000000E+00 -0.00000000000E+00 -0.62950515599E+03  0.62950515599E+03  0.00000000000E+00 0. -1.
          6    2    1    2  501    0  0.45172146184E+02 -0.17059445452E+03 -0.57031847743E+03  0.62073455609E+03  0.17001538967E+03 0.  0.
         24    2    3    3    0    0  0.85379474935E+02 -0.86025462517E+02 -0.27349767754E+03  0.30945779670E+03  0.79202988409E+02 0.  0.
         -6    2    1    2    0  502 -0.45172146184E+02  0.17059445452E+03  0.41463235996E+03  0.48258963842E+03  0.17271298295E+03 0.  0.
        -24    2    5    5    0    0 -0.50351283119E+02  0.98976841556E+02  0.37743310509E+03  0.40158482060E+03  0.80516783620E+02 0.  0.
          5    1    3    3  501    0 -0.40207328752E+02 -0.84568992004E+02 -0.29682079989E+03  0.31127675940E+03  0.47000000000E+01 0. -1.
        -11    1    4    4    0    0  0.51314627648E+01  0.14324207659E+02 -0.42312137241E+02  0.44964783921E+02  0.00000000000E+00 0.  1.
         12    1    4    4    0    0  0.80248012170E+02 -0.10034967018E+03 -0.23118554030E+03  0.26449301277E+03  0.00000000000E+00 0. -1.
         -5    1    5    5    0  502  0.51791369358E+01  0.71617612966E+02  0.37199254867E+02  0.81004817814E+02  0.47000000000E+01 0.  1.
         11    1    6    6    0    0 -0.39443879574E+02  0.45629609239E+02  0.30533561852E+03  0.31123579616E+03  0.00000000000E+00 0. -1.
        -12    1    6    6    0    0 -0.10907403545E+02  0.53347232317E+02  0.72097486576E+02  0.90349024447E+02  0.00000000000E+00 0.  1.
</event>
<event>
12    1  0.8488291E-002  0.1777287E+03  0.7818608E-02  0.1170872E+00
         21   -1    0    0  503  502  0.00000000000E+00  0.00000000000E+00  0.43467441238E+02  0.43467441238E+02  0.00000000000E+00 0. -1.
         21   -1    0    0  501  503 -0.00000000000E+00 -0.00000000000E+00 -0.72248749050E+03  0.72248749050E+03  0.00000000000E+00 0. -1.
          6    2    1    2  501    0 -0.65419363159E+01  0.31435613170E+02 -0.38071806261E+03  0.41872074151E+03  0.17131789593E+03 0.  0.
         24    2    3    3    0    0  0.38258322802E+01  0.86452047072E+02 -0.27167692840E+03  0.29605714636E+03  0.79705000165E+02 0.  0.
         -6    2    1    2    0  502  0.65419363159E+01 -0.31435613170E+02 -0.29830198666E+03  0.34723419023E+03  0.17480421310E+03 0.  0.
        -24    2    5    5    0    0 -0.58783580346E+01 -0.87203782798E+02 -0.22300210845E+03  0.25259532869E+03  0.80220975296E+02 0.  0.
          5    1    3    3  501    0 -0.10367768596E+02 -0.55016433901E+02 -0.10904113421E+03  0.12266359515E+03  0.47000000000E+01 0. -1.
        -11    1    4    4    0    0  0.43087668214E+01  0.59146786570E+02 -0.25943959342E+03  0.26613119033E+03  0.00000000000E+00 0.  1.
         12    1    4    4    0    0 -0.48293454118E+00  0.27305260501E+02 -0.12237334977E+02  0.29925956028E+02  0.00000000000E+00 0. -1.
         -5    1    5    5    0  502  0.12420294351E+02  0.55768169627E+02 -0.75299878210E+02  0.94638861541E+02  0.47000000000E+01 0.  1.
         13    1    6    6    0    0 -0.36620535747E+02 -0.14512743104E+02 -0.83185560041E+02  0.92040864567E+02  0.00000000000E+00 0. -1.
        -14    1    6    6    0    0  0.30742177713E+02 -0.72691039694E+02 -0.13981654841E+03  0.16055446413E+03  0.00000000000E+00 0.  1.
</event>
<event>
12    1  0.8488291E-002  0.1984654E+03  0.7818608E-02  0.1151054E+00
         21   -1    0    0  503  502  0.00000000000E+00  0.00000000000E+00  0.26798222829E+03  0.26798222829E+03  0.00000000000E+00 0. -1.
         21   -1    0    0  501  503 -0.00000000000E+00 -0.00000000000E+00 -0.14707635048E+03  0.14707635048E+03  0.00000000000E+00 0. -1.
          6    2    1    2  501    0 -0.31972957723E+01 -0.99153211680E+02  0.53981701067E+02  0.20567579415E+03  0.17189219343E+03 0.  0.
         24    2    3    3    0    0  0.54540200899E+02 -0.10084215699E+03  0.50721374067E+02  0.14763106321E+03  0.77964728542E+02 0.  0.
         -6    2    1    2    0  502  0.31972957723E+01  0.99153211680E+02  0.66924176747E+02  0.20938278462E+03  0.17181595669E+03 0.  0.
        -24    2    5    5    0    0  0.30685312870E+02  0.12151616692E+03  0.19558174551E+02  0.15004206491E+03  0.80139452210E+02 0.  0.
          5    1    3    3  501    0 -0.57737496672E+02  0.16889453060E+01  0.32603269992E+01  0.58044730943E+02  0.47000000000E+01 0. -1.
        -11    1    4    4    0    0  0.13719546006E+02  0.12134470168E+02  0.40519145683E+01  0.18758713190E+02  0.00000000000E+00 0.  1.
         12    1    4    4    0    0  0.40820654894E+02 -0.11297662715E+03  0.46669459499E+02  0.12887235002E+03  0.00000000000E+00 0. -1.
         -5    1    5    5    0  502 -0.27488017098E+02 -0.22362955245E+02  0.47366002196E+02  0.59340719706E+02  0.47000000000E+01 0.  1.
         11    1    6    6    0    0  0.37571484875E+02  0.39876570820E+02  0.37214036305E+02  0.66231728607E+02  0.00000000000E+00 0. -1.
        -12    1    6    6    0    0 -0.68861720048E+01  0.81639596105E+02 -0.17655861754E+02  0.83810336303E+02  0.00000000000E+00 0.  1.
</event>
<event>
12    1  0.8488291E-002  0.1747285E+03  0.7818608E-02  0.1173796E+00
         21   -1    0    0  503  502  0.00000000000E+00  0.00000000000E+00  0.23620775296E+03  0.23620775296E+03  0.00000000000E+00 0. -1.
         21   -1    0    0  501  503 -0.00000000000E+00 -0.00000000000E+00 -0.13900204772E+03  0.13900204772E+03  0.00000000000E+00 0. -1.
          6    2    1    2  501    0 -0.10550657389E+02  0.17432908969E+02 -0.70232576045E+01  0.17175530306E+03  0.17039758007E+03 0.  0.
         24    2    3    3    0    0 -0.58267904558E+02  0.23932787606E+01  0.35928335415E+02  0.10564890778E+03  0.80436123379E+02 0.  0.
         -6    2    1    2    0  502  0.10550657389E+02 -0.17432908969E+02  0.10422896285E+03  0.20345449762E+03  0.17353625909E+03 0.  0.
        -24    2    5    5    0    0  0.70929989518E+02 -0.12831229740E+02  0.88364591403E+02  0.14068023951E+03  0.82382794953E+02 0.  0.
          5    1    3    3  501    0  0.47717247169E+02  0.15039630209E+02 -0.42951593020E+02  0.66106395281E+02  0.47000000000E+01 0. -1.
        -11    1    4    4    0    0  0.18041463792E+01 -0.30609824874E+02  0.84585069956E+01  0.31808216919E+02  0.00000000000E+00 0.  1.
         12    1    4    4    0    0 -0.60072050937E+02  0.33003103634E+02  0.27469828419E+02  0.73840690860E+02  0.00000000000E+00 0. -1.
         -5    1    5    5    0  502 -0.60379332129E+02 -0.46016792294E+01  0.15864371447E+02  0.62774258112E+02  0.47000000000E+01 0.  1.
         13    1    6    6    0    0 -0.13833696483E+02 -0.19039812447E+02  0.27200933841E+02  0.35969103661E+02  0.00000000000E+00 0. -1.
        -14    1    6    6    0    0  0.84763686001E+02  0.62085827067E+01  0.61163657562E+02  0.10471113585E+03  0.00000000000E+00 0.  1.
</event>
<event>
12    1  0.8488291E-002  0.2358471E+03  0.7818608E-02  0.1122783E+00
         21   -1    0    0  501  502  0.00000000000E+00  0.00000000000E+00  0.92052218262E+03  0.92052218262E+03  0.00000000000E+00 0. -1.
         21   -1    0    0  502  503 -0.00000000000E+00 -0.00000000000E+00 -0.77290259962E+02  0.77290259962E+02  0.00000000000E+00 0. -1.
         -6    2    1    2    0  503  0.14788373896E+03 -0.63503633703E+02  0.18579963071E+03  0.29935622169E+03  0.17085178651E+03 0.  0.
        -24    2    3    3    0    0  0.92906458901E+02 -0.43746936443E+02  0.32105023362E+02  0.13486625016E+03  0.81318929852E+02 0.  0.
          6    2    1    2  501    0 -0.14788373896E+03  0.63503633703E+02  0.65743229195E+03  0.69845622089E+03  0.17239942651E+03 0.  0.
         24    2    5    5    0    0 -0.22192438617E+02 -0.81050351287E+01  0.15954217705E+03  0.17995572818E+03  0.79825822379E+02 0.  0.
          5    1    5    5  501    0 -0.12569130034E+03  0.71608668832E+02  0.49789011490E+03  0.51850049272E+03  0.47000000000E+01 0. -1.
        -13    1    6    6    0    0  0.23709105210E+01 -0.37171733322E+01 -0.87637055800E+01  0.98102563562E+01  0.00000000000E+00 0.  1.
         14    1    6    6    0    0 -0.24563349138E+02 -0.43878617964E+01  0.16830588263E+03  0.17014547182E+03  0.00000000000E+00 0. -1.
         -5    1    3    3    0  503  0.54977280056E+02 -0.19756697260E+02  0.15369460735E+03  0.16448997154E+03  0.47000000000E+01 0.  1.
         11    1    4    4    0    0  0.12062232396E+02 -0.45061879561E+02 -0.29449426185E+01  0.46741235830E+02  0.00000000000E+00 0. -1.
        -12    1    4    4    0    0  0.80844226505E+02  0.13149431176E+01  0.35049965981E+02  0.88125014325E+02  0.00000000000E+00 0.  1.
</event>
<event>
12    1  0.8488291E-002  0.2091570E+03  0.7818608E-02  0.1142520E+00
         21   -1    0    0  503  502  0.00000000000E+00  0.00000000000E+00  0.35002668288E+03  0.35002668288E+03  0.00000000000E+00 0. -1.
         21   -1    0    0  501  503 -0.00000000000E+00 -0.00000000000E+00 -0.12845182570E+03  0.12845182570E+03  0.00000000000E+00 0.  1.
          6    2    1    2  501    0 -0.41866334121E+02  0.10990497809E+03  0.66542474948E+02  0.21812936402E+03  0.17123266141E+03 0.  0.
         24    2    3    3    0    0  0.10313590547E+02 -0.90519355585E+01  0.25438736003E+02  0.81802186980E+02  0.76525556633E+02 0.  0.
         -6    2    1    2    0  502  0.41866334121E+02 -0.10990497809E+03  0.15503238223E+03  0.26034914456E+03  0.17295879101E+03 0.  0.
        -24    2    5    5    0    0 -0.31622686032E+02 -0.32716959481E+02  0.11118278908E+03  0.14500833166E+03  0.81212129346E+02 0.  0.
          5    1    3    3  501    0 -0.52179924668E+02  0.11895691365E+03  0.41103738945E+02  0.13632717704E+03  0.47000000000E+01 0. -1.
        -13    1    4    4    0    0 -0.12934470753E+02  0.16475938710E+02 -0.17081836360E+02  0.27028618601E+02  0.00000000000E+00 0.  1.
         14    1    4    4    0    0  0.23248061301E+02 -0.25527874268E+02  0.42520572363E+02  0.54773568379E+02  0.00000000000E+00 0. -1.
         -5    1    5    5    0  502  0.73489020152E+02 -0.77188018614E+02  0.43849593149E+02  0.11534081290E+03  0.47000000000E+01 0.  1.
         11    1    6    6    0    0  0.26580577382E+02 -0.20159904678E+02  0.35579949416E+02  0.48773780364E+02  0.00000000000E+00 0. -1.
        -12    1    6    6    0    0 -0.58203263414E+02 -0.12557054803E+02  0.75602839668E+02  0.96234551297E+02  0.00000000000E+00 0.  1.
</event>
<event>
12    1  0.8488291E-002  0.3912020E+03  0.7818608E-02  0.1046957E+00
         21   -1    0    0  501  502  0.00000000000E+00  0.00000000000E+00  0.14402715793E+03  0.14402715793E+03  0.00000000000E+00 0.  1.
         21   -1    0    0  502  503 -0.00000000000E+00 -0.00000000000E+00 -0.10783209733E+04  0.10783209733E+04  0.00000000000E+00 0. -1.
         -6    2    1    2    0  503  0.12946148380E+03  0.32610826168E+03 -0.54762188636E+03  0.67299978323E+03  0.17300896995E+03 0.  0.
        -24    2    3    3    0    0  0.10259644403E+03  0.32524609005E+03 -0.54105185896E+03  0.64493327362E+03  0.83010625265E+02 0.  0.
          6    2    1    2  501    0 -0.12946148380E+03 -0.32610826168E+03 -0.38667192897E+03  0.54934834795E+03  0.17076753972E+03 0.  0.
         24    2    5    5    0    0 -0.12312088336E+03 -0.16725948671E+03 -0.16578845126E+03  0.27716323217E+03  0.78734737485E+02 0.  0.
          5    1    5    5  501    0 -0.63406004438E+01 -0.15884877497E+03 -0.22088347772E+03  0.27218511578E+03  0.47000000000E+01 0. -1.
        -11    1    6    6    0    0 -0.24977094306E+02 -0.78481427275E+02 -0.99455465507E+02  0.12913008668E+03  0.00000000000E+00 0.  1.
         12    1    6    6    0    0 -0.98143789052E+02 -0.88778059434E+02 -0.66332985748E+02  0.14803314549E+03  0.00000000000E+00 0. -1.
         -5    1    3    3    0  503  0.26865039774E+02  0.86217162792E+00 -0.65700273974E+01  0.28066509615E+02  0.47000000000E+01 0.  1.
         11    1    4    4    0    0  0.38774605415E+02  0.19548271704E+03 -0.24807084157E+03  0.31820764466E+03  0.00000000000E+00 0. -1.
        -12    1    4    4    0    0  0.63821838613E+02  0.12976337301E+03 -0.29298101740E+03  0.32672562895E+03  0.00000000000E+00 0.  1.
</event>
<event>
12    1  0.8488291E-002  0.1904927E+03  0.7818608E-02  0.1158076E+00
         21   -1    0    0  501  502  0.00000000000E+00  0.00000000000E+00  0.11089371744E+03  0.11089371744E+03  0.00000000000E+00 0.  1.
         21   -1    0    0  502  503 -0.00000000000E+00 -0.00000000000E+00 -0.41246460939E+03  0.41246460939E+03  0.00000000000E+00 0. -1.
         -6    2    1    2    0  503 -0.16230354160E+02 -0.80237242481E+02 -0.26996961044E+03  0.33026222140E+03  0.17172100876E+03 0.  0.
        -24    2    3    3    0    0  0.20752259305E+02  0.17208444593E+02 -0.14190228209E+03  0.16507533869E+03  0.79917601016E+02 0.  0.
          6    2    1    2  501    0  0.16230354160E+02  0.80237242481E+02 -0.31601281521E+02  0.19309610543E+03  0.17200588787E+03 0.  0.
         24    2    5    5    0    0 -0.23991870638E+02  0.83713715119E+02  0.25569246016E+02  0.12295002607E+03  0.82941706120E+02 0.  0.
          5    1    5    5  501    0  0.40222224798E+02 -0.34764726385E+01 -0.57170527537E+02  0.70146079352E+02  0.47000000000E+01 0. -1.
        -13    1    6    6    0    0 -0.10522431323E+02 -0.86060735926E+01 -0.15842430224E+02  0.20875072671E+02  0.00000000000E+00 0.  1.
         14    1    6    6    0    0 -0.13469439315E+02  0.92319788712E+02  0.41411676240E+02  0.10207495340E+03  0.00000000000E+00 0. -1.
         -5    1    3    3    0  503 -0.36982613465E+02 -0.97445687074E+02 -0.12806732835E+03  0.16518688271E+03  0.47000000000E+01 0.  1.
         13    1    4    4    0    0  0.37909336443E+02 -0.39429619246E+01 -0.26297496775E+02  0.46305756391E+02  0.00000000000E+00 0. -1.
        -14    1    4    4    0    0 -0.17157077138E+02  0.21151406518E+02 -0.11560478531E+03  0.11876958230E+03  0.00000000000E+00 0.  1.
</event>
<event>
12    1  0.8488291E-002  0.2451554E+03  0.7818608E-02  0.1117482E+00
         21   -1    0    0  501  502  0.00000000000E+00  0.00000000000E+00  0.44327184026E+02  0.44327184026E+02  0.00000000000E+00 0. -1.
         21   -1    0    0  502  503 -0.00000000000E+00 -0.00000000000E+00 -0.15545248105E+04  0.15545248105E+04  0.00000000000E+00 0.  1.
         -6    2    1    2    0  503 -0.14195530608E+03  0.10143279974E+03 -0.43586127321E+03  0.49689929351E+03  0.16276958139E+03 0.  0.
        -24    2    3    3    0    0 -0.10427567298E+03  0.12217060416E+03 -0.25848673107E+03  0.31432429664E+03  0.78646683507E+02 0.  0.
          6    2    1    2  501    0  0.14195530608E+03 -0.10143279974E+03 -0.10743363533E+04  0.11019527010E+04  0.17222436974E+03 0.  0.
         24    2    5    5    0    0  0.12956240186E+03 -0.59980152488E+02 -0.48914771884E+03  0.51514801979E+03  0.75683266181E+02 0.  0.
          5    1    5    5  501    0  0.12392904212E+02 -0.41452647251E+02 -0.58518863446E+03  0.58680468125E+03  0.47000000000E+01 0. -1.
        -13    1    6    6    0    0  0.11329871294E+01 -0.27767461778E+02 -0.61870452738E+02  0.67825279324E+02  0.00000000000E+00 0.  1.
         14    1    6    6    0    0  0.12842941473E+03 -0.32212690710E+02 -0.42727726610E+03  0.44732274047E+03  0.00000000000E+00 0. -1.
         -5    1    3    3    0  503 -0.37679633094E+02 -0.20737804422E+02 -0.17737454214E+03  0.18257499687E+03  0.47000000000E+01 0.  1.
         11    1    4    4    0    0 -0.84929444734E+02  0.48486396889E+02 -0.10829800326E+03  0.14591915150E+03  0.00000000000E+00 0. -1.
        -12    1    4    4    0    0 -0.19346228247E+02  0.73684207271E+02 -0.15018872781E+03  0.16840514514E+03  0.00000000000E+00 0.  1.
</event>
<event>
12    1  0.8488291E-002  0.2222035E+03  0.7818608E-02  0.1133821E+00
         21   -1    0    0  501  502  0.00000000000E+00  0.00000000000E+00  0.16884289123E+03  0.16884289123E+03  0.00000000000E+00 0.  1.
         21   -1    0    0  502  503 -0.00000000000E+00 -0.00000000000E+00 -0.29542286695E+03  0.29542286695E+03  0.00000000000E+00 0. -1.
         -6    2    1    2    0  503 -0.11878463900E+03 -0.47143159434E+02 -0.14110978338E+02  0.22265111236E+03  0.18177494376E+03 0.  0.
        -24    2    3    3    0    0 -0.14069050122E+03  0.24783158949E+00 -0.36344099831E+02  0.16571101646E+03  0.79657823405E+02 0.  0.
          6    2    1    2  501    0  0.11878463900E+03  0.47143159434E+02 -0.11246899738E+03  0.24161464582E+03  0.17145289078E+03 0.  0.
         24    2    5    5    0    0  0.11274381673E+03 -0.26918607690E+02 -0.75861290998E+02  0.15864566939E+03  0.77315802348E+02 0.  0.
          5    1    5    5  501    0  0.60408222751E+01  0.74061767124E+02 -0.36607706386E+02  0.82968976432E+02  0.47000000000E+01 0. -1.
        -13    1    6    6    0    0 -0.74966553208E+00 -0.81289787237E+01  0.11565233303E+02  0.14156161727E+02  0.00000000000E+00 0.  1.
         14    1    6    6    0    0  0.11349348226E+03 -0.18789628966E+02 -0.87426524301E+02  0.14448950766E+03  0.00000000000E+00 0. -1.
         -5    1    3    3    0  503  0.21905862217E+02 -0.47390991023E+02  0.22233121493E+02  0.56940095899E+02  0.47000000000E+01 0.  1.
         11    1    4    4    0    0 -0.88081946311E+02 -0.38115326809E+02 -0.28574620259E+02  0.10013848574E+03  0.00000000000E+00 0. -1.
        -12    1    4    4    0    0 -0.52608554910E+02  0.38363158399E+02 -0.77694795715E+01  0.65572530718E+02  0.00000000000E+00 0.  1.
</event>
<event>
12    1  0.8488291E-002  0.1858509E+03  0.7818608E-02  0.1162941E+00
         21   -1    0    0  501  502  0.00000000000E+00  0.00000000000E+00  0.34589445200E+03  0.34589445200E+03  0.00000000000E+00 0. -1.
         21   -1    0    0  502  503 -0.00000000000E+00 -0.00000000000E+00 -0.25559732050E+03  0.25559732050E+03  0.00000000000E+00 0. -1.
         -6    2    1    2    0  503  0.34484375397E+01  0.65381851442E+02 -0.19091900925E+03  0.26441157174E+03  0.17081198131E+03 0.  0.
        -24    2    3    3    0    0 -0.35811184029E+02 -0.18527531303E+02 -0.93696728841E+02  0.13003760028E+03  0.80653519288E+02 0.  0.
          6    2    1    2  501    0 -0.34484375397E+01 -0.65381851442E+02  0.28121614075E+03  0.33708020076E+03  0.17393638408E+03 0.  0.
         24    2    5    5    0    0  0.48047816260E+01  0.12034683772E+02  0.55747516133E+02  0.98501856735E+02  0.80168015351E+02 0.  0.
          5    1    5    5  501    0 -0.82532191657E+01 -0.77416535215E+02  0.22546862462E+03  0.23857834403E+03  0.47000000000E+01 0. -1.
        -13    1    6    6    0    0  0.17268604268E+02 -0.54810180462E+00 -0.16635085231E+02  0.23983977351E+02  0.00000000000E+00 0.  1.
         14    1    6    6    0    0 -0.12463822642E+02  0.12582785577E+02  0.72382601363E+02  0.74517879384E+02  0.00000000000E+00 0. -1.
         -5    1    3    3    0  503  0.39259621568E+02  0.83909382745E+02 -0.97222280407E+02  0.13437397146E+03  0.47000000000E+01 0.  1.
         11    1    4    4    0    0  0.79283512598E+01  0.25036839967E+02 -0.41913435630E+02  0.49461481938E+02  0.00000000000E+00 0. -1.
        -12    1    4    4    0    0 -0.43739535288E+02 -0.43564371270E+02 -0.51783293212E+02  0.80576118343E+02  0.00000000000E+00 0.  1.
</event>
<event>
12    1  0.8488291E-002  0.1673293E+03  0.7818608E-02  0.1181483E+00
         21   -1    0    0  503  502  0.00000000000E+00  0.00000000000E+00  0.10813018297E+03  0.10813018297E+03  0.00000000000E+00 0.  1.
         21   -1    0    0  501  503 -0.00000000000E+00 -0.00000000000E+00 -0.25837345157E+03  0.25837345157E+03  0.00000000000E+00 0.  1.
          6    2    1    2  501    0 -0.11002243277E+02 -0.23876314520E+02 -0.51238124473E+02  0.17207853403E+03  0.16215593952E+03 0.  0.
         24    2    3    3    0    0  0.50263530563E+02  0.16806340606E+01 -0.22140689598E+02  0.99446561857E+02  0.82886437333E+02 0.  0.
         -6    2    1    2    0  502  0.11002243277E+02  0.23876314520E+02 -0.99005144127E+02  0.19442510052E+03  0.16525124325E+03 0.  0.
        -24    2    5    5    0    0  0.60377206093E+02  0.74421195921E+01 -0.24376681858E+02  0.10332368946E+03  0.79879722242E+02 0.  0.
          5    1    3    3  501    0 -0.61265773840E+02 -0.25556948580E+02 -0.29097434875E+02  0.72631972170E+02  0.47000000000E+01 0. -1.
        -13    1    4    4    0    0  0.32933476173E+02 -0.68587900640E+01 -0.53155840213E+02  0.62906281108E+02  0.00000000000E+00 0.  1.
         14    1    4    4    0    0  0.17330054390E+02  0.85394241245E+01  0.31015150616E+02  0.36540280750E+02  0.00000000000E+00 0. -1.
         -5    1    5    5    0  502 -0.49374962816E+02  0.16434194928E+02 -0.74628462269E+02  0.91101411058E+02  0.47000000000E+01 0.  1.
         11    1    6    6    0    0  0.11095994853E+02 -0.32417178151E+02  0.27627238131E+01  0.34374804493E+02  0.00000000000E+00 0. -1.
        -12    1    6    6    0    0  0.49281211240E+02  0.39859297743E+02 -0.27139405671E+02  0.68948884966E+02  0.00000000000E+00 0.  1.
</event>
<event>
12    1  0.8488291E-002  0.2041402E+03  0.7818608E-02  0.1146336E+00
         21   -1    0    0  501  502  0.00000000000E+00  0.00000000000E+00  0.17825560883E+03  0.17825560883E+03  0.00000000000E+00 0.  1.
         21   -1    0    0  502  503 -0.00000000000E+00 -0.00000000000E+00 -0.76937184022E+03  0.76937184022E+03  0.00000000000E+00 0. -1.
         -6    2    1    2    0  503 -0.10901965717E+03 -0.29925969498E+00 -0.69092650563E+03  0.72039336711E+03  0.17234207840E+03 0.  0.
        -24    2    3    3    0    0 -0.12728708647E+03  0.42237938445E+02 -0.56245792431E+03  0.58375743266E+03  0.80173422852E+02 0.  0.
          6    2    1    2  501    0  0.10901965717E+03  0.29925969498E+00  0.99810274241E+02  0.22723408194E+03  0.17259160450E+03 0.  0.
         24    2    5    5    0    0  0.12915831229E+03 -0.40529911728E+02  0.87385209687E+02  0.17980983816E+03  0.79817665020E+02 0.  0.
          5    1    5    5  501    0 -0.20138655117E+02  0.40829171423E+02  0.12425064554E+02  0.47424243781E+02  0.47000000000E+01 0. -1.
        -13    1    6    6    0    0  0.29472533978E+02  0.22665795390E+02  0.94205839044E+01  0.38355129264E+02  0.00000000000E+00 0.  1.
         14    1    6    6    0    0  0.99685778311E+02 -0.63195707118E+02  0.77964625782E+02  0.14145470890E+03  0.00000000000E+00 0. -1.
         -5    1    3    3    0  503  0.18267429296E+02 -0.42537198140E+02 -0.12846858132E+03  0.13663593445E+03  0.47000000000E+01 0.  1.
         11    1    4    4    0    0 -0.10719560455E+03  0.48395284607E+01 -0.46884770593E+03  0.48097036293E+03  0.00000000000E+00 0. -1.
        -12    1    4    4    0    0 -0.20091481921E+02  0.37398409985E+02 -0.93610218389E+02  0.10278706972E+03  0.00000000000E+00 0.  1.
</event>
<event>
12    1  0.8488291E-002  0.2757372E+03  0.7818608E-02  0.1098532E+00
         21   -1    0    0  501  502  0.00000000000E+00  0.00000000000E+00  0.55440652299E+02  0.55440652299E+02  0.00000000000E+00 0. -1.
         21   -1    0    0  502  503 -0.00000000000E+00 -0.00000000000E+00 -0.18030427467E+04  0.18030427467E+04  0.00000000000E+00 0. -1.
         -6    2    1    2    0  503  0.11442387149E+03  0.17830901156E+03 -0.13417151008E+04  0.13697556076E+04  0.17647687349E+03 0.  0.
        -24    2    3    3    0    0  0.69208972962E+02  0.49417137979E+02 -0.89524774755E+03  0.90283731749E+03  0.80092177492E+02 0.  0.
          6    2    1    2  501    0 -0.11442387149E+03 -0.17830901156E+03 -0.40588699365E+03  0.48872779144E+03  0.17094933912E+03 0.  0.
         24    2    5    5    0    0 -0.97267647005E+02 -0.10212755830E+03 -0.36708717440E+03  0.40140387815E+03  0.80504946827E+02 0.  0.
          5    1    5    5  501    0 -0.17156224482E+02 -0.76181453261E+02 -0.38799819245E+02  0.87323913294E+02  0.47000000000E+01 0. -1.
        -11    1    6    6    0    0 -0.42193496788E+02  0.41781371901E+01 -0.86120323501E+02  0.95991969047E+02  0.00000000000E+00 0.  1.
         12    1    6    6    0    0 -0.55074150217E+02 -0.10630569549E+03 -0.28096685090E+03  0.30541190910E+03  0.00000000000E+00 0. -1.
         -5    1    3    3    0  503  0.45214898525E+02  0.12889187358E+03 -0.44646735321E+03  0.46691829008E+03  0.47000000000E+01 0.  1.
         11    1    4    4    0    0  0.79125950124E+02  0.27343041315E+02 -0.50957251536E+03  0.51640362731E+03  0.00000000000E+00 0. -1.
        -12    1    4    4    0    0 -0.99169771623E+01  0.22074096663E+02 -0.38567523218E+03  0.38643369017E+03  0.00000000000E+00 0.  1.
</event>
<event>
12    1  0.8488291E-002  0.1811414E+03  0.7818608E-02  0.1168671E+00
         21   -1    0    0  503  502  0.00000000000E+00  0.00000000000E+00  0.16646331734E+03  0.16646331734E+03  0.00000000000E+00 0. -1.
         21   -1    0    0  501  503 -0.00000000000E+00 -0.00000000000E+00 -0.20398957550E+03  0.20398957550E+03  0.00000000000E+00 0. -1.
          6    2    1    2  501    0 -0.21863386082E+01  0.13964706790E+02  0.31876998150E+02  0.18392485447E+03  0.18058908043E+03 0.  0.
         24    2    3    3    0    0 -0.72808106997E+02 -0.89347609109E+01 -0.69096756339E+01  0.10003018328E+03  0.67656807145E+02 0.  0.
         -6    2    1    2    0  502  0.21863386082E+01 -0.13964706790E+02 -0.69403256310E+02  0.18652803837E+03  0.17255753823E+03 0.  0.
        -24    2    5    5    0    0 -0.12371845888E+02  0.56813842129E+02 -0.52056730122E+02  0.11206639930E+03  0.80424495478E+02 0.  0.
          5    1    3    3  501    0  0.70621768389E+02  0.22899467701E+02  0.38786673783E+02  0.83894671193E+02  0.47000000000E+01 0. -1.
        -13    1    4    4    0    0 -0.99351749031E+00  0.22338153539E+01  0.21763696312E+02  0.21900581846E+02  0.00000000000E+00 0.  1.
         14    1    4    4    0    0 -0.71814589507E+02 -0.11168576265E+02 -0.28673371946E+02  0.78129601436E+02  0.00000000000E+00 0. -1.
         -5    1    5    5    0  502  0.14558184497E+02 -0.70778548919E+02 -0.17346526188E+02  0.74461639075E+02  0.47000000000E+01 0.  1.
         11    1    6    6    0    0  0.96417421263E+01  0.40000373587E+02  0.11510805615E+02  0.42725773535E+02  0.00000000000E+00 0. -1.
        -12    1    6    6    0    0 -0.22013588015E+02  0.16813468543E+02 -0.63567535737E+02  0.69340625764E+02  0.00000000000E+00 0.  1.
</event>
<event>
12    1  0.8488291E-002  0.2210473E+03  0.7818608E-02  0.1133684E+00
         21   -1    0    0  501  502  0.00000000000E+00  0.00000000000E+00  0.44923981203E+02  0.44923981203E+02  0.00000000000E+00 0.  1.
         21   -1    0    0  502  503 -0.00000000000E+00 -0.00000000000E+00 -0.16835286024E+04  0.16835286024E+04  0.00000000000E+00 0. -1.
         -6    2    1    2    0  503  0.11867623342E+03  0.70249630910E+02 -0.13436636874E+04  0.13617246516E+04  0.17275086906E+03 0.  0.
        -24    2    3    3    0    0  0.17442681806E+02  0.86222315919E+02 -0.75818582012E+03  0.76732597917E+03  0.78771096053E+02 0.  0.
          6    2    1    2  501    0 -0.11867623342E+03 -0.70249630910E+02 -0.29494093376E+03  0.36672793203E+03  0.16876066692E+03 0.  0.
         24    2    5    5    0    0 -0.83765870514E+02 -0.14857812785E+01 -0.89282815155E+02  0.14703598360E+03  0.81420088321E+02 0.  0.
          5    1    5    5  501    0 -0.34910362905E+02 -0.68763849631E+02 -0.20565811861E+03  0.21969194843E+03  0.47000000000E+01 0. -1.
        -11    1    6    6    0    0 -0.40781093864E+02  0.26159928396E+02 -0.82232682539E+02  0.95444505069E+02  0.00000000000E+00 0.  1.
         12    1    6    6    0    0 -0.42984776650E+02 -0.27645709674E+02 -0.70501326165E+01  0.51591478531E+02  0.00000000000E+00 0. -1.
         -5    1    3    3    0  503  0.10123355161E+03 -0.15972685009E+02 -0.58547786732E+03  0.59439867241E+03  0.47000000000E+01 0.  1.
         13    1    4    4    0    0  0.31630972602E+02  0.70002266694E+02 -0.33933182333E+03  0.34791798185E+03  0.00000000000E+00 0. -1.
        -14    1    4    4    0    0 -0.14188290796E+02  0.16220049225E+02 -0.41885399678E+03  0.41940799732E+03  0.00000000000E+00 0.  1.
</event>
<event>
12    1  0.8488291E-002  0.2016014E+03  0.7818608E-02  0.1148878E+00
         21   -1    0    0  503  502  0.00000000000E+00  0.00000000000E+00  0.11458721287E+03  0.11458721287E+03  0.00000000000E+00 0.  1.
         21   -1    0    0  501  503 -0.00000000000E+00 -0.00000000000E+00 -0.76501818976E+03  0.76501818976E+03  0.00000000000E+00 0. -1.
          6    2    1    2  501    0  0.10401478794E+03 -0.27051623373E+02 -0.64803422248E+03  0.67798978009E+03  0.16784195529E+03 0.  0.
         24    2    3    3    0    0 -0.69313474873E+00  0.12904199898E+02 -0.35200298500E+03  0.36141940805E+03  0.80937557749E+02 0.  0.
         -6    2    1    2    0  502 -0.10401478794E+03  0.27051623373E+02 -0.23967544166E+01  0.20161562254E+03  0.17056449919E+03 0.  0.
        -24    2    5    5    0    0 -0.12024925653E+03  0.16955578698E+02  0.43479016299E+02  0.15169403976E+03  0.79832834695E+02 0.  0.
          5    1    3    3  501    0  0.10470792269E+03 -0.39955823271E+02 -0.29603123748E+03  0.31657037204E+03  0.47000000000E+01 0. -1.
        -13    1    4    4    0    0  0.58138419667E+01 -0.20763051904E+02 -0.26722552750E+02  0.34336568091E+02  0.00000000000E+00 0.  1.
         14    1    4    4    0    0 -0.65069767155E+01  0.33667251802E+02 -0.32528043225E+03  0.32708283996E+03  0.00000000000E+00 0. -1.
         -5    1    5    5    0  502  0.16234468593E+02  0.10096044675E+02 -0.45875770716E+02  0.49921582781E+02  0.47000000000E+01 0.  1.
         13    1    6    6    0    0 -0.99576584526E+02  0.21396033430E+02 -0.16440962039E+01  0.10186260101E+03  0.00000000000E+00 0. -1.
        -14    1    6    6    0    0 -0.20672672008E+02 -0.44404547320E+01  0.45123112503E+02  0.49831438753E+02  0.00000000000E+00 0.  1.
</event>
<event>
12    1  0.8488291E-002  0.1749329E+03  0.7818608E-02  0.1175756E+00
         21   -1    0    0  501  502  0.00000000000E+00  0.00000000000E+00  0.22127724859E+03  0.22127724859E+03  0.00000000000E+00 0. -1.
         21   -1    0    0  502  503 -0.00000000000E+00 -0.00000000000E+00 -0.13096723542E+03  0.13096723542E+03  0.00000000000E+00 0. -1.
         -6    2    1    2    0  503 -0.36774625436E+02 -0.43807807523E+01  0.24774626710E+02  0.16543865186E+03  0.15932545649E+03 0.  0.
        -24    2    3    3    0    0  0.58209405486E+01  0.29837726370E+02 -0.28942697687E+02  0.88673233793E+02  0.78109470476E+02 0.  0.
          6    2    1    2  501    0  0.36774625436E+02  0.43807807523E+01  0.65535386458E+02  0.18680583214E+03  0.17096773885E+03 0.  0.
         24    2    5    5    0    0  0.91367042815E+01  0.71989089109E+00  0.10266040784E+03  0.14014092013E+03  0.94954307699E+02 0.  0.
          5    1    5    5  501    0  0.27637921154E+02  0.36608898612E+01 -0.37125021381E+02  0.46664912009E+02  0.47000000000E+01 0. -1.
        -13    1    6    6    0    0 -0.31140175386E+01 -0.45200903481E+02  0.66290217503E+02  0.80294531055E+02  0.00000000000E+00 0.  1.
         14    1    6    6    0    0  0.12250721820E+02  0.45920794372E+02  0.36370190336E+02  0.59846389080E+02  0.00000000000E+00 0. -1.
         -5    1    3    3    0  503 -0.42595565984E+02 -0.34218507122E+02  0.53717324398E+02  0.76765418071E+02  0.47000000000E+01 0.  1.
         11    1    4    4    0    0 -0.23888723473E+02 -0.29839592926E+01  0.13281290519E+02  0.27494868614E+02  0.00000000000E+00 0. -1.
        -12    1    4    4    0    0  0.29709664022E+02  0.32821685662E+02 -0.42223988206E+02  0.61178365179E+02  0.00000000000E+00 0.  1.
</event>
<event>
12    1  0.8488291E-002  0.2032771E+03  0.7818608E-02  0.1147164E+00
         21   -1    0    0  501  502  0.00000000000E+00  0.00000000000E+00  0.58867841816E+02  0.58867841816E+02  0.00000000000E+00 0. -1.
         21   -1    0    0  502  503 -0.00000000000E+00 -0.00000000000E+00 -0.10389470443E+04  0.10389470443E+04  0.00000000000E+00 0. -1.
         -6    2    1    2    0  503 -0.49245506486E+01 -0.10646683142E+03 -0.80454099997E+03  0.82982395482E+03  0.17309574801E+03 0.  0.
        -24    2    3    3    0    0 -0.48116094370E+02 -0.15336096080E+02 -0.51177949636E+03  0.52014394518E+03  0.77981513457E+02 0.  0.
          6    2    1    2  501    0  0.49245506486E+01  0.10646683142E+03 -0.17553820249E+03  0.26799093126E+03  0.17218025820E+03 0.  0.
         24    2    5    5    0    0  0.44541697170E+02  0.20628976794E+02 -0.13691952958E+03  0.16576007739E+03  0.79497976117E+02 0.  0.
          5    1    5    5  501    0 -0.39617146521E+02  0.85837854629E+02 -0.38618672907E+02  0.10223085387E+03  0.47000000000E+01 0. -1.
        -13    1    6    6    0    0  0.29021594657E+02  0.81065082629E+01 -0.14201563943E+03  0.14517716857E+03  0.00000000000E+00 0.  1.
         14    1    6    6    0    0  0.15520102513E+02  0.12522468532E+02  0.50961098441E+01  0.20582908824E+02  0.00000000000E+00 0. -1.
         -5    1    3    3    0  503  0.43191543722E+02 -0.91130735343E+02 -0.29276150361E+03  0.30968000964E+03  0.47000000000E+01 0.  1.
         11    1    4    4    0    0  0.10668248622E+02 -0.25318925656E+02 -0.25776695512E+03  0.25922704850E+03  0.00000000000E+00 0. -1.
        -12    1    4    4    0    0 -0.58784342992E+02  0.99828295764E+01 -0.25401254124E+03  0.26091689668E+03  0.00000000000E+00 0.  1.
</event>
<event>
12    1  0.8488291E-002  0.1745934E+03  0.7818608E-02  0.1173167E+00
         21   -1    0    0  503  502  0.00000000000E+00  0.00000000000E+00  0.43247574123E+03  0.43247574123E+03  0.00000000000E+00 0. -1.
         21   -1    0    0  501  503 -0.00000000000E+00 -0.00000000000E+00 -0.36061659374E+03  0.36061659374E+03  0.00000000000E+00 0. -1.
          6    2    1    2  501    0  0.14317222760E+02  0.27445053126E+02 -0.31978155065E+03  0.36433926724E+03  0.17182737763E+03 0.  0.
         24    2    3    3    0    0  0.13165832090E+02  0.60059839019E+02 -0.98019667115E+02  0.14013963978E+03  0.79061622164E+02 0.  0.
         -6    2    1    2    0  502 -0.14317222760E+02 -0.27445053126E+02  0.39164069814E+03  0.42875306773E+03  0.17172228406E+03 0.  0.
        -24    2    5    5    0    0  0.35853323450E+02 -0.51335370719E+02  0.32531167130E+03  0.34209592271E+03  0.85329688633E+02 0.  0.
          5    1    3    3  501    0  0.11513906696E+01 -0.32614785892E+02 -0.22176188354E+03  0.22419962745E+03  0.47000000000E+01 0. -1.
        -11    1    4    4    0    0  0.91173243304E+01  0.21401147272E+02  0.10013917471E+02  0.25326137696E+02  0.00000000000E+00 0.  1.
         12    1    4    4    0    0  0.40485077601E+01  0.38658691747E+02 -0.10803358459E+03  0.11481350209E+03  0.00000000000E+00 0. -1.
         -5    1    5    5    0  502 -0.50170546210E+02  0.23890317593E+02  0.66329026839E+02  0.86657145021E+02  0.47000000000E+01 0.  1.
         13    1    6    6    0    0 -0.19015340309E+02 -0.14172837025E+02  0.18950383622E+03  0.19098208403E+03  0.00000000000E+00 0. -1.
        -14    1    6    6    0    0  0.54868663759E+02 -0.37162533695E+02  0.13580783508E+03  0.15111383869E+03  0.00000000000E+00 0.  1.
</event>
<event>
12    1  0.8488291E-002  0.2796412E+03  0.7818608E-02  0.1096060E+00
         21   -1    0    0  503  502  0.00000000000E+00  0.00000000000E+00  0.65431852894E+02  0.65431852894E+02  0.00000000000E+00 0.  1.
         21   -1    0    0  501  503 -0.00000000000E+00 -0.00000000000E+00 -0.13835071578E+04  0.13835071578E+04  0.00000000000E+00 0. -1.
          6    2    1    2  501    0 -0.40211208356E+02  0.21657424282E+03 -0.38916082140E+03  0.47921325571E+03  0.17227261999E+03 0.  0.
         24    2    3    3    0    0 -0.19318759150E+02  0.21187273187E+03 -0.24571807429E+03  0.33410464005E+03  0.77364523559E+02 0.  0.
         -6    2    1    2    0  502  0.40211208356E+02 -0.21657424282E+03 -0.92891448347E+03  0.96972575496E+03  0.17018983014E+03 0.  0.
        -24    2    5    5    0    0 -0.35056010124E+02 -0.78884510509E+02 -0.32396494718E+03  0.34473803665E+03  0.80245480072E+02 0.  0.
          5    1    3    3  501    0 -0.20892449206E+02  0.47015109542E+01 -0.14344274711E+03  0.14510861566E+03  0.47000000000E+01 0. -1.
        -13    1    4    4    0    0 -0.42038428811E+02  0.12615711441E+03 -0.17970932957E+03  0.22355824777E+03  0.00000000000E+00 0.  1.
         14    1    4    4    0    0  0.22719669661E+02  0.85715617460E+02 -0.66008744724E+02  0.11054639228E+03  0.00000000000E+00 0. -1.
         -5    1    5    5    0  502  0.75267218480E+02 -0.13768973232E+03 -0.60494953630E+03  0.62498771830E+03  0.47000000000E+01 0.  1.
         11    1    6    6    0    0 -0.33537360980E+02 -0.91926676148E+02 -0.31195995241E+03  0.32694690743E+03  0.00000000000E+00 0. -1.
        -12    1    6    6    0    0 -0.15186491439E+01  0.13042165638E+02 -0.12004994768E+02  0.17791129226E+02  0.00000000000E+00 0.  1.
</event>
<event>
12    1  0.8488291E-002  0.2263263E+03  0.7818608E-02  0.1129549E+00
         21   -1    0    0  501  502  0.00000000000E+00  0.00000000000E+00  0.94157928481E+03  0.94157928481E+03  0.00000000000E+00 0. -1.
         21   -1    0    0  502  503 -0.00000000000E+00 -0.00000000000E+00 -0.80238284765E+02  0.80238284765E+02  0.00000000000E+00 0.  1.
         -6    2    1    2    0  503  0.81384531873E+01  0.14700136910E+03  0.13960832148E+03  0.26592121586E+03  0.17189523752E+03 0.  0.
        -24    2    3    3    0    0  0.52274373727E+02  0.15411313712E+03  0.10567399392E+03  0.20959905936E+03  0.79254675022E+02 0.  0.
          6    2    1    2  501    0 -0.81384531873E+01 -0.14700136910E+03  0.72173267856E+03  0.75589635371E+03  0.16972212970E+03 0.  0.
         24    2    5    5    0    0 -0.54148448909E+02 -0.99550690967E+02  0.32346854487E+03  0.35215770464E+03  0.80874933265E+02 0.  0.
          5    1    5    5  501    0  0.46009995721E+02 -0.47450678131E+02  0.39826413370E+03  0.40373864907E+03  0.47000000000E+01 0. -1.
        -11    1    6    6    0    0 -0.71773760286E+02 -0.53618846939E+02  0.19519427457E+03  0.21477257329E+03  0.00000000000E+00 0.  1.
         12    1    6    6    0    0  0.17625311377E+02 -0.45931844027E+02  0.12827427030E+03  0.13738513135E+03  0.00000000000E+00 0. -1.
         -5    1    3    3    0  503 -0.44135920539E+02 -0.71117680183E+01  0.33934327560E+02  0.56322156503E+02  0.47000000000E+01 0.  1.
         11    1    4    4    0    0  0.26996620967E+02  0.13528239745E+03  0.11170635694E+03  0.17750621055E+03  0.00000000000E+00 0. -1.
        -12    1    4    4    0    0  0.25277752759E+02  0.18830739666E+02 -0.60323630213E+01  0.32092848807E+02  0.00000000000E+00 0.  1.
</event>
<event>
12    1  0.8488291E-002  0.2214668E+03  0.7818608E-02  0.1134377E+00
         21   -1    0    0  503  502  0.00000000000E+00  0.00000000000E+00  0.11755819060E+03  0.11755819060E+03  0.00000000000E+00 0. -1.
         21   -1    0    0  501  503 -0.00000000000E+00 -0.00000000000E+00 -0.44967599929E+03  0.44967599929E+03  0.00000000000E+00 0. -1.
          6    2    1    2  501    0  0.12693783773E+01 -0.11921526958E+03 -0.25595163871E+03  0.33303590277E+03  0.17660062105E+03 0.  0.
         24    2    3    3    0    0  0.53437662978E+02 -0.17687620976E+02 -0.10317795210E+03  0.14227090947E+03  0.80167862146E+02 0.  0.
         -6    2    1    2    0  502 -0.12693783773E+01  0.11921526958E+03 -0.76166169976E+02  0.23419828712E+03  0.18663777865E+03 0.  0.
        -24    2    5    5    0    0  0.17452552157E+02  0.13752867109E+03 -0.10619244991E+03  0.19407897949E+03  0.84682270369E+02 0.  0.
          5    1    3    3  501    0 -0.52168284601E+02 -0.10152764861E+03 -0.15277368661E+03  0.19076499331E+03  0.47000000000E+01 0. -1.
        -13    1    4    4    0    0  0.30110675246E+02 -0.14918712877E+02 -0.11218713705E+03  0.11711180332E+03  0.00000000000E+00 0.  1.
         14    1    4    4    0    0  0.23326987732E+02 -0.27689080986E+01  0.90091849493E+01  0.25159106148E+02  0.00000000000E+00 0. -1.
         -5    1    5    5    0  502 -0.18721930534E+02 -0.18313401504E+02  0.30026279938E+02  0.40119307628E+02  0.47000000000E+01 0.  1.
         13    1    6    6    0    0  0.25739001562E+02  0.50027297043E+02 -0.37769144372E-01  0.56260359733E+02  0.00000000000E+00 0. -1.
        -14    1    6    6    0    0 -0.82864494046E+01  0.87501374044E+02 -0.10615468077E+03  0.13781861976E+03  0.00000000000E+00 0.  1.
</event>
<event>
12    1  0.8488291E-002  0.1853010E+03  0.7818608E-02  0.1163211E+00
         21   -1    0    0  501  502  0.00000000000E+00  0.00000000000E+00  0.35735551699E+03  0.35735551699E+03  0.00000000000E+00 0.  1.
         21   -1    0    0  502  503 -0.00000000000E+00 -0.00000000000E+00 -0.98719862905E+02  0.98719862905E+02  0.00000000000E+00 0.  1.
         -6    2    1    2    0  503  0.65618564838E+02 -0.12236009119E+02  0.85064712378E+02  0.20217905012E+03  0.17083573118E+03 0.  0.
        -24    2    3    3    0    0  0.61503193106E+02 -0.59294816588E+02  0.93382410919E+02  0.15398421893E+03  0.87706025868E+02 0.  0.
          6    2    1    2  501    0 -0.65618564838E+02  0.12236009119E+02  0.17357094170E+03  0.25389632977E+03  0.17286109596E+03 0.  0.
         24    2    5    5    0    0  0.10986373197E+02  0.40573977202E+02  0.18983057204E+02  0.78993896964E+02  0.64130579872E+02 0.  0.
          5    1    5    5  501    0 -0.76604938036E+02 -0.28337968083E+02  0.15458788450E+03  0.17490243280E+03  0.47000000000E+01 0. -1.
        -13    1    6    6    0    0 -0.69548634475E+00  0.52401033065E+02  0.28688660213E+02  0.59744382099E+02  0.00000000000E+00 0.  1.
         14    1    6    6    0    0  0.11681859542E+02 -0.11827055863E+02 -0.97056030096E+01  0.19249514865E+02  0.00000000000E+00 0. -1.
         -5    1    3    3    0  503  0.41153717325E+01  0.47058807469E+02 -0.83176985407E+01  0.48194831195E+02  0.47000000000E+01 0.  1.
         13    1    4    4    0    0  0.65599904435E+02 -0.28569763621E+02  0.19954189917E+02  0.74281549192E+02  0.00000000000E+00 0. -1.
        -14    1    4    4    0    0 -0.40967113287E+01 -0.30725052967E+02  0.73428221002E+02  0.79702669736E+02  0.00000000000E+00 0.  1.
</event>
<event>
12    1  0.8488291E-002  0.1783134E+03  0.7818608E-02  0.1171145E+00
         21   -1    0    0  501  502  0.00000000000E+00  0.00000000000E+00  0.30798721181E+03  0.30798721181E+03  0.00000000000E+00 0.  1.
         21   -1    0    0  502  503 -0.00000000000E+00 -0.00000000000E+00 -0.10765170260E+03  0.10765170260E+03  0.00000000000E+00 0.  1.
         -6    2    1    2    0  503  0.20626599095E+01  0.42337694955E+02  0.15610809198E+03  0.23192242950E+03  0.16619729825E+03 0.  0.
        -24    2    3    3    0    0 -0.26730195131E+02  0.64158686547E+01  0.16450368032E+03  0.18489071669E+03  0.79796300530E+02 0.  0.
          6    2    1    2  501    0 -0.20626599095E+01 -0.42337694955E+02  0.44227417234E+02  0.18371648490E+03  0.17320204216E+03 0.  0.
         24    2    5    5    0    0 -0.56010295010E+02 -0.85798506740E+01  0.62319478310E+02  0.11738887332E+03  0.81765904990E+02 0.  0.
          5    1    5    5  501    0  0.53947635101E+02 -0.33757844281E+02 -0.18092061076E+02  0.66327611577E+02  0.47000000000E+01 0. -1.
        -11    1    6    6    0    0 -0.59357720230E+02  0.11965385162E+02  0.10382124243E+02  0.61435314737E+02  0.00000000000E+00 0.  1.
         12    1    6    6    0    0  0.33474252202E+01 -0.20545235836E+02  0.51937354067E+02  0.55953558588E+02  0.00000000000E+00 0. -1.
         -5    1    3    3    0  503  0.28792855040E+02  0.35921826301E+02 -0.83955883416E+01  0.47031712809E+02  0.47000000000E+01 0.  1.
         11    1    4    4    0    0 -0.53694776303E+02  0.11863660438E+02  0.89991162867E+02  0.10546224365E+03  0.00000000000E+00 0. -1.
        -12    1    4    4    0    0  0.26964581172E+02 -0.54477917835E+01  0.74512517455E+02  0.79428473047E+02  0.00000000000E+00 0.  1.
</event>
<event>
12    1  0.8488291E-002  0.2140232E+03  0.7818608E-02  0.1140060E+00
         21   -1    0    0  501  502  0.00000000000E+00  0.00000000000E+00  0.10203888216E+04  0.10203888216E+04  0.00000000000E+00 0. -1.
         21   -1    0    0  502  503 -0.00000000000E+00 -0.00000000000E+00 -0.85306378440E+02  0.85306378440E+02  0.00000000000E+00 0.  1.
         -6    2    1    2    0  503  0.24215637282E+02  0.11393114820E+03  0.74310713158E+02  0.21871498716E+03  0.16955075907E+03 0.  0.
        -24    2    3    3    0    0 -0.10702100866E+02  0.11806257358E+03  0.99533739450E+02  0.17518789022E+03  0.82039779065E+02 0.  0.
          6    2    1    2  501    0 -0.24215637282E+02 -0.11393114820E+03  0.86077172996E+03  0.88698021284E+03  0.17955284247E+03 0.  0.
         24    2    5    5    0    0 -0.58998221030E+02 -0.10864124254E+03  0.43117332863E+03  0.45591793467E+03  0.81651786032E+02 0.  0.
          5    1    5    5  501    0  0.34782583748E+02 -0.52899056587E+01  0.42959840133E+03  0.43106227817E+03  0.47000000000E+01 0. -1.
        -13    1    6    6    0    0  0.15881370985E+02 -0.22179271213E+02  0.40385791292E+02  0.48735512249E+02  0.00000000000E+00 0.  1.
         14    1    6    6    0    0 -0.74879592015E+02 -0.86461971329E+02  0.39078753734E+03  0.40718242242E+03  0.00000000000E+00 0. -1.
         -5    1    3    3    0  503  0.34917738148E+02 -0.41314253752E+01 -0.25223026292E+02  0.43527096943E+02  0.47000000000E+01 0.  1.
         11    1    4    4    0    0  0.24859362148E+02  0.51312611581E+02  0.77873427567E+02  0.96515505048E+02  0.00000000000E+00 0. -1.
        -12    1    4    4    0    0 -0.35561463013E+02  0.66749961995E+02  0.21660311883E+02  0.78672385173E+02  0.00000000000E+00 0.  1.
</event>
<event>
12    1  0.8488291E-002  0.4136520E+03  0.7818608E-02  0.1039217E+00
         21   -1    0    0  503  502  0.00000000000E+00  0.00000000000E+00  0.13508147987E+04  0.13508147987E+04  0.00000000000E+00 0.  1.
         21   -1    0    0  501  503 -0.00000000000E+00 -0.00000000000E+00 -0.14254392104E+03  0.14254392104E+03  0.00000000000E+00 0.  1.
          6    2    1    2  501    0  0.18873132086E+03  0.32578354841E+03  0.35261470441E+03  0.54296120840E+03  0.16945592987E+03 0.  0.
         24    2    3    3    0    0  0.16912671972E+03  0.22325826733E+03  0.32158378595E+03  0.43396221048E+03  0.80367701751E+02 0.  0.
         -6    2    1    2    0  502 -0.18873132086E+03 -0.32578354841E+03  0.85565617324E+03  0.95039751133E+03  0.17132866328E+03 0.  0.
        -24    2    5    5    0    0 -0.11510592877E+03 -0.20002069972E+03  0.67419210414E+03  0.71761372572E+03  0.84716060475E+02 0.  0.
          5    1    3    3  501    0  0.19604601137E+02  0.10252528108E+03  0.31030918459E+02  0.10899899791E+03  0.47000000000E+01 0. -1.
        -11    1    4    4    0    0  0.12934971561E+03  0.11606359730E+03  0.16152627742E+03  0.23726113429E+03  0.00000000000E+00 0.  1.
         12    1    4    4    0    0  0.39777004114E+02  0.10719467004E+03  0.16005750853E+03  0.19670107620E+03  0.00000000000E+00 0. -1.
         -5    1    5    5    0  502 -0.73625392089E+02 -0.12576284869E+03  0.18146406910E+03  0.23278378561E+03  0.47000000000E+01 0.  1.
         11    1    6    6    0    0 -0.12496647282E+03 -0.19712446685E+03  0.66028008453E+03  0.70031740289E+03  0.00000000000E+00 0. -1.
        -12    1    6    6    0    0  0.98605440551E+01 -0.28962328754E+01  0.13912019613E+02  0.17296322836E+02  0.00000000000E+00 0.  1.
</event>
<event>
12    1  0.8488291E-002  0.1753145E+03  0.7818608E-02  0.1173474E+00
         21   -1    0    0  501  502  0.00000000000E+00  0.00000000000E+00  0.32962166900E+03  0.32962166900E+03  0.00000000000E+00 0. -1.
         21   -1    0    0  502  503 -0.00000000000E+00 -0.00000000000E+00 -0.15425375852E+03  0.15425375852E+03  0.00000000000E+00 0.  1.
         -6    2    1    2    0  503  0.15041249424E+02 -0.13716528423E+02 -0.67811751543E+02  0.18408960591E+03  0.16992988854E+03 0.  0.
        -24    2    3    3    0    0 -0.33725979721E+01 -0.63347888917E+02 -0.57792785367E+01  0.10240448224E+03  0.80180723843E+02 0.  0.
          6    2    1    2  501    0 -0.15041249424E+02  0.13716528423E+02  0.24317966202E+03  0.29978582161E+03  0.17412871241E+03 0.  0.
         24    2    5    5    0    0  0.57693491414E+02 -0.10798191077E+02  0.13588166820E+03  0.16777724813E+03  0.78995172985E+02 0.  0.
          5    1    5    5  501    0 -0.72734740837E+02  0.24514719500E+02  0.10729799382E+03  0.13200857349E+03  0.47000000000E+01 0. -1.
        -13    1    6    6    0    0  0.36904237080E+02 -0.24159374146E+02  0.13609417382E+03  0.14306369987E+03  0.00000000000E+00 0.  1.
         14    1    6    6    0    0  0.20789254333E+02  0.13361183070E+02 -0.21250562030E+00  0.24713548256E+02  0.00000000000E+00 0. -1.
         -5    1    3    3    0  503  0.18413847396E+02  0.49631360494E+02 -0.62032473006E+02  0.81685123662E+02  0.47000000000E+01 0.  1.
         11    1    4    4    0    0 -0.39991860984E+02 -0.26964406210E+02  0.81976649586E+01  0.48924736668E+02  0.00000000000E+00 0. -1.
        -12    1    4    4    0    0  0.36619263012E+02 -0.36383482707E+02 -0.13976943495E+02  0.53479745576E+02  0.00000000000E+00 0.  1.
</event>
<event>
12    1  0.8488291E-002  0.1925644E+03  0.7818608E-02  0.1156723E+00
         21   -1    0    0  501  502  0.00000000000E+00  0.00000000000E+00  0.79907046432E+02  0.79907046432E+02  0.00000000000E+00 0.  1.
         21   -1    0    0  502  503 -0.00000000000E+00 -0.00000000000E+00 -0.64506128186E+03  0.64506128186E+03  0.00000000000E+00 0. -1.
         -6    2    1    2    0  503  0.38159428560E+02 -0.76402135765E+02 -0.47642925461E+03  0.51294670978E+03  0.16981184909E+03 0.  0.
        -24    2    3    3    0    0  0.53777257964E+02 -0.10032429422E+03 -0.45794599945E+03  0.47859693567E+03  0.79897002002E+02 0.  0.
          6    2    1    2  501    0 -0.38159428560E+02  0.76402135765E+02 -0.88724980824E+02  0.21202161851E+03  0.17259089245E+03 0.  0.
         24    2    5    5    0    0  0.15935107313E+02  0.10102652847E+03 -0.70510204128E+02  0.14968023886E+03  0.83499688125E+02 0.  0.
          5    1    5    5  501    0 -0.54094535873E+02 -0.24624392709E+02 -0.18214776696E+02  0.62341379659E+02  0.47000000000E+01 0. -1.
        -11    1    6    6    0    0 -0.59379905766E+01 -0.56557589213E+01 -0.33765003451E+02  0.34746550895E+02  0.00000000000E+00 0.  1.
         12    1    6    6    0    0  0.21873097889E+02  0.10668228740E+03 -0.36745200677E+02  0.11493368796E+03  0.00000000000E+00 0. -1.
         -5    1    3    3    0  503 -0.15617829403E+02  0.23922158459E+02 -0.18483255155E+02  0.34349774115E+02  0.47000000000E+01 0.  1.
         13    1    4    4    0    0  0.23241967529E+02 -0.93555261826E+02 -0.24358889090E+03  0.26197008196E+03  0.00000000000E+00 0. -1.
        -14    1    4    4    0    0  0.30535290435E+02 -0.67690323983E+01 -0.21435710855E+03  0.21662685371E+03  0.00000000000E+00 0.  1.
</event>
<event>
12    1  0.8488291E-002  0.2484006E+03  0.7818608E-02  0.1114582E+00
         21   -1    0    0  503  502  0.00000000000E+00  0.00000000000E+00  0.77300423579E+03  0.77300423579E+03  0.00000000000E+00 0. -1.
         21   -1    0    0  501  503 -0.00000000000E+00 -0.00000000000E+00 -0.15779700379E+03  0.15779700379E+03  0.00000000000E+00 0.  1.
          6    2    1    2  501    0 -0.39624862491E+02  0.17550754201E+03 -0.20140822233E+02  0.24921574733E+03  0.17125947847E+03 0.  0.
         24    2    3    3    0    0  0.14391329479E+02  0.28580894668E+02  0.18159722470E+02  0.87988546092E+02  0.79926408770E+02 0.  0.
         -6    2    1    2    0  502  0.39624862491E+02 -0.17550754201E+03  0.63534805423E+03  0.68158549225E+03  0.16887452799E+03 0.  0.
        -24    2    5    5    0    0  0.41587871263E+02 -0.18427060362E+03  0.43375402724E+03  0.47973682030E+03  0.79496252780E+02 0.  0.
          5    1    3    3  501    0 -0.54016191970E+02  0.14692664734E+03 -0.38300544703E+02  0.16122720124E+03  0.47000000000E+01 0. -1.
        -13    1    4    4    0    0 -0.12382422632E+02  0.48138842035E+02 -0.95857791486E+00  0.49715102075E+02  0.00000000000E+00 0.  1.
         14    1    4    4    0    0  0.26773752111E+02 -0.19557947367E+02  0.19118300385E+02  0.38273444017E+02  0.00000000000E+00 0. -1.
         -5    1    5    5    0  502 -0.19630087721E+01  0.87630616082E+01  0.20159402699E+03  0.20184867196E+03  0.47000000000E+01 0.  1.
         11    1    6    6    0    0 -0.29219358087E+01 -0.94598860580E+02  0.28606937707E+03  0.30131905122E+03  0.00000000000E+00 0. -1.
        -12    1    6    6    0    0  0.44509807071E+02 -0.89671743040E+02  0.14768465017E+03  0.17841776907E+03  0.00000000000E+00 0.  1.
</event>
<event>
12    1  0.8488291E-002  0.1928772E+03  0.7818608E-02  0.1156185E+00
         21   -1    0    0  503  502  0.00000000000E+00  0.00000000000E+00  0.54953673163E+03  0.54953673163E+03  0.00000000000E+00 0. -1.
         21   -1    0    0  501  503 -0.00000000000E+00 -0.00000000000E+00 -0.22957864442E+03  0.22957864442E+03  0.00000000000E+00 0. -1.
          6    2    1    2  501    0 -0.79621745674E+02 -0.41766513912E+02 -0.16776734430E+03  0.25463684532E+03  0.16914484063E+03 0.  0.
         24    2    3    3    0    0 -0.69341814371E+01 -0.41992603094E+02 -0.15856645898E+03  0.18121832312E+03  0.76715690267E+02 0.  0.
         -6    2    1    2    0  502  0.79621745674E+02  0.41766513912E+02  0.48772543151E+03  0.52447853074E+03  0.17063870780E+03 0.  0.
        -24    2    5    5    0    0  0.73354121310E+02  0.70568218779E+02  0.47441208407E+03  0.49179586655E+03  0.80222492066E+02 0.  0.
          5    1    3    3  501    0 -0.72687564237E+02  0.22608918143E+00 -0.92008853116E+01  0.73418522197E+02  0.47000000000E+01 0. -1.
        -11    1    4    4    0    0 -0.37526960006E+01  0.10926855537E+02  0.23533325201E+01  0.11790550164E+02  0.00000000000E+00 0.  1.
         12    1    4    4    0    0 -0.31814854365E+01 -0.52919458631E+02 -0.16091979150E+03  0.16942777296E+03  0.00000000000E+00 0. -1.
         -5    1    5    5    0  502  0.62676243638E+01 -0.28801704867E+02  0.13313347437E+02  0.32682664187E+02  0.47000000000E+01 0.  1.
         13    1    6    6    0    0  0.55707409729E+02  0.25195115286E+02  0.38648062996E+03  0.39128683426E+03  0.00000000000E+00 0. -1.
        -14    1    6    6    0    0  0.17646711581E+02  0.45373103493E+02  0.87931454106E+02  0.10050903229E+03  0.00000000000E+00 0.  1.
</event>
<event>
12    1  0.8488291E-002  0.1914710E+03  0.7818608E-02  0.1157146E+00
         21   -1    0    0  503  502  0.00000000000E+00  0.00000000000E+00  0.13254945960E+03  0.13254945960E+03  0.00000000000E+00 0. -1.
         21   -1    0    0  501  503 -0.00000000000E+00 -0.00000000000E+00 -0.58702181353E+03  0.58702181353E+03  0.00000000000E+00 0.  1.
          6    2    1    2  501    0 -0.84188101746E+02 -0.29178325233E+01 -0.48888244822E+03  0.52503287871E+03  0.17192243987E+03 0.  0.
         24    2    3    3    0    0 -0.11034223971E+03 -0.99553356339E+01 -0.47457741973E+03  0.49404434498E+03  0.81126869320E+02 0.  0.
         -6    2    1    2    0  502  0.84188101746E+02  0.29178325233E+01  0.34410094283E+02  0.19453839441E+03  0.17194470649E+03 0.  0.
        -24    2    5    5    0    0 -0.17286749877E+02  0.18441204696E+02 -0.40617494946E+01  0.84810123860E+02  0.80853877756E+02 0.  0.
          5    1    3    3  501    0  0.26154137961E+02  0.70375031106E+01 -0.14305028496E+02  0.30988533731E+02  0.47000000000E+01 0. -1.
        -13    1    4    4    0    0 -0.18332342782E+02 -0.41309110418E+00 -0.25655788575E+03  0.25721235230E+03  0.00000000000E+00 0.  1.
         14    1    4    4    0    0 -0.92009896924E+02 -0.95422445298E+01 -0.21801953398E+03  0.23683199268E+03  0.00000000000E+00 0. -1.
         -5    1    5    5    0  502  0.10147485162E+03 -0.15523372173E+02  0.38471843777E+02  0.10972827056E+03  0.47000000000E+01 0.  1.
         11    1    6    6    0    0 -0.30498934195E+02 -0.17451842860E+02  0.19201896521E+02  0.40043284534E+02  0.00000000000E+00 0. -1.
        -12    1    6    6    0    0  0.13212184319E+02  0.35893047556E+02 -0.23263646015E+02  0.44766839326E+02  0.00000000000E+00 0.  1.
</event>
<event>
12    1  0.8488291E-002  0.1962995E+03  0.7818608E-02  0.1153331E+00
         21   -1    0    0  503  502  0.00000000000E+00  0.00000000000E+00  0.69991176379E+03  0.69991176379E+03  0.00000000000E+00 0. -1.
         21   -1    0    0  501  503 -0.00000000000E+00 -0.00000000000E+00 -0.13207762033E+03  0.13207762033E+03  0.00000000000E+00 0. -1.
          6    2    1    2  501    0  0.34641358603E+02  0.87636466757E+02 -0.34305033220E+02  0.19927449956E+03  0.17220138454E+03 0.  0.
         24    2    3    3    0    0 -0.33762851015E+02  0.93704042955E+02 -0.26047422891E+02  0.12994752427E+03  0.79293839919E+02 0.  0.
         -6    2    1    2    0  502 -0.34641358603E+02 -0.87636466757E+02  0.60213917668E+03  0.63271488456E+03  0.16993046526E+03 0.  0.
        -24    2    5    5    0    0  0.23897023811E+02 -0.99748558658E+02  0.44264948662E+03  0.46232563542E+03  0.85355623513E+02 0.  0.
          5    1    3    3  501    0  0.68404209618E+02 -0.60675761982E+01 -0.82576103286E+01  0.69326975289E+02  0.47000000000E+01 0. -1.
        -11    1    4    4    0    0 -0.21312907943E+02  0.57245406348E+02  0.24992992709E+02  0.65999441493E+02  0.00000000000E+00 0.  1.
         12    1    4    4    0    0 -0.12449943073E+02  0.36458636607E+02 -0.51040415600E+02  0.63948082774E+02  0.00000000000E+00 0. -1.
         -5    1    5    5    0  502 -0.58538382414E+02  0.12112091901E+02  0.15948969006E+03  0.17038924914E+03  0.47000000000E+01 0.  1.
         11    1    6    6    0    0  0.10737204349E+02 -0.10737890387E+03  0.29909657353E+03  0.31796898725E+03  0.00000000000E+00 0. -1.
        -12    1    6    6    0    0  0.13159819462E+02  0.76303452152E+01  0.14355291309E+03  0.14435664817E+03  0.00000000000E+00 0.  1.
</event>
<event>
12    1  0.8488291E-002  0.2304150E+03  0.7818608E-02  0.1126483E+00
         21   -1    0    0  503  502  0.00000000000E+00  0.00000000000E+00  0.52931918930E+03  0.52931918930E+03  0.00000000000E+00 0.  1.
         21   -1    0    0  501  503 -0.00000000000E+00 -0.00000000000E+00 -0.10968406483E+03  0.10968406483E+03  0.00000000000E+00 0.  1.
          6    2    1    2  501    0 -0.15370852751E+03 -0.58425406716E+01  0.11503462655E+03  0.25753449280E+03  0.17155349885E+03 0.  0.
         24    2    3    3    0    0 -0.17434388449E+03 -0.16892367155E+02  0.12684640341E+03  0.23089758803E+03  0.80885993693E+02 0.  0.
         -6    2    1    2    0  502  0.15370852751E+03  0.58425406716E+01  0.30460049792E+03  0.38146876133E+03  0.17051834456E+03 0.  0.
        -24    2    5    5    0    0  0.13135828127E+03  0.54986726606E+02  0.27328146167E+03  0.31887757545E+03  0.81985441852E+02 0.  0.
          5    1    3    3  501    0  0.20635356983E+02  0.11049826484E+02 -0.11811776858E+02  0.26636904769E+02  0.47000000000E+01 0. -1.
        -11    1    4    4    0    0 -0.80525578150E+02 -0.39933716983E+02  0.90858460659E+02  0.12780583070E+03  0.00000000000E+00 0.  1.
         12    1    4    4    0    0 -0.93818306339E+02  0.23041349828E+02  0.35987942747E+02  0.10309175733E+03  0.00000000000E+00 0. -1.
         -5    1    5    5    0  502  0.22350246240E+02 -0.49144185935E+02  0.31319036256E+02  0.62591185882E+02  0.47000000000E+01 0.  1.
         13    1    6    6    0    0  0.26295514484E+02  0.30767566122E+02  0.14874610799E+03  0.15415414963E+03  0.00000000000E+00 0. -1.
        -14    1    6    6    0    0  0.10506276678E+03  0.24219160484E+02  0.12453535368E+03  0.16472342582E+03  0.00000000000E+00 0.  1.
</event>
<event>
12    1  0.8488291E-002  0.1936927E+03  0.7818608E-02  0.1156248E+00
         21   -1    0    0  501  502  0.00000000000E+00  0.00000000000E+00  0.86842155476E+02  0.86842155476E+02  0.00000000000E+00 0.  1.
         21   -1    0    0  502  503 -0.00000000000E+00 -0.00000000000E+00 -0.12180070472E+04  0.12180070472E+04  0.00000000000E+00 0.  1.
         -6    2    1    2    0  503 -0.88964467658E+02  0.84010641369E+01 -0.10956891836E+04  0.11126776959E+04  0.17184764598E+03 0.  0.
        -24    2    3    3    0    0 -0.71023126686E+02 -0.50638389993E+02 -0.50394552979E+03  0.51770694810E+03  0.80317221430E+02 0.  0.
          6    2    1    2  501    0  0.88964467658E+02 -0.84010641369E+01 -0.35475708141E+02  0.19217150683E+03  0.16639142942E+03 0.  0.
         24    2    5    5    0    0  0.12082771920E+03  0.26058653548E+01 -0.52927968703E+02  0.15392113828E+03  0.79273064001E+02 0.  0.
          5    1    5    5  501    0 -0.31863251543E+02 -0.11006929492E+02  0.17452260562E+02  0.38250368553E+02  0.47000000000E+01 0. -1.
        -11    1    6    6    0    0  0.41933053677E+02 -0.24674522317E+02  0.96375729778E+01  0.49599353374E+02  0.00000000000E+00 0.  1.
         12    1    6    6    0    0  0.78894665524E+02  0.27280387672E+02 -0.62565541680E+02  0.10432178490E+03  0.00000000000E+00 0. -1.
         -5    1    3    3    0  503 -0.17941340972E+02  0.59039454130E+02 -0.59174365382E+03  0.59497074777E+03  0.47000000000E+01 0.  1.
         13    1    4    4    0    0 -0.84366535781E+02 -0.57737067214E+02 -0.46037951900E+03  0.47159366282E+03  0.00000000000E+00 0. -1.
        -14    1    4    4    0    0  0.13343409095E+02  0.70986772206E+01 -0.43566010783E+02  0.46113285288E+02  0.00000000000E+00 0.  1.
</event>
<event>
12    1  0.8488291E-002  0.2384088E+03  0.7818608E-02  0.1122187E+00
         21   -1    0    0  503  502  0.00000000000E+00  0.00000000000E+00  0.95255594944E+03  0.95255594944E+03  0.00000000000E+00 0.  1.
         21   -1    0    0  501  503 -0.00000000000E+00 -0.00000000000E+00 -0.58288446196E+02  0.58288446196E+02  0.00000000000E+00 0.  1.
          6    2    1    2  501    0  0.48025271236E+02 -0.14655996031E+03  0.50352346550E+03  0.55711275185E+03  0.18180343596E+03 0.  0.
         24    2    3    3    0    0  0.87098174113E+02 -0.11385053868E+03  0.46417067989E+03  0.49255789349E+03  0.81306957137E+02 0.  0.
         -6    2    1    2    0  502 -0.48025271236E+02  0.14655996031E+03  0.39074403774E+03  0.45373164378E+03  0.17147959906E+03 0.  0.
        -24    2    5    5    0    0  0.14867821180E+02  0.53306691890E+02  0.90848100640E+02  0.13340153868E+03  0.80498059759E+02 0.  0.
          5    1    3    3  501    0 -0.39072902877E+02 -0.32709421634E+02  0.39352785604E+02  0.64554858358E+02  0.47000000000E+01 0. -1.
        -13    1    4    4    0    0  0.26791202150E+02 -0.53030878974E+02  0.84189609023E+02  0.10304335449E+03  0.00000000000E+00 0.  1.
         14    1    4    4    0    0  0.60306971963E+02 -0.60819659701E+02  0.37998107087E+03  0.38951453900E+03  0.00000000000E+00 0. -1.
         -5    1    5    5    0  502 -0.62893092416E+02  0.93253268420E+02  0.29989593710E+03  0.32033010510E+03  0.47000000000E+01 0.  1.
         11    1    6    6    0    0  0.20327764888E+02 -0.14828112291E+02  0.43494162460E+02  0.50247717436E+02  0.00000000000E+00 0. -1.
        -12    1    6    6    0    0 -0.54599437077E+01  0.68134804181E+02  0.47353938180E+02  0.83153821242E+02  0.00000000000E+00 0.  1.
</event>
<event>
12    1  0.8488291E-002  0.2248206E+03  0.7818608E-02  0.1130920E+00
         21   -1    0    0  501  502  0.00000000000E+00  0.00000000000E+00  0.18909296578E+03  0.18909296578E+03  0.00000000000E+00 0. -1.
         21   -1    0    0  502  503 -0.00000000000E+00 -0.00000000000E+00 -0.40304898526E+03  0.40304898526E+03  0.00000000000E+00 0.  1.
         -6    2    1    2    0  503 -0.12643129955E+03  0.69536077571E+02 -0.28166590901E+03  0.36038867689E+03  0.17240700258E+03 0.  0.
        -24    2    3    3    0    0 -0.35577342208E+02  0.93379091263E+02 -0.18633624827E+03  0.22647540240E+03  0.81144984493E+02 0.  0.
          6    2    1    2  501    0  0.12643129955E+03 -0.69536077571E+02  0.67709889527E+02  0.23175327416E+03  0.16824033806E+03 0.  0.
         24    2    5    5    0    0  0.11231165317E+03 -0.97659013405E+02  0.12096540873E+02  0.16768145131E+03  0.76285991344E+02 0.  0.
          5    1    5    5  501    0  0.14119646380E+02  0.28122935834E+02  0.55613348654E+02  0.64071822842E+02  0.47000000000E+01 0. -1.
        -13    1    6    6    0    0  0.83801105379E+02 -0.46917557653E+02 -0.24258805760E+02  0.99057418378E+02  0.00000000000E+00 0.  1.
         14    1    6    6    0    0  0.28510547796E+02 -0.50741455753E+02  0.36355346633E+02  0.68624032935E+02  0.00000000000E+00 0. -1.
         -5    1    3    3    0  503 -0.90853957347E+02 -0.23843013692E+02 -0.95329660744E+02  0.13391327449E+03  0.47000000000E+01 0.  1.
         13    1    4    4    0    0  0.17628051122E+02  0.55209702220E+02 -0.12001293392E+03  0.13327401740E+03  0.00000000000E+00 0. -1.
        -14    1    4    4    0    0 -0.53205393330E+02  0.38169389043E+02 -0.66323314346E+02  0.93201384996E+02  0.00000000000E+00 0.  1.
</event>
<event>
12    1  0.8488291E-002  0.1921321E+03  0.7818608E-02  0.1156778E+00
         21   -1    0    0  503  502  0.00000000000E+00  0.00000000000E+00  0.11008282798E+03  0.11008282798E+03  0.00000000000E+00 0. -1.
         21   -1    0    0  501  503 -0.00000000000E+00 -0.00000000000E+00 -0.39175939112E+03  0.39175939112E+03  0.00000000000E+00 0.  1.
          6    2    1    2  501    0  0.78130720456E+02  0.29473569338E+02 -0.44450502541E+02  0.19720696284E+03  0.17303652287E+03 0.  0.
         24    2    3    3    0    0  0.74971496446E+02  0.83942794777E+02 -0.27646669860E+02  0.13992401591E+03  0.78404552161E+02 0.  0.
         -6    2    1    2    0  502 -0.78130720456E+02 -0.29473569338E+02 -0.23722606060E+03  0.30463525625E+03  0.17191083374E+03 0.  0.
        -24    2    5    5    0    0 -0.30466034566E+02 -0.81365795835E+02 -0.17016470406E+03  0.20724921520E+03  0.80297189848E+02 0.  0.
          5    1    3    3  501    0  0.31592240106E+01 -0.54469225439E+02 -0.16803832680E+02  0.57282946930E+02  0.47000000000E+01 0. -1.
        -13    1    4    4    0    0  0.38489791183E+02  0.39564674539E+02 -0.53550284528E+02  0.76905529514E+02  0.00000000000E+00 0.  1.
         14    1    4    4    0    0  0.36481705262E+02  0.44378120239E+02  0.25903614668E+02  0.63018486396E+02  0.00000000000E+00 0. -1.
         -5    1    5    5    0  502 -0.47664685891E+02  0.51892226496E+02 -0.67061356540E+02  0.97386041057E+02  0.47000000000E+01 0.  1.
         11    1    6    6    0    0  0.11095649563E+02 -0.70601786155E+01  0.36964332201E+01  0.13661009475E+02  0.00000000000E+00 0. -1.
        -12    1    6    6    0    0 -0.41561684129E+02 -0.74305617219E+02 -0.17386113728E+03  0.19358820572E+03  0.00000000000E+00 0.  1.
</event>
<event>
12    1  0.8488291E-002  0.1853000E+03  0.7818608E-02  0.1163198E+00
         21   -1    0    0  503  502  0.00000000000E+00  0.00000000000E+00  0.62173457696E+03  0.62173457696E+03  0.00000000000E+00 0. -1.
         21   -1    0    0  501  503 -0.00000000000E+00 -0.00000000000E+00 -0.23528893810E+03  0.23528893810E+03  0.00000000000E+00 0. -1.
          6    2    1    2  501    0 -0.54415602015E+02  0.35735794889E+02 -0.18198251018E+03  0.25971853756E+03  0.17348769397E+03 0.  0.
         24    2    3    3    0    0 -0.84891034780E+02 -0.17640748676E+02 -0.64759321828E+02  0.12727544301E+03  0.66989438202E+02 0.  0.
         -6    2    1    2    0  502  0.54415602015E+02 -0.35735794889E+02  0.56842814904E+03  0.59730497750E+03  0.17153591678E+03 0.  0.
        -24    2    5    5    0    0  0.75809249678E+02 -0.28492542619E+02  0.56242902422E+03  0.57346735257E+03  0.77327419816E+02 0.  0.
          5    1    3    3  501    0  0.30475432765E+02  0.53376543565E+02 -0.11722318835E+03  0.13244309454E+03  0.47000000000E+01 0. -1.
        -11    1    4    4    0    0 -0.76106468323E+02  0.62814032623E+01 -0.25576849576E+02  0.80534624738E+02  0.00000000000E+00 0.  1.
         12    1    4    4    0    0 -0.87845664575E+01 -0.23922151938E+02 -0.39182472252E+02  0.46740818275E+02  0.00000000000E+00 0. -1.
         -5    1    5    5    0  502 -0.21393647662E+02 -0.72432522707E+01  0.59991248214E+01  0.23837624931E+02  0.47000000000E+01 0.  1.
         11    1    6    6    0    0  0.13473723471E+02 -0.43449502913E+02  0.17748118312E+03  0.18321836941E+03  0.00000000000E+00 0. -1.
        -12    1    6    6    0    0  0.62335526207E+02  0.14956960294E+02  0.38494784110E+03  0.39024898316E+03  0.00000000000E+00 0.  1.
</event>
<event>
12    1  0.8488291E-002  0.1799851E+03  0.7818608E-02  0.1168506E+00
         21   -1    0    0  503  502  0.00000000000E+00  0.00000000000E+00  0.41372312805E+03  0.41372312805E+03  0.00000000000E+00 0.  1.
         21   -1    0    0  501  503 -0.00000000000E+00 -0.00000000000E+00 -0.95070601150E+02  0.95070601150E+02  0.00000000000E+00 0.  1.
          6    2    1    2  501    0 -0.35123175822E+02 -0.27372089537E+02  0.27101507591E+03  0.32533646399E+03  0.17438972063E+03 0.  0.
         24    2    3    3    0    0 -0.28556442094E+02  0.23810484224E+02  0.25784135018E+03  0.27187231807E+03  0.77781655454E+02 0.  0.
         -6    2    1    2    0  502  0.35123175822E+02  0.27372089537E+02  0.47637450982E+02  0.18345726521E+03  0.17147703245E+03 0.  0.
        -24    2    5    5    0    0  0.64795305952E+02  0.70113055713E+02  0.39661751220E+02  0.13060911214E+03  0.79821133855E+02 0.  0.
          5    1    3    3  501    0 -0.65667337280E+01 -0.51182573761E+02  0.13173725730E+02  0.53464145914E+02  0.47000000000E+01 0. -1.
        -13    1    4    4    0    0 -0.54178781227E+02  0.91467596912E+01  0.19216606623E+03  0.19986695715E+03  0.00000000000E+00 0.  1.
         14    1    4    4    0    0  0.25622339133E+02  0.14663724533E+02  0.65675283952E+02  0.72005360926E+02  0.00000000000E+00 0. -1.
         -5    1    5    5    0  502 -0.29672130130E+02 -0.42740966176E+02  0.79756997628E+01  0.52848153069E+02  0.47000000000E+01 0.  1.
         13    1    6    6    0    0  0.16171308430E+00  0.26520408887E+02  0.45249451802E+02  0.52448747621E+02  0.00000000000E+00 0. -1.
        -14    1    6    6    0    0  0.64633592868E+02  0.43592646825E+02 -0.55877005821E+01  0.78160364521E+02  0.00000000000E+00 0.  1.
</event>
<event>
12    1  0.8488291E-002  0.2249712E+03  0.7818608E-02  0.1130391E+00
         21   -1    0    0  501  502  0.00000000000E+00  0.00000000000E+00  0.22116034407E+02  0.22116034407E+02  0.00000000000E+00 0. -1.
         21   -1    0    0  502  503 -0.00000000000E+00 -0.00000000000E+00 -0.22807374935E+04  0.22807374935E+04  0.00000000000E+00 0.  1.
         -6    2    1    2    0  503 -0.13946286880E+03 -0.38997097901E+02 -0.11041725762E+04  0.11268580719E+04  0.17216669471E+03 0.  0.
        -24    2    3    3    0    0 -0.10035481529E+03 -0.91673541820E+02 -0.82766208311E+03  0.84263212238E+03  0.80803729065E+02 0.  0.
          6    2    1    2  501    0  0.13946286880E+03  0.38997097901E+02 -0.11544488829E+04  0.11759954560E+04  0.17100416341E+03 0.  0.
         24    2    5    5    0    0  0.90851793142E+02 -0.10713655795E+02 -0.98387841036E+03  0.99173864660E+03  0.84616700824E+02 0.  0.
          5    1    5    5  501    0  0.48611075662E+02  0.49710753695E+02 -0.17057047257E+03  0.18425680943E+03  0.47000000000E+01 0. -1.
        -13    1    6    6    0    0  0.29753768937E+01 -0.24579066963E+02 -0.43440011737E+03  0.43510509693E+03  0.00000000000E+00 0.  1.
         14    1    6    6    0    0  0.87876416248E+02  0.13865411168E+02 -0.54947829299E+03  0.55663354967E+03  0.00000000000E+00 0. -1.
         -5    1    3    3    0  503 -0.39108053519E+02  0.52676443920E+02 -0.27651049307E+03  0.28422594950E+03  0.47000000000E+01 0.  1.
         13    1    4    4    0    0 -0.22847760873E+02 -0.66252460575E+02 -0.26596738048E+03  0.27504555294E+03  0.00000000000E+00 0. -1.
        -14    1    4    4    0    0 -0.77507054412E+02 -0.25421081245E+02 -0.56169470263E+03  0.56758656945E+03  0.00000000000E+00 0.  1.
</event>
<event>
12    1  0.8488291E-002  0.1854878E+03  0.7818608E-02  0.1162671E+00
         21   -1    0    0  503  502  0.00000000000E+00  0.00000000000E+00  0.36869961814E+03  0.36869961814E+03  0.00000000000E+00 0. -1.
         21   -1    0    0  501  503 -0.00000000000E+00 -0.00000000000E+00 -0.11965356837E+03  0.11965356837E+03  0.00000000000E+00 0. -1.
          6    2    1    2  501    0 -0.65182035605E+02  0.21737159258E+02  0.96951625848E+01  0.18574095397E+03  0.17229191492E+03 0.  0.
         24    2    3    3    0    0 -0.99346960972E+02 -0.81626192967E+01  0.37304735446E+02  0.13239662534E+03  0.78745006874E+02 0.  0.
         -6    2    1    2    0  502  0.65182035605E+02 -0.21737159258E+02  0.23935088718E+03  0.30261223254E+03  0.17194218282E+03 0.  0.
        -24    2    5    5    0    0  0.95375598258E+02 -0.48526296196E+02  0.13450163946E+03  0.19016329377E+03  0.81363880895E+02 0.  0.
          5    1    3    3  501    0  0.34164925367E+02  0.29899778555E+02 -0.27609572861E+02  0.53344328626E+02  0.47000000000E+01 0. -1.
        -13    1    4    4    0    0 -0.61939010641E+02 -0.31318002916E+02  0.51213329572E+02  0.86255802539E+02  0.00000000000E+00 0.  1.
         14    1    4    4    0    0 -0.37407950331E+02  0.23155383619E+02 -0.13908594126E+02  0.46140822805E+02  0.00000000000E+00 0. -1.
         -5    1    5    5    0  502 -0.30193562653E+02  0.26789136938E+02  0.10484924772E+03  0.11244893877E+03  0.47000000000E+01 0.  1.
         13    1    6    6    0    0  0.46872074008E+02 -0.65780103560E+02  0.98301479495E+02  0.12722890480E+03  0.00000000000E+00 0. -1.
        -14    1    6    6    0    0  0.48503524250E+02  0.17253807364E+02  0.36200159966E+02  0.62934388968E+02  0.00000000000E+00 0.  1.
</event>
<event>
12    1  0.8488291E-002  0.1753120E+03  0.7818608E-02  0.1172688E+00
         21   -1    0    0  503  502  0.00000000000E+00  0.00000000000E+00  0.95020396991E+02  0.95020396991E+02  0.00000000000E+00 0. -1.
         21   -1    0    0  501  503 -0.00000000000E+00 -0.00000000000E+00 -0.15224939590E+04  0.15224939590E+04  0.00000000000E+00 0. -1.
          6    2    1    2  501    0  0.18554392942E+01 -0.26467725711E+02 -0.14325143530E+04  0.14432018869E+04  0.17329261869E+03 0.  0.
         24    2    3    3    0    0  0.66672647551E+01 -0.82574448033E+02 -0.76163222957E+03  0.76994411200E+03  0.76598241435E+02 0.  0.
         -6    2    1    2    0  502 -0.18554392942E+01  0.26467725711E+02  0.50407909504E+01  0.17431246911E+03  0.17220756126E+03 0.  0.
        -24    2    5    5    0    0  0.89289816046E+01 -0.84093160321E+01  0.61580970430E+02  0.10684696926E+03  0.86450075838E+02 0.  0.
          5    1    3    3  501    0 -0.48118254609E+01  0.56106722321E+02 -0.67088212343E+03  0.67325777492E+03  0.47000000000E+01 0. -1.
        -13    1    4    4    0    0  0.35074680298E+02 -0.20268805832E+02 -0.38614383691E+03  0.38826295274E+03  0.00000000000E+00 0.  1.
         14    1    4    4    0    0 -0.28407415543E+02 -0.62305642201E+02 -0.37548839266E+03  0.38168115925E+03  0.00000000000E+00 0. -1.
         -5    1    5    5    0  502 -0.10784420899E+02  0.34877041743E+02 -0.56540179479E+02  0.67465499853E+02  0.47000000000E+01 0.  1.
         13    1    6    6    0    0  0.41312951088E+02  0.18037301642E+01  0.61003455605E+01  0.41799851507E+02  0.00000000000E+00 0. -1.
        -14    1    6    6    0    0 -0.32383969483E+02 -0.10213046196E+02  0.55480624869E+02  0.65047117753E+02  0.00000000000E+00 0.  1.
</event>
<event>
12    1  0.8488291E-002  0.2173275E+03  0.7818608E-02  0.1136100E+00
         21   -1    0    0  501  502  0.00000000000E+00  0.00000000000E+00  0.12419373314E+04  0.12419373314E+04  0.00000000000E+00 0.  1.
         21   -1    0    0  502  503 -0.00000000000E+00 -0.00000000000E+00 -0.12585208591E+03  0.12585208591E+03  0.00000000000E+00 0.  1.
         -6    2    1    2    0  503  0.66647869029E+02 -0.11476907906E+03 -0.13450757672E+02  0.21774332788E+03  0.17209693199E+03 0.  0.
        -24    2    3    3    0    0  0.69328752157E+02 -0.12047291594E+03  0.38377552414E+02  0.16532210493E+03  0.80860141598E+02 0.  0.
          6    2    1    2  501    0 -0.66647869029E+02  0.11476907906E+03  0.11295360032E+04  0.11500460894E+04  0.17070602042E+03 0.  0.
         24    2    5    5    0    0 -0.98418426881E+02  0.12845260191E+03  0.97764278845E+03  0.99419280643E+03  0.80297302992E+02 0.  0.
          5    1    5    5  501    0  0.31770557852E+02 -0.13683522848E+02  0.15189321473E+03  0.15585328301E+03  0.47000000000E+01 0. -1.
        -13    1    6    6    0    0 -0.59667778339E+02  0.20608752938E+02  0.43724487515E+03  0.44177827619E+03  0.00000000000E+00 0.  1.
         14    1    6    6    0    0 -0.38750648542E+02  0.10784384897E+03  0.54039791330E+03  0.55241453024E+03  0.00000000000E+00 0. -1.
         -5    1    3    3    0  503 -0.26808831278E+01  0.57038368793E+01 -0.51828310086E+02  0.52421222953E+02  0.47000000000E+01 0.  1.
         11    1    4    4    0    0 -0.92307842399E+01 -0.23029690008E+02 -0.15280228936E+02  0.29138623782E+02  0.00000000000E+00 0. -1.
        -12    1    4    4    0    0  0.78559536397E+02 -0.97443225929E+02  0.53657781350E+02  0.13618348115E+03  0.00000000000E+00 0.  1.
</event>
<event>
12    1  0.8488291E-002  0.1740871E+03  0.7818608E-02  0.1177970E+00
         21   -1    0    0  501  502  0.00000000000E+00  0.00000000000E+00  0.20637441533E+03  0.20637441533E+03  0.00000000000E+00 0.  1.
         21   -1    0    0  502  503 -0.00000000000E+00 -0.00000000000E+00 -0.18109208131E+03  0.18109208131E+03  0.00000000000E+00 0.  1.
         -6    2    1    2    0  503 -0.54461404956E+01  0.17808690259E+01 -0.86143403716E+02  0.19423439635E+03  0.17399276647E+03 0.  0.
        -24    2    3    3    0    0  0.34876753030E+02  0.56950014711E+02 -0.49380606017E+02  0.11649660842E+03  0.81690412203E+02 0.  0.
          6    2    1    2  501    0  0.54461404956E+01 -0.17808690259E+01  0.11142573773E+03  0.19323210029E+03  0.15776602173E+03 0.  0.
         24    2    5    5    0    0 -0.21203496624E+02 -0.36642638059E+02  0.11834342088E+03  0.14856118762E+03  0.79202209617E+02 0.  0.
          5    1    5    5  501    0  0.26649637119E+02  0.34861769033E+02 -0.69176831483E+01  0.44670912671E+02  0.47000000000E+01 0. -1.
        -13    1    6    6    0    0  0.23320971249E+02 -0.33164871090E+02  0.33146874673E+02  0.52368804407E+02  0.00000000000E+00 0.  1.
         14    1    6    6    0    0 -0.44524467873E+02 -0.34777669685E+01  0.85196546205E+02  0.96192383210E+02  0.00000000000E+00 0. -1.
         -5    1    3    3    0  503 -0.40322893525E+02 -0.55169145685E+02 -0.36762797699E+02  0.77737787932E+02  0.47000000000E+01 0.  1.
         13    1    4    4    0    0  0.34375117744E+02 -0.12099080422E+02 -0.18138552378E+02  0.40706799792E+02  0.00000000000E+00 0. -1.
        -14    1    4    4    0    0  0.50163528599E+00  0.69049095133E+02 -0.31242053638E+02  0.75789808630E+02  0.00000000000E+00 0.  1.
</event>
<event>
12    1  0.8488291E-002  0.2245803E+03  0.7818608E-02  0.1130713E+00
         21   -1    0    0  501  502  0.00000000000E+00  0.00000000000E+00  0.18557047730E+03  0.18557047730E+03  0.00000000000E+00 0.  1.
         21   -1    0    0  502  503 -0.00000000000E+00 -0.00000000000E+00 -0.83438384479E+03  0.83438384479E+03  0.00000000000E+00 0.  1.
         -6    2    1    2    0  503 -0.92816337554E+02  0.10945291506E+03 -0.74391768034E+03  0.77707776108E+03  0.17274697830E+03 0.  0.
        -24    2    3    3    0    0 -0.10918963470E+03  0.98773928489E+02 -0.41722465204E+03  0.44976666999E+03  0.80839234821E+02 0.  0.
          6    2    1    2  501    0  0.92816337554E+02 -0.10945291506E+03  0.95104312850E+02  0.24287656101E+03  0.17131660875E+03 0.  0.
         24    2    5    5    0    0  0.72916458345E+02 -0.40824080082E+02  0.11974687803E+03  0.16714500747E+03  0.81330949295E+02 0.  0.
          5    1    5    5  501    0  0.19899879209E+02 -0.68628834980E+02 -0.24642565176E+02  0.75731553541E+02  0.47000000000E+01 0. -1.
        -11    1    6    6    0    0 -0.33439394503E+01 -0.39048575135E+02  0.29971214237E+02  0.49338087052E+02  0.00000000000E+00 0.  1.
         12    1    6    6    0    0  0.76260397795E+02 -0.17755049473E+01  0.89775663789E+02  0.11780692042E+03  0.00000000000E+00 0. -1.
         -5    1    3    3    0  503  0.16373297146E+02  0.10678986573E+02 -0.32669302830E+03  0.32731109110E+03  0.47000000000E+01 0.  1.
         13    1    4    4    0    0 -0.18333797049E+02  0.56057520439E+02 -0.90989614579E+02  0.10843285329E+03  0.00000000000E+00 0. -1.
        -14    1    4    4    0    0 -0.90855837651E+02  0.42716408050E+02 -0.32623503746E+03  0.34133381669E+03  0.00000000000E+00 0.  1.
</event>
<event>
12    1  0.8488291E-002  0.1763066E+03  0.7818608E-02  0.1173164E+00
         21   -1    0    0  501  502  0.00000000000E+00  0.00000000000E+00  0.68774989355E+02  0.68774989355E+02  0.00000000000E+00 0.  1.
         21   -1    0    0  502  503 -0.00000000000E+00 -0.00000000000E+00 -0.56080834392E+03  0.56080834392E+03  0.00000000000E+00 0.  1.
         -6    2    1    2    0  503  0.33655380512E+02 -0.19403515891E+02 -0.39910488136E+03  0.43631262909E+03  0.17197332034E+03 0.  0.
        -24    2    3    3    0    0  0.38103187687E+02  0.14928156328E+02 -0.99899039947E+02  0.13507406542E+03  0.81181784919E+02 0.  0.
          6    2    1    2  501    0 -0.33655380512E+02  0.19403515891E+02 -0.92928473203E+02  0.19327070419E+03  0.16495054683E+03 0.  0.
         24    2    5    5    0    0 -0.32155610331E+01  0.53996331348E+01  0.12350504348E+02  0.82688406976E+02  0.81518966013E+02 0.  0.
          5    1    5    5  501    0 -0.30439819479E+02  0.14003882756E+02 -0.10527897755E+03  0.11058229721E+03  0.47000000000E+01 0. -1.
        -11    1    6    6    0    0 -0.35293569547E+02  0.21261752941E+02  0.20448179213E+02  0.45998111076E+02  0.00000000000E+00 0.  1.
         12    1    6    6    0    0  0.32078008514E+02 -0.15862119806E+02 -0.80976748645E+01  0.36690295899E+02  0.00000000000E+00 0. -1.
         -5    1    3    3    0  503 -0.44478071747E+01 -0.34331672219E+02 -0.29920584141E+03  0.30123856367E+03  0.47000000000E+01 0.  1.
         13    1    4    4    0    0  0.23159124632E+02 -0.27167389251E+02 -0.14175661808E+02  0.38410434522E+02  0.00000000000E+00 0. -1.
        -14    1    4    4    0    0  0.14944063055E+02  0.42095545580E+02 -0.85723378139E+02  0.96663630895E+02  0.00000000000E+00 0.  1.
</event>
<event>
12    1  0.8488291E-002  0.1837066E+03  0.7818608E-02  0.1164670E+00
         21   -1    0    0  503  502  0.00000000000E+00  0.00000000000E+00  0.71827825894E+02  0.71827825894E+02  0.00000000000E+00 0. -1.
         21   -1    0    0  501  503 -0.00000000000E+00 -0.00000000000E+00 -0.49401974314E+03  0.49401974314E+03  0.00000000000E+00 0. -1.
          6    2    1    2  501    0  0.47798068331E+02  0.42968594535E+02 -0.27818506642E+03  0.33242498149E+03  0.17026004136E+03 0.  0.
         24    2    3    3    0    0 -0.25818391936E+02 -0.50658095304E+01 -0.90823953569E+02  0.12541540730E+03  0.82387997051E+02 0.  0.
         -6    2    1    2    0  502 -0.47798068331E+02 -0.42968594535E+02 -0.14400685082E+03  0.23342258754E+03  0.17209641437E+03 0.  0.
        -24    2    5    5    0    0 -0.31387834603E+02 -0.87796224352E+02 -0.61986148792E+02  0.13840523267E+03  0.81365549321E+02 0.  0.
          5    1    3    3  501    0  0.73616460266E+02  0.48034404065E+02 -0.18736111285E+03  0.20700957419E+03  0.47000000000E+01 0. -1.
        -11    1    4    4    0    0 -0.33341583077E+02 -0.11248178527E+02 -0.11419900203E+01  0.35206346352E+02  0.00000000000E+00 0.  1.
         12    1    4    4    0    0  0.75231911410E+01  0.61823689964E+01 -0.89681963549E+02  0.90209060949E+02  0.00000000000E+00 0. -1.
         -5    1    5    5    0  502 -0.16410233728E+02  0.44827629818E+02 -0.82020702028E+02  0.95017354874E+02  0.47000000000E+01 0.  1.
         13    1    6    6    0    0 -0.28562090847E+02 -0.49192520969E+02  0.89623842477E+01  0.57584906740E+02  0.00000000000E+00 0. -1.
        -14    1    6    6    0    0 -0.28257437551E+01 -0.38603703383E+02 -0.70948533040E+02  0.80820325928E+02  0.00000000000E+00 0.  1.
</event>
<event>
12    1  0.8488291E-002  0.1739737E+03  0.7818608E-02  0.1173933E+00
         21   -1    0    0  503  502  0.00000000000E+00  0.00000000000E+00  0.18124268798E+02  0.18124268798E+02  0.00000000000E+00 0.  1.
         21   -1    0    0  501  503 -0.00000000000E+00 -0.00000000000E+00 -0.19774951319E+04  0.19774951319E+04  0.00000000000E+00 0.  1.
          6    2    1    2  501    0 -0.12353383260E+02  0.20502981309E+02 -0.13756362989E+04  0.13865111374E+04  0.17165351460E+03 0.  0.
         24    2    3    3    0    0 -0.45935760461E+02  0.33835793061E+02 -0.45054037171E+03  0.46069792495E+03  0.77466099210E+02 0.  0.
         -6    2    1    2    0  502  0.12353383260E+02 -0.20502981309E+02 -0.58373456424E+03  0.60910826330E+03  0.17231905468E+03 0.  0.
        -24    2    5    5    0    0  0.61401899921E+02  0.42685647066E+02 -0.27498177132E+03  0.29012717157E+03  0.54465983378E+02 0.  0.
          5    1    3    3  501    0  0.33582377201E+02 -0.13332811752E+02 -0.92509592717E+03  0.92581321248E+03  0.47000000000E+01 0. -1.
        -11    1    4    4    0    0 -0.88319227001E+01  0.26270065016E+02 -0.37666106298E+03  0.37767932898E+03  0.00000000000E+00 0.  1.
         12    1    4    4    0    0 -0.37103837761E+02  0.75657280451E+01 -0.73879308733E+02  0.83018595967E+02  0.00000000000E+00 0. -1.
         -5    1    5    5    0  502 -0.49048516661E+02 -0.63188628375E+02 -0.30875279292E+03  0.31898109173E+03  0.47000000000E+01 0.  1.
         11    1    6    6    0    0  0.51750729076E+02  0.34773030301E+02 -0.12558647897E+03  0.14021150201E+03  0.00000000000E+00 0. -1.
        -12    1    6    6    0    0  0.96511708448E+01  0.79126167649E+01 -0.14939529235E+03  0.14991566956E+03  0.00000000000E+00 0.  1.
</event>
<event>
12    1  0.8488291E-002  0.2334846E+03  0.7818608E-02  0.1124406E+00
         21   -1    0    0  501  502  0.00000000000E+00  0.00000000000E+00  0.10386378395E+03  0.10386378395E+03  0.00000000000E+00 0. -1.
         21   -1    0    0  502  503 -0.00000000000E+00 -0.00000000000E+00 -0.52355644791E+03  0.52355644791E+03  0.00000000000E+00 0. -1.
         -6    2    1    2    0  503 -0.12319595862E+03 -0.97560861215E+02 -0.19524844464E+03  0.30436327310E+03  0.17268376015E+03 0.  0.
        -24    2    3    3    0    0 -0.43770746481E+02  0.16727800358E+02 -0.63669915829E+02  0.11277709998E+03  0.80430830822E+02 0.  0.
          6    2    1    2  501    0  0.12319595862E+03  0.97560861215E+02 -0.22444421932E+03  0.32305695875E+03  0.17115847963E+03 0.  0.
         24    2    5    5    0    0  0.11304539691E+03  0.13135151871E+03 -0.15774527740E+03  0.24745483385E+03  0.79484835161E+02 0.  0.
          5    1    5    5  501    0  0.10150561705E+02 -0.33790657494E+02 -0.66698941917E+02  0.75602124902E+02  0.47000000000E+01 0. -1.
        -13    1    6    6    0    0  0.10839098841E+02  0.60043182075E+02 -0.26660747153E+02  0.66584271538E+02  0.00000000000E+00 0.  1.
         14    1    6    6    0    0  0.10220629807E+03  0.71308336633E+02 -0.13108453025E+03  0.18087056231E+03  0.00000000000E+00 0. -1.
         -5    1    3    3    0  503 -0.79425212135E+02 -0.11428866157E+03 -0.13157852881E+03  0.19158617312E+03  0.47000000000E+01 0.  1.
         13    1    4    4    0    0 -0.37686524360E+02 -0.76381994156E+01  0.58176911862E+01  0.38890381065E+02  0.00000000000E+00 0. -1.
        -14    1    4    4    0    0 -0.60842221211E+01  0.24365999773E+02 -0.69487607016E+02  0.73886718918E+02  0.00000000000E+00 0.  1.
</event>
<event>
12    1  0.8488291E-002  0.2539595E+03  0.7818608E-02  0.1111019E+00
         21   -1    0    0  503  502  0.00000000000E+00  0.00000000000E+00  0.31360107096E+03  0.31360107096E+03  0.00000000000E+00 0.  1.
         21   -1    0    0  501  503 -0.00000000000E+00 -0.00000000000E+00 -0.56550230429E+03  0.56550230429E+03  0.00000000000E+00 0.  1.
          6    2    1    2  501    0 -0.18351245182E+03 -0.34982923172E+02 -0.47717560397E+03  0.54054786555E+03  0.17203143037E+03 0.  0.
         24    2    3    3    0    0 -0.18858217037E+03 -0.48051444165E+02 -0.48109446130E+03  0.52525290788E+03  0.81034315456E+02 0.  0.
         -6    2    1    2    0  502  0.18351245182E+03  0.34982923172E+02  0.22527437065E+03  0.33855550970E+03  0.17020771484E+03 0.  0.
        -24    2    5    5    0    0  0.78566741164E+02  0.43358898503E+02  0.40794061381E+02  0.12609649329E+03  0.78634873172E+02 0.  0.
          5    1    3    3  501    0  0.50697185531E+01  0.13068520993E+02  0.39188573255E+01  0.15294957662E+02  0.47000000000E+01 0. -1.
        -13    1    4    4    0    0 -0.88877992689E+02 -0.59982224715E+02 -0.20288854504E+03  0.22947968662E+03  0.00000000000E+00 0.  1.
         14    1    4    4    0    0 -0.99704177682E+02  0.11930780550E+02 -0.27820591626E+03  0.29577322126E+03  0.00000000000E+00 0. -1.
         -5    1    5    5    0  502  0.10494571065E+03 -0.83759753311E+01  0.18448030927E+03  0.21245901641E+03  0.47000000000E+01 0.  1.
         11    1    6    6    0    0  0.11682235771E+01 -0.89846080470E+01  0.30825912659E+02  0.32129812003E+02  0.00000000000E+00 0. -1.
        -12    1    6    6    0    0  0.77398517587E+02  0.52343506550E+02  0.99681487218E+01  0.93966681284E+02  0.00000000000E+00 0.  1.
</event>
<event>
12    1  0.8488291E-002  0.1986737E+03  0.7818608E-02  0.1151911E+00
         21   -1    0    0  503  502  0.00000000000E+00  0.00000000000E+00  0.32610451772E+03  0.32610451772E+03  0.00000000000E+00 0.  1.
         21   -1    0    0  501  503 -0.00000000000E+00 -0.00000000000E+00 -0.11894327093E+03  0.11894327093E+03  0.00000000000E+00 0.  1.
          6    2    1    2  501    0  0.99530547359E+02 -0.10079345223E+02  0.83523272570E+02  0.21104438674E+03  0.16599901522E+03 0.  0.
         24    2    3    3    0    0  0.11565329686E+03  0.45206823037E+01  0.19032119446E+02  0.14282193672E+03  0.81484737180E+02 0.  0.
         -6    2    1    2    0  502 -0.99530547359E+02  0.10079345223E+02  0.12363797422E+03  0.23400340192E+03  0.17164882866E+03 0.  0.
        -24    2    5    5    0    0 -0.93618946548E+01  0.35248819573E+02  0.10729284112E+03  0.13885540275E+03  0.80243035609E+02 0.  0.
          5    1    3    3  501    0 -0.16122749504E+02 -0.14600027526E+02  0.64491153123E+02  0.68222450019E+02  0.47000000000E+01 0. -1.
        -13    1    4    4    0    0  0.66413529617E+02 -0.33381009216E+02  0.29195062693E+02  0.79858627450E+02  0.00000000000E+00 0.  1.
         14    1    4    4    0    0  0.49239767247E+02  0.37901691520E+02 -0.10162943247E+02  0.62963309268E+02  0.00000000000E+00 0. -1.
         -5    1    5    5    0  502 -0.90168652705E+02 -0.25169474351E+02  0.16345133097E+02  0.95147999168E+02  0.47000000000E+01 0.  1.
         11    1    6    6    0    0  0.28738666517E+02  0.31223624516E+01  0.11965081031E+02  0.31286151322E+02  0.00000000000E+00 0. -1.
        -12    1    6    6    0    0 -0.38100561172E+02  0.32126457122E+02  0.95327760090E+02  0.10756925143E+03  0.00000000000E+00 0.  1.
</event>
<event>
12    1  0.8488291E-002  0.1918650E+03  0.7818608E-02  0.1157339E+00
         21   -1    0    0  501  502  0.00000000000E+00  0.00000000000E+00  0.15847511834E+03  0.15847511834E+03  0.00000000000E+00 0.  1.
         21   -1    0    0  502  503 -0.00000000000E+00 -0.00000000000E+00 -0.26680082450E+03  0.26680082450E+03  0.00000000000E+00 0. -1.
         -6    2    1    2    0  503  0.51480032547E+02  0.59525716960E+02 -0.13354744672E+03  0.23176023723E+03  0.17229156190E+03 0.  0.
        -24    2    3    3    0    0  0.22720453971E+02  0.75757724629E+02 -0.15640433764E+03  0.19132363382E+03  0.76726554449E+02 0.  0.
          6    2    1    2  501    0 -0.51480032547E+02 -0.59525716960E+02  0.25221740563E+02  0.19351570561E+03  0.17498196305E+03 0.  0.
         24    2    5    5    0    0 -0.11302534260E+02  0.36266644584E+02  0.32283359131E+02  0.89293038427E+02  0.74081135551E+02 0.  0.
          5    1    5    5  501    0 -0.40177498287E+02 -0.95792361544E+02 -0.70616185688E+01  0.10422266719E+03  0.47000000000E+01 0. -1.
        -13    1    6    6    0    0 -0.36829065037E+02  0.30202313878E+02 -0.81329283622E-01  0.47629469969E+02  0.00000000000E+00 0.  1.
         14    1    6    6    0    0  0.25526530777E+02  0.60643307059E+01  0.32364688415E+02  0.41663568458E+02  0.00000000000E+00 0. -1.
         -5    1    3    3    0  503  0.28759578575E+02 -0.16232007669E+02  0.22856890914E+02  0.40436603406E+02  0.47000000000E+01 0.  1.
         11    1    4    4    0    0 -0.76944678155E+01  0.69818304971E+02 -0.68482259212E+02  0.98100052858E+02  0.00000000000E+00 0. -1.
        -12    1    4    4    0    0  0.30414921787E+02  0.59394196574E+01 -0.87922078425E+02  0.93223580964E+02  0.00000000000E+00 0.  1.
</event>
<event>
12    1  0.8488291E-002  0.1894118E+03  0.7818608E-02  0.1159384E+00
         21   -1    0    0  501  502  0.00000000000E+00  0.00000000000E+00  0.12897198575E+03  0.12897198575E+03  0.00000000000E+00 0. -1.
         21   -1    0    0  502  503 -0.00000000000E+00 -0.00000000000E+00 -0.32305183211E+03  0.32305183211E+03  0.00000000000E+00 0. -1.
         -6    2    1    2    0  503 -0.27568149485E+02  0.74203029998E+02 -0.18323159117E+03  0.26230164202E+03  0.17018296883E+03 0.  0.
        -24    2    3    3    0    0  0.34279265940E+02  0.79125493422E+02 -0.84984699311E+02  0.14600944452E+03  0.81611561619E+02 0.  0.
          6    2    1    2  501    0  0.27568149485E+02 -0.74203029998E+02 -0.10848255188E+02  0.18972217583E+03  0.17207767675E+03 0.  0.
         24    2    5    5    0    0  0.51066101568E+02 -0.11727117392E+03 -0.23597142606E+01  0.13971053619E+03  0.56153278698E+02 0.  0.
          5    1    5    5  501    0 -0.23497952083E+02  0.43068143923E+02 -0.84885409273E+01  0.50011639646E+02  0.47000000000E+01 0. -1.
        -11    1    6    6    0    0 -0.10265634033E+02 -0.45209084440E+01  0.13970113533E+01  0.11303693909E+02  0.00000000000E+00 0.  1.
         12    1    6    6    0    0  0.61331735601E+02 -0.11275026548E+03 -0.37567256138E+01  0.12840684228E+03  0.00000000000E+00 0. -1.
         -5    1    3    3    0  503 -0.61847415425E+02 -0.49224634239E+01 -0.98246891854E+02  0.11629219750E+03  0.47000000000E+01 0.  1.
         11    1    4    4    0    0  0.13375803439E+02  0.36234082893E+02 -0.90092455601E+02  0.98022810799E+02  0.00000000000E+00 0. -1.
        -12    1    4    4    0    0  0.20903462501E+02  0.42891410529E+02  0.51077562901E+01  0.47986633723E+02  0.00000000000E+00 0.  1.
</event>
<event>
12    1  0.8488291E-002  0.1895575E+03  0.7818608E-02  0.1160714E+00
         21   -1    0    0  501  502  0.00000000000E+00  0.00000000000E+00  0.28582559130E+03  0.28582559130E+03  0.00000000000E+00 0. -1.
         21   -1    0    0  502  503 -0.00000000000E+00 -0.00000000000E+00 -0.12479399581E+03  0.12479399581E+03  0.00000000000E+00 0.  1.
         -6    2    1    2    0  503  0.73020467911E+02  0.36838891942E+02  0.11708718550E+03  0.21603503520E+03  0.16208835471E+03 0.  0.
        -24    2    3    3    0    0  0.11087955313E+03  0.43299827266E+02  0.92228921136E+02  0.17004506535E+03  0.78993670715E+02 0.  0.
          6    2    1    2  501    0 -0.73020467911E+02 -0.36838891942E+02  0.43944409991E+02  0.19458455191E+03  0.17100568405E+03 0.  0.
         24    2    5    5    0    0 -0.10317937579E+03  0.12347160279E+02  0.39723147619E+02  0.13654373426E+03  0.79169608782E+02 0.  0.
          5    1    5    5  501    0  0.30158907874E+02 -0.49186052221E+02  0.42212623726E+01  0.58040817648E+02  0.47000000000E+01 0. -1.
        -13    1    6    6    0    0  0.12786838473E+00 -0.33826362589E+00 -0.17677957883E+02  0.17681656244E+02  0.00000000000E+00 0.  1.
         14    1    6    6    0    0 -0.10330724417E+03  0.12685423905E+02  0.57401105502E+02  0.11886207802E+03  0.00000000000E+00 0. -1.
         -5    1    3    3    0  503 -0.37859085224E+02 -0.64609353238E+01  0.24858264368E+02  0.45989969848E+02  0.47000000000E+01 0.  1.
         11    1    4    4    0    0  0.87912684657E+02  0.19143491326E+02  0.10131361045E+03  0.13549745771E+03  0.00000000000E+00 0. -1.
        -12    1    4    4    0    0  0.22966868477E+02  0.24156335940E+02 -0.90846893176E+01  0.34547607641E+02  0.00000000000E+00 0.  1.
</event>
<event>
12    1  0.8488291E-002  0.2176803E+03  0.7818608E-02  0.1135756E+00
         21   -1    0    0  503  502  0.00000000000E+00  0.00000000000E+00  0.12850935424E+04  0.12850935424E+04  0.00000000000E+00 0. -1.
         21   -1    0    0  501  503 -0.00000000000E+00 -0.00000000000E+00 -0.95619301967E+02  0.95619301967E+02  0.00000000000E+00 0. -1.
          6    2    1    2  501    0  0.11189250214E+03  0.69002745562E+02  0.52709172960E+02  0.22329350456E+03  0.17262798538E+03 0.  0.
         24    2    3    3    0    0  0.11069011952E+03  0.38399227404E+02 -0.20240275154E+02  0.14403611988E+03  0.81301487477E+02 0.  0.
         -6    2    1    2    0  502 -0.11189250214E+03 -0.69002745562E+02  0.11367650675E+04  0.11574193398E+04  0.17350331004E+03 0.  0.
        -24    2    5    5    0    0 -0.35585283133E+02 -0.98858064214E+02  0.57211912321E+03  0.58683957842E+03  0.77596201098E+02 0.  0.
          5    1    3    3  501    0  0.12023826196E+01  0.30603518158E+02  0.72949448114E+02  0.79257384690E+02  0.47000000000E+01 0. -1.
        -11    1    4    4    0    0  0.69560323368E+02  0.74732745201E+01  0.26213745957E+02  0.74710433650E+02  0.00000000000E+00 0.  1.
         12    1    4    4    0    0  0.41129796151E+02  0.30925952884E+02 -0.46454021111E+02  0.69325686225E+02  0.00000000000E+00 0. -1.
         -5    1    5    5    0  502 -0.76307219006E+02  0.29855318652E+02  0.56464594427E+03  0.57057976139E+03  0.47000000000E+01 0.  1.
         11    1    6    6    0    0 -0.52337142746E+02 -0.68076863373E+02  0.28688114657E+03  0.29945688854E+03  0.00000000000E+00 0. -1.
        -12    1    6    6    0    0  0.16751859613E+02 -0.30781200841E+02  0.28523797664E+03  0.28738268988E+03  0.00000000000E+00 0.  1.
</event>
<event>
12    1  0.8488291E-002  0.1989446E+03  0.7818608E-02  0.1153319E+00
         21   -1    0    0  503  502  0.00000000000E+00  0.00000000000E+00  0.87578953331E+02  0.87578953331E+02  0.00000000000E+00 0. -1.
         21   -1    0    0  501  503 -0.00000000000E+00 -0.00000000000E+00 -0.52894606840E+03  0.52894606840E+03  0.00000000000E+00 0.  1.
          6    2    1    2  501    0 -0.65790348499E+02  0.33418661153E+02 -0.36317705202E+03  0.41409726348E+03  0.18475333729E+03 0.  0.
         24    2    3    3    0    0 -0.11873363824E+03  0.26596782651E+02 -0.27388176287E+03  0.30995664403E+03  0.79100160876E+02 0.  0.
         -6    2    1    2    0  502  0.65790348499E+02 -0.33418661153E+02 -0.78190063051E+02  0.20242775825E+03  0.17151715507E+03 0.  0.
        -24    2    5    5    0    0  0.26634531026E+02  0.11486395970E+02 -0.10608878449E+03  0.13647269131E+03  0.80799936531E+02 0.  0.
          5    1    3    3  501    0  0.52943289741E+02  0.68218785022E+01 -0.89295289154E+02  0.10414061945E+03  0.47000000000E+01 0. -1.
        -11    1    4    4    0    0 -0.24394867934E+02  0.36814593339E+02 -0.13264348382E+03  0.13980242367E+03  0.00000000000E+00 0.  1.
         12    1    4    4    0    0 -0.94338770305E+02 -0.10217810689E+02 -0.14123827904E+03  0.17015422035E+03  0.00000000000E+00 0. -1.
         -5    1    5    5    0  502  0.39155817473E+02 -0.44905057123E+02  0.27898721440E+02  0.65955066941E+02  0.47000000000E+01 0.  1.
         11    1    6    6    0    0  0.41767607279E+02  0.13724903910E+02 -0.18736197148E+02  0.47790700860E+02  0.00000000000E+00 0. -1.
        -12    1    6    6    0    0 -0.15133076253E+02 -0.22385079398E+01 -0.87352587344E+02  0.88681990451E+02  0.00000000000E+00 0.  1.
</event>
<event>
12    1  0.8488291E-002  0.2567167E+03  0.7818608E-02  0.1109145E+00
         21   -1    0    0  503  502  0.00000000000E+00  0.00000000000E+00  0.30003998060E+03  0.30003998060E+03  0.00000000000E+00 0. -1.
         21   -1    0    0  501  503 -0.00000000000E+00 -0.00000000000E+00 -0.23739420950E+03  0.23739420950E+03  0.00000000000E+00 0.  1.
          6    2    1    2  501    0  0.21770497700E+02 -0.18878297899E+03 -0.42295561909E+02  0.26009655585E+03  0.17247705958E+03 0.  0.
         24    2    3    3    0    0  0.23486456423E+02 -0.20091676605E+03 -0.17979866272E+01  0.21752524031E+03  0.79967724125E+02 0.  0.
         -6    2    1    2    0  502 -0.21770497700E+02  0.18878297899E+03  0.10494133302E+03  0.27733763425E+03  0.17259928235E+03 0.  0.
        -24    2    5    5    0    0 -0.57009973453E+02  0.13866669145E+03  0.12740360499E+03  0.21191511068E+03  0.78725772010E+02 0.  0.
          5    1    3    3  501    0 -0.17159587231E+01  0.12133787062E+02 -0.40497575282E+02  0.42571315536E+02  0.47000000000E+01 0. -1.
        -11    1    4    4    0    0 -0.99204527800E+01 -0.83034520657E+02 -0.34888471907E+02  0.90610995338E+02  0.00000000000E+00 0.  1.
         12    1    4    4    0    0  0.33406909203E+02 -0.11788224540E+03  0.33090485280E+02  0.12691424498E+03  0.00000000000E+00 0. -1.
         -5    1    5    5    0  502  0.35239475753E+02  0.50116287539E+02 -0.22462271973E+02  0.65422523570E+02  0.47000000000E+01 0.  1.
         11    1    6    6    0    0 -0.15094976649E+02  0.65929842925E+02  0.11195714651E+02  0.68556156067E+02  0.00000000000E+00 0. -1.
        -12    1    6    6    0    0 -0.41914996804E+02  0.72736848527E+02  0.11620789034E+03  0.14335895461E+03  0.00000000000E+00 0.  1.
</event>
<event>
12    1  0.8488291E-002  0.1784898E+03  0.7818608E-02  0.1169622E+00
         21   -1    0    0  501  502  0.00000000000E+00  0.00000000000E+00  0.63127596181E+03  0.63127596181E+03  0.00000000000E+00 0.  1.
         21   -1    0    0  502  503 -0.00000000000E+00 -0.00000000000E+00 -0.60329254355E+02  0.60329254355E+02  0.00000000000E+00 0.  1.
         -6    2    1    2    0  503 -0.26755819850E+02  0.34876666172E+02  0.42904835461E+03  0.46469464065E+03  0.17299237763E+03 0.  0.
        -24    2    3    3    0    0 -0.34701935284E+02 -0.34747779258E+02  0.14712302713E+03  0.17415258789E+03  0.79197893149E+02 0.  0.
          6    2    1    2  501    0  0.26755819850E+02 -0.34876666172E+02  0.14189835284E+03  0.22691057551E+03  0.17152554037E+03 0.  0.
         24    2    5    5    0    0  0.57336470091E+02 -0.46149305640E+02  0.15134774029E+03  0.19265229924E+03  0.93763216122E+02 0.  0.
          5    1    5    5  501    0 -0.30580650241E+02  0.11272639467E+02 -0.94493874498E+01  0.34258276268E+02  0.47000000000E+01 0. -1.
        -13    1    6    6    0    0 -0.21217733565E+02 -0.31802441260E+02  0.61821059224E+02  0.72687212433E+02  0.00000000000E+00 0.  1.
         14    1    6    6    0    0  0.78554203656E+02 -0.14346864380E+02  0.89526681067E+02  0.11996508681E+03  0.00000000000E+00 0. -1.
         -5    1    3    3    0  503  0.79461154337E+01  0.69624445430E+02  0.28192532748E+03  0.29054205277E+03  0.47000000000E+01 0.  1.
         11    1    4    4    0    0 -0.55792118341E+02 -0.26386301792E+02  0.13497934567E+03  0.14841974649E+03  0.00000000000E+00 0. -1.
        -12    1    4    4    0    0  0.21090183057E+02 -0.83614774663E+01  0.12143681462E+02  0.25732841395E+02  0.00000000000E+00 0.  1.
</event>
<event>
12    1  0.8488291E-002  0.2469693E+03  0.7818608E-02  0.1115315E+00
         21   -1    0    0  503  502  0.00000000000E+00  0.00000000000E+00  0.26240990737E+03  0.26240990737E+03  0.00000000000E+00 0. -1.
         21   -1    0    0  501  503 -0.00000000000E+00 -0.00000000000E+00 -0.34532902089E+03  0.34532902089E+03  0.00000000000E+00 0.  1.
          6    2    1    2  501    0  0.31372734583E+02  0.17377495208E+03 -0.21553043922E+03  0.32741837316E+03  0.17195184910E+03 0.  0.
         24    2    3    3    0    0 -0.29418303714E+02  0.15658677784E+03 -0.18453672892E+03  0.25689402454E+03  0.80968388483E+02 0.  0.
         -6    2    1    2    0  502 -0.31372734583E+02 -0.17377495208E+03  0.13261132569E+03  0.28032055510E+03  0.17266113478E+03 0.  0.
        -24    2    5    5    0    0 -0.17061954623E+01 -0.56755827305E+02 -0.33218587172E+01  0.98459345025E+02  0.80368357215E+02 0.  0.
          5    1    3    3  501    0  0.60791038297E+02  0.17188174235E+02 -0.30993710300E+02  0.70524348624E+02  0.47000000000E+01 0. -1.
        -13    1    4    4    0    0 -0.24803789483E+02  0.12378411607E+03 -0.18475451789E+03  0.22376766354E+03  0.00000000000E+00 0.  1.
         14    1    4    4    0    0 -0.46145142307E+01  0.32802661771E+02  0.21778897259E+00  0.33126360997E+02  0.00000000000E+00 0. -1.
         -5    1    5    5    0  502 -0.29666539120E+02 -0.11701912477E+03  0.13593318441E+03  0.18186121007E+03  0.47000000000E+01 0.  1.
         11    1    6    6    0    0 -0.16112528608E+02 -0.41710436261E+02  0.33691861917E+02  0.55986745134E+02  0.00000000000E+00 0. -1.
        -12    1    6    6    0    0  0.14406333145E+02 -0.15045391044E+02 -0.37013720634E+02  0.42472599891E+02  0.00000000000E+00 0.  1.
</event>
<event>
12    1  0.8488291E-002  0.2395510E+03  0.7818608E-02  0.1120291E+00
         21   -1    0    0  503  502  0.00000000000E+00  0.00000000000E+00  0.48646017443E+03  0.48646017443E+03  0.00000000000E+00 0.  1.
         21   -1    0    0  501  503 -0.00000000000E+00 -0.00000000000E+00 -0.11808613755E+03  0.11808613755E+03  0.00000000000E+00 0.  1.
          6    2    1    2  501    0  0.16051407711E+03 -0.40589717711E+02  0.16037840982E+03  0.28729742064E+03  0.17148259222E+03 0.  0.
         24    2    3    3    0    0  0.16784857140E+03 -0.76865553942E+02  0.13048194499E+03  0.23948926537E+03  0.79045012209E+02 0.  0.
         -6    2    1    2    0  502 -0.16051407711E+03  0.40589717711E+02  0.20799562705E+03  0.31724889134E+03  0.17312534203E+03 0.  0.
        -24    2    5    5    0    0 -0.11515926233E+03  0.40473983701E+02  0.22556390618E+03  0.26838369873E+03  0.79062854205E+02 0.  0.
          5    1    3    3  501    0 -0.73344942937E+01  0.36275836231E+02  0.29896464836E+02  0.47808155272E+02  0.47000000000E+01 0. -1.
        -13    1    4    4    0    0  0.69205071837E+02  0.91799674887E+01  0.49226777207E+02  0.85421831900E+02  0.00000000000E+00 0.  1.
         14    1    4    4    0    0  0.98643499565E+02 -0.86045521431E+02  0.81255167780E+02  0.15406743347E+03  0.00000000000E+00 0. -1.
         -5    1    5    5    0  502 -0.45354814776E+02  0.11573400974E+00 -0.17568279126E+02  0.48865192614E+02  0.47000000000E+01 0.  1.
         13    1    6    6    0    0  0.69112562531E+01  0.65979099878E+01 -0.14155803018E+00  0.95560409103E+01  0.00000000000E+00 0. -1.
        -14    1    6    6    0    0 -0.12207051859E+03  0.33876073713E+02  0.22570546421E+03  0.25882765782E+03  0.00000000000E+00 0.  1.
</event>
<event>
12    1  0.8488291E-002  0.1991508E+03  0.7818608E-02  0.1150726E+00
         21   -1    0    0  501  502  0.00000000000E+00  0.00000000000E+00  0.23687360760E+03  0.23687360760E+03  0.00000000000E+00 0. -1.
         21   -1    0    0  502  503 -0.00000000000E+00 -0.00000000000E+00 -0.22017368421E+03  0.22017368421E+03  0.00000000000E+00 0.  1.
         -6    2    1    2    0  503 -0.15266192993E+02  0.98534308111E+02 -0.10459130385E+03  0.22494530177E+03  0.17239194129E+03 0.  0.
        -24    2    3    3    0    0  0.48629129793E+02  0.40178438224E+02 -0.28961153814E+02  0.10992343681E+03  0.85236813449E+02 0.  0.
          6    2    1    2  501    0  0.15266192993E+02 -0.98534308111E+02  0.12129122725E+03  0.23210199004E+03  0.17093187371E+03 0.  0.
         24    2    5    5    0    0 -0.56686072273E+02 -0.41855053074E+02  0.63386166003E+02  0.12363654602E+03  0.79391644484E+02 0.  0.
          5    1    5    5  501    0  0.71952265266E+02 -0.56679255037E+02  0.57905061243E+02  0.10846544402E+03  0.47000000000E+01 0. -1.
        -13    1    6    6    0    0  0.10110319226E+02 -0.25929811586E+02 -0.31643678084E+01  0.28010478527E+02  0.00000000000E+00 0.  1.
         14    1    6    6    0    0 -0.66796391499E+02 -0.15925241489E+02  0.66550533811E+02  0.95626067494E+02  0.00000000000E+00 0. -1.
         -5    1    3    3    0  503 -0.63895322786E+02  0.58355869887E+02 -0.75630150038E+02  0.11502186496E+03  0.47000000000E+01 0.  1.
         13    1    4    4    0    0  0.50231652971E+02 -0.52350369717E+01 -0.38483243340E+02  0.63494760337E+02  0.00000000000E+00 0. -1.
        -14    1    4    4    0    0 -0.16025231782E+01  0.45413475196E+02  0.95220895261E+01  0.46428676471E+02  0.00000000000E+00 0.  1.
</event>
<event>
12    1  0.8488291E-002  0.2189443E+03  0.7818608E-02  0.1136962E+00
         21   -1    0    0  503  502  0.00000000000E+00  0.00000000000E+00  0.42441840230E+02  0.42441840230E+02  0.00000000000E+00 0. -1.
         21   -1    0    0  501  503 -0.00000000000E+00 -0.00000000000E+00 -0.11132073334E+04  0.11132073334E+04  0.00000000000E+00 0. -1.
          6    2    1    2  501    0 -0.47480453785E+02 -0.10635756053E+03 -0.63597734130E+03  0.66884597790E+03  0.17123504121E+03 0.  0.
         24    2    3    3    0    0  0.12077599990E+02 -0.51018193812E+02 -0.15909960733E+03  0.18506496294E+03  0.78661495893E+02 0.  0.
         -6    2    1    2    0  502  0.47480453785E+02  0.10635756053E+03 -0.43478815191E+03  0.48680319577E+03  0.18539226033E+03 0.  0.
        -24    2    5    5    0    0  0.32727388096E+02  0.56832212576E+02 -0.86039668560E+02  0.13421560710E+03  0.79435648841E+02 0.  0.
          5    1    3    3  501    0 -0.59558053775E+02 -0.55339366721E+02 -0.47687773397E+03  0.48378101496E+03  0.47000000000E+01 0. -1.
        -11    1    4    4    0    0 -0.92746302253E+00 -0.68204940079E+02 -0.91596300021E+02  0.11420444920E+03  0.00000000000E+00 0.  1.
         12    1    4    4    0    0  0.13005063013E+02  0.17186746266E+02 -0.67503307305E+02  0.70860513746E+02  0.00000000000E+00 0. -1.
         -5    1    5    5    0  502  0.14753065688E+02  0.49525347957E+02 -0.34874848335E+03  0.35258758866E+03  0.47000000000E+01 0.  1.
         13    1    6    6    0    0  0.66770909973E+01  0.71884439059E+02 -0.67756646973E+02  0.99009693122E+02  0.00000000000E+00 0. -1.
        -14    1    6    6    0    0  0.26050297099E+02 -0.15052226483E+02 -0.18283021587E+02  0.35205913983E+02  0.00000000000E+00 0.  1.
</event>
<event>
12    1  0.8488291E-002  0.2638421E+03  0.7818608E-02  0.1106898E+00
         21   -1    0    0  503  502  0.00000000000E+00  0.00000000000E+00  0.11879390826E+04  0.11879390826E+04  0.00000000000E+00 0. -1.
         21   -1    0    0  501  503 -0.00000000000E+00 -0.00000000000E+00 -0.59651876160E+02  0.59651876160E+02  0.00000000000E+00 0. -1.
          6    2    1    2  501    0 -0.17881548648E+03 -0.32049862325E+02  0.41633159691E+03  0.49289417105E+03  0.19133868765E+03 0.  0.
         24    2    3    3    0    0 -0.98240624126E+02  0.11793802598E+02  0.94416838238E+02  0.15813190130E+03  0.79377861256E+02 0.  0.
         -6    2    1    2    0  502  0.17881548648E+03  0.32049862325E+02  0.71195560957E+03  0.75469678775E+03  0.17229126375E+03 0.  0.
        -24    2    5    5    0    0  0.14167424837E+03  0.85750044271E+02  0.49517821203E+03  0.52825096378E+03  0.80143348585E+02 0.  0.
          5    1    3    3  501    0 -0.80574862349E+02 -0.43843664923E+02  0.32191475867E+03  0.33476226975E+03  0.47000000000E+01 0. -1.
        -11    1    4    4    0    0 -0.39013482542E+02  0.27346533599E+02  0.25301894144E+01  0.47710445171E+02  0.00000000000E+00 0.  1.
         12    1    4    4    0    0 -0.59227141584E+02 -0.15552731000E+02  0.91886648823E+02  0.11042145613E+03  0.00000000000E+00 0. -1.
         -5    1    5    5    0  502  0.37141238107E+02 -0.53700181946E+02  0.21677739755E+03  0.22644582398E+03  0.47000000000E+01 0.  1.
         11    1    6    6    0    0  0.68088575433E+02  0.99831834894E+01  0.28288667755E+03  0.29113672113E+03  0.00000000000E+00 0. -1.
        -12    1    6    6    0    0  0.73585672936E+02  0.75766860781E+02  0.21229153448E+03  0.23711424264E+03  0.00000000000E+00 0.  1.
</event>
<event>
12    1  0.8488291E-002  0.1978460E+03  0.7818608E-02  0.1152157E+00
         21   -1    0    0  503  502  0.00000000000E+00  0.00000000000E+00  0.49087679161E+03  0.49087679161E+03  0.00000000000E+00 0. -1.
         21   -1    0    0  501  503 -0.00000000000E+00 -0.00000000000E+00 -0.14749363657E+03  0.14749363657E+03  0.00000000000E+00 0.  1.
          6    2    1    2  501    0 -0.48805511985E+02 -0.78410029982E+02 -0.47012438769E+02  0.20070415032E+03  0.17187750218E+03 0.  0.
         24    2    3    3    0    0 -0.77076031148E+02 -0.27629240058E+02  0.16248449432E+02  0.11466961740E+03  0.78619460458E+02 0.  0.
         -6    2    1    2    0  502  0.48805511985E+02  0.78410029982E+02  0.39039559381E+03  0.43766627785E+03  0.17496554033E+03 0.  0.
        -24    2    5    5    0    0 -0.13450578275E+02  0.31857337016E+02  0.32447598326E+03  0.33563462075E+03  0.78550155658E+02 0.  0.
          5    1    3    3  501    0  0.28270519162E+02 -0.50780789923E+02 -0.63260888201E+02  0.86034532921E+02  0.47000000000E+01 0. -1.
        -13    1    4    4    0    0 -0.33466287245E+02  0.11582949175E+02 -0.24669589295E+02  0.43159538106E+02  0.00000000000E+00 0.  1.
         14    1    4    4    0    0 -0.43609743903E+02 -0.39212189233E+02  0.40918038727E+02  0.71510079296E+02  0.00000000000E+00 0. -1.
         -5    1    5    5    0  502  0.62256090260E+02  0.46552692966E+02  0.65919610548E+02  0.10203165711E+03  0.47000000000E+01 0.  1.
         11    1    6    6    0    0 -0.25347047651E+02 -0.16144359729E+02  0.66695880433E+02  0.73153630412E+02  0.00000000000E+00 0. -1.
        -12    1    6    6    0    0  0.11896469376E+02  0.48001696745E+02  0.25778010283E+03  0.26248099033E+03  0.00000000000E+00 0.  1.
</event>
<event>
12    1  0.8488291E-002  0.1766708E+03  0.7818608E-02  0.1171272E+00
         21   -1    0    0  501  502  0.00000000000E+00  0.00000000000E+00  0.22932803814E+04  0.22932803814E+04  0.00000000000E+00 0. -1.
         21   -1    0    0  502  503 -0.00000000000E+00 -0.00000000000E+00 -0.14588534016E+02  0.14588534016E+02  0.00000000000E+00 0. -1.
         -6    2    1    2    0  503 -0.18576825748E+02  0.33302022916E+02  0.14452789609E+04  0.14559360433E+04  0.17165186868E+03 0.  0.
        -24    2    3    3    0    0 -0.77813266633E+01  0.73695698548E+02  0.13038381196E+04  0.13083698093E+04  0.79662479123E+02 0.  0.
          6    2    1    2  501    0  0.18576825748E+02 -0.33302022916E+02  0.83341288646E+03  0.85193287215E+03  0.17250639449E+03 0.  0.
         24    2    5    5    0    0 -0.56639101088E+02 -0.10355226298E+02  0.48147369499E+03  0.49128446217E+03  0.78919486306E+02 0.  0.
          5    1    5    5  501    0  0.75215926836E+02 -0.22946796618E+02  0.35193919147E+03  0.36064840998E+03  0.47000000000E+01 0. -1.
        -13    1    6    6    0    0  0.92227320575E+01 -0.25117854569E+02  0.20258136445E+03  0.20434082957E+03  0.00000000000E+00 0.  1.
         14    1    6    6    0    0 -0.65861833145E+02  0.14762628272E+02  0.27889233054E+03  0.28694363260E+03  0.00000000000E+00 0. -1.
         -5    1    3    3    0  503 -0.10795499085E+02 -0.40393675632E+02  0.14144084133E+03  0.14756623404E+03  0.47000000000E+01 0.  1.
         11    1    4    4    0    0  0.28506245329E+02  0.56184875036E+02  0.58015190529E+03  0.58356283245E+03  0.00000000000E+00 0. -1.
        -12    1    4    4    0    0 -0.36287571992E+02  0.17510823512E+02  0.72368621432E+03  0.72480697680E+03  0.00000000000E+00 0.  1.
</event>
<event>
12    1  0.8488291E-002  0.2070172E+03  0.7818608E-02  0.1145507E+00
         21   -1    0    0  503  502  0.00000000000E+00  0.00000000000E+00  0.55314284292E+02  0.55314284292E+02  0.00000000000E+00 0. -1.
         21   -1    0    0  501  503 -0.00000000000E+00 -0.00000000000E+00 -0.76018001405E+03  0.76018001405E+03  0.00000000000E+00 0. -1.
          6    2    1    2  501    0  0.91849121212E+02  0.69301462755E+02 -0.30462551323E+03  0.36831076310E+03  0.17209637154E+03 0.  0.
         24    2    3    3    0    0  0.11474341418E+02  0.87582273629E+02 -0.22152402467E+03  0.25116879507E+03  0.78807074217E+02 0.  0.
         -6    2    1    2    0  502 -0.91849121212E+02 -0.69301462755E+02 -0.40024021653E+03  0.44718353524E+03  0.16291694036E+03 0.  0.
        -24    2    5    5    0    0  0.18200554025E+01 -0.20317049089E+02 -0.10564529440E+03  0.13416333530E+03  0.80142231212E+02 0.  0.
          5    1    3    3  501    0  0.80374779794E+02 -0.18280810874E+02 -0.83101488559E+02  0.11714196803E+03  0.47000000000E+01 0. -1.
        -11    1    4    4    0    0 -0.32677014219E+02  0.39720928905E+02 -0.76335830907E+02  0.92047262488E+02  0.00000000000E+00 0.  1.
         12    1    4    4    0    0  0.44151355637E+02  0.47861344724E+02 -0.14518819376E+03  0.15912153258E+03  0.00000000000E+00 0. -1.
         -5    1    5    5    0  502 -0.93669176614E+02 -0.48984413665E+02 -0.29459492213E+03  0.31302019995E+03  0.47000000000E+01 0.  1.
         13    1    6    6    0    0 -0.32330208817E+02 -0.12638846268E+02 -0.88748306725E+02  0.95295565393E+02  0.00000000000E+00 0. -1.
        -14    1    6    6    0    0  0.34150264219E+02 -0.76782028210E+01 -0.16896987678E+02  0.38867769905E+02  0.00000000000E+00 0.  1.
</event>
<event>
12    1  0.8488291E-002  0.2923833E+03  0.7818608E-02  0.1089449E+00
         21   -1    0    0  501  502  0.00000000000E+00  0.00000000000E+00  0.84972436085E+03  0.84972436085E+03  0.00000000000E+00 0. -1.
         21   -1    0    0  502  503 -0.00000000000E+00 -0.00000000000E+00 -0.15782201414E+03  0.15782201414E+03  0.00000000000E+00 0.  1.
         -6    2    1    2    0  503 -0.17227223386E+03  0.16110820714E+03  0.41248882207E+02  0.29527865242E+03  0.17278436076E+03 0.  0.
        -24    2    3    3    0    0 -0.12171364656E+03  0.36596719617E+02  0.54934882655E+02  0.16011697929E+03  0.80411902595E+02 0.  0.
          6    2    1    2  501    0  0.17227223386E+03 -0.16110820714E+03  0.65065346450E+03  0.71226772257E+03  0.16835023251E+03 0.  0.
         24    2    5    5    0    0  0.12191807646E+03 -0.41651950869E+02  0.43461580912E+03  0.46027626067E+03  0.79777391672E+02 0.  0.
          5    1    5    5  501    0  0.50354157399E+02 -0.11945625627E+03  0.21603765538E+03  0.25199146190E+03  0.47000000000E+01 0. -1.
        -13    1    6    6    0    0  0.36666611178E+02  0.17593212059E+02  0.19404127556E+03  0.19825735323E+03  0.00000000000E+00 0.  1.
         14    1    6    6    0    0  0.85251465285E+02 -0.59245162928E+02  0.24057453356E+03  0.26201890745E+03  0.00000000000E+00 0. -1.
         -5    1    3    3    0  503 -0.50558587302E+02  0.12451148752E+03 -0.13686000448E+02  0.13516167313E+03  0.47000000000E+01 0.  1.
         13    1    4    4    0    0  0.11970497920E+02  0.53276609274E+01  0.44922293903E+01  0.13851242410E+02  0.00000000000E+00 0. -1.
        -14    1    4    4    0    0 -0.13368414448E+03  0.31269058689E+02  0.50442653265E+02  0.14626573688E+03  0.00000000000E+00 0.  1.
</event>
<event>
12    1  0.8488291E-002  0.1976907E+03  0.7818608E-02  0.1152327E+00
         21   -1    0    0  503  502  0.00000000000E+00  0.00000000000E+00  0.22527238419E+03  0.22527238419E+03  0.00000000000E+00 0.  1.
         21   -1    0    0  501  503 -0.00000000000E+00 -0.00000000000E+00 -0.18964509639E+03  0.18964509639E+03  0.00000000000E+00 0.  1.
          6    2    1    2  501    0  0.13314451834E+02 -0.94322684389E+02  0.83055867355E+02  0.21442925291E+03  0.17322697245E+03 0.  0.
         24    2    3    3    0    0 -0.30830307843E+02 -0.10687832388E+03  0.93962403147E+02  0.16702201282E+03  0.81816474904E+02 0.  0.
         -6    2    1    2    0  502 -0.13314451834E+02  0.94322684389E+02 -0.47428579564E+02  0.20048822767E+03  0.16991767376E+03 0.  0.
        -24    2    5    5    0    0 -0.45095304531E+01  0.13372782544E+02  0.30644392894E+02  0.87581663299E+02  0.80822656183E+02 0.  0.
          5    1    3    3  501    0  0.44144759677E+02  0.12555639489E+02 -0.10906535792E+02  0.47407240090E+02  0.47000000000E+01 0. -1.
        -13    1    4    4    0    0 -0.17472717944E+02 -0.74799304463E+01  0.57083510580E+02  0.60164544475E+02  0.00000000000E+00 0.  1.
         14    1    4    4    0    0 -0.13357589899E+02 -0.99398393432E+02  0.36878892567E+02  0.10685746835E+03  0.00000000000E+00 0. -1.
         -5    1    5    5    0  502 -0.88049213810E+01  0.80949901845E+02 -0.78072972458E+02  0.11290656437E+03  0.47000000000E+01 0.  1.
         11    1    6    6    0    0 -0.16749932032E+02  0.31391313893E+02  0.47986531944E+02  0.59738447076E+02  0.00000000000E+00 0. -1.
        -12    1    6    6    0    0  0.12240401579E+02 -0.18018531349E+02 -0.17342139050E+02  0.27843216223E+02  0.00000000000E+00 0.  1.
</event>
<event>
12    1  0.8488291E-002  0.2068140E+03  0.7818608E-02  0.1144270E+00
         21   -1    0    0  501  502  0.00000000000E+00  0.00000000000E+00  0.26134377074E+03  0.26134377074E+03  0.00000000000E+00 0. -1.
         21   -1    0    0  502  503 -0.00000000000E+00 -0.00000000000E+00 -0.16417297281E+03  0.16417297281E+03  0.00000000000E+00 0. -1.
         -6    2    1    2    0  503  0.11841988399E+02  0.11365131063E+03  0.31106203331E+02  0.20914020115E+03  0.17238090020E+03 0.  0.
        -24    2    3    3    0    0 -0.28150823223E+02  0.13046090950E+03  0.47075643407E+02  0.16267407787E+03  0.80213600183E+02 0.  0.
          6    2    1    2  501    0 -0.11841988399E+02 -0.11365131063E+03  0.66064594600E+02  0.21637654240E+03  0.17145677107E+03 0.  0.
         24    2    5    5    0    0 -0.36308754078E+02 -0.57661537869E+02 -0.23784237169E+02  0.10761818710E+03  0.79829854602E+02 0.  0.
          5    1    5    5  501    0  0.24466765680E+02 -0.55989772763E+02  0.89848831769E+02  0.10875835530E+03  0.47000000000E+01 0. -1.
        -11    1    6    6    0    0 -0.27890834041E+02  0.16039704939E+01  0.19221702766E+02  0.33910841955E+02  0.00000000000E+00 0.  1.
         12    1    6    6    0    0 -0.84179200376E+01 -0.59265508363E+02 -0.43005939936E+02  0.73707345149E+02  0.00000000000E+00 0. -1.
         -5    1    3    3    0  503  0.39992811622E+02 -0.16809598869E+02 -0.15969440075E+02  0.46466123272E+02  0.47000000000E+01 0.  1.
         13    1    4    4    0    0  0.25987384449E+02  0.46032934897E+02  0.25033489315E+01  0.52921092219E+02  0.00000000000E+00 0. -1.
        -14    1    4    4    0    0 -0.54138207672E+02  0.84427974604E+02  0.44572294475E+02  0.10975298566E+03  0.00000000000E+00 0.  1.
</event>
<event>
12    1  0.8488291E-002  0.1806166E+03  0.7818608E-02  0.1168309E+00
         21   -1    0    0  503  502  0.00000000000E+00  0.00000000000E+00  0.33122384560E+03  0.33122384560E+03  0.00000000000E+00 0. -1.
         21   -1    0    0  501  503 -0.00000000000E+00 -0.00000000000E+00 -0.10937032589E+03  0.10937032589E+03  0.00000000000E+00 0. -1.
          6    2    1    2  501    0 -0.28529748775E+02  0.47424068180E+02  0.35271711149E+02  0.18402834913E+03  0.17192833061E+03 0.  0.
         24    2    3    3    0    0  0.48611150094E+01 -0.28695537887E+02  0.51747959265E+02  0.99159621294E+02  0.79421123596E+02 0.  0.
         -6    2    1    2    0  502  0.28529748775E+02 -0.47424068180E+02  0.18658180856E+03  0.25656582237E+03  0.16718331589E+03 0.  0.
        -24    2    5    5    0    0  0.49691085580E+02 -0.63798492138E+02  0.61167312186E+02  0.12824275415E+03  0.78519502845E+02 0.  0.
          5    1    3    3  501    0 -0.33390863785E+02  0.76119606068E+02 -0.16476248116E+02  0.84868727834E+02  0.47000000000E+01 0. -1.
        -13    1    4    4    0    0  0.20656910244E+02  0.22686962928E+02  0.21648399267E+02  0.37550757896E+02  0.00000000000E+00 0.  1.
         14    1    4    4    0    0 -0.15795795235E+02 -0.51382500815E+02  0.30099559998E+02  0.61608863398E+02  0.00000000000E+00 0. -1.
         -5    1    5    5    0  502 -0.21161336805E+02  0.16374423958E+02  0.12541449638E+03  0.12832306822E+03  0.47000000000E+01 0.  1.
         11    1    6    6    0    0  0.70147751923E+02 -0.43109836566E+02  0.53375260793E+02  0.98122798438E+02  0.00000000000E+00 0. -1.
        -12    1    6    6    0    0 -0.20456666343E+02 -0.20688655572E+02  0.77920513929E+01  0.30119955713E+02  0.00000000000E+00 0.  1.
</event>
<event>
12    1  0.8488291E-002  0.2034152E+03  0.7818608E-02  0.1147108E+00
         21   -1    0    0  501  502  0.00000000000E+00  0.00000000000E+00  0.37099795397E+03  0.37099795397E+03  0.00000000000E+00 0. -1.
         21   -1    0    0  502  503 -0.00000000000E+00 -0.00000000000E+00 -0.15795196676E+03  0.15795196676E+03  0.00000000000E+00 0.  1.
         -6    2    1    2    0  503  0.10456925545E+03 -0.28417304508E+02 -0.37940491083E+02  0.20588343680E+03  0.17089832153E+03 0.  0.
        -24    2    3    3    0    0  0.92852125921E+02  0.36679192556E+02 -0.53073385272E+02  0.13786917696E+03  0.78893886182E+02 0.  0.
          6    2    1    2  501    0 -0.10456925545E+03  0.28417304508E+02  0.25098647829E+03  0.32306648393E+03  0.17214955234E+03 0.  0.
         24    2    5    5    0    0 -0.30916706068E+02  0.61325535553E+02  0.74108183460E+02  0.12860396599E+03  0.79563139629E+02 0.  0.
          5    1    5    5  501    0 -0.73652549379E+02 -0.32908231045E+02  0.17687829483E+03  0.19446251794E+03  0.47000000000E+01 0. -1.
        -11    1    6    6    0    0 -0.57309086531E+02  0.40915050816E+02  0.59476351254E+02  0.92172713645E+02  0.00000000000E+00 0.  1.
         12    1    6    6    0    0  0.26392380462E+02  0.20410484737E+02  0.14631832206E+02  0.36431252344E+02  0.00000000000E+00 0. -1.
         -5    1    3    3    0  503  0.11717129526E+02 -0.65096497064E+02  0.15132894189E+02  0.68014259835E+02  0.47000000000E+01 0.  1.
         13    1    4    4    0    0  0.72823803572E+02  0.24493526520E+02  0.32087234228E+01  0.76899513094E+02  0.00000000000E+00 0. -1.
        -14    1    4    4    0    0  0.20028322349E+02  0.12185666036E+02 -0.56282108695E+02  0.60969663867E+02  0.00000000000E+00 0.  1.
</event>
<event>
12    1  0.8488291E-002  0.2639445E+03  0.7818608E-02  0.1105243E+00
         21   -1    0    0  501  502  0.00000000000E+00  0.00000000000E+00  0.17488306224E+03  0.17488306224E+03  0.00000000000E+00 0.  1.
         21   -1    0    0  502  503 -0.00000000000E+00 -0.00000000000E+00 -0.40241879501E+03  0.40241879501E+03  0.00000000000E+00 0. -1.
         -6    2    1    2    0  503 -0.19986757048E+03 -0.59900097626E+01 -0.15530886406E+03  0.30365350823E+03  0.16763556860E+03 0.  0.
        -24    2    3    3    0    0 -0.33391420176E+02 -0.17600741313E+02 -0.20282496732E+02  0.88936653793E+02  0.77933148775E+02 0.  0.
          6    2    1    2  501    0  0.19986757048E+03  0.59900097626E+01 -0.72226868710E+02  0.27364834903E+03  0.17228979196E+03 0.  0.
         24    2    5    5    0    0  0.20513871120E+03  0.39730722635E+02 -0.39479384076E+02  0.22610144187E+03  0.76829806036E+02 0.  0.
          5    1    5    5  501    0 -0.52711407261E+01 -0.33740712873E+02 -0.32747484635E+02  0.47546907151E+02  0.47000000000E+01 0. -1.
        -13    1    6    6    0    0  0.10839336600E+03  0.14780540469E+02  0.17952886366E+02  0.11085978666E+03  0.00000000000E+00 0.  1.
         14    1    6    6    0    0  0.96745345205E+02  0.24950182166E+02 -0.57432270442E+02  0.11524165522E+03  0.00000000000E+00 0. -1.
         -5    1    3    3    0  503 -0.16647615030E+03  0.11610731550E+02 -0.13502636732E+03  0.21471685444E+03  0.47000000000E+01 0.  1.
         13    1    4    4    0    0 -0.33135642463E+02 -0.43397971222E+02 -0.28847153392E+02  0.61753647394E+02  0.00000000000E+00 0. -1.
        -14    1    4    4    0    0 -0.25577771256E+00  0.25797229909E+02  0.85646566595E+01  0.27183006399E+02  0.00000000000E+00 0.  1.
</event>
<event>
12    1  0.8488291E-002  0.2009659E+03  0.7818608E-02  0.1149067E+00
         21   -1    0    0  503  502  0.00000000000E+00  0.00000000000E+00  0.13314055569E+04  0.13314055569E+04  0.00000000000E+00 0. -1.
         21   -1    0    0  501  503 -0.00000000000E+00 -0.00000000000E+00 -0.39686894052E+02  0.39686894052E+02  0.00000000000E+00 0. -1.
          6    2    1    2  501    0  0.77335703558E+02 -0.70737614776E+02  0.31209277005E+03  0.37119963764E+03  0.17147201720E+03 0.  0.
         24    2    3    3    0    0 -0.17642638154E+02 -0.37739389471E+02  0.20458087035E+03  0.22392212122E+03  0.80946029297E+02 0.  0.
         -6    2    1    2    0  502 -0.77335703558E+02  0.70737614776E+02  0.97962589278E+03  0.99989281329E+03  0.17068722001E+03 0.  0.
        -24    2    5    5    0    0 -0.68553036680E+02  0.33074166279E+02  0.93114796865E+03  0.93770061347E+03  0.80327340754E+02 0.  0.
          5    1    3    3  501    0  0.94978341712E+02 -0.32998225305E+02  0.10751189969E+03  0.14727751642E+03  0.47000000000E+01 0. -1.
        -13    1    4    4    0    0  0.83607706286E+01 -0.29982286763E+02  0.19110721875E+03  0.19362543496E+03  0.00000000000E+00 0.  1.
         14    1    4    4    0    0 -0.26003408783E+02 -0.77571027079E+01  0.13473651599E+02  0.30296686257E+02  0.00000000000E+00 0. -1.
         -5    1    5    5    0  502 -0.87826668778E+01  0.37663448498E+02  0.48477924133E+02  0.62192199820E+02  0.47000000000E+01 0.  1.
         11    1    6    6    0    0 -0.15870862299E+02  0.49668191992E+02  0.56630087916E+03  0.56869631554E+03  0.00000000000E+00 0. -1.
        -12    1    6    6    0    0 -0.52682174381E+02 -0.16594025713E+02  0.36484708949E+03  0.36900429793E+03  0.00000000000E+00 0.  1.
</event>
<event>
12    1  0.8488291E-002  0.2707935E+03  0.7818608E-02  0.1101026E+00
         21   -1    0    0  501  502  0.00000000000E+00  0.00000000000E+00  0.61856117101E+02  0.61856117101E+02  0.00000000000E+00 0. -1.
         21   -1    0    0  502  503 -0.00000000000E+00 -0.00000000000E+00 -0.18973856477E+04  0.18973856477E+04  0.00000000000E+00 0.  1.
         -6    2    1    2    0  503  0.14712482373E+03 -0.14819378051E+03 -0.15189113590E+04  0.15426170039E+04  0.17020103889E+03 0.  0.
        -24    2    3    3    0    0  0.63192525699E+02 -0.34365587946E+01 -0.50843449932E+03  0.51836856821E+03  0.78709765432E+02 0.  0.
          6    2    1    2  501    0 -0.14712482373E+03  0.14819378051E+03 -0.31661817156E+03  0.41662476094E+03  0.17240073818E+03 0.  0.
         24    2    5    5    0    0 -0.63855083467E+02  0.97561464071E+01 -0.16751668442E+03  0.19673348861E+03  0.80433649077E+02 0.  0.
          5    1    5    5  501    0 -0.83269740264E+02  0.13843763411E+03 -0.14910148714E+03  0.21989127233E+03  0.47000000000E+01 0. -1.
        -13    1    6    6    0    0  0.18875988905E+02  0.77381934530E+01 -0.33899808610E+02  0.39564878603E+02  0.00000000000E+00 0.  1.
         14    1    6    6    0    0 -0.82731072372E+02  0.20179529541E+01 -0.13361687581E+03  0.15716861000E+03  0.00000000000E+00 0. -1.
         -5    1    3    3    0  503  0.83932298031E+02 -0.14475722172E+03 -0.10104768597E+04  0.10242484356E+04  0.47000000000E+01 0.  1.
         11    1    4    4    0    0  0.31726091212E+02  0.31151541169E+02 -0.13779138687E+03  0.14478753287E+03  0.00000000000E+00 0. -1.
        -12    1    4    4    0    0  0.31466434487E+02 -0.34588099964E+02 -0.37064311245E+03  0.37358103534E+03  0.00000000000E+00 0.  1.
</event>
<event>
12    1  0.8488291E-002  0.1881633E+03  0.7818608E-02  0.1162392E+00
         21   -1    0    0  501  502  0.00000000000E+00  0.00000000000E+00  0.73189149013E+02  0.73189149013E+02  0.00000000000E+00 0.  1.
         21   -1    0    0  502  503 -0.00000000000E+00 -0.00000000000E+00 -0.84623157913E+03  0.84623157913E+03  0.00000000000E+00 0. -1.
         -6    2    1    2    0  503  0.49096389495E+02  0.29748702472E+02 -0.69180648235E+03  0.71447019731E+03  0.16904441148E+03 0.  0.
        -24    2    3    3    0    0 -0.24768937083E+01 -0.30888628712E+02 -0.25764572136E+03  0.27304710564E+03  0.84930334835E+02 0.  0.
          6    2    1    2  501    0 -0.49096389495E+02 -0.29748702472E+02 -0.81235947766E+02  0.20495053084E+03  0.17919263411E+03 0.  0.
         24    2    5    5    0    0  0.11757196770E+02  0.31024363896E+02 -0.80737360309E+02  0.11881770814E+03  0.80612552285E+02 0.  0.
          5    1    5    5  501    0 -0.60853586265E+02 -0.60773066368E+02 -0.49858745652E+00  0.86132822702E+02  0.47000000000E+01 0. -1.
        -11    1    6    6    0    0  0.80661304957E+01  0.20501656503E+02  0.12220302739E+02  0.25193574172E+02  0.00000000000E+00 0.  1.
         12    1    6    6    0    0  0.36910662738E+01  0.10522707394E+02 -0.92957663048E+02  0.93624133964E+02  0.00000000000E+00 0. -1.
         -5    1    3    3    0  503  0.51573283204E+02  0.60637331184E+02 -0.43416076099E+03  0.44142309167E+03  0.47000000000E+01 0.  1.
         13    1    4    4    0    0  0.36865698986E+02 -0.19712994652E+02 -0.18514368839E+03  0.18980481361E+03  0.00000000000E+00 0. -1.
        -14    1    4    4    0    0 -0.39342592695E+02 -0.11175634060E+02 -0.72502032969E+02  0.83242292023E+02  0.00000000000E+00 0.  1.
</event>
<event>
12    1  0.8488291E-002  0.1732663E+03  0.7818608E-02  0.1177198E+00
         21   -1    0    0  501  502  0.00000000000E+00  0.00000000000E+00  0.10531286918E+03  0.10531286918E+03  0.00000000000E+00 0.  1.
         21   -1    0    0  502  503 -0.00000000000E+00 -0.00000000000E+00 -0.27213799288E+03  0.27213799288E+03  0.00000000000E+00 0.  1.
         -6    2    1    2    0  503 -0.63622066768E+01 -0.32236267105E+02 -0.10826100473E+03  0.20430775429E+03  0.17012218764E+03 0.  0.
        -24    2    3    3    0    0  0.14540976103E+02  0.46298645317E+02 -0.54416980663E+02  0.10670680938E+03  0.77911044403E+02 0.  0.
          6    2    1    2  501    0  0.63622066768E+01  0.32236267105E+02 -0.58564118966E+02  0.17314310776E+03  0.15959049202E+03 0.  0.
         24    2    5    5    0    0 -0.38804218987E+02  0.48297511853E+02 -0.39462245704E+01  0.10032021315E+03  0.78804539315E+02 0.  0.
          5    1    5    5  501    0  0.45166425664E+02 -0.16061244748E+02 -0.54617894396E+02  0.72822894603E+02  0.47000000000E+01 0. -1.
        -13    1    6    6    0    0 -0.63867900327E+01 -0.20051225803E+01  0.30530540786E+02  0.31255807847E+02  0.00000000000E+00 0.  1.
         14    1    6    6    0    0 -0.32417428955E+02  0.50302634434E+02 -0.34476765357E+02  0.69064405307E+02  0.00000000000E+00 0. -1.
         -5    1    3    3    0  503 -0.20903182780E+02 -0.78534912422E+02 -0.53844024071E+02  0.97600944912E+02  0.47000000000E+01 0.  1.
         11    1    4    4    0    0  0.20212307045E+02 -0.84555350124E+01 -0.46091190432E+02  0.51033628755E+02  0.00000000000E+00 0. -1.
        -12    1    4    4    0    0 -0.56713309422E+01  0.54754180329E+02 -0.83257902303E+01  0.55673180627E+02  0.00000000000E+00 0.  1.
</event>
<event>
12    1  0.8488291E-002  0.2628098E+03  0.7818608E-02  0.1105823E+00
         21   -1    0    0  501  502  0.00000000000E+00  0.00000000000E+00  0.34035730900E+03  0.34035730900E+03  0.00000000000E+00 0.  1.
         21   -1    0    0  502  503 -0.00000000000E+00 -0.00000000000E+00 -0.46009536029E+03  0.46009536029E+03  0.00000000000E+00 0. -1.
         -6    2    1    2    0  503  0.72295715008E+02 -0.18506669277E+03 -0.36003627161E+03  0.44434566173E+03  0.16834666330E+03 0.  0.
        -24    2    3    3    0    0  0.66733768886E+01 -0.17616653187E+03 -0.25767690307E+03  0.32234142225E+03  0.80171224335E+02 0.  0.
          6    2    1    2  501    0 -0.72295715008E+02  0.18506669277E+03  0.24029822031E+03  0.35610700756E+03  0.17202504169E+03 0.  0.
         24    2    5    5    0    0 -0.10645896807E+03  0.14910125929E+03  0.14064394326E+03  0.24469019914E+03  0.80795280638E+02 0.  0.
          5    1    5    5  501    0  0.34163253065E+02  0.35965433488E+02  0.99654277048E+02  0.11141680843E+03  0.47000000000E+01 0. -1.
        -13    1    6    6    0    0 -0.91046640797E+02  0.14854818775E+03  0.14704971263E+03  0.22799051048E+03  0.00000000000E+00 0.  1.
         14    1    6    6    0    0 -0.15412327276E+02  0.55307154000E+00 -0.64057693660E+01  0.16699688661E+02  0.00000000000E+00 0. -1.
         -5    1    3    3    0  503  0.65622338119E+02 -0.89001609022E+01 -0.10235936853E+03  0.12200423948E+03  0.47000000000E+01 0.  1.
         11    1    4    4    0    0  0.43514578361E+02 -0.97505536712E+02 -0.14492976881E+03  0.18001523854E+03  0.00000000000E+00 0. -1.
        -12    1    4    4    0    0 -0.36841201472E+02 -0.78660995159E+02 -0.11274713426E+03  0.14232618371E+03  0.00000000000E+00 0.  1.
</event>
<event>
12    1  0.8488291E-002  0.2425213E+03  0.7818608E-02  0.1118389E+00
         21   -1    0    0  501  502  0.00000000000E+00  0.00000000000E+00  0.19131270921E+03  0.19131270921E+03  0.00000000000E+00 0. -1.
         21   -1    0    0  502  503 -0.00000000000E+00 -0.00000000000E+00 -0.30749649981E+03  0.30749649981E+03  0.00000000000E+00 0. -1.
         -6    2    1    2    0  503 -0.15624526270E+02 -0.16750366536E+03 -0.78441575831E+02  0.25336867255E+03  0.17245579052E+03 0.  0.
        -24    2    3    3    0    0 -0.43991627601E+02 -0.17339898862E+03 -0.32102131824E+02  0.19851540150E+03  0.79845758881E+02 0.  0.
          6    2    1    2  501    0  0.15624526270E+02  0.16750366536E+03 -0.37742214768E+02  0.24544053646E+03  0.17468536984E+03 0.  0.
         24    2    5    5    0    0 -0.13287792581E+02  0.99466653087E+02  0.44731441372E+02  0.13458499453E+03  0.77730549964E+02 0.  0.
          5    1    5    5  501    0  0.28912318851E+02  0.68037012269E+02 -0.82473656140E+02  0.11085554193E+03  0.47000000000E+01 0. -1.
        -11    1    6    6    0    0  0.22501980298E+01  0.44468032113E+01 -0.18656313965E+02  0.19310502343E+02  0.00000000000E+00 0.  1.
         12    1    6    6    0    0 -0.15537990611E+02  0.95019849876E+02  0.63387755337E+02  0.11527449219E+03  0.00000000000E+00 0. -1.
         -5    1    3    3    0  503  0.28367101331E+02  0.58953232622E+01 -0.46339444007E+02  0.54853271053E+02  0.47000000000E+01 0.  1.
         13    1    4    4    0    0 -0.23920962695E+02 -0.11990601524E+03 -0.58540497833E+02  0.13556052092E+03  0.00000000000E+00 0. -1.
        -14    1    4    4    0    0 -0.20070664907E+02 -0.53492973380E+02  0.26438366009E+02  0.62954880574E+02  0.00000000000E+00 0.  1.
</event>
<event>
12    1  0.8488291E-002  0.3428927E+03  0.7818608E-02  0.1065574E+00
         21   -1    0    0  501  502  0.00000000000E+00  0.00000000000E+00  0.27484922414E+03  0.27484922414E+03  0.00000000000E+00 0.  1.
         21   -1    0    0  502  503 -0.00000000000E+00 -0.00000000000E+00 -0.72949448431E+03  0.72949448431E+03  0.00000000000E+00 0. -1.
         -6    2    1    2    0  503 -0.28440810715E+03  0.84638287908E+02 -0.55028886673E+03  0.64836186142E+03  0.17176628104E+03 0.  0.
        -24    2    3    3    0    0 -0.84102689018E+02  0.13671023968E+02 -0.11625436959E+03  0.16507452681E+03  0.80463418750E+02 0.  0.
          6    2    1    2  501    0  0.28440810715E+03 -0.84638287908E+02  0.95643606561E+02  0.35598184704E+03  0.17182480832E+03 0.  0.
         24    2    5    5    0    0  0.78819460215E+02 -0.58415718882E+02 -0.16055859267E+01  0.12699754558E+03  0.80628128816E+02 0.  0.
          5    1    5    5  501    0  0.20558864693E+03 -0.26222569026E+02  0.97249192488E+02  0.22898430146E+03  0.47000000000E+01 0. -1.
        -13    1    6    6    0    0  0.36943489466E+02 -0.20557037367E+02  0.38952129164E+02  0.57486359822E+02  0.00000000000E+00 0.  1.
         14    1    6    6    0    0  0.41875970749E+02 -0.37858681515E+02 -0.40557715091E+02  0.69511185759E+02  0.00000000000E+00 0. -1.
         -5    1    3    3    0  503 -0.20030541813E+03  0.70967263941E+02 -0.43403449714E+03  0.48328733461E+03  0.47000000000E+01 0.  1.
         13    1    4    4    0    0 -0.61973642991E+02  0.34623447572E+02 -0.11428247319E+03  0.13453623759E+03  0.00000000000E+00 0. -1.
        -14    1    4    4    0    0 -0.22129046027E+02 -0.20952423604E+02 -0.19718963996E+01  0.30538289218E+02  0.00000000000E+00 0.  1.
</event>
<event>
12    1  0.8488291E-002  0.3167738E+03  0.7818608E-02  0.1077212E+00
         21   -1    0    0  501  502  0.00000000000E+00  0.00000000000E+00  0.77343972217E+03  0.77343972217E+03  0.00000000000E+00 0. -1.
         21   -1    0    0  502  503 -0.00000000000E+00 -0.00000000000E+00 -0.27541528910E+03  0.27541528910E+03  0.00000000000E+00 0. -1.
         -6    2    1    2    0  503  0.26581242686E+03  0.65380758233E+01 -0.13259694253E+03  0.34340590435E+03  0.17218209334E+03 0.  0.
        -24    2    3    3    0    0  0.98582307801E+02 -0.50643485302E+01  0.42560232351E+01  0.12695417021E+03  0.79719060227E+02 0.  0.
          6    2    1    2  501    0 -0.26581242686E+03 -0.65380758233E+01  0.63062137560E+03  0.70544910692E+03  0.17110268957E+03 0.  0.
         24    2    5    5    0    0 -0.23149031697E+03 -0.14200163440E+01  0.37822764809E+03  0.45063763652E+03  0.80176944127E+02 0.  0.
          5    1    5    5  501    0 -0.34322109891E+02 -0.51180594792E+01  0.25239372751E+03  0.25481147040E+03  0.47000000000E+01 0. -1.
        -11    1    6    6    0    0 -0.28717866599E+02  0.22290815385E+02  0.93195813204E+02  0.10003527334E+03  0.00000000000E+00 0.  1.
         12    1    6    6    0    0 -0.20277245037E+03 -0.23710831729E+02  0.28503183488E+03  0.35060236318E+03  0.00000000000E+00 0. -1.
         -5    1    3    3    0  503  0.16723011906E+03  0.11602424353E+02 -0.13685296577E+03  0.21645173414E+03  0.47000000000E+01 0.  1.
         13    1    4    4    0    0  0.10594586374E+03  0.13602990364E+02  0.35381069677E+01  0.10687415773E+03  0.00000000000E+00 0. -1.
        -14    1    4    4    0    0 -0.73635559380E+01 -0.18667338895E+02  0.71791626744E+00  0.20080012481E+02  0.00000000000E+00 0.  1.
</event>
<event>
12    1  0.8488291E-002  0.3830134E+03  0.7818608E-02  0.1049893E+00
         21   -1    0    0  501  502  0.00000000000E+00  0.00000000000E+00  0.25737442969E+03  0.25737442969E+03  0.00000000000E+00 0.  1.
         21   -1    0    0  502  503 -0.00000000000E+00 -0.00000000000E+00 -0.71044325523E+03  0.71044325523E+03  0.00000000000E+00 0. -1.
         -6    2    1    2    0  503 -0.13130327234E+02  0.34041705675E+03 -0.44270996670E+03  0.58539848693E+03  0.17505169482E+03 0.  0.
        -24    2    3    3    0    0 -0.40476667153E+02  0.30864640767E+03 -0.43810164188E+03  0.54296591562E+03  0.77317341871E+02 0.  0.
          6    2    1    2  501    0  0.13130327234E+02 -0.34041705675E+03 -0.10358858842E+02  0.38241919799E+03  0.17343863186E+03 0.  0.
         24    2    5    5    0    0  0.17378952724E+02 -0.34921900186E+03  0.10295153234E+02  0.35909103323E+03  0.81144566757E+02 0.  0.
          5    1    5    5  501    0 -0.42486254901E+01  0.88019451084E+01 -0.20654012076E+02  0.23328164760E+02  0.47000000000E+01 0. -1.
        -11    1    6    6    0    0 -0.97421756004E+01 -0.18873146870E+03 -0.30163712567E+02  0.19137483329E+03  0.00000000000E+00 0.  1.
         12    1    6    6    0    0  0.27121128324E+02 -0.16048753316E+03  0.40458865800E+02  0.16771619994E+03  0.00000000000E+00 0. -1.
         -5    1    3    3    0  503  0.27346339920E+02  0.31770649079E+02 -0.46083248182E+01  0.42432571304E+02  0.47000000000E+01 0.  1.
         13    1    4    4    0    0  0.74685703796E+01  0.17665640002E+03 -0.28339491549E+03  0.33402985097E+03  0.00000000000E+00 0. -1.
        -14    1    4    4    0    0 -0.47945237533E+02  0.13199000765E+03 -0.15470672639E+03  0.20893606465E+03  0.00000000000E+00 0.  1.
</event>
<event>
12    1  0.8488291E-002  0.1752395E+03  0.7818608E-02  0.1172638E+00
         21   -1    0    0  503  502  0.00000000000E+00  0.00000000000E+00  0.69609918554E+03  0.69609918554E+03  0.00000000000E+00 0.  1.
         21   -1    0    0  501  503 -0.00000000000E+00 -0.00000000000E+00 -0.53329710168E+02  0.53329710168E+02  0.00000000000E+00 0.  1.
          6    2    1    2  501    0 -0.24762071207E+02  0.18095419270E+01  0.16483805088E+03  0.24058359510E+03  0.17347175159E+03 0.  0.
         24    2    3    3    0    0 -0.39016974762E+02  0.62304673932E+02  0.12778990031E+03  0.16807484575E+03  0.80713681858E+02 0.  0.
         -6    2    1    2    0  502  0.24762071207E+02 -0.18095419270E+01  0.47793142450E+03  0.50884530061E+03  0.17288336768E+03 0.  0.
        -24    2    5    5    0    0 -0.14600628760E+02 -0.11830744026E+02  0.10367075265E+03  0.13235760210E+03  0.80110954396E+02 0.  0.
          5    1    3    3  501    0  0.14254903555E+02 -0.60495132005E+02  0.37048150568E+02  0.72508749349E+02  0.47000000000E+01 0. -1.
        -13    1    4    4    0    0 -0.40717840031E+02  0.10302401190E+02  0.16320541040E+02  0.45060426395E+02  0.00000000000E+00 0.  1.
         14    1    4    4    0    0  0.17008652693E+01  0.52002272742E+02  0.11146935927E+03  0.12301441935E+03  0.00000000000E+00 0. -1.
         -5    1    5    5    0  502  0.39362699967E+02  0.10021202099E+02  0.37426067184E+03  0.37648769851E+03  0.47000000000E+01 0.  1.
         13    1    6    6    0    0 -0.28534674470E+02  0.27506895784E+02  0.60387702581E+02  0.72232482899E+02  0.00000000000E+00 0. -1.
        -14    1    6    6    0    0  0.13934045709E+02 -0.39337639810E+02  0.43283050074E+02  0.60125119205E+02  0.00000000000E+00 0.  1.
</event>
<event>
12    1  0.8488291E-002  0.2007678E+03  0.7818608E-02  0.1149266E+00
         21   -1    0    0  501  502  0.00000000000E+00  0.00000000000E+00  0.36540430928E+03  0.36540430928E+03  0.00000000000E+00 0.  1.
         21   -1    0    0  502  503 -0.00000000000E+00 -0.00000000000E+00 -0.11363684138E+03  0.11363684138E+03  0.00000000000E+00 0. -1.
         -6    2    1    2    0  503 -0.97876891120E+02  0.25808484475E+02  0.82461278856E+02  0.21704277671E+03  0.17338321928E+03 0.  0.
        -24    2    3    3    0    0 -0.44085464933E+02  0.76241408051E+02  0.71598025996E+02  0.14236280902E+03  0.85933762551E+02 0.  0.
          6    2    1    2  501    0  0.97876891120E+02 -0.25808484475E+02  0.16930618904E+03  0.26199837396E+03  0.17243143165E+03 0.  0.
         24    2    5    5    0    0 -0.22807191452E+01 -0.40879201695E+02  0.43781825522E+02  0.10063812715E+03  0.80838564927E+02 0.  0.
          5    1    5    5  501    0  0.10015761027E+03  0.15070717219E+02  0.12552436352E+03  0.16136024681E+03  0.47000000000E+01 0. -1.
        -13    1    6    6    0    0  0.28900501061E+02 -0.50326390914E+02  0.28164735518E+02  0.64507650018E+02  0.00000000000E+00 0.  1.
         14    1    6    6    0    0 -0.31181220206E+02  0.94471892190E+01  0.15617090004E+02  0.36130477133E+02  0.00000000000E+00 0. -1.
         -5    1    3    3    0  503 -0.53791426187E+02 -0.50432923575E+02  0.10863252860E+02  0.74679967691E+02  0.47000000000E+01 0.  1.
         11    1    4    4    0    0 -0.27985506141E+02  0.21102460921E+01 -0.11064925725E+02  0.30167437310E+02  0.00000000000E+00 0. -1.
        -12    1    4    4    0    0 -0.16099958792E+02  0.74131161958E+02  0.82662951721E+02  0.11219537171E+03  0.00000000000E+00 0.  1.
</event>
<event>
12    1  0.8488291E-002  0.2056497E+03  0.7818608E-02  0.1145697E+00
         21   -1    0    0  503  502  0.00000000000E+00  0.00000000000E+00  0.61561174773E+02  0.61561174773E+02  0.00000000000E+00 0. -1.
         21   -1    0    0  501  503 -0.00000000000E+00 -0.00000000000E+00 -0.72580462627E+03  0.72580462627E+03  0.00000000000E+00 0.  1.
          6    2    1    2  501    0  0.85216977974E+02 -0.66323788961E+02 -0.43696592607E+03  0.48293997412E+03  0.17501719842E+03 0.  0.
         24    2    3    3    0    0  0.45655942013E+02 -0.11203300988E+02 -0.38874877843E+03  0.39957135241E+03  0.79508955068E+02 0.  0.
         -6    2    1    2    0  502 -0.85216977974E+02  0.66323788961E+02 -0.22727752543E+03  0.30442582692E+03  0.17134535948E+03 0.  0.
        -24    2    5    5    0    0 -0.91736111811E+02  0.77033873482E+02 -0.97698916592E+02  0.17415721641E+03  0.80224222342E+02 0.  0.
          5    1    3    3  501    0  0.39561035961E+02 -0.55120487972E+02 -0.48217147633E+02  0.83368621714E+02  0.47000000000E+01 0. -1.
        -11    1    4    4    0    0  0.11496982978E+01  0.27071423741E+02 -0.20213463616E+03  0.20394262655E+03  0.00000000000E+00 0.  1.
         12    1    4    4    0    0  0.44506243715E+02 -0.38274724729E+02 -0.18661414228E+03  0.19562872586E+03  0.00000000000E+00 0. -1.
         -5    1    5    5    0  502  0.65191338371E+01 -0.10710084522E+02 -0.12957860884E+03  0.13026861051E+03  0.47000000000E+01 0.  1.
         13    1    6    6    0    0 -0.64962053001E+02  0.69003799607E+01 -0.25885167517E+02  0.70268950975E+02  0.00000000000E+00 0. -1.
        -14    1    6    6    0    0 -0.26774058809E+02  0.70133493522E+02 -0.71813749075E+02  0.10388826543E+03  0.00000000000E+00 0.  1.
</event>
<event>
12    1  0.8488291E-002  0.1905206E+03  0.7818608E-02  0.1159333E+00
         21   -1    0    0  503  502  0.00000000000E+00  0.00000000000E+00  0.19295469269E+02  0.19295469269E+02  0.00000000000E+00 0.  1.
         21   -1    0    0  501  503 -0.00000000000E+00 -0.00000000000E+00 -0.19689437695E+04  0.19689437695E+04  0.00000000000E+00 0.  1.
          6    2    1    2  501    0 -0.79184638597E+02  0.80970673769E+01 -0.12306773520E+04  0.12444534302E+04  0.16661880388E+03 0.  0.
         24    2    3    3    0    0 -0.67272233631E+02  0.28668417253E+02 -0.12021940986E+04  0.12070572867E+04  0.79807337203E+02 0.  0.
         -6    2    1    2    0  502  0.79184638597E+02 -0.80970673769E+01 -0.71897094828E+03  0.74378580858E+03  0.17309631738E+03 0.  0.
        -24    2    5    5    0    0  0.43988151938E+02  0.40115140414E+01 -0.68947606575E+03  0.69606318803E+03  0.84709307221E+02 0.  0.
          5    1    3    3  501    0 -0.11912404966E+02 -0.20571349876E+02 -0.28483253392E+02  0.37396143539E+02  0.47000000000E+01 0. -1.
        -13    1    4    4    0    0 -0.31815727872E+02  0.50949205033E+02 -0.49622308600E+03  0.49984538921E+03  0.00000000000E+00 0.  1.
         14    1    4    4    0    0 -0.35456505760E+02 -0.22280787779E+02 -0.70597101260E+03  0.70721189748E+03  0.00000000000E+00 0. -1.
         -5    1    5    5    0  502  0.35196486659E+02 -0.12108581418E+02 -0.29494882526E+02  0.47722620552E+02  0.47000000000E+01 0.  1.
         11    1    6    6    0    0  0.49479605667E+02  0.34450191370E+02 -0.54428828102E+03  0.54761736634E+03  0.00000000000E+00 0. -1.
        -12    1    6    6    0    0 -0.54914537294E+01 -0.30438677329E+02 -0.14518778474E+03  0.14844582169E+03  0.00000000000E+00 0.  1.
</event>
<event>
12    1  0.8488291E-002  0.2047237E+03  0.7818608E-02  0.1145935E+00
         21   -1    0    0  501  502  0.00000000000E+00  0.00000000000E+00  0.19301127024E+03  0.19301127024E+03  0.00000000000E+00 0.  1.
         21   -1    0    0  502  503 -0.00000000000E+00 -0.00000000000E+00 -0.22236906025E+03  0.22236906025E+03  0.00000000000E+00 0.  1.
         -6    2    1    2    0  503  0.84268215175E+02 -0.70967492008E+02 -0.48350568233E+02  0.20977747757E+03  0.17184672134E+03 0.  0.
        -24    2    3    3    0    0 -0.13346302821E+02 -0.17970543472E+02  0.10957980739E+02  0.83774046427E+02  0.79980930734E+02 0.  0.
          6    2    1    2  501    0 -0.84268215175E+02  0.70967492008E+02  0.18992778219E+02  0.20560285292E+03  0.17255228336E+03 0.  0.
         24    2    5    5    0    0 -0.25715409869E+02  0.10436690348E+03 -0.24522370762E-01  0.13540527876E+03  0.82345953569E+02 0.  0.
          5    1    5    5  501    0 -0.58552805307E+02 -0.33399411471E+02  0.19017300590E+02  0.70197574158E+02  0.47000000000E+01 0. -1.
        -11    1    6    6    0    0 -0.20244859756E+02  0.14674837852E+02 -0.31478282849E+02  0.40200590837E+02  0.00000000000E+00 0.  1.
         12    1    6    6    0    0 -0.54705501127E+01  0.89692065626E+02  0.31453760479E+02  0.95204687926E+02  0.00000000000E+00 0. -1.
         -5    1    3    3    0  503  0.97614517996E+02 -0.52996948535E+02 -0.59308548973E+02  0.12600343114E+03  0.47000000000E+01 0.  1.
         13    1    4    4    0    0  0.21686784695E+02  0.65555478858E+01 -0.20603587859E+02  0.30623515003E+02  0.00000000000E+00 0. -1.
        -14    1    4    4    0    0 -0.35033087516E+02 -0.24526091358E+02  0.31561568599E+02  0.53150531423E+02  0.00000000000E+00 0.  1.
</event>
<event>
12    1  0.8488291E-002  0.2060318E+03  0.7818608E-02  0.1144865E+00
         21   -1    0    0  503  502  0.00000000000E+00  0.00000000000E+00  0.23534487514E+04  0.23534487514E+04  0.00000000000E+00 0. -1.
         21   -1    0    0  501  503 -0.00000000000E+00 -0.00000000000E+00 -0.18153916331E+02  0.18153916331E+02  0.00000000000E+00 0. -1.
          6    2    1    2  501    0 -0.24946729453E+02 -0.11019678512E+03  0.12831362196E+04  0.12995721126E+04  0.17228884769E+03 0.  0.
         24    2    3    3    0    0 -0.38611377071E+02 -0.67442496569E+02  0.36930241913E+03  0.38462459680E+03  0.74246043038E+02 0.  0.
         -6    2    1    2    0  502  0.24946729453E+02  0.11019678512E+03  0.10521586154E+04  0.10720305551E+04  0.17159862548E+03 0.  0.
        -24    2    5    5    0    0  0.76537990698E+02  0.94099374058E+02  0.62997457473E+03  0.64637548452E+03  0.78870437856E+02 0.  0.
          5    1    3    3  501    0  0.13664647618E+02 -0.42754288554E+02  0.91383380049E+03  0.91494751582E+03  0.47000000000E+01 0. -1.
        -11    1    4    4    0    0  0.52083564777E+01 -0.24976363639E+02  0.27880024078E+02  0.37792081981E+02  0.00000000000E+00 0.  1.
         12    1    4    4    0    0 -0.43819733549E+02 -0.42466132930E+02  0.34142239505E+03  0.34683251482E+03  0.00000000000E+00 0. -1.
         -5    1    5    5    0  502 -0.51591261244E+02  0.16097411065E+02  0.42218404067E+03  0.42565507054E+03  0.47000000000E+01 0.  1.
         11    1    6    6    0    0  0.44636379912E+02 -0.24023879361E+00  0.17194209327E+03  0.17764162678E+03  0.00000000000E+00 0. -1.
        -12    1    6    6    0    0  0.31901610786E+02  0.94339612851E+02  0.45803248146E+03  0.46873385774E+03  0.00000000000E+00 0.  1.
</event>
<event>
12    1  0.8488291E-002  0.1700700E+03  0.7818608E-02  0.1178297E+00
         21   -1    0    0  503  502  0.00000000000E+00  0.00000000000E+00  0.18563888668E+04  0.18563888668E+04  0.00000000000E+00 0.  1.
         21   -1    0    0  501  503 -0.00000000000E+00 -0.00000000000E+00 -0.16648680937E+02  0.16648680937E+02  0.00000000000E+00 0.  1.
          6    2    1    2  501    0  0.26800178870E+02  0.16447260022E+01  0.66828962095E+03  0.68959033968E+03  0.16793708466E+03 0.  0.
         24    2    3    3    0    0  0.52025379995E+02 -0.49597984552E+02  0.38260751055E+03  0.39821689484E+03  0.83794916153E+02 0.  0.
         -6    2    1    2    0  502 -0.26800178870E+02 -0.16447260022E+01  0.11714505649E+04  0.11834472081E+04  0.16592140761E+03 0.  0.
        -24    2    5    5    0    0 -0.65134637487E+02  0.31195856723E+02  0.95497004462E+03  0.96110976124E+03  0.80922707227E+02 0.  0.
          5    1    3    3  501    0 -0.25225201126E+02  0.51242710554E+02  0.28568211040E+03  0.29137344484E+03  0.47000000000E+01 0. -1.
        -11    1    4    4    0    0 -0.83444743852E+01 -0.58001532194E+00  0.61267606276E+00  0.83870163048E+01  0.00000000000E+00 0.  1.
         12    1    4    4    0    0  0.60369854381E+02 -0.49017969230E+02  0.38199483449E+03  0.38982987854E+03  0.00000000000E+00 0. -1.
         -5    1    5    5    0  502  0.38334458617E+02 -0.32840582725E+02  0.21648052032E+03  0.22233744685E+03  0.47000000000E+01 0.  1.
         11    1    6    6    0    0  0.72536868422E+01  0.35174011657E+02  0.33039826105E+03  0.33234445681E+03  0.00000000000E+00 0. -1.
        -12    1    6    6    0    0 -0.72388324329E+02 -0.39781549336E+01  0.62457178357E+03  0.62876530443E+03  0.00000000000E+00 0.  1.
</event>
<event>
12    1  0.8488291E-002  0.1983438E+03  0.7818608E-02  0.1151309E+00
         21   -1    0    0  501  502  0.00000000000E+00  0.00000000000E+00  0.57589845685E+02  0.57589845685E+02  0.00000000000E+00 0.  1.
         21   -1    0    0  502  503 -0.00000000000E+00 -0.00000000000E+00 -0.70578773741E+03  0.70578773741E+03  0.00000000000E+00 0.  1.
         -6    2    1    2    0  503 -0.78085772118E+02  0.59487151758E+02 -0.39702353279E+03  0.44381071521E+03  0.17234893768E+03 0.  0.
        -24    2    3    3    0    0 -0.70236343860E+02  0.60793134460E+02 -0.40979029802E+03  0.42805002330E+03  0.81668751064E+02 0.  0.
          6    2    1    2  501    0  0.78085772118E+02 -0.59487151758E+02 -0.25117435894E+03  0.31956686789E+03  0.17145936962E+03 0.  0.
         24    2    5    5    0    0  0.33522820730E+01 -0.71403456364E+02 -0.86878292611E+02  0.13861831094E+03  0.80978435555E+02 0.  0.
          5    1    5    5  501    0  0.74733490045E+02  0.11916304606E+02 -0.16429606633E+03  0.18094855695E+03  0.47000000000E+01 0. -1.
        -11    1    6    6    0    0  0.22993302654E+02 -0.64939807540E+02 -0.94182804796E+02  0.11668877962E+03  0.00000000000E+00 0.  1.
         12    1    6    6    0    0 -0.19641020581E+02 -0.64636488242E+01  0.73045121853E+01  0.21929531319E+02  0.00000000000E+00 0. -1.
         -5    1    3    3    0  503 -0.78494282576E+01 -0.13059827015E+01  0.12766765236E+02  0.15760691907E+02  0.47000000000E+01 0.  1.
         11    1    4    4    0    0 -0.44751808677E+02  0.38063342287E+01 -0.28499290917E+03  0.28851026123E+03  0.00000000000E+00 0. -1.
        -12    1    4    4    0    0 -0.25484535183E+02  0.56986800231E+02 -0.12479738886E+03  0.13953976207E+03  0.00000000000E+00 0.  1.
</event>
<event>
12    1  0.8488291E-002  0.4161865E+03  0.7818608E-02  0.1038379E+00
         21   -1    0    0  501  502  0.00000000000E+00  0.00000000000E+00  0.65075757244E+03  0.65075757244E+03  0.00000000000E+00 0. -1.
         21   -1    0    0  502  503 -0.00000000000E+00 -0.00000000000E+00 -0.28959039965E+03  0.28959039965E+03  0.00000000000E+00 0. -1.
         -6    2    1    2    0  503  0.23518635632E+03  0.29595096229E+03  0.45614794215E+02  0.41867875788E+03  0.17410226469E+03 0.  0.
        -24    2    3    3    0    0  0.13894238887E+03  0.21668892309E+03 -0.34006424284E+02  0.27066862119E+03  0.76459066096E+02 0.  0.
          6    2    1    2  501    0 -0.23518635632E+03 -0.29595096229E+03  0.31555237857E+03  0.52166921421E+03  0.17223783311E+03 0.  0.
         24    2    5    5    0    0 -0.21799729121E+03 -0.21936346949E+03  0.30797550358E+03  0.44267170129E+03  0.73933575592E+02 0.  0.
          5    1    5    5  501    0 -0.17189065117E+02 -0.76587492800E+02  0.75768749916E+01  0.78997512920E+02  0.47000000000E+01 0. -1.
        -13    1    6    6    0    0 -0.12409829239E+03 -0.72730949458E+02  0.14147410199E+03  0.20175504633E+03  0.00000000000E+00 0.  1.
         14    1    6    6    0    0 -0.93898998812E+02 -0.14663252003E+03  0.16650140159E+03  0.24091665496E+03  0.00000000000E+00 0. -1.
         -5    1    3    3    0  503  0.96243967451E+02  0.79262039200E+02  0.79621218499E+02  0.14801013669E+03  0.47000000000E+01 0.  1.
         13    1    4    4    0    0  0.66786083330E+02  0.14843320672E+03  0.76883155945E+01  0.16294756206E+03  0.00000000000E+00 0. -1.
        -14    1    4    4    0    0  0.72156305542E+02  0.68255716366E+02 -0.41694739879E+02  0.10772105913E+03  0.00000000000E+00 0.  1.
</event>
<event>
12    1  0.8488291E-002  0.1723162E+03  0.7818608E-02  0.1178730E+00
         21   -1    0    0  503  502  0.00000000000E+00  0.00000000000E+00  0.17356570754E+03  0.17356570754E+03  0.00000000000E+00 0.  1.
         21   -1    0    0  501  503 -0.00000000000E+00 -0.00000000000E+00 -0.21147374901E+03  0.21147374901E+03  0.00000000000E+00 0.  1.
          6    2    1    2  501    0 -0.75951544743E+01 -0.45124457798E+01 -0.11419562650E+03  0.19659144987E+03  0.15977956225E+03 0.  0.
         24    2    3    3    0    0  0.49702375412E+02 -0.27776326182E+02 -0.74111086308E+02  0.12274650811E+03  0.79576389215E+02 0.  0.
         -6    2    1    2    0  502  0.75951544743E+01  0.45124457798E+01  0.76287585034E+02  0.18844800667E+03  0.17208953208E+03 0.  0.
        -24    2    5    5    0    0  0.62487564380E+02 -0.22005073275E+02  0.72654798958E+02  0.12719735266E+03  0.80694037952E+02 0.  0.
          5    1    3    3  501    0 -0.57297529887E+02  0.23263880402E+02 -0.40084540191E+02  0.73844941768E+02  0.47000000000E+01 0. -1.
        -13    1    4    4    0    0 -0.10442059547E+02  0.18769510908E+02 -0.20557505745E+02  0.29731165295E+02  0.00000000000E+00 0.  1.
         14    1    4    4    0    0  0.60144434960E+02 -0.46545837090E+02 -0.53553580563E+02  0.93015342810E+02  0.00000000000E+00 0. -1.
         -5    1    5    5    0  502 -0.54892409906E+02  0.26517519055E+02  0.36327860760E+01  0.61250654011E+02  0.47000000000E+01 0.  1.
         13    1    6    6    0    0  0.80515813029E+01  0.28689370736E+02  0.17098741806E+02  0.34355129545E+02  0.00000000000E+00 0. -1.
        -14    1    6    6    0    0  0.54435983077E+02 -0.50694444012E+02  0.55556057152E+02  0.92842223118E+02  0.00000000000E+00 0.  1.
</event>
<event>
12    1  0.8488291E-002  0.2215847E+03  0.7818608E-02  0.1132993E+00
         21   -1    0    0  503  502  0.00000000000E+00  0.00000000000E+00  0.17918049369E+03  0.17918049369E+03  0.00000000000E+00 0. -1.
         21   -1    0    0  501  503 -0.00000000000E+00 -0.00000000000E+00 -0.13940306686E+04  0.13940306686E+04  0.00000000000E+00 0. -1.
          6    2    1    2  501    0 -0.40053763184E+02 -0.13324615478E+03 -0.13126774723E+04  0.13309923502E+04  0.17046890717E+03 0.  0.
         24    2    3    3    0    0  0.12597732325E+02 -0.49576631114E+01 -0.56566715788E+03  0.57120513202E+03  0.78183681505E+02 0.  0.
         -6    2    1    2    0  502  0.40053763184E+02  0.13324615478E+03  0.97827297385E+02  0.24221881209E+03  0.17245559170E+03 0.  0.
        -24    2    5    5    0    0  0.83258044555E+02  0.93713203394E+02  0.10615690657E+03  0.18288133184E+03  0.80387973281E+02 0.  0.
          5    1    3    3  501    0 -0.52651495509E+02 -0.12828849167E+03 -0.74701031442E+03  0.75978721819E+03  0.47000000000E+01 0. -1.
        -13    1    4    4    0    0  0.39127461297E+02 -0.22912122178E+02 -0.39145263528E+03  0.39406990400E+03  0.00000000000E+00 0.  1.
         14    1    4    4    0    0 -0.26529728971E+02  0.17954459067E+02 -0.17421452260E+03  0.17713522802E+03  0.00000000000E+00 0. -1.
         -5    1    5    5    0  502 -0.43204281371E+02  0.39532951385E+02 -0.83296091845E+01  0.59337480256E+02  0.47000000000E+01 0.  1.
         11    1    6    6    0    0  0.28604648999E+02 -0.72546460549E+01  0.42090976954E+02  0.51405312709E+02  0.00000000000E+00 0. -1.
        -12    1    6    6    0    0  0.54653395555E+02  0.10096784945E+03  0.64065929616E+02  0.13147601913E+03  0.00000000000E+00 0.  1.
</event>
<event>
12    1  0.8488291E-002  0.1894062E+03  0.7818608E-02  0.1160498E+00
         21   -1    0    0  503  502  0.00000000000E+00  0.00000000000E+00  0.18437783506E+03  0.18437783506E+03  0.00000000000E+00 0.  1.
         21   -1    0    0  501  503 -0.00000000000E+00 -0.00000000000E+00 -0.22544744228E+03  0.22544744228E+03  0.00000000000E+00 0.  1.
          6    2    1    2  501    0  0.53014953053E+02  0.60354752478E+02  0.63322144919E+02  0.19355612263E+03  0.16431980153E+03 0.  0.
         24    2    3    3    0    0  0.72119996861E+02  0.19641154298E+02  0.17753284072E+01  0.11718400469E+03  0.90232312807E+02 0.  0.
         -6    2    1    2    0  502 -0.53014953053E+02 -0.60354752478E+02 -0.10439175214E+03  0.21626915470E+03  0.17152675584E+03 0.  0.
        -24    2    5    5    0    0  0.24632864354E+02  0.52938270831E+01 -0.70722818493E+02  0.10905625138E+03  0.79099597332E+02 0.  0.
          5    1    3    3  501    0 -0.19105043808E+02  0.40713598180E+02  0.61546816511E+02  0.76372117938E+02  0.47000000000E+01 0. -1.
        -13    1    4    4    0    0  0.89756938497E+02  0.26464695810E+02  0.14068260802E+02  0.94628769910E+02  0.00000000000E+00 0.  1.
         14    1    4    4    0    0 -0.17636941636E+02 -0.68235415125E+01 -0.12292932395E+02  0.22555234778E+02  0.00000000000E+00 0. -1.
         -5    1    5    5    0  502 -0.77647817407E+02 -0.65648579561E+02 -0.33668933647E+02  0.10721290332E+03  0.47000000000E+01 0.  1.
         13    1    6    6    0    0  0.32062497815E+02 -0.25879716356E+02 -0.64304786626E+02  0.76373222191E+02  0.00000000000E+00 0. -1.
        -14    1    6    6    0    0 -0.74296334610E+01  0.31173543439E+02 -0.64180318662E+01  0.32683029189E+02  0.00000000000E+00 0.  1.
</event>
<event>
12    1  0.8488291E-002  0.2014958E+03  0.7818608E-02  0.1148833E+00
         21   -1    0    0  501  502  0.00000000000E+00  0.00000000000E+00  0.84793354905E+03  0.84793354905E+03  0.00000000000E+00 0.  1.
         21   -1    0    0  502  503 -0.00000000000E+00 -0.00000000000E+00 -0.53011598071E+02  0.53011598071E+02  0.00000000000E+00 0.  1.
         -6    2    1    2    0  503  0.79980451817E+02  0.65624309670E+02  0.25055148036E+03  0.32048001691E+03  0.17096190872E+03 0.  0.
        -24    2    3    3    0    0  0.49936496611E+02 -0.31285135000E+02  0.12025480958E+03  0.15527289803E+03  0.78587787031E+02 0.  0.
          6    2    1    2  501    0 -0.79980451817E+02 -0.65624309670E+02  0.54437047062E+03  0.58046513021E+03  0.17290788131E+03 0.  0.
         24    2    5    5    0    0 -0.12007025444E+03 -0.35971071757E+02  0.44534555348E+03  0.46949427365E+03  0.79883834260E+02 0.  0.
          5    1    5    5  501    0  0.40089802625E+02 -0.29653237914E+02  0.99024917134E+02  0.11097085656E+03  0.47000000000E+01 0. -1.
        -11    1    6    6    0    0 -0.91607984073E+02  0.60651416316E-01  0.37074421045E+03  0.38189435189E+03  0.00000000000E+00 0.  1.
         12    1    6    6    0    0 -0.28462270369E+02 -0.36031723173E+02  0.74601343032E+02  0.87599921755E+02  0.00000000000E+00 0. -1.
         -5    1    3    3    0  503  0.30043955205E+02  0.96909444670E+02  0.13029667079E+03  0.16520711888E+03  0.47000000000E+01 0.  1.
         11    1    4    4    0    0 -0.99154754867E+01  0.57194184343E+01 -0.42897369759E+01  0.12224166421E+02  0.00000000000E+00 0. -1.
        -12    1    4    4    0    0  0.59851972098E+02 -0.37004553434E+02  0.12454454655E+03  0.14304873161E+03  0.00000000000E+00 0.  1.
</event>
<event>
12    1  0.8488291E-002  0.2122027E+03  0.7818608E-02  0.1142398E+00
         21   -1    0    0  503  502  0.00000000000E+00  0.00000000000E+00  0.97557846207E+02  0.97557846207E+02  0.00000000000E+00 0. -1.
         21   -1    0    0  501  503 -0.00000000000E+00 -0.00000000000E+00 -0.43488390361E+03  0.43488390361E+03  0.00000000000E+00 0.  1.
          6    2    1    2  501    0 -0.10093382789E+03 -0.52181213951E+01 -0.16457658362E+03  0.26854318291E+03  0.18658811003E+03 0.  0.
         24    2    3    3    0    0 -0.56819159053E+02  0.73230358456E+02 -0.84248920682E+02  0.14781666788E+03  0.78490664614E+02 0.  0.
         -6    2    1    2    0  502  0.10093382789E+03  0.52181213951E+01 -0.17274947378E+03  0.26389856691E+03  0.17200350729E+03 0.  0.
        -24    2    5    5    0    0  0.74458904822E+02 -0.37099453212E+02 -0.38876463938E+02  0.12094482811E+03  0.78713239432E+02 0.  0.
          5    1    3    3  501    0 -0.44114668841E+02 -0.78448479852E+02 -0.80327662942E+02  0.12072651503E+03  0.47000000000E+01 0. -1.
        -11    1    4    4    0    0 -0.28243787045E+01  0.55357781345E+02 -0.69804153603E+02  0.89135183461E+02  0.00000000000E+00 0.  1.
         12    1    4    4    0    0 -0.53994780348E+02  0.17872577111E+02 -0.14444767079E+02  0.58681484418E+02  0.00000000000E+00 0. -1.
         -5    1    5    5    0  502  0.26474923072E+02  0.42317574607E+02 -0.13387300984E+03  0.14295373880E+03  0.47000000000E+01 0.  1.
         11    1    6    6    0    0  0.75186603785E+02  0.21876241818E+01 -0.24635304410E+02  0.79149916688E+02  0.00000000000E+00 0. -1.
        -12    1    6    6    0    0 -0.72769896316E+00 -0.39287077394E+02 -0.14241159529E+02  0.41794911420E+02  0.00000000000E+00 0.  1.
</event>
<event>
12    1  0.8488291E-002  0.1888923E+03  0.7818608E-02  0.1162843E+00
         21   -1    0    0  503  502  0.00000000000E+00  0.00000000000E+00  0.18065865568E+03  0.18065865568E+03  0.00000000000E+00 0.  1.
         21   -1    0    0  501  503 -0.00000000000E+00 -0.00000000000E+00 -0.18441144911E+03  0.18441144911E+03  0.00000000000E+00 0.  1.
          6    2    1    2  501    0 -0.27269235876E+02 -0.40124698663E+02  0.14866129196E+02  0.17526242070E+03  0.16775670372E+03 0.  0.
         24    2    3    3    0    0 -0.46484745700E+02 -0.27711226307E+02  0.68241595442E+02  0.11700128004E+03  0.78125799423E+02 0.  0.
         -6    2    1    2    0  502  0.27269235876E+02  0.40124698663E+02 -0.18618922627E+02  0.18980768409E+03  0.18255599139E+03 0.  0.
        -24    2    5    5    0    0 -0.56731733872E+02  0.36208418788E+02 -0.88498018884E+01  0.10501956059E+03  0.80132701777E+02 0.  0.
          5    1    3    3  501    0  0.19215509824E+02 -0.12413472355E+02 -0.53375466247E+02  0.58261140658E+02  0.47000000000E+01 0. -1.
        -11    1    4    4    0    0 -0.61737637356E+02 -0.28804052838E+02  0.27469839512E+02  0.73456118935E+02  0.00000000000E+00 0.  1.
         12    1    4    4    0    0  0.15252891656E+02  0.10928265309E+01  0.40771755931E+02  0.43545161102E+02  0.00000000000E+00 0. -1.
         -5    1    5    5    0  502  0.84000969748E+02  0.39162798745E+01 -0.97691207387E+01  0.84788123500E+02  0.47000000000E+01 0.  1.
         11    1    6    6    0    0  0.41161167172E+01 -0.17921899743E+01 -0.29916261432E+02  0.30251232368E+02  0.00000000000E+00 0. -1.
        -12    1    6    6    0    0 -0.60847850589E+02  0.38000608762E+02  0.21066459543E+02  0.74768328223E+02  0.00000000000E+00 0.  1.
</event>
<event>
12    1  0.8488291E-002  0.1912629E+03  0.7818608E-02  0.1157543E+00
         21   -1    0    0  501  502  0.00000000000E+00  0.00000000000E+00  0.22248302316E+04  0.22248302316E+04  0.00000000000E+00 0. -1.
         21   -1    0    0  502  503 -0.00000000000E+00 -0.00000000000E+00 -0.18072496037E+02  0.18072496037E+02  0.00000000000E+00 0.  1.
         -6    2    1    2    0  503 -0.68421358360E+02  0.37982275236E+02  0.75559501238E+03  0.77919006731E+03  0.17346239581E+03 0.  0.
        -24    2    3    3    0    0 -0.28477369023E+02 -0.32453547162E+02  0.21440149311E+03  0.23195223724E+03  0.77263489730E+02 0.  0.
          6    2    1    2  501    0  0.68421358360E+02 -0.37982275236E+02  0.14511627232E+04  0.14637126603E+04  0.17452039226E+03 0.  0.
         24    2    5    5    0    0  0.25262859322E+02  0.90676565182E+01  0.12428933093E+04  0.12458260135E+04  0.81106368907E+02 0.  0.
          5    1    5    5  501    0  0.43158499038E+02 -0.47049931754E+02  0.20826941388E+03  0.21788664685E+03  0.47000000000E+01 0. -1.
        -13    1    6    6    0    0 -0.16637639843E+02 -0.25301352009E+02  0.53875755809E+03  0.53960789085E+03  0.00000000000E+00 0.  1.
         14    1    6    6    0    0  0.41900499165E+02  0.34369008527E+02  0.70413575122E+03  0.70621812262E+03  0.00000000000E+00 0. -1.
         -5    1    3    3    0  503 -0.39943989337E+02  0.70435822397E+02  0.54119351927E+03  0.54723783007E+03  0.47000000000E+01 0.  1.
         11    1    4    4    0    0  0.18473206774E+02  0.12489602200E+02  0.72979453926E+02  0.76310223608E+02  0.00000000000E+00 0. -1.
        -12    1    4    4    0    0 -0.46950575797E+02 -0.44943149362E+02  0.14142203918E+03  0.15564201364E+03  0.00000000000E+00 0.  1.
</event>
<event>
12    1  0.8488291E-002  0.2355372E+03  0.7818608E-02  0.1122856E+00
         21   -1    0    0  501  502  0.00000000000E+00  0.00000000000E+00  0.32787056781E+03  0.32787056781E+03  0.00000000000E+00 0. -1.
         21   -1    0    0  502  503 -0.00000000000E+00 -0.00000000000E+00 -0.36263641800E+03  0.36263641800E+03  0.00000000000E+00 0.  1.
         -6    2    1    2    0  503  0.15477907636E+03  0.43168418700E+02 -0.26968961912E+03  0.35806463337E+03  0.17221415783E+03 0.  0.
        -24    2    3    3    0    0  0.19090688571E+02  0.55488289940E+02 -0.12475351602E+03  0.15908804734E+03  0.79386159594E+02 0.  0.
          6    2    1    2  501    0 -0.15477907636E+03 -0.43168418700E+02  0.23492376893E+03  0.33244235244E+03  0.17178086515E+03 0.  0.
         24    2    5    5    0    0 -0.82895763988E+02 -0.71752326367E+02  0.21206077108E+03  0.25163977175E+03  0.79578263799E+02 0.  0.
          5    1    5    5  501    0 -0.71883312372E+02  0.28583907666E+02  0.22862997855E+02  0.80802580688E+02  0.47000000000E+01 0. -1.
        -13    1    6    6    0    0 -0.21104540566E+02  0.12490519691E+02  0.15421546594E+02  0.28969618811E+02  0.00000000000E+00 0.  1.
         14    1    6    6    0    0 -0.61791223422E+02 -0.84242846058E+02  0.19663922448E+03  0.22267015294E+03  0.00000000000E+00 0. -1.
         -5    1    3    3    0  503  0.13568838779E+03 -0.12319871239E+02 -0.14493610310E+03  0.19897658603E+03  0.47000000000E+01 0.  1.
         11    1    4    4    0    0  0.16144118080E+02  0.14512344252E+02  0.55961857395E+01  0.22417804958E+02  0.00000000000E+00 0. -1.
        -12    1    4    4    0    0  0.29465704914E+01  0.40975945687E+02 -0.13034970176E+03  0.13667024238E+03  0.00000000000E+00 0.  1.
</event>
<event>
12    1  0.8488291E-002  0.1826798E+03  0.7818608E-02  0.1165268E+00
         21   -1    0    0  501  502  0.00000000000E+00  0.00000000000E+00  0.42405409197E+02  0.42405409197E+02  0.00000000000E+00 0. -1.
         21   -1    0    0  502  503 -0.00000000000E+00 -0.00000000000E+00 -0.99593500450E+03  0.99593500450E+03  0.00000000000E+00 0. -1.
         -6    2    1    2    0  503 -0.20350991884E+01 -0.62121825110E+02 -0.71507190205E+03  0.73803776238E+03  0.17178082202E+03 0.  0.
        -24    2    3    3    0    0 -0.60098155412E+02 -0.14582312915E+02 -0.48753699817E+03  0.49840148340E+03  0.82989649596E+02 0.  0.
          6    2    1    2  501    0  0.20350991884E+01  0.62121825110E+02 -0.23845769325E+03  0.30030265132E+03  0.17162851783E+03 0.  0.
         24    2    5    5    0    0 -0.56088704673E+02  0.24473305470E+02 -0.83533059277E+02  0.13053952276E+03  0.79485278744E+02 0.  0.
          5    1    5    5  501    0  0.58123803861E+02  0.37648519639E+02 -0.15492463397E+03  0.16976312856E+03  0.47000000000E+01 0. -1.
        -11    1    6    6    0    0 -0.17475462544E+02 -0.28888374416E+02 -0.35698182372E+02  0.49135427059E+02  0.00000000000E+00 0.  1.
         12    1    6    6    0    0 -0.38613242129E+02  0.53361679887E+02 -0.47834876904E+02  0.81404095698E+02  0.00000000000E+00 0. -1.
         -5    1    3    3    0  503  0.58063056223E+02 -0.47539512194E+02 -0.22753490388E+03  0.23963627898E+03  0.47000000000E+01 0.  1.
         13    1    4    4    0    0 -0.42393602472E+02 -0.21312036022E+02 -0.10306060086E+03  0.11345883773E+03  0.00000000000E+00 0. -1.
        -14    1    4    4    0    0 -0.17704552940E+02  0.67297231064E+01 -0.38447639731E+03  0.38494264567E+03  0.00000000000E+00 0.  1.
</event>
<event>
12    1  0.8488291E-002  0.1848493E+03  0.7818608E-02  0.1164239E+00
         21   -1    0    0  501  502  0.00000000000E+00  0.00000000000E+00  0.15368482235E+03  0.15368482235E+03  0.00000000000E+00 0. -1.
         21   -1    0    0  502  503 -0.00000000000E+00 -0.00000000000E+00 -0.23342315854E+03  0.23342315854E+03  0.00000000000E+00 0.  1.
         -6    2    1    2    0  503  0.48821963982E+02 -0.29197518127E+02 -0.91596220904E+02  0.20629866443E+03  0.17587834440E+03 0.  0.
        -24    2    3    3    0    0  0.79378838070E+02 -0.29187398317E+02 -0.78181047605E+01  0.11699813027E+03  0.80464498819E+02 0.  0.
          6    2    1    2  501    0 -0.48821963982E+02  0.29197518127E+02  0.11857884719E+02  0.18080931647E+03  0.17121717279E+03 0.  0.
         24    2    5    5    0    0 -0.72460415894E+02  0.81624597430E+01  0.59043138638E+02  0.12380240217E+03  0.80770074551E+02 0.  0.
          5    1    5    5  501    0  0.23638451912E+02  0.21035058384E+02 -0.47185253918E+02  0.57006914295E+02  0.47000000000E+01 0. -1.
        -13    1    6    6    0    0  0.46125305408E+01  0.86155732880E+01 -0.14358184899E+02  0.17368391251E+02  0.00000000000E+00 0.  1.
         14    1    6    6    0    0 -0.77072946435E+02 -0.45311354506E+00  0.73401323536E+02  0.10643401092E+03  0.00000000000E+00 0. -1.
         -5    1    3    3    0  503 -0.30556874089E+02 -0.10119810639E-01 -0.83778116144E+02  0.89300534159E+02  0.47000000000E+01 0.  1.
         11    1    4    4    0    0  0.32680065058E+02 -0.54497382013E+02 -0.63486804308E+01  0.63861232697E+02  0.00000000000E+00 0. -1.
        -12    1    4    4    0    0  0.46698773012E+02  0.25309983696E+02 -0.14694243297E+01  0.53136897570E+02  0.00000000000E+00 0.  1.
</event>
<event>
12    1  0.8488291E-002  0.1870609E+03  0.7818608E-02  0.1163379E+00
         21   -1    0    0  503  502  0.00000000000E+00  0.00000000000E+00  0.63448953777E+03  0.63448953777E+03  0.00000000000E+00 0.  1.
         21   -1    0    0  501  503 -0.00000000000E+00 -0.00000000000E+00 -0.12515258501E+03  0.12515258501E+03  0.00000000000E+00 0.  1.
          6    2    1    2  501    0  0.47640564155E+01 -0.73026585207E+02 -0.32124807516E+02  0.18979937251E+03  0.17215173588E+03 0.  0.
         24    2    3    3    0    0 -0.47604231135E+02 -0.34663510946E+01  0.69743475542E+01  0.94238409566E+02  0.80957136200E+02 0.  0.
         -6    2    1    2    0  502 -0.47640564155E+01  0.73026585207E+02  0.54146176027E+03  0.56984275028E+03  0.16181577125E+03 0.  0.
        -24    2    5    5    0    0  0.31759435066E+02  0.60631880520E+02  0.50880972677E+03  0.51909002201E+03  0.76695672943E+02 0.  0.
          5    1    3    3  501    0  0.52368287551E+02 -0.69560234113E+02 -0.39099155070E+02  0.95560962940E+02  0.47000000000E+01 0. -1.
        -13    1    4    4    0    0  0.36145792896E+01 -0.25824384925E+02 -0.19341714894E+02  0.32466382232E+02  0.00000000000E+00 0.  1.
         14    1    4    4    0    0 -0.51218810425E+02  0.22358033831E+02  0.26316062448E+02  0.61772027334E+02  0.00000000000E+00 0. -1.
         -5    1    5    5    0  502 -0.36523491481E+02  0.12394704687E+02  0.32652033507E+02  0.50752728266E+02  0.47000000000E+01 0.  1.
         11    1    6    6    0    0  0.15662090757E+02 -0.17149425209E+02  0.12691118139E+03  0.12901880419E+03  0.00000000000E+00 0. -1.
        -12    1    6    6    0    0  0.16097344309E+02  0.77781305729E+02  0.38189854538E+03  0.39007121783E+03  0.00000000000E+00 0.  1.
</event>
<event>
12    1  0.8488291E-002  0.2129774E+03  0.7818608E-02  0.1139496E+00
         21   -1    0    0  503  502  0.00000000000E+00  0.00000000000E+00  0.40355612256E+03  0.40355612256E+03  0.00000000000E+00 0. -1.
         21   -1    0    0  501  503 -0.00000000000E+00 -0.00000000000E+00 -0.12690226610E+03  0.12690226610E+03  0.00000000000E+00 0. -1.
          6    2    1    2  501    0 -0.19475992202E+02 -0.12413731331E+03  0.46860634797E+02  0.21807177994E+03  0.17195928380E+03 0.  0.
         24    2    3    3    0    0  0.30787648355E+00 -0.15363804841E+01 -0.14248353720E+02  0.79584276292E+02  0.78282732427E+02 0.  0.
         -6    2    1    2    0  502  0.19475992202E+02  0.12413731331E+03  0.22979322166E+03  0.31238660872E+03  0.17026767679E+03 0.  0.
        -24    2    5    5    0    0  0.39362670570E+02  0.13174585544E+03  0.11676294043E+03  0.19727229872E+03  0.79852271889E+02 0.  0.
          5    1    3    3  501    0 -0.19783868686E+02 -0.12260093282E+03  0.61108988517E+02  0.13848750365E+03  0.47000000000E+01 0. -1.
        -11    1    4    4    0    0  0.72669069208E+01 -0.34974785351E+02 -0.25200693294E+02  0.43716341213E+02  0.00000000000E+00 0.  1.
         12    1    4    4    0    0 -0.69590304372E+01  0.33438404867E+02  0.10952339574E+02  0.35867935079E+02  0.00000000000E+00 0. -1.
         -5    1    5    5    0  502 -0.19886678367E+02 -0.76085421359E+01  0.11303028124E+03  0.11511431000E+03  0.47000000000E+01 0.  1.
         13    1    6    6    0    0  0.13972538121E+02  0.18956280321E+02  0.67702779378E+02  0.71681508917E+02  0.00000000000E+00 0. -1.
        -14    1    6    6    0    0  0.25390132449E+02  0.11278957512E+03  0.49060161047E+02  0.12559078981E+03  0.00000000000E+00 0.  1.
</event>
<event>
12    1  0.8488291E-002  0.2087565E+03  0.7818608E-02  0.1142606E+00
         21   -1    0    0  503  502  0.00000000000E+00  0.00000000000E+00  0.26308530806E+03  0.26308530806E+03  0.00000000000E+00 0. -1.
         21   -1    0    0  501  503 -0.00000000000E+00 -0.00000000000E+00 -0.40222260545E+03  0.40222260545E+03  0.00000000000E+00 0.  1.
          6    2    1    2  501    0 -0.69266625938E+02 -0.95392868748E+02 -0.32478092444E+03  0.38594641691E+03  0.17197186681E+03 0.  0.
         24    2    3    3    0    0 -0.28845515386E+02 -0.65777088979E+02 -0.31729227926E+03  0.33506291864E+03  0.80212715818E+02 0.  0.
         -6    2    1    2    0  502  0.69266625938E+02  0.95392868748E+02  0.18564362705E+03  0.27936149661E+03  0.17228355884E+03 0.  0.
        -24    2    5    5    0    0  0.40282261078E+02  0.13181434045E+03  0.16376842695E+03  0.22771625107E+03  0.77697570276E+02 0.  0.
          5    1    3    3  501    0 -0.40421110552E+02 -0.29615779768E+02 -0.74886451765E+01  0.50883498269E+02  0.47000000000E+01 0. -1.
        -11    1    4    4    0    0 -0.21491710227E+02 -0.80990450074E+02 -0.29731710567E+03  0.30889934920E+03  0.00000000000E+00 0.  1.
         12    1    4    4    0    0 -0.73538051583E+01  0.15213361095E+02 -0.19975173593E+02  0.26163569447E+02  0.00000000000E+00 0. -1.
         -5    1    5    5    0  502  0.28984364860E+02 -0.36421471707E+02  0.21875200095E+02  0.51645245539E+02  0.47000000000E+01 0.  1.
         13    1    6    6    0    0  0.53390958883E+02  0.10182484349E+03  0.15649321694E+03  0.19418810518E+03  0.00000000000E+00 0. -1.
        -14    1    6    6    0    0 -0.13108697805E+02  0.29989496963E+02  0.72752100083E+01  0.33528145891E+02  0.00000000000E+00 0.  1.
</event>
<event>
12    1  0.8488291E-002  0.2180411E+03  0.7818608E-02  0.1135848E+00
         21   -1    0    0  503  502  0.00000000000E+00  0.00000000000E+00  0.49710608086E+02  0.49710608086E+02  0.00000000000E+00 0.  1.
         21   -1    0    0  501  503 -0.00000000000E+00 -0.00000000000E+00 -0.11151165294E+04  0.11151165294E+04  0.00000000000E+00 0.  1.
          6    2    1    2  501    0  0.68073320513E+02  0.11337816734E+03 -0.76294176218E+03  0.79348727883E+03  0.17335900148E+03 0.  0.
         24    2    3    3    0    0 -0.29204861082E+02  0.68194601266E+02 -0.38994628052E+03  0.40534771811E+03  0.82129430376E+02 0.  0.
         -6    2    1    2    0  502 -0.68073320513E+02 -0.11337816734E+03 -0.30246415912E+03  0.37133985864E+03  0.17005921694E+03 0.  0.
        -24    2    5    5    0    0 -0.77939948053E+02 -0.29651178961E+02 -0.23937050556E+03  0.26593370112E+03  0.80428020896E+02 0.  0.
          5    1    3    3  501    0  0.97278181595E+02  0.45183566077E+02 -0.37299548166E+03  0.38813956072E+03  0.47000000000E+01 0. -1.
        -13    1    4    4    0    0 -0.40834446684E+02  0.29927219181E+02 -0.32611459143E+03  0.33002093453E+03  0.00000000000E+00 0.  1.
         14    1    4    4    0    0  0.11629585601E+02  0.38267382085E+02 -0.63831689098E+02  0.75326783589E+02  0.00000000000E+00 0. -1.
         -5    1    5    5    0  502  0.98666275398E+01 -0.83726988381E+02 -0.63093653557E+02  0.10540615751E+03  0.47000000000E+01 0.  1.
         11    1    6    6    0    0 -0.23282784363E+02  0.27518957821E+02 -0.89181149777E+02  0.96190740525E+02  0.00000000000E+00 0. -1.
        -12    1    6    6    0    0 -0.54657163690E+02 -0.57170136783E+02 -0.15018935578E+03  0.16974296060E+03  0.00000000000E+00 0.  1.
</event>
<event>
12    1  0.8488291E-002  0.1728021E+03  0.7818608E-02  0.1175063E+00
         21   -1    0    0  501  502  0.00000000000E+00  0.00000000000E+00  0.26776743349E+03  0.26776743349E+03  0.00000000000E+00 0.  1.
         21   -1    0    0  502  503 -0.00000000000E+00 -0.00000000000E+00 -0.22818606038E+03  0.22818606038E+03  0.00000000000E+00 0.  1.
         -6    2    1    2    0  503 -0.32466308504E+02 -0.50125151374E+01 -0.15773887879E+03  0.23366384164E+03  0.16922780656E+03 0.  0.
        -24    2    3    3    0    0 -0.65695211358E+02 -0.27763268731E+02 -0.51117010655E+02  0.11959338298E+03  0.81258652396E+02 0.  0.
          6    2    1    2  501    0  0.32466308504E+02  0.50125151374E+01  0.19732025189E+03  0.26228965223E+03  0.16965079830E+03 0.  0.
         24    2    5    5    0    0 -0.22632585040E+02  0.30192149244E+02  0.51381573695E+02  0.10420711101E+03  0.82433343309E+02 0.  0.
          5    1    5    5  501    0  0.55098893544E+02 -0.25179634107E+02  0.14593867820E+03  0.15808254122E+03  0.47000000000E+01 0. -1.
        -11    1    6    6    0    0 -0.38268844901E+02 -0.90572729069E+01  0.47665939187E+02  0.61794663533E+02  0.00000000000E+00 0.  1.
         12    1    6    6    0    0  0.15636259861E+02  0.39249422151E+02  0.37156345081E+01  0.42412447482E+02  0.00000000000E+00 0. -1.
         -5    1    3    3    0  503  0.33228902854E+02  0.22750753594E+02 -0.10662186813E+03  0.11407045866E+03  0.47000000000E+01 0.  1.
         13    1    4    4    0    0 -0.21650301977E+02 -0.32074850822E+02  0.13749654953E+02  0.41068048922E+02  0.00000000000E+00 0. -1.
        -14    1    4    4    0    0 -0.44044909381E+02  0.43115820907E+01 -0.64866665608E+02  0.78525334062E+02  0.00000000000E+00 0.  1.
</event>
<event>
12    1  0.8488291E-002  0.1903473E+03  0.7818608E-02  0.1158367E+00
         21   -1    0    0  501  502  0.00000000000E+00  0.00000000000E+00  0.14795190067E+04  0.14795190067E+04  0.00000000000E+00 0.  1.
         21   -1    0    0  502  503 -0.00000000000E+00 -0.00000000000E+00 -0.10340567173E+03  0.10340567173E+03  0.00000000000E+00 0.  1.
         -6    2    1    2    0  503  0.31067422965E+02  0.72506416559E+02 -0.34944385068E+01  0.19037936321E+03  0.17323315394E+03 0.  0.
        -24    2    3    3    0    0 -0.92443845185E+01  0.71135594272E+02 -0.57965094305E+02  0.12243774622E+03  0.80531472878E+02 0.  0.
          6    2    1    2  501    0 -0.31067422965E+02 -0.72506416559E+02  0.13796077735E+04  0.13925453152E+04  0.17216991931E+03 0.  0.
         24    2    5    5    0    0 -0.23336221158E+02 -0.10769277937E+03  0.77416720904E+03  0.78601566330E+03  0.79645724592E+02 0.  0.
          5    1    5    5  501    0 -0.77312018075E+01  0.35186362811E+02  0.60544056443E+03  0.60652965193E+03  0.47000000000E+01 0. -1.
        -11    1    6    6    0    0  0.23704137413E+01 -0.90116018466E+02  0.69694267693E+03  0.70274861122E+03  0.00000000000E+00 0.  1.
         12    1    6    6    0    0 -0.25706634899E+02 -0.17576760904E+02  0.77224532119E+02  0.83267052083E+02  0.00000000000E+00 0. -1.
         -5    1    3    3    0  503  0.40311807484E+02  0.13708222878E+01  0.54470655798E+02  0.67941616991E+02  0.47000000000E+01 0.  1.
         13    1    4    4    0    0 -0.16040769691E+02  0.70029818554E+01  0.16412275974E+02  0.23993975281E+02  0.00000000000E+00 0. -1.
        -14    1    4    4    0    0  0.67963851728E+01  0.64132612416E+02 -0.74377370279E+02  0.98443770937E+02  0.00000000000E+00 0.  1.
</event>
<event>
12    1  0.8488291E-002  0.1850491E+03  0.7818608E-02  0.1163149E+00
         21   -1    0    0  501  502  0.00000000000E+00  0.00000000000E+00  0.31789895667E+03  0.31789895667E+03  0.00000000000E+00 0.  1.
         21   -1    0    0  502  503 -0.00000000000E+00 -0.00000000000E+00 -0.11737860752E+03  0.11737860752E+03  0.00000000000E+00 0. -1.
         -6    2    1    2    0  503  0.48049804769E+02  0.47375480195E+02  0.36515126847E+02  0.18801073642E+03  0.17164341717E+03 0.  0.
        -24    2    3    3    0    0  0.65769740300E+02  0.86327169541E+02  0.14296679195E+02  0.13956510056E+03  0.86579346947E+02 0.  0.
          6    2    1    2  501    0 -0.48049804769E+02 -0.47375480195E+02  0.16400522231E+03  0.24726682777E+03  0.17230772273E+03 0.  0.
         24    2    5    5    0    0 -0.52981016845E+01  0.25989696846E+02  0.29835181830E+02  0.88415176603E+02  0.78889613735E+02 0.  0.
          5    1    5    5  501    0 -0.42751703084E+02 -0.73365177041E+02  0.13417004048E+03  0.15885165117E+03  0.47000000000E+01 0. -1.
        -13    1    6    6    0    0  0.17196224862E+01  0.47134482395E+02  0.41891398049E+02  0.63083323967E+02  0.00000000000E+00 0.  1.
         14    1    6    6    0    0 -0.70177241707E+01 -0.21144785549E+02 -0.12056216219E+02  0.25331852636E+02  0.00000000000E+00 0. -1.
         -5    1    3    3    0  503 -0.17719935531E+02 -0.38951689346E+02  0.22218447653E+02  0.48445635864E+02  0.47000000000E+01 0.  1.
         11    1    4    4    0    0  0.50288976136E+02  0.29259960405E+02  0.44424055683E+02  0.73202616941E+02  0.00000000000E+00 0. -1.
        -12    1    4    4    0    0  0.15480764164E+02  0.57067209136E+02 -0.30127376489E+02  0.66362483617E+02  0.00000000000E+00 0.  1.
</event>
<event>
12    1  0.8488291E-002  0.1835065E+03  0.7818608E-02  0.1164528E+00
         21   -1    0    0  501  502  0.00000000000E+00  0.00000000000E+00  0.16416513970E+04  0.16416513970E+04  0.00000000000E+00 0. -1.
         21   -1    0    0  502  503 -0.00000000000E+00 -0.00000000000E+00 -0.24385003655E+02  0.24385003655E+02  0.00000000000E+00 0. -1.
         -6    2    1    2    0  503 -0.40620754274E+02  0.58136979030E+02  0.47453278882E+03  0.50866233087E+03  0.16889655171E+03 0.  0.
        -24    2    3    3    0    0 -0.54212687230E+02  0.17475020835E+02  0.44638951383E+03  0.45716214240E+03  0.80555785506E+02 0.  0.
          6    2    1    2  501    0  0.40620754274E+02 -0.58136979030E+02  0.11427336046E+04  0.11573740698E+04  0.16924742976E+03 0.  0.
         24    2    5    5    0    0 -0.32781445337E+02  0.54219309095E+01  0.55587115304E+03  0.56251505715E+03  0.79538859991E+02 0.  0.
          5    1    5    5  501    0  0.73402199611E+02 -0.63558909939E+02  0.58686245153E+03  0.59485901267E+03  0.47000000000E+01 0. -1.
        -11    1    6    6    0    0 -0.17589993515E+02 -0.18638132958E+02  0.53322083329E+02  0.59161072020E+02  0.00000000000E+00 0.  1.
         12    1    6    6    0    0 -0.15191451823E+02  0.24060063868E+02  0.50254906971E+03  0.50335398513E+03  0.00000000000E+00 0. -1.
         -5    1    3    3    0  503  0.13591932956E+02  0.40661958195E+02  0.28143274991E+02  0.51500188475E+02  0.47000000000E+01 0.  1.
         11    1    4    4    0    0 -0.17627080317E+02  0.41941186908E+02  0.13010258745E+03  0.13782764738E+03  0.00000000000E+00 0. -1.
        -12    1    4    4    0    0 -0.36585606913E+02 -0.24466166073E+02  0.31628692637E+03  0.31933449502E+03  0.00000000000E+00 0.  1.
</event>
<event>
12    1  0.8488291E-002  0.2276582E+03  0.7818608E-02  0.1128631E+00
         21   -1    0    0  501  502  0.00000000000E+00  0.00000000000E+00  0.35732114193E+03  0.35732114193E+03  0.00000000000E+00 0.  1.
         21   -1    0    0  502  503 -0.00000000000E+00 -0.00000000000E+00 -0.44784435473E+03  0.44784435473E+03  0.00000000000E+00 0. -1.
         -6    2    1    2    0  503 -0.77815262657E+02 -0.12137987866E+03 -0.37699491851E+03  0.44040141288E+03  0.17618157065E+03 0.  0.
        -24    2    3    3    0    0 -0.54030725505E+02 -0.13743985359E+02 -0.26993831649E+03  0.28666658998E+03  0.78758000676E+02 0.  0.
          6    2    1    2  501    0  0.77815262657E+02  0.12137987866E+03  0.28647170571E+03  0.36476408378E+03  0.17377718088E+03 0.  0.
         24    2    5    5    0    0  0.88563510542E+02  0.15178489545E+03  0.24235085333E+03  0.30991219691E+03  0.80184061990E+02 0.  0.
          5    1    5    5  501    0 -0.10748247885E+02 -0.30405016785E+02  0.44120852381E+02  0.54851886869E+02  0.47000000000E+01 0. -1.
        -11    1    6    6    0    0  0.34442965801E+02  0.20969342017E+02  0.10578278969E+03  0.11320790517E+03  0.00000000000E+00 0.  1.
         12    1    6    6    0    0  0.54120544742E+02  0.13081555343E+03  0.13656806364E+03  0.19670429174E+03  0.00000000000E+00 0. -1.
         -5    1    3    3    0  503 -0.23784537152E+02 -0.10763589331E+03 -0.10705660202E+03  0.15373482290E+03  0.47000000000E+01 0.  1.
         11    1    4    4    0    0  0.11733930796E+02 -0.23636331213E+02 -0.11622949388E+03  0.11918748480E+03  0.00000000000E+00 0. -1.
        -12    1    4    4    0    0 -0.65764656301E+02  0.98923458538E+01 -0.15370882261E+03  0.16747910518E+03  0.00000000000E+00 0.  1.
</event>
<event>
12    1  0.8488291E-002  0.2677549E+03  0.7818608E-02  0.1102586E+00
         21   -1    0    0  503  502  0.00000000000E+00  0.00000000000E+00  0.19919230300E+03  0.19919230300E+03  0.00000000000E+00 0.  1.
         21   -1    0    0  501  503 -0.00000000000E+00 -0.00000000000E+00 -0.43729039610E+03  0.43729039610E+03  0.00000000000E+00 0. -1.
          6    2    1    2  501    0  0.20668833677E+03 -0.53939896279E+01  0.14911536540E+02  0.26816982761E+03  0.17012800721E+03 0.  0.
         24    2    3    3    0    0  0.12073342185E+03  0.49447817955E+01  0.74747991156E+02  0.16282454345E+03  0.79520813306E+02 0.  0.
         -6    2    1    2    0  502 -0.20668833677E+03  0.53939896279E+01 -0.25300962964E+03  0.36831287148E+03  0.16997451257E+03 0.  0.
        -24    2    5    5    0    0 -0.19319634621E+03  0.46339787228E+02 -0.16576109874E+03  0.27088090396E+03  0.80171804304E+02 0.  0.
          5    1    3    3  501    0  0.85954914923E+02 -0.10338771423E+02 -0.59836454617E+02  0.10534528416E+03  0.47000000000E+01 0. -1.
        -13    1    4    4    0    0  0.31365450896E+02 -0.34030356748E+02  0.32587423262E+02  0.56602092233E+02  0.00000000000E+00 0.  1.
         14    1    4    4    0    0  0.89367970957E+02  0.38975138544E+02  0.42160567894E+02  0.10622245122E+03  0.00000000000E+00 0. -1.
         -5    1    5    5    0  502 -0.13491990567E+02 -0.40945797600E+02 -0.87248530904E+02  0.97431967523E+02  0.47000000000E+01 0.  1.
         11    1    6    6    0    0 -0.71052155469E+02  0.14341811593E+01 -0.10614362746E+03  0.12773775998E+03  0.00000000000E+00 0. -1.
        -12    1    6    6    0    0 -0.12214419074E+03  0.44905606068E+02 -0.59617471272E+02  0.14314314398E+03  0.00000000000E+00 0.  1.
</event>
<event>
12    1  0.8488291E-002  0.3027871E+03  0.7818608E-02  0.1083900E+00
         21   -1    0    0  501  502  0.00000000000E+00  0.00000000000E+00  0.34668997654E+03  0.34668997654E+03  0.00000000000E+00 0. -1.
         21   -1    0    0  502  503 -0.00000000000E+00 -0.00000000000E+00 -0.55577048789E+03  0.55577048789E+03  0.00000000000E+00 0. -1.
         -6    2    1    2    0  503 -0.20140107745E+02 -0.24774758169E+03 -0.43138115091E+03  0.52683087012E+03  0.17226891819E+03 0.  0.
        -24    2    3    3    0    0  0.24070476556E+01 -0.25810835521E+03 -0.41030441731E+03  0.49393651584E+03  0.94856997131E+02 0.  0.
          6    2    1    2  501    0  0.20140107745E+02  0.24774758169E+03  0.22230063956E+03  0.37562959431E+03  0.17290323768E+03 0.  0.
         24    2    5    5    0    0 -0.18300741636E+02  0.18693428151E+03  0.86688147527E+02  0.22204315489E+03  0.80678280600E+02 0.  0.
          5    1    5    5  501    0  0.38440849381E+02  0.60813300180E+02  0.13561249203E+03  0.15358643943E+03  0.47000000000E+01 0. -1.
        -11    1    6    6    0    0 -0.50211567622E+02  0.11009707125E+03  0.56358659975E+02  0.13348732216E+03  0.00000000000E+00 0.  1.
         12    1    6    6    0    0  0.31910825986E+02  0.76837210259E+02  0.30329487551E+02  0.88555832731E+02  0.00000000000E+00 0. -1.
         -5    1    3    3    0  503 -0.22547155401E+02  0.10360773513E+02 -0.21076733602E+02  0.32894354284E+02  0.47000000000E+01 0.  1.
         11    1    4    4    0    0 -0.44816337094E+02 -0.15717231731E+03 -0.25120258137E+03  0.29969047080E+03  0.00000000000E+00 0. -1.
        -12    1    4    4    0    0  0.47223384750E+02 -0.10093603789E+03 -0.15910183594E+03  0.19424604504E+03  0.00000000000E+00 0.  1.
</event>
<event>
12    1  0.8488291E-002  0.2356696E+03  0.7818608E-02  0.1125208E+00
         21   -1    0    0  503  502  0.00000000000E+00  0.00000000000E+00  0.84016177375E+03  0.84016177375E+03  0.00000000000E+00 0.  1.
         21   -1    0    0  501  503 -0.00000000000E+00 -0.00000000000E+00 -0.64322025522E+02  0.64322025522E+02  0.00000000000E+00 0.  1.
          6    2    1    2  501    0 -0.10740768954E+03 -0.89156940343E+02  0.45853006633E+03  0.50922995322E+03  0.17198823143E+03 0.  0.
         24    2    3    3    0    0 -0.44213814617E+02 -0.47733945361E+02  0.40173819248E+03  0.41458991267E+03  0.79106443778E+02 0.  0.
         -6    2    1    2    0  502  0.10740768954E+03  0.89156940343E+02  0.31730968190E+03  0.39525384605E+03  0.18988100696E+03 0.  0.
        -24    2    5    5    0    0  0.14687540170E+03  0.94605508637E+02  0.22973565453E+03  0.29892790215E+03  0.77825663047E+02 0.  0.
          5    1    3    3  501    0 -0.63193874925E+02 -0.41422994982E+02  0.56791873849E+02  0.94640040557E+02  0.47000000000E+01 0. -1.
        -13    1    4    4    0    0 -0.14518758412E+02 -0.65851475539E+02  0.25224852995E+03  0.26110636154E+03  0.00000000000E+00 0.  1.
         14    1    4    4    0    0 -0.29695056205E+02  0.18117530179E+02  0.14948966253E+03  0.15348355112E+03  0.00000000000E+00 0. -1.
         -5    1    5    5    0  502 -0.39467712156E+02 -0.54485682941E+01  0.87574027365E+02  0.96325943900E+02  0.47000000000E+01 0.  1.
         11    1    6    6    0    0  0.51216812829E+02  0.90725459738E+01  0.11730575460E+03  0.12832035329E+03  0.00000000000E+00 0. -1.
        -12    1    6    6    0    0  0.95658588869E+02  0.85532962663E+02  0.11242989993E+03  0.17060754885E+03  0.00000000000E+00 0.  1.
</event>
<event>
12    1  0.8488291E-002  0.1749168E+03  0.7818608E-02  0.1173736E+00
         21   -1    0    0  501  502  0.00000000000E+00  0.00000000000E+00  0.77273159485E+02  0.77273159485E+02  0.00000000000E+00 0. -1.
         21   -1    0    0  502  503 -0.00000000000E+00 -0.00000000000E+00 -0.43894636842E+03  0.43894636842E+03  0.00000000000E+00 0. -1.
         -6    2    1    2    0  503  0.12080776052E+02  0.18087110531E+02 -0.26727989801E+03  0.31745837022E+03  0.16990639842E+03 0.  0.
        -24    2    3    3    0    0  0.34990246295E+02  0.68465623972E+02 -0.11793049672E+03  0.15811543153E+03  0.71979362527E+02 0.  0.
          6    2    1    2  501    0 -0.12080776052E+02 -0.18087110531E+02 -0.94393310928E+02  0.19876115769E+03  0.17355924620E+03 0.  0.
         24    2    5    5    0    0 -0.39673301655E+02 -0.65089625588E+02 -0.30154376538E+02  0.11438512684E+03  0.79774937128E+02 0.  0.
          5    1    5    5  501    0  0.27592525603E+02  0.47002515058E+02 -0.64238934390E+02  0.84376030853E+02  0.47000000000E+01 0. -1.
        -11    1    6    6    0    0 -0.39024221490E+02  0.52887740384E+01 -0.52595706510E+01  0.39730644057E+02  0.00000000000E+00 0.  1.
         12    1    6    6    0    0 -0.64908016480E+00 -0.70378399627E+02 -0.24894805887E+02  0.74654482781E+02  0.00000000000E+00 0. -1.
         -5    1    3    3    0  503 -0.22909470243E+02 -0.50378513441E+02 -0.14934940129E+03  0.15934293869E+03  0.47000000000E+01 0.  1.
         11    1    4    4    0    0 -0.18078823523E+02  0.41940612457E+02 -0.57475216181E+02  0.73411574757E+02  0.00000000000E+00 0. -1.
        -12    1    4    4    0    0  0.53069069818E+02  0.26525011516E+02 -0.60455280537E+02  0.84703856772E+02  0.00000000000E+00 0.  1.
</event>
<event>
12    1  0.8488291E-002  0.1752282E+03  0.7818608E-02  0.1172538E+00
         21   -1    0    0  503  502  0.00000000000E+00  0.00000000000E+00  0.88718494434E+02  0.88718494434E+02  0.00000000000E+00 0.  1.
         21   -1    0    0  501  503 -0.00000000000E+00 -0.00000000000E+00 -0.37411350290E+03  0.37411350290E+03  0.00000000000E+00 0.  1.
          6    2    1    2  501    0  0.19476273577E+02  0.20422819143E+02 -0.20628891059E+03  0.27057512310E+03  0.17279862799E+03 0.  0.
         24    2    3    3    0    0  0.11311608642E+01  0.72252675739E+02 -0.17761452610E+03  0.20838840811E+03  0.81590931343E+02 0.  0.
         -6    2    1    2    0  502 -0.19476273577E+02 -0.20422819143E+02 -0.79106097875E+02  0.19225687423E+03  0.17294078233E+03 0.  0.
        -24    2    5    5    0    0 -0.73621915877E+02  0.94084183382E+01 -0.67700553552E+02  0.12921855453E+03  0.81273396935E+02 0.  0.
          5    1    3    3  501    0  0.18345112713E+02 -0.51829856596E+02 -0.28674384486E+02  0.62186714987E+02  0.47000000000E+01 0. -1.
        -13    1    4    4    0    0  0.28915009649E+02  0.46403894519E+02 -0.15465393150E+03  0.16403425782E+03  0.00000000000E+00 0.  1.
         14    1    4    4    0    0 -0.27783848784E+02  0.25848781220E+02 -0.22960594598E+02  0.44354150292E+02  0.00000000000E+00 0. -1.
         -5    1    5    5    0  502  0.54145642300E+02 -0.29831237481E+02 -0.11405544323E+02  0.63038319703E+02  0.47000000000E+01 0.  1.
         11    1    6    6    0    0 -0.37655780038E+02  0.28679441873E+02 -0.74088439483E+02  0.87917944821E+02  0.00000000000E+00 0. -1.
        -12    1    6    6    0    0 -0.35966135839E+02 -0.19271023535E+02  0.63878859316E+01  0.41300609705E+02  0.00000000000E+00 0.  1.
</event>
<event>
12    1  0.8488291E-002  0.1741464E+03  0.7818608E-02  0.1176709E+00
         21   -1    0    0  501  502  0.00000000000E+00  0.00000000000E+00  0.26006790664E+03  0.26006790664E+03  0.00000000000E+00 0. -1.
         21   -1    0    0  502  503 -0.00000000000E+00 -0.00000000000E+00 -0.19246411914E+03  0.19246411914E+03  0.00000000000E+00 0. -1.
         -6    2    1    2    0  503  0.11664283236E+02 -0.90220002545E+01 -0.11466079379E+03  0.20850437957E+03  0.17352096898E+03 0.  0.
        -24    2    3    3    0    0 -0.16523810001E+02 -0.49953099862E+02 -0.14349341452E+02  0.96457956220E+02  0.79560575886E+02 0.  0.
          6    2    1    2  501    0 -0.11664283236E+02  0.90220002545E+01  0.18226458129E+03  0.24402764622E+03  0.16159103482E+03 0.  0.
         24    2    5    5    0    0 -0.60434360878E+01  0.58625309133E+02  0.70595862927E+02  0.12161819056E+03  0.79584913275E+02 0.  0.
          5    1    5    5  501    0 -0.56208471481E+01 -0.49603308878E+02  0.11166871836E+03  0.12240945566E+03  0.47000000000E+01 0. -1.
        -11    1    6    6    0    0  0.58662890945E+01 -0.15151461691E+02 -0.32351614493E+01  0.16566424138E+02  0.00000000000E+00 0.  1.
         12    1    6    6    0    0 -0.11909725182E+02  0.73776770823E+02  0.73831024377E+02  0.10505176642E+03  0.00000000000E+00 0. -1.
         -5    1    3    3    0  503  0.28188093237E+02  0.40931099607E+02 -0.10031145234E+03  0.11204642335E+03  0.47000000000E+01 0.  1.
         13    1    4    4    0    0 -0.27432132143E+02 -0.54660688558E+01 -0.36167764003E+02  0.45722061804E+02  0.00000000000E+00 0. -1.
        -14    1    4    4    0    0  0.10908322141E+02 -0.44487031006E+02  0.21818422550E+02  0.50735894416E+02  0.00000000000E+00 0.  1.
</event>
<event>
12    1  0.8488291E-002  0.1942803E+03  0.7818608E-02  0.1155106E+00
         21   -1    0    0  503  502  0.00000000000E+00  0.00000000000E+00  0.52683493149E+03  0.52683493149E+03  0.00000000000E+00 0. -1.
         21   -1    0    0  501  503 -0.00000000000E+00 -0.00000000000E+00 -0.80461219851E+02  0.80461219851E+02  0.00000000000E+00 0.  1.
          6    2    1    2  501    0  0.83540298700E+02  0.18890324228E+02  0.11744790763E+03  0.22527908708E+03  0.17210703127E+03 0.  0.
         24    2    3    3    0    0 -0.30804403542E+01  0.29286816473E+02  0.38366442654E+01  0.81958297771E+02  0.76388716460E+02 0.  0.
         -6    2    1    2    0  502 -0.83540298700E+02 -0.18890324228E+02  0.32892580401E+03  0.38201706426E+03  0.17438184248E+03 0.  0.
        -24    2    5    5    0    0 -0.10407439455E+00 -0.58845828731E+02  0.20718893313E+03  0.22904647363E+03  0.77924262454E+02 0.  0.
          5    1    3    3  501    0  0.86620739054E+02 -0.10396492245E+02  0.11361126336E+03  0.14332078931E+03  0.47000000000E+01 0. -1.
        -11    1    4    4    0    0  0.33064529183E+02  0.31244330938E+02  0.48269868883E+01  0.45746815280E+02  0.00000000000E+00 0.  1.
         12    1    4    4    0    0 -0.36144969537E+02 -0.19575144653E+01 -0.99034262296E+00  0.36211482491E+02  0.00000000000E+00 0. -1.
         -5    1    5    5    0  502 -0.83436224306E+02  0.39955504503E+02  0.12173687087E+03  0.15297059063E+03  0.47000000000E+01 0.  1.
         13    1    6    6    0    0  0.44652579691E+00  0.14445749405E+02  0.87600695708E+02  0.88784913975E+02  0.00000000000E+00 0. -1.
        -14    1    6    6    0    0 -0.55060019145E+00 -0.73291578136E+02  0.11958823743E+03  0.14026155966E+03  0.00000000000E+00 0.  1.
</event>
<event>
12    1  0.8488291E-002  0.4527656E+03  0.7818608E-02  0.1027558E+00
         21   -1    0    0  501  502  0.00000000000E+00  0.00000000000E+00  0.68623077947E+03  0.68623077947E+03  0.00000000000E+00 0.  1.
         21   -1    0    0  502  503 -0.00000000000E+00 -0.00000000000E+00 -0.31870544203E+03  0.31870544203E+03  0.00000000000E+00 0. -1.
         -6    2    1    2    0  503 -0.21600282827E+00 -0.40956713313E+03  0.42592849848E+02  0.45476459274E+03  0.19300621947E+03 0.  0.
        -24    2    3    3    0    0 -0.19758972106E+02 -0.60274189038E+02  0.24569981809E+01  0.10259919832E+03  0.80604986276E+02 0.  0.
          6    2    1    2  501    0  0.21600282827E+00  0.40956713313E+03  0.32493248759E+03  0.55017162876E+03  0.17135465097E+03 0.  0.
         24    2    5    5    0    0 -0.36139765540E+01  0.41931094894E+03  0.29654993937E+03  0.51955676747E+03  0.78502454455E+02 0.  0.
          5    1    5    5  501    0  0.38299793823E+01 -0.97438158107E+01  0.28382548218E+02  0.30614861293E+02  0.47000000000E+01 0. -1.
        -13    1    6    6    0    0  0.13116522770E+02  0.27893708024E+03  0.15444103305E+03  0.31910808606E+03  0.00000000000E+00 0.  1.
         14    1    6    6    0    0 -0.16730499324E+02  0.14037386870E+03  0.14210890632E+03  0.20044868141E+03  0.00000000000E+00 0. -1.
         -5    1    3    3    0  503  0.19542969277E+02 -0.34929294409E+03  0.40135851667E+02  0.35216539442E+03  0.47000000000E+01 0.  1.
         11    1    4    4    0    0 -0.27560062785E+02 -0.77434655858E+02 -0.49590734810E+01  0.82342427693E+02  0.00000000000E+00 0. -1.
        -12    1    4    4    0    0  0.78010906794E+01  0.17160466820E+02  0.74160716619E+01  0.20256770625E+02  0.00000000000E+00 0.  1.
</event>
<event>
12    1  0.8488291E-002  0.1983501E+03  0.7818608E-02  0.1151397E+00
         21   -1    0    0  503  502  0.00000000000E+00  0.00000000000E+00  0.39324143985E+02  0.39324143985E+02  0.00000000000E+00 0. -1.
         21   -1    0    0  501  503 -0.00000000000E+00 -0.00000000000E+00 -0.11886971652E+04  0.11886971652E+04  0.00000000000E+00 0.  1.
          6    2    1    2  501    0 -0.57510640588E+02 -0.82406748817E+02 -0.82146462173E+03  0.84478939959E+03  0.16960736682E+03 0.  0.
         24    2    3    3    0    0 -0.14410522165E+02  0.64469395266E+01 -0.54775385918E+03  0.55377003653E+03  0.79860734634E+02 0.  0.
         -6    2    1    2    0  502  0.57510640588E+02  0.82406748817E+02 -0.32790839949E+03  0.38323190960E+03  0.17101003493E+03 0.  0.
        -24    2    5    5    0    0  0.46423244547E+02 -0.24679627238E+02 -0.82630706635E+02  0.11532584602E+03  0.60893476227E+02 0.  0.
          5    1    3    3  501    0 -0.43100118423E+02 -0.88853688343E+02 -0.27371076255E+03  0.29101936306E+03  0.47000000000E+01 0. -1.
        -13    1    4    4    0    0 -0.37360275067E+02  0.29381017062E+02 -0.27292148696E+03  0.27702919045E+03  0.00000000000E+00 0.  1.
         14    1    4    4    0    0  0.22949752902E+02 -0.22934077535E+02 -0.27483237221E+03  0.27674084608E+03  0.00000000000E+00 0. -1.
         -5    1    5    5    0  502  0.11087396041E+02  0.10708637605E+03 -0.24527769286E+03  0.26790606358E+03  0.47000000000E+01 0.  1.
         13    1    6    6    0    0 -0.50800100559E+01  0.45396079635E+01  0.57683727141E+01  0.89268508668E+01  0.00000000000E+00 0. -1.
        -14    1    6    6    0    0  0.51503254603E+02 -0.29219235202E+02 -0.88399079349E+02  0.10639899516E+03  0.00000000000E+00 0.  1.
</event>
<event>
12    1  0.8488291E-002  0.2255378E+03  0.7818608E-02  0.1131130E+00
         21   -1    0    0  501  502  0.00000000000E+00  0.00000000000E+00  0.19535671463E+03  0.19535671463E+03  0.00000000000E+00 0.  1.
         21   -1    0    0  502  503 -0.00000000000E+00 -0.00000000000E+00 -0.27918093390E+03  0.27918093390E+03  0.00000000000E+00 0. -1.
         -6    2    1    2    0  503  0.14277175413E+01  0.14603583866E+03  0.31211697265E+02  0.22768719325E+03  0.17186850605E+03 0.  0.
        -24    2    3    3    0    0  0.51128249681E+01  0.33083322446E+02 -0.39998081842E+02  0.94028023803E+02  0.78235385255E+02 0.  0.
          6    2    1    2  501    0 -0.14277175413E+01 -0.14603583866E+03 -0.11503591654E+03  0.24685045528E+03  0.16239883198E+03 0.  0.
         24    2    5    5    0    0 -0.32615135776E+02 -0.35158060529E+02 -0.22609362404E+02  0.99096285630E+02  0.83720094694E+02 0.  0.
          5    1    5    5  501    0  0.31187418234E+02 -0.11087777813E+03 -0.92426554136E+02  0.14775416965E+03  0.47000000000E+01 0. -1.
        -11    1    6    6    0    0  0.14213836470E+02  0.77711496549E+01  0.17593489680E+02  0.23915576374E+02  0.00000000000E+00 0.  1.
         12    1    6    6    0    0 -0.46828972246E+02 -0.42929210184E+02 -0.40202852084E+02  0.75180709256E+02  0.00000000000E+00 0. -1.
         -5    1    3    3    0  503 -0.36851074267E+01  0.11295251622E+03  0.71209779108E+02  0.13365916945E+03  0.47000000000E+01 0.  1.
         13    1    4    4    0    0  0.39276565117E+02  0.34926681255E+01 -0.23564167555E+02  0.45936013002E+02  0.00000000000E+00 0. -1.
        -14    1    4    4    0    0 -0.34163740148E+02  0.29590654320E+02 -0.16433914288E+02  0.48092010801E+02  0.00000000000E+00 0.  1.
</event>
<event>
12    1  0.8488291E-002  0.1888102E+03  0.7818608E-02  0.1159718E+00
         21   -1    0    0  501  502  0.00000000000E+00  0.00000000000E+00  0.65575727109E+03  0.65575727109E+03  0.00000000000E+00 0. -1.
         21   -1    0    0  502  503 -0.00000000000E+00 -0.00000000000E+00 -0.91917223765E+02  0.91917223765E+02  0.00000000000E+00 0. -1.
         -6    2    1    2    0  503 -0.72274890315E+02  0.31005955779E+02  0.42596976201E+02  0.19355566733E+03  0.17165157998E+03 0.  0.
        -24    2    3    3    0    0 -0.74727219595E+02  0.80113849407E+01  0.92876928976E+02  0.13801354045E+03  0.69088883156E+02 0.  0.
          6    2    1    2  501    0  0.72274890315E+02 -0.31005955779E+02  0.52124307112E+03  0.55411882752E+03  0.17078731439E+03 0.  0.
         24    2    5    5    0    0 -0.16737553156E+02  0.16398853801E+02  0.28558644109E+03  0.29774689391E+03  0.80898265799E+02 0.  0.
          5    1    5    5  501    0  0.89012443470E+02 -0.47404809580E+02  0.23565663003E+03  0.25637193361E+03  0.47000000000E+01 0. -1.
        -11    1    6    6    0    0 -0.43953358311E+02 -0.10146704973E+02  0.17851519659E+03  0.18412639339E+03  0.00000000000E+00 0.  1.
         12    1    6    6    0    0  0.27215805155E+02  0.26545558774E+02  0.10707124450E+03  0.11362050052E+03  0.00000000000E+00 0. -1.
         -5    1    3    3    0  503  0.24523292808E+01  0.22994570838E+02 -0.50279952775E+02  0.55542126877E+02  0.47000000000E+01 0.  1.
         11    1    4    4    0    0 -0.48799963690E+02  0.62723742903E+01  0.87610793905E+01  0.49975350399E+02  0.00000000000E+00 0. -1.
        -12    1    4    4    0    0 -0.25927255905E+02  0.17390106504E+01  0.84115849585E+02  0.88038190056E+02  0.00000000000E+00 0.  1.
</event>
<event>
12    1  0.8488291E-002  0.2050007E+03  0.7818608E-02  0.1147479E+00
         21   -1    0    0  501  502  0.00000000000E+00  0.00000000000E+00  0.42774041296E+03  0.42774041296E+03  0.00000000000E+00 0. -1.
         21   -1    0    0  502  503 -0.00000000000E+00 -0.00000000000E+00 -0.17856905536E+03  0.17856905536E+03  0.00000000000E+00 0. -1.
         -6    2    1    2    0  503 -0.77943474808E+01  0.10919569801E+03 -0.82577794710E+02  0.22100768146E+03  0.17332296665E+03 0.  0.
        -24    2    3    3    0    0 -0.67346264031E+02  0.32856617375E+02 -0.51745994131E+02  0.11928857842E+03  0.77052193015E+02 0.  0.
          6    2    1    2  501    0  0.77943474808E+01 -0.10919569801E+03  0.33174915232E+03  0.38530178686E+03  0.16252850388E+03 0.  0.
         24    2    5    5    0    0 -0.53285863977E+02 -0.42580728095E+02  0.16808233110E+03  0.19827968972E+03  0.80066619911E+02 0.  0.
          5    1    5    5  501    0  0.61080211457E+02 -0.66614969914E+02  0.16366682122E+03  0.18702209713E+03  0.47000000000E+01 0. -1.
        -11    1    6    6    0    0 -0.81138434848E+01 -0.50077542472E+02  0.48311471828E+02  0.70054214907E+02  0.00000000000E+00 0.  1.
         12    1    6    6    0    0 -0.45172020492E+02  0.74968143769E+01  0.11977085927E+03  0.12822547481E+03  0.00000000000E+00 0. -1.
         -5    1    3    3    0  503  0.59551916550E+02  0.76339080634E+02 -0.30831800579E+02  0.10171910304E+03  0.47000000000E+01 0.  1.
         13    1    4    4    0    0 -0.60685441602E+02  0.46760269290E+02 -0.13155203644E+02  0.77732264790E+02  0.00000000000E+00 0. -1.
        -14    1    4    4    0    0 -0.66608224286E+01 -0.13903651915E+02 -0.38590790487E+02  0.41556313629E+02  0.00000000000E+00 0.  1.
</event>
<event>
12    1  0.8488291E-002  0.2409835E+03  0.7818608E-02  0.1119256E+00
         21   -1    0    0  501  502  0.00000000000E+00  0.00000000000E+00  0.26387285848E+03  0.26387285848E+03  0.00000000000E+00 0.  1.
         21   -1    0    0  502  503 -0.00000000000E+00 -0.00000000000E+00 -0.23394419374E+03  0.23394419374E+03  0.00000000000E+00 0. -1.
         -6    2    1    2    0  503 -0.14513258211E+03 -0.89379120946E+02  0.76920124865E+02  0.25229464010E+03  0.16936288307E+03 0.  0.
        -24    2    3    3    0    0 -0.17015531548E+03 -0.85999055724E+02  0.65319197484E+02  0.22411249075E+03  0.98036431893E+02 0.  0.
          6    2    1    2  501    0  0.14513258211E+03  0.89379120946E+02 -0.46991460126E+02  0.24552241212E+03  0.17035540460E+03 0.  0.
         24    2    5    5    0    0  0.75095238108E+02 -0.64222314556E+01 -0.60052397275E+02  0.12604100454E+03  0.81237334794E+02 0.  0.
          5    1    5    5  501    0  0.70037344005E+02  0.95801352402E+02  0.13060937149E+02  0.11948140758E+03  0.47000000000E+01 0. -1.
        -11    1    6    6    0    0 -0.27170189459E+01 -0.63623702992E+01  0.15878400706E+02  0.17320091130E+02  0.00000000000E+00 0.  1.
         12    1    6    6    0    0  0.77812257054E+02 -0.59861156495E-01 -0.75930797982E+02  0.10872091341E+03  0.00000000000E+00 0. -1.
         -5    1    3    3    0  503  0.25022733365E+02 -0.33800652219E+01  0.11600927382E+02  0.28182149352E+02  0.47000000000E+01 0.  1.
         13    1    4    4    0    0 -0.75564542466E+02  0.53126220352E+00 -0.87227301195E+01  0.76068182168E+02  0.00000000000E+00 0. -1.
        -14    1    4    4    0    0 -0.94590773013E+02 -0.86530317928E+02  0.74041927603E+02  0.14804430858E+03  0.00000000000E+00 0.  1.
</event>
<event>
12    1  0.8488291E-002  0.2041805E+03  0.7818608E-02  0.1146645E+00
         21   -1    0    0  501  502  0.00000000000E+00  0.00000000000E+00  0.99787734336E+03  0.99787734336E+03  0.00000000000E+00 0. -1.
         21   -1    0    0  502  503 -0.00000000000E+00 -0.00000000000E+00 -0.41680706735E+02  0.41680706735E+02  0.00000000000E+00 0. -1.
         -6    2    1    2    0  503 -0.61857220964E+02 -0.90119673447E+02  0.43734531897E+03  0.48265993936E+03  0.17245816221E+03 0.  0.
        -24    2    3    3    0    0 -0.33852403665E+02 -0.17012902852E+02  0.88234348447E+02  0.12484793643E+03  0.79788989771E+02 0.  0.
          6    2    1    2  501    0  0.61857220964E+02  0.90119673447E+02  0.51885131765E+03  0.55689811073E+03  0.17023790582E+03 0.  0.
         24    2    5    5    0    0  0.17379038036E+02  0.11542365470E+03  0.44250280216E+03  0.46486667022E+03  0.81655619150E+02 0.  0.
          5    1    5    5  501    0  0.44478182928E+02 -0.25303981255E+02  0.76348515495E+02  0.92031440509E+02  0.47000000000E+01 0. -1.
        -13    1    6    6    0    0 -0.27534454560E+02  0.12838716699E+02  0.88024447575E+02  0.93119719744E+02  0.00000000000E+00 0.  1.
         14    1    6    6    0    0  0.44913492596E+02  0.10258493800E+03  0.35447835458E+03  0.37174695048E+03  0.00000000000E+00 0. -1.
         -5    1    3    3    0  503 -0.28004817299E+02 -0.73106770595E+02  0.34911097052E+03  0.35781200293E+03  0.47000000000E+01 0.  1.
         11    1    4    4    0    0 -0.37120118517E+02 -0.39551089175E+02  0.86380280909E+02  0.10199874893E+03  0.00000000000E+00 0. -1.
        -12    1    4    4    0    0  0.32677148515E+01  0.22538186323E+02  0.18540675374E+01  0.22849187502E+02  0.00000000000E+00 0.  1.
</event>
<event>
12    1  0.8488291E-002  0.1848972E+03  0.7818608E-02  0.1163482E+00
         21   -1    0    0  503  502  0.00000000000E+00  0.00000000000E+00  0.75703937555E+02  0.75703937555E+02  0.00000000000E+00 0. -1.
         21   -1    0    0  501  503 -0.00000000000E+00 -0.00000000000E+00 -0.82456090187E+03  0.82456090187E+03  0.00000000000E+00 0. -1.
          6    2    1    2  501    0 -0.54037440108E+02  0.37599203002E+02 -0.67937323711E+03  0.70408448494E+03  0.17278084856E+03 0.  0.
         24    2    3    3    0    0 -0.19859083871E+02 -0.11822150796E+01 -0.61904753468E+03  0.62450157975E+03  0.79916156569E+02 0.  0.
         -6    2    1    2    0  502  0.54037440108E+02 -0.37599203002E+02 -0.69483727202E+02  0.19618035448E+03  0.17124543246E+03 0.  0.
        -24    2    5    5    0    0  0.47990032769E+01  0.44413998161E+01 -0.97750843102E+02  0.12537812438E+03  0.78241231331E+02 0.  0.
          5    1    3    3  501    0 -0.34178356237E+02  0.38781418081E+02 -0.60325702438E+02  0.79582905188E+02  0.47000000000E+01 0. -1.
        -11    1    4    4    0    0  0.27419835468E+02 -0.17117105405E+02 -0.22588547952E+03  0.22818653013E+03  0.00000000000E+00 0.  1.
         12    1    4    4    0    0 -0.47278919338E+02  0.15934890326E+02 -0.39316205516E+03  0.39631504962E+03  0.00000000000E+00 0. -1.
         -5    1    5    5    0  502  0.49238436831E+02 -0.42040602818E+02  0.28267115901E+02  0.70802230108E+02  0.47000000000E+01 0.  1.
         13    1    6    6    0    0  0.39675673629E+02  0.91876053950E+01 -0.36272700713E+02  0.54536959833E+02  0.00000000000E+00 0. -1.
        -14    1    6    6    0    0 -0.34876670352E+02 -0.47462055789E+01 -0.61478142389E+02  0.70841164543E+02  0.00000000000E+00 0.  1.
</event>
<event>
12    1  0.8488291E-002  0.2150174E+03  0.7818608E-02  0.1138339E+00
         21   -1    0    0  501  502  0.00000000000E+00  0.00000000000E+00  0.84588387621E+02  0.84588387621E+02  0.00000000000E+00 0. -1.
         21   -1    0    0  502  503 -0.00000000000E+00 -0.00000000000E+00 -0.60846424760E+03  0.60846424760E+03  0.00000000000E+00 0. -1.
         -6    2    1    2    0  503 -0.40839725277E+02 -0.12309036442E+03 -0.14560324830E+03  0.25967821883E+03  0.17150320827E+03 0.  0.
        -24    2    3    3    0    0 -0.24000740183E+02 -0.12984347412E+03 -0.49889751643E+02  0.16214709892E+03  0.79795557933E+02 0.  0.
          6    2    1    2  501    0  0.40839725277E+02  0.12309036442E+03 -0.37827261168E+03  0.43337441639E+03  0.16704518868E+03 0.  0.
         24    2    5    5    0    0  0.88688118207E+02  0.73923126109E+02 -0.21079494128E+03  0.25232816232E+03  0.76842588110E+02 0.  0.
          5    1    5    5  501    0 -0.47848392930E+02  0.49167238309E+02 -0.16747767040E+03  0.18104625407E+03  0.47000000000E+01 0. -1.
        -13    1    6    6    0    0  0.18511365683E+02 -0.15446157757E+02 -0.49102653305E+02  0.54702148134E+02  0.00000000000E+00 0.  1.
         14    1    6    6    0    0  0.70176752524E+02  0.89369283867E+02 -0.16169228797E+03  0.19762601419E+03  0.00000000000E+00 0. -1.
         -5    1    3    3    0  503 -0.16838985094E+02  0.67531097056E+01 -0.95713496660E+02  0.97531119918E+02  0.47000000000E+01 0.  1.
         11    1    4    4    0    0 -0.39831334710E+02 -0.67192606468E+02  0.36973573628E+01  0.78198798202E+02  0.00000000000E+00 0. -1.
        -12    1    4    4    0    0  0.15830594527E+02 -0.62650867656E+02 -0.53587109006E+02  0.83948300714E+02  0.00000000000E+00 0.  1.
</event>
<event>
12    1  0.8488291E-002  0.2031224E+03  0.7818608E-02  0.1147203E+00
         21   -1    0    0  503  502  0.00000000000E+00  0.00000000000E+00  0.93841735602E+02  0.93841735602E+02  0.00000000000E+00 0. -1.
         21   -1    0    0  501  503 -0.00000000000E+00 -0.00000000000E+00 -0.69868735807E+03  0.69868735807E+03  0.00000000000E+00 0.  1.
          6    2    1    2  501    0 -0.86003743211E+02  0.67449765101E+02 -0.54421378797E+03  0.58088497670E+03  0.17120921261E+03 0.  0.
         24    2    3    3    0    0 -0.95678301899E+02  0.10223760350E+03 -0.45068765514E+03  0.48052054920E+03  0.90408908201E+02 0.  0.
         -6    2    1    2    0  502  0.86003743211E+02 -0.67449765101E+02 -0.60631834500E+02  0.21164411697E+03  0.17079490108E+03 0.  0.
        -24    2    5    5    0    0  0.22519628982E+02  0.25482804999E+02 -0.81111127565E+01  0.87357305291E+02  0.80056240215E+02 0.  0.
          5    1    3    3  501    0  0.96745586884E+01 -0.34787838398E+02 -0.93526132827E+02  0.10036442750E+03  0.47000000000E+01 0. -1.
        -13    1    4    4    0    0  0.54867983141E+01  0.50705496470E+02 -0.10631317025E+03  0.11791370784E+03  0.00000000000E+00 0.  1.
         14    1    4    4    0    0 -0.10116510021E+03  0.51532107029E+02 -0.34437448489E+03  0.36260684135E+03  0.00000000000E+00 0. -1.
         -5    1    5    5    0  502  0.63484114229E+02 -0.92932570101E+02 -0.52520721743E+02  0.12428681168E+03  0.47000000000E+01 0.  1.
         11    1    6    6    0    0  0.33314140134E+02  0.17557541680E+02  0.29240859051E+02  0.47677322080E+02  0.00000000000E+00 0. -1.
        -12    1    6    6    0    0 -0.10794511152E+02  0.79252633192E+01 -0.37351971807E+02  0.39679983211E+02  0.00000000000E+00 0.  1.
</event>
<event>
12    1  0.8488291E-002  0.2455639E+03  0.7818608E-02  0.1116411E+00
         21   -1    0    0  503  502  0.00000000000E+00  0.00000000000E+00  0.77566519429E+03  0.77566519429E+03  0.00000000000E+00 0.  1.
         21   -1    0    0  501  503 -0.00000000000E+00 -0.00000000000E+00 -0.79320270560E+02  0.79320270560E+02  0.00000000000E+00 0.  1.
          6    2    1    2  501    0  0.18696142831E+02  0.17198748203E+03  0.27738291663E+03  0.36936132779E+03  0.17192227400E+03 0.  0.
         24    2    3    3    0    0  0.34933051379E+02  0.37819166200E+02  0.17786300801E+03  0.20145934334E+03  0.79372602248E+02 0.  0.
         -6    2    1    2    0  502 -0.18696142831E+02 -0.17198748203E+03  0.41896200710E+03  0.48562413707E+03  0.17427678954E+03 0.  0.
        -24    2    5    5    0    0 -0.12970231186E+02 -0.77853277368E+02  0.71259029612E+02  0.12532775198E+03  0.66331262765E+02 0.  0.
          5    1    3    3  501    0 -0.16236908548E+02  0.13416831583E+03  0.99519908616E+02  0.16790198445E+03  0.47000000000E+01 0. -1.
        -13    1    4    4    0    0  0.32170299249E+02  0.45794325232E+02  0.18314347596E+03  0.19150347559E+03  0.00000000000E+00 0.  1.
         14    1    4    4    0    0  0.27627521297E+01 -0.79751590321E+01 -0.52804679433E+01  0.99558677481E+01  0.00000000000E+00 0. -1.
         -5    1    5    5    0  502 -0.57259116454E+01 -0.94134204661E+02  0.34770297749E+03  0.36029638509E+03  0.47000000000E+01 0.  1.
         13    1    6    6    0    0 -0.75992438946E+01 -0.22522784624E+02 -0.10882847384E+02  0.26143081345E+02  0.00000000000E+00 0. -1.
        -14    1    6    6    0    0 -0.53709872914E+01 -0.55330492744E+02  0.82141876996E+02  0.99184670631E+02  0.00000000000E+00 0.  1.
</event>
<event>
12    1  0.8488291E-002  0.1768034E+03  0.7818608E-02  0.1171130E+00
         21   -1    0    0  503  502  0.00000000000E+00  0.00000000000E+00  0.32603003018E+03  0.32603003018E+03  0.00000000000E+00 0. -1.
         21   -1    0    0  501  503 -0.00000000000E+00 -0.00000000000E+00 -0.16079879574E+03  0.16079879574E+03  0.00000000000E+00 0. -1.
          6    2    1    2  501    0 -0.38743497139E+02  0.66322725230E+00 -0.72669684483E+02  0.19042323709E+03  0.17169341205E+03 0.  0.
         24    2    3    3    0    0 -0.62521285486E+02 -0.19639096979E+02 -0.10358373242E+03  0.14620405632E+03  0.79695866860E+02 0.  0.
         -6    2    1    2    0  502  0.38743497139E+02 -0.66322725230E+00  0.23790091893E+03  0.29640558884E+03  0.17250486204E+03 0.  0.
        -24    2    5    5    0    0  0.67285677529E+02 -0.46225665487E+02  0.20006335332E+03  0.23049380529E+03  0.80236365724E+02 0.  0.
          5    1    3    3  501    0  0.23777788347E+02  0.20302324232E+02  0.30914047936E+02  0.44219180767E+02  0.47000000000E+01 0. -1.
        -11    1    4    4    0    0  0.67248301356E+01 -0.13029123754E+02  0.64567979981E+01  0.16020975206E+02  0.00000000000E+00 0.  1.
         12    1    4    4    0    0 -0.69246115621E+02 -0.66099732249E+01 -0.11004053042E+03  0.13018308112E+03  0.00000000000E+00 0. -1.
         -5    1    5    5    0  502 -0.28542180390E+02  0.45562438234E+02  0.37837565602E+02  0.65911783544E+02  0.47000000000E+01 0.  1.
         11    1    6    6    0    0  0.48161843825E+02  0.11610289073E+02  0.60362967932E+02  0.78090011593E+02  0.00000000000E+00 0. -1.
        -12    1    6    6    0    0  0.19123833703E+02 -0.57835954559E+02  0.13970038539E+03  0.15240379370E+03  0.00000000000E+00 0.  1.
</event>
<event>
12    1  0.8488291E-002  0.2435064E+03  0.7818608E-02  0.1119825E+00
         21   -1    0    0  501  502  0.00000000000E+00  0.00000000000E+00  0.81787541963E+03  0.81787541963E+03  0.00000000000E+00 0.  1.
         21   -1    0    0  502  503 -0.00000000000E+00 -0.00000000000E+00 -0.39484778143E+03  0.39484778143E+03  0.00000000000E+00 0. -1.
         -6    2    1    2    0  503  0.16036972347E+02  0.15169383993E+03 -0.33869802810E+03  0.41714710302E+03  0.18980818149E+03 0.  0.
        -24    2    3    3    0    0 -0.36143632865E+02  0.12663894435E+02 -0.17632913928E+03  0.19706101222E+03  0.79210736392E+02 0.  0.
          6    2    1    2  501    0 -0.16036972347E+02 -0.15169383993E+03  0.76172566631E+03  0.79557609804E+03  0.17160166524E+03 0.  0.
         24    2    5    5    0    0  0.16436628129E+02 -0.95355234416E+02  0.25718382516E+03  0.28683929707E+03  0.82282920126E+02 0.  0.
          5    1    5    5  501    0 -0.32473600476E+02 -0.56338605515E+02  0.50454184114E+03  0.50873680097E+03  0.47000000000E+01 0. -1.
        -11    1    6    6    0    0  0.21828179089E+02 -0.44851389303E+02  0.21531104514E+03  0.22101348982E+03  0.00000000000E+00 0.  1.
         12    1    6    6    0    0 -0.53915509596E+01 -0.50503845113E+02  0.41872780020E+02  0.65825807245E+02  0.00000000000E+00 0. -1.
         -5    1    3    3    0  503  0.52180605212E+02  0.13902994550E+03 -0.16236888882E+03  0.22008609080E+03  0.47000000000E+01 0.  1.
         11    1    4    4    0    0 -0.37581750846E+02  0.42679941707E+02 -0.12926854684E+03  0.14122436979E+03  0.00000000000E+00 0. -1.
        -12    1    4    4    0    0  0.14381179807E+01 -0.30016047272E+02 -0.47060592440E+02  0.55836642431E+02  0.00000000000E+00 0.  1.
</event>
<event>
12    1  0.8488291E-002  0.2830859E+03  0.7818608E-02  0.1094205E+00
         21   -1    0    0  503  502  0.00000000000E+00  0.00000000000E+00  0.33861375989E+04  0.33861375989E+04  0.00000000000E+00 0. -1.
         21   -1    0    0  501  503 -0.00000000000E+00 -0.00000000000E+00 -0.31089488582E+02  0.31089488582E+02  0.00000000000E+00 0.  1.
          6    2    1    2  501    0  0.46029786125E+02 -0.21998795266E+03  0.83291355426E+03  0.87925539342E+03  0.16979875578E+03 0.  0.
         24    2    3    3    0    0 -0.32970066643E+02 -0.13929652972E+03  0.41218157376E+03  0.44360694353E+03  0.80018261155E+02 0.  0.
         -6    2    1    2    0  502 -0.46029786125E+02  0.21998795266E+03  0.25221345560E+04  0.25379716940E+04  0.17211670593E+03 0.  0.
        -24    2    5    5    0    0  0.39198674563E+01  0.90938926427E+02  0.16983740165E+04  0.17026561037E+04  0.79235431716E+02 0.  0.
          5    1    3    3  501    0  0.78999852768E+02 -0.80691422944E+02  0.42073198050E+03  0.43564844989E+03  0.47000000000E+01 0. -1.
        -11    1    4    4    0    0  0.21023498987E+02 -0.53400911440E+02  0.99350875237E+02  0.11473552746E+03  0.00000000000E+00 0.  1.
         12    1    4    4    0    0 -0.53993565630E+02 -0.85895618278E+02  0.31283069852E+03  0.32887141607E+03  0.00000000000E+00 0. -1.
         -5    1    5    5    0  502 -0.49949653582E+02  0.12904902624E+03  0.82376053950E+03  0.83531559036E+03  0.47000000000E+01 0.  1.
         13    1    6    6    0    0 -0.29472912350E+01 -0.28980157274E+01  0.66372245424E+03  0.66373532472E+03  0.00000000000E+00 0. -1.
        -14    1    6    6    0    0  0.68671586912E+01  0.93836942154E+02  0.10346515623E+04  0.10389207789E+04  0.00000000000E+00 0.  1.
</event>
<event>
12    1  0.8488291E-002  0.2042231E+03  0.7818608E-02  0.1147973E+00
         21   -1    0    0  503  502  0.00000000000E+00  0.00000000000E+00  0.52716773377E+03  0.52716773377E+03  0.00000000000E+00 0. -1.
         21   -1    0    0  501  503 -0.00000000000E+00 -0.00000000000E+00 -0.96082853509E+02  0.96082853509E+02  0.00000000000E+00 0. -1.
          6    2    1    2  501    0  0.32306650882E+02  0.87798515638E+02  0.76364093708E+02  0.21803341135E+03  0.18153455488E+03 0.  0.
         24    2    3    3    0    0  0.69727644952E+02  0.77175449266E+02  0.10629446147E+03  0.16872725300E+03  0.79701812577E+02 0.  0.
         -6    2    1    2    0  502 -0.32306650882E+02 -0.87798515638E+02  0.35472078655E+03  0.40521717593E+03  0.17210991900E+03 0.  0.
        -24    2    5    5    0    0 -0.20942055973E+02 -0.10894883529E+03  0.16630221838E+03  0.21521681575E+03  0.79708415623E+02 0.  0.
          5    1    3    3  501    0 -0.37420994070E+02  0.10623066371E+02 -0.29930367759E+02  0.49306158343E+02  0.47000000000E+01 0. -1.
        -11    1    4    4    0    0 -0.12276797714E+02  0.59930571100E+01 -0.37084683429E+01  0.14155890402E+02  0.00000000000E+00 0.  1.
         12    1    4    4    0    0  0.82004442666E+02  0.71182392156E+02  0.11000292981E+03  0.15457136260E+03  0.00000000000E+00 0. -1.
         -5    1    5    5    0  502 -0.11364594909E+02  0.21150319655E+02  0.18841856817E+03  0.19000036018E+03  0.47000000000E+01 0.  1.
         11    1    6    6    0    0 -0.42307045822E+02 -0.81080303920E+02  0.15180776061E+03  0.17722724957E+03  0.00000000000E+00 0. -1.
        -12    1    6    6    0    0  0.21364989849E+02 -0.27868531373E+02  0.14494457778E+02  0.37989566178E+02  0.00000000000E+00 0.  1.
</event>
<event>
12    1  0.8488291E-002  0.1931581E+03  0.7818608E-02  0.1155905E+00
         21   -1    0    0  501  502  0.00000000000E+00  0.00000000000E+00  0.11580018202E+03  0.11580018202E+03  0.00000000000E+00 0.  1.
         21   -1    0    0  502  503 -0.00000000000E+00 -0.00000000000E+00 -0.39111849949E+03  0.39111849949E+03  0.00000000000E+00 0. -1.
         -6    2    1    2    0  503  0.52773719079E+02  0.66438815485E+02 -0.24522245150E+03  0.31142999084E+03  0.17220745293E+03 0.  0.
        -24    2    3    3    0    0 -0.11722729434E+02 -0.19543780500E+02 -0.97753440104E+02  0.12888685072E+03  0.80849882462E+02 0.  0.
          6    2    1    2  501    0 -0.52773719079E+02 -0.66438815485E+02 -0.30095865972E+02  0.19548869068E+03  0.17352488411E+03 0.  0.
         24    2    5    5    0    0 -0.34518883809E+02  0.25734911279E+02  0.14177054223E+02  0.91510729656E+02  0.79494564454E+02 0.  0.
          5    1    5    5  501    0 -0.18254835270E+02 -0.92173726764E+02 -0.44272920195E+02  0.10397796102E+03  0.47000000000E+01 0. -1.
        -13    1    6    6    0    0  0.50952147091E+01  0.42499969206E+02  0.21460583782E+02  0.47882828360E+02  0.00000000000E+00 0.  1.
         14    1    6    6    0    0 -0.39614098518E+02 -0.16765057927E+02 -0.72835295589E+01  0.43627901296E+02  0.00000000000E+00 0. -1.
         -5    1    3    3    0  503  0.64496448513E+02  0.85982595985E+02 -0.14746901139E+03  0.18254314012E+03  0.47000000000E+01 0.  1.
         11    1    4    4    0    0  0.17886824635E+02  0.21252078635E+02 -0.59307886966E+02  0.65490570300E+02  0.00000000000E+00 0. -1.
        -12    1    4    4    0    0 -0.29609554069E+02 -0.40795859135E+02 -0.38445553139E+02  0.63396280418E+02  0.00000000000E+00 0.  1.
</event>
<event>
12    1  0.8488291E-002  0.1906654E+03  0.7818608E-02  0.1157957E+00
         21   -1    0    0  503  502  0.00000000000E+00  0.00000000000E+00  0.79063799420E+03  0.79063799420E+03  0.00000000000E+00 0.  1.
         21   -1    0    0  501  503 -0.00000000000E+00 -0.00000000000E+00 -0.46146756122E+02  0.46146756122E+02  0.00000000000E+00 0.  1.
          6    2    1    2  501    0  0.15293377330E+02  0.81330704426E+02  0.40373709141E+03  0.44631492660E+03  0.17130325115E+03 0.  0.
         24    2    3    3    0    0 -0.43092802623E+02  0.34663352929E+02  0.31768011201E+03  0.33223302002E+03  0.79997427154E+02 0.  0.
         -6    2    1    2    0  502 -0.15293377330E+02 -0.81330704426E+02  0.34075414667E+03  0.39046982373E+03  0.17176939161E+03 0.  0.
        -24    2    5    5    0    0 -0.57244774829E+02 -0.48067297808E+02  0.11644345150E+03  0.15981043861E+03  0.79955422131E+02 0.  0.
          5    1    3    3  501    0  0.58386179953E+02  0.46667351497E+02  0.86056979398E+02  0.11408190658E+03  0.47000000000E+01 0. -1.
        -11    1    4    4    0    0 -0.53285355851E+02  0.87376189983E+01  0.10837124655E+03  0.12107849608E+03  0.00000000000E+00 0.  1.
         12    1    4    4    0    0  0.10192553228E+02  0.25925733931E+02  0.20930886545E+03  0.21115452394E+03  0.00000000000E+00 0. -1.
         -5    1    5    5    0  502  0.41951397499E+02 -0.33263406618E+02  0.22431069517E+03  0.23065938512E+03  0.47000000000E+01 0.  1.
         11    1    6    6    0    0 -0.54959983788E+02 -0.21890803893E+02  0.24234241508E+02  0.63930474537E+02  0.00000000000E+00 0. -1.
        -12    1    6    6    0    0 -0.22847910415E+01 -0.26176493915E+02  0.92209209990E+02  0.95879964073E+02  0.00000000000E+00 0.  1.
</event>
<event>
12    1  0.8488291E-002  0.1811692E+03  0.7818608E-02  0.1166688E+00
         21   -1    0    0  501  502  0.00000000000E+00  0.00000000000E+00  0.15147910406E+04  0.15147910406E+04  0.00000000000E+00 0.  1.
         21   -1    0    0  502  503 -0.00000000000E+00 -0.00000000000E+00 -0.36385407758E+02  0.36385407758E+02  0.00000000000E+00 0.  1.
         -6    2    1    2    0  503  0.41609589231E+02 -0.30938767421E+02  0.24589377300E+03  0.30542760063E+03  0.17359062873E+03 0.  0.
        -24    2    3    3    0    0 -0.42751016098E+02 -0.32705403917E+02  0.14133299339E+03  0.17098475266E+03  0.79771409673E+02 0.  0.
          6    2    1    2  501    0 -0.41609589231E+02  0.30938767421E+02  0.12325118598E+04  0.12457488477E+04  0.17354002914E+03 0.  0.
         24    2    5    5    0    0 -0.61578533963E+02 -0.21863935673E+02  0.48118457777E+03  0.49228905518E+03  0.80870071297E+02 0.  0.
          5    1    5    5  501    0  0.19968944732E+02  0.52802703094E+02  0.75132728202E+03  0.75345979250E+03  0.47000000000E+01 0. -1.
        -13    1    6    6    0    0 -0.23338001880E+02 -0.36587294866E+02  0.38892727202E+03  0.39134091966E+03  0.00000000000E+00 0.  1.
         14    1    6    6    0    0 -0.38240532083E+02  0.14723359193E+02  0.92257305752E+02  0.10094813552E+03  0.00000000000E+00 0. -1.
         -5    1    3    3    0  503  0.84360605329E+02  0.17666364958E+01  0.10456077961E+03  0.13444284796E+03  0.47000000000E+01 0.  1.
         11    1    4    4    0    0 -0.26575144403E+01 -0.49955893280E+02  0.55684183297E+02  0.74855740768E+02  0.00000000000E+00 0. -1.
        -12    1    4    4    0    0 -0.40093501658E+02  0.17250489363E+02  0.85648810089E+02  0.96129011896E+02  0.00000000000E+00 0.  1.
</event>
<event>
12    1  0.8488291E-002  0.2486129E+03  0.7818608E-02  0.1115995E+00
         21   -1    0    0  503  502  0.00000000000E+00  0.00000000000E+00  0.75935146030E+03  0.75935146030E+03  0.00000000000E+00 0.  1.
         21   -1    0    0  501  503 -0.00000000000E+00 -0.00000000000E+00 -0.93310488207E+02  0.93310488207E+02  0.00000000000E+00 0. -1.
          6    2    1    2  501    0 -0.96784895305E+02  0.13355177050E+03  0.16559523678E+03  0.29871414604E+03  0.18602410392E+03 0.  0.
         24    2    3    3    0    0 -0.29120455827E+02  0.62219871883E+02  0.16976268811E+03  0.20019423038E+03  0.80864369169E+02 0.  0.
         -6    2    1    2    0  502  0.96784895305E+02 -0.13355177050E+03  0.50044573532E+03  0.55394780247E+03  0.17090594635E+03 0.  0.
        -24    2    5    5    0    0  0.13983266963E+02 -0.13314578032E+02  0.10859893648E+03  0.13576232225E+03  0.79150927941E+02 0.  0.
          5    1    3    3  501    0 -0.67664439478E+02  0.71331898619E+02 -0.41674513295E+01  0.98519915657E+02  0.47000000000E+01 0. -1.
        -13    1    4    4    0    0 -0.47505446223E+02  0.23152296657E+02  0.49474219194E+02  0.72391260703E+02  0.00000000000E+00 0.  1.
         14    1    4    4    0    0  0.18384990396E+02  0.39067575227E+02  0.12028846891E+03  0.12780296968E+03  0.00000000000E+00 0. -1.
         -5    1    5    5    0  502  0.82801628342E+02 -0.12023719247E+03  0.39184679884E+03  0.41818548022E+03  0.47000000000E+01 0.  1.
         11    1    6    6    0    0  0.24792015286E+02  0.28785488546E+02  0.52009959902E+02  0.64407175856E+02  0.00000000000E+00 0. -1.
        -12    1    6    6    0    0 -0.10808748322E+02 -0.42100066578E+02  0.56588976579E+02  0.71355146391E+02  0.00000000000E+00 0.  1.
</event>
<event>
12    1  0.8488291E-002  0.1808534E+03  0.7818608E-02  0.1167165E+00
         21   -1    0    0  501  502  0.00000000000E+00  0.00000000000E+00  0.22062037839E+04  0.22062037839E+04  0.00000000000E+00 0. -1.
         21   -1    0    0  502  503 -0.00000000000E+00 -0.00000000000E+00 -0.26562306388E+02  0.26562306388E+02  0.00000000000E+00 0. -1.
         -6    2    1    2    0  503 -0.53523236553E+02  0.15518594540E+01  0.34703355605E+03  0.39133138664E+03  0.17274495658E+03 0.  0.
        -24    2    3    3    0    0  0.15920115466E+02 -0.21632799992E+02  0.27799399501E+03  0.29059182856E+03  0.80259089520E+02 0.  0.
          6    2    1    2  501    0  0.53523236553E+02 -0.15518594540E+01  0.18326079215E+04  0.18414347037E+04  0.17193844506E+03 0.  0.
         24    2    5    5    0    0 -0.44252580829E+02  0.23241148444E+02  0.93897658997E+03  0.94211615590E+03  0.58372706009E+02 0.  0.
          5    1    5    5  501    0  0.97775817382E+02 -0.24793007898E+02  0.89363133152E+03  0.89931854778E+03  0.47000000000E+01 0. -1.
        -13    1    6    6    0    0 -0.35776172840E+02 -0.12867953628E+02  0.37541069832E+03  0.37733103661E+03  0.00000000000E+00 0.  1.
         14    1    6    6    0    0 -0.84764079892E+01  0.36109102072E+02  0.56356589165E+03  0.56478511929E+03  0.00000000000E+00 0. -1.
         -5    1    3    3    0  503 -0.69443352019E+02  0.23184659446E+02  0.69039561042E+02  0.10073955808E+03  0.47000000000E+01 0.  1.
         11    1    4    4    0    0 -0.11926421078E+02 -0.41443435166E+02  0.93591018372E+02  0.10304890372E+03  0.00000000000E+00 0. -1.
        -12    1    4    4    0    0  0.27846536543E+02  0.19810635173E+02  0.18440297664E+03  0.18754292483E+03  0.00000000000E+00 0.  1.
</event>
<event>
12    1  0.8488291E-002  0.3131254E+03  0.7818608E-02  0.1078974E+00
         21   -1    0    0  501  502  0.00000000000E+00  0.00000000000E+00  0.26819655591E+04  0.26819655591E+04  0.00000000000E+00 0.  1.
         21   -1    0    0  502  503 -0.00000000000E+00 -0.00000000000E+00 -0.56314021704E+02  0.56314021704E+02  0.00000000000E+00 0.  1.
         -6    2    1    2    0  503  0.10576525212E+03 -0.23764329271E+03  0.50087546859E+03  0.59069768395E+03  0.17431837440E+03 0.  0.
        -24    2    3    3    0    0  0.29558066585E+02 -0.40786385463E+02  0.15420243070E+03  0.18478579417E+03  0.88488369599E+02 0.  0.
          6    2    1    2  501    0 -0.10576525212E+03  0.23764329271E+03  0.21247760688E+04  0.21475818969E+04  0.17255155181E+03 0.  0.
         24    2    5    5    0    0 -0.18230334340E+02  0.37652589545E+02  0.70981389814E+03  0.71587009709E+03  0.82970858314E+02 0.  0.
          5    1    5    5  501    0 -0.87534917784E+02  0.19999070316E+03  0.14149621707E+04  0.14317117998E+04  0.47000000000E+01 0. -1.
        -13    1    6    6    0    0 -0.50624562826E+02  0.24229762567E+02  0.50082567651E+03  0.50396059966E+03  0.00000000000E+00 0.  1.
         14    1    6    6    0    0  0.32394228486E+02  0.13422826979E+02  0.20898822163E+03  0.21190949743E+03  0.00000000000E+00 0. -1.
         -5    1    3    3    0  503  0.76207185540E+02 -0.19685690724E+03  0.34667303790E+03  0.40591188978E+03  0.47000000000E+01 0.  1.
         13    1    4    4    0    0 -0.49676542624E+01 -0.12025500428E+02 -0.87969204598E+01  0.15705924327E+02  0.00000000000E+00 0. -1.
        -14    1    4    4    0    0  0.34525720847E+02 -0.28760885036E+02  0.16299935116E+03  0.16907986984E+03  0.00000000000E+00 0.  1.
</event>
<event>
12    1  0.8488291E-002  0.2413495E+03  0.7818608E-02  0.1119144E+00
         21   -1    0    0  503  502  0.00000000000E+00  0.00000000000E+00  0.22058437604E+03  0.22058437604E+03  0.00000000000E+00 0. -1.
         21   -1    0    0  501  503 -0.00000000000E+00 -0.00000000000E+00 -0.53150311454E+03  0.53150311454E+03  0.00000000000E+00 0.  1.
          6    2    1    2  501    0 -0.16209394146E+03  0.41180906713E+02 -0.42277433090E+03  0.48607758998E+03  0.17193887193E+03 0.  0.
         24    2    3    3    0    0 -0.14350283243E+03  0.81994177883E+02 -0.26989043957E+03  0.32668208607E+03  0.81019922672E+02 0.  0.
         -6    2    1    2    0  502  0.16209394146E+03 -0.41180906713E+02  0.11185559240E+03  0.26600990059E+03  0.17400942712E+03 0.  0.
        -24    2    5    5    0    0  0.61357328635E+01 -0.95571362282E+01  0.56606565551E+02  0.97494113036E+02  0.78560885576E+02 0.  0.
          5    1    3    3  501    0 -0.18591109035E+02 -0.40813271170E+02 -0.15288389133E+03  0.15939550391E+03  0.47000000000E+01 0. -1.
        -13    1    4    4    0    0 -0.66047213139E+02 -0.18051166072E+01 -0.13267883125E+03  0.14821998877E+03  0.00000000000E+00 0.  1.
         14    1    4    4    0    0 -0.77455619288E+02  0.83799294491E+02 -0.13721160832E+03  0.17846209730E+03  0.00000000000E+00 0. -1.
         -5    1    5    5    0  502  0.15595820860E+03 -0.31623770485E+02  0.55249026845E+02  0.16851578756E+03  0.47000000000E+01 0.  1.
         11    1    6    6    0    0  0.38405915838E+02 -0.15309066763E+02  0.48493928776E+02  0.63726313440E+02  0.00000000000E+00 0. -1.
        -12    1    6    6    0    0 -0.32270182975E+02  0.57519305344E+01  0.81126367754E+01  0.33767799596E+02  0.00000000000E+00 0.  1.
</event>
<event>
12    1  0.8488291E-002  0.2380148E+03  0.7818608E-02  0.1121276E+00
         21   -1    0    0  503  502  0.00000000000E+00  0.00000000000E+00  0.15331790393E+04  0.15331790393E+04  0.00000000000E+00 0. -1.
         21   -1    0    0  501  503 -0.00000000000E+00 -0.00000000000E+00 -0.48522430798E+02  0.48522430798E+02  0.00000000000E+00 0. -1.
          6    2    1    2  501    0 -0.13708484859E+03  0.89535972132E+02  0.35483913860E+03  0.42727258809E+03  0.17274867359E+03 0.  0.
         24    2    3    3    0    0 -0.12966840074E+03  0.17676456375E+02  0.17163358947E+03  0.23028234229E+03  0.80283976465E+02 0.  0.
         -6    2    1    2    0  502  0.13708484859E+03 -0.89535972132E+02  0.11298174699E+04  0.11544288821E+04  0.17149222233E+03 0.  0.
        -24    2    5    5    0    0  0.84314907186E+02 -0.85896221616E+01  0.35554400912E+03  0.37413505251E+03  0.79891863886E+02 0.  0.
          5    1    3    3  501    0 -0.74164478480E+01  0.71859515757E+02  0.18320554914E+03  0.19699024580E+03  0.47000000000E+01 0. -1.
        -13    1    4    4    0    0 -0.30952587371E+02 -0.32100532761E+01 -0.78668561825E-01  0.31118696883E+02  0.00000000000E+00 0.  1.
         14    1    4    4    0    0 -0.98715813370E+02  0.20886509651E+02  0.17171225803E+03  0.19916364541E+03  0.00000000000E+00 0. -1.
         -5    1    5    5    0  502  0.52769941403E+02 -0.80946349970E+02  0.77427346083E+03  0.78029382955E+03  0.47000000000E+01 0.  1.
         11    1    6    6    0    0  0.92225266300E+02  0.47552857476E+01  0.33942600475E+03  0.35176430345E+03  0.00000000000E+00 0. -1.
        -12    1    6    6    0    0 -0.79103591142E+01 -0.13344907909E+02  0.16118004370E+02  0.22370749055E+02  0.00000000000E+00 0.  1.
</event>
<event>
12    1  0.8488291E-002  0.3302081E+03  0.7818608E-02  0.1071562E+00
         21   -1    0    0  503  502  0.00000000000E+00  0.00000000000E+00  0.10573384200E+04  0.10573384200E+04  0.00000000000E+00 0.  1.
         21   -1    0    0  501  503 -0.00000000000E+00 -0.00000000000E+00 -0.17228771456E+03  0.17228771456E+03  0.00000000000E+00 0. -1.
          6    2    1    2  501    0 -0.17374751195E+03 -0.21826611955E+03  0.47089218334E+02  0.32895036215E+03  0.16781730966E+03 0.  0.
         24    2    3    3    0    0 -0.91640270249E+02 -0.20738550273E+03  0.32610650239E+02  0.24473809525E+03  0.86177693654E+02 0.  0.
         -6    2    1    2    0  502  0.17374751195E+03  0.21826611955E+03  0.83796148714E+03  0.90067577245E+03  0.17666096426E+03 0.  0.
        -24    2    5    5    0    0  0.40794571768E+02  0.88213589277E+02  0.49816547262E+03  0.51328247564E+03  0.76447545816E+02 0.  0.
          5    1    3    3  501    0 -0.82107241704E+02 -0.10880616822E+02  0.14478568095E+02  0.84212266902E+02  0.47000000000E+01 0. -1.
        -13    1    4    4    0    0 -0.74875946252E+01 -0.38453949268E+02 -0.26113463383E+02  0.47081665832E+02  0.00000000000E+00 0.  1.
         14    1    4    4    0    0 -0.84152675624E+02 -0.16893155346E+03  0.58724113622E+02  0.19765642942E+03  0.00000000000E+00 0. -1.
         -5    1    5    5    0  502  0.13295294018E+03  0.13005253027E+03  0.33979601452E+03  0.38739329682E+03  0.47000000000E+01 0.  1.
         13    1    6    6    0    0 -0.19049909214E+02  0.26589938566E+01  0.79985037192E+02  0.82265274959E+02  0.00000000000E+00 0. -1.
        -14    1    6    6    0    0  0.59844480982E+02  0.85554595420E+02  0.41818043543E+03  0.43101720068E+03  0.00000000000E+00 0.  1.
</event>
<event>
12    1  0.8488291E-002  0.1733440E+03  0.7818608E-02  0.1174528E+00
         21   -1    0    0  501  502  0.00000000000E+00  0.00000000000E+00  0.51070558440E+02  0.51070558440E+02  0.00000000000E+00 0. -1.
         21   -1    0    0  502  503 -0.00000000000E+00 -0.00000000000E+00 -0.66175920154E+03  0.66175920154E+03  0.00000000000E+00 0.  1.
         -6    2    1    2    0  503 -0.93386190164E+01  0.28312172958E+02 -0.42498378135E+03  0.45879344709E+03  0.17026868103E+03 0.  0.
        -24    2    3    3    0    0  0.20760103475E+02  0.41248818694E+01 -0.90688405826E+02  0.12224263927E+03  0.79188884056E+02 0.  0.
          6    2    1    2  501    0  0.93386190164E+01 -0.28312172958E+02 -0.18570486175E+03  0.25403631289E+03  0.17076113037E+03 0.  0.
         24    2    5    5    0    0 -0.22906952703E+02  0.48470679173E+02 -0.35382653399E+02  0.82122847448E+02  0.51167320527E+02 0.  0.
          5    1    5    5  501    0  0.32245571719E+02 -0.76782852131E+02 -0.15032220835E+03  0.17191346544E+03  0.47000000000E+01 0. -1.
        -11    1    6    6    0    0  0.10201904281E+02  0.37981258460E+02 -0.20312614065E+02  0.44263496646E+02  0.00000000000E+00 0.  1.
         12    1    6    6    0    0 -0.33108856984E+02  0.10489420713E+02 -0.15070039334E+02  0.37859350803E+02  0.00000000000E+00 0. -1.
         -5    1    3    3    0  503 -0.30098722491E+02  0.24187291088E+02 -0.33429537553E+03  0.33655080782E+03  0.47000000000E+01 0.  1.
         11    1    4    4    0    0 -0.86033889561E+01 -0.15048077774E+02  0.68142316186E+01  0.18625163053E+02  0.00000000000E+00 0. -1.
        -12    1    4    4    0    0  0.29363492431E+02  0.19172959643E+02 -0.97502637444E+02  0.10361747622E+03  0.00000000000E+00 0.  1.
</event>
<event>
12    1  0.8488291E-002  0.2139411E+03  0.7818608E-02  0.1139040E+00
         21   -1    0    0  503  502  0.00000000000E+00  0.00000000000E+00  0.10871701018E+03  0.10871701018E+03  0.00000000000E+00 0.  1.
         21   -1    0    0  501  503 -0.00000000000E+00 -0.00000000000E+00 -0.41797351089E+03  0.41797351089E+03  0.00000000000E+00 0.  1.
          6    2    1    2  501    0 -0.90399684039E+02  0.84227108372E+02 -0.17637013998E+03  0.27726739525E+03  0.17465529918E+03 0.  0.
         24    2    3    3    0    0 -0.49818764863E+02  0.12204284272E+03 -0.93274311144E+02  0.17724815942E+03  0.73078369614E+02 0.  0.
         -6    2    1    2    0  502  0.90399684039E+02 -0.84227108372E+02 -0.13288636074E+03  0.24942312582E+03  0.17113387206E+03 0.  0.
        -24    2    5    5    0    0  0.15611537640E+02 -0.52001627281E+02 -0.13761492504E+03  0.16771512258E+03  0.79010160124E+02 0.  0.
          5    1    3    3  501    0 -0.40580919176E+02 -0.37815734353E+02 -0.83095828832E+02  0.10001923583E+03  0.47000000000E+01 0. -1.
        -11    1    4    4    0    0 -0.54590725562E+02  0.42484000530E+02 -0.57210709718E+02  0.89766936702E+02  0.00000000000E+00 0.  1.
         12    1    4    4    0    0  0.47719606997E+01  0.79558842195E+02 -0.36063601426E+02  0.87481222718E+02  0.00000000000E+00 0. -1.
         -5    1    5    5    0  502  0.74788146399E+02 -0.32225481091E+02  0.47285643018E+01  0.81708003241E+02  0.47000000000E+01 0.  1.
         13    1    6    6    0    0  0.10484328733E+02  0.95269155781E+01 -0.86235792727E+02  0.87391619830E+02  0.00000000000E+00 0. -1.
        -14    1    6    6    0    0  0.51272089077E+01 -0.61528542859E+02 -0.51379132311E+02  0.80323502753E+02  0.00000000000E+00 0.  1.
</event>
<event>
12    1  0.8488291E-002  0.2685745E+03  0.7818608E-02  0.1102251E+00
         21   -1    0    0  503  502  0.00000000000E+00  0.00000000000E+00  0.66341176912E+02  0.66341176912E+02  0.00000000000E+00 0. -1.
         21   -1    0    0  501  503 -0.00000000000E+00 -0.00000000000E+00 -0.13770734448E+04  0.13770734448E+04  0.00000000000E+00 0. -1.
          6    2    1    2  501    0  0.13420398246E+03 -0.15561650948E+03 -0.98989772323E+03  0.10256850194E+04  0.17293076568E+03 0.  0.
         24    2    3    3    0    0  0.48015546763E+02 -0.17679818218E+02 -0.34332287918E+03  0.35894961749E+03  0.91412033294E+02 0.  0.
         -6    2    1    2    0  502 -0.13420398246E+03  0.15561650948E+03 -0.32083454464E+03  0.41772960226E+03  0.17127757774E+03 0.  0.
        -24    2    5    5    0    0 -0.14446392845E+03  0.17160546844E+03 -0.25092885167E+03  0.34513615069E+03  0.76389858558E+02 0.  0.
          5    1    3    3  501    0  0.86188435695E+02 -0.13793669126E+03 -0.64657484406E+03  0.66673540195E+03  0.47000000000E+01 0. -1.
        -11    1    4    4    0    0  0.67259268335E+02  0.12608163972E+02 -0.24043769391E+03  0.24998611888E+03  0.00000000000E+00 0.  1.
         12    1    4    4    0    0 -0.19243721572E+02 -0.30287982190E+02 -0.10288518526E+03  0.10896349862E+03  0.00000000000E+00 0. -1.
         -5    1    5    5    0  502  0.10259945991E+02 -0.15988958966E+02 -0.69905692971E+02  0.72593451566E+02  0.47000000000E+01 0.  1.
         11    1    6    6    0    0 -0.25894914759E+02  0.40454248416E+02 -0.15017087877E+02  0.50325001278E+02  0.00000000000E+00 0. -1.
        -12    1    6    6    0    0 -0.11856901369E+03  0.13115122003E+03 -0.23591176379E+03  0.29481114941E+03  0.00000000000E+00 0.  1.
</event>
<event>
12    1  0.8488291E-002  0.1750898E+03  0.7818608E-02  0.1172653E+00
         21   -1    0    0  501  502  0.00000000000E+00  0.00000000000E+00  0.10903667326E+04  0.10903667326E+04  0.00000000000E+00 0. -1.
         21   -1    0    0  502  503 -0.00000000000E+00 -0.00000000000E+00 -0.36935413477E+02  0.36935413477E+02  0.00000000000E+00 0. -1.
         -6    2    1    2    0  503 -0.28473223571E+02  0.88273770161E+01  0.80220992604E+03  0.82108549557E+03  0.17248761851E+03 0.  0.
        -24    2    3    3    0    0 -0.76708878870E+02 -0.94165962821E+01  0.68122310858E+03  0.68948222432E+03  0.73129266370E+02 0.  0.
          6    2    1    2  501    0  0.28473223571E+02 -0.88273770161E+01  0.25122139304E+03  0.30621665047E+03  0.17253347982E+03 0.  0.
         24    2    5    5    0    0  0.51468961659E+02  0.16063687682E+02  0.25437732900E+03  0.27185942410E+03  0.79326066860E+02 0.  0.
          5    1    5    5  501    0 -0.22995738088E+02 -0.24891064698E+02 -0.31559359669E+01  0.34357226371E+02  0.47000000000E+01 0. -1.
        -11    1    6    6    0    0 -0.16757984415E+02 -0.14679244327E+01  0.10926870852E+03  0.11055602881E+03  0.00000000000E+00 0.  1.
         12    1    6    6    0    0  0.68226946074E+02  0.17531612115E+02  0.14510862048E+03  0.16130339529E+03  0.00000000000E+00 0. -1.
         -5    1    3    3    0  503  0.48235655299E+02  0.18243973298E+02  0.12098681746E+03  0.13160327125E+03  0.47000000000E+01 0.  1.
         11    1    4    4    0    0 -0.26169068202E+02  0.15818542856E+02  0.80552519601E+02  0.86161214260E+02  0.00000000000E+00 0. -1.
        -12    1    4    4    0    0 -0.50539810668E+02 -0.25235139138E+02  0.60067058898E+03  0.60332101006E+03  0.00000000000E+00 0.  1.
</event>
<event>
12    1  0.8488291E-002  0.2647101E+03  0.7818608E-02  0.1104432E+00
         21   -1    0    0  501  502  0.00000000000E+00  0.00000000000E+00  0.90313909225E+02  0.90313909225E+02  0.00000000000E+00 0.  1.
         21   -1    0    0  502  503 -0.00000000000E+00 -0.00000000000E+00 -0.88216823955E+03  0.88216823955E+03  0.00000000000E+00 0. -1.
         -6    2    1    2    0  503  0.16530943244E+03  0.11404329726E+03 -0.56646755595E+03  0.62526550311E+03  0.17244818159E+03 0.  0.
        -24    2    3    3    0    0  0.22216006722E+02  0.83679712012E+02 -0.28321116842E+03  0.30643334214E+03  0.78720912724E+02 0.  0.
          6    2    1    2  501    0 -0.16530943244E+03 -0.11404329726E+03 -0.22538677437E+03  0.34721664566E+03  0.17154334397E+03 0.  0.
         24    2    5    5    0    0 -0.24317675847E+02  0.26483658795E-01 -0.64346363571E+02  0.10463326978E+03  0.78843621047E+02 0.  0.
          5    1    5    5  501    0 -0.14099175659E+03 -0.11406978092E+03 -0.16104041080E+03  0.24258337589E+03  0.47000000000E+01 0. -1.
        -11    1    6    6    0    0 -0.52552522350E+02 -0.79471276169E+01 -0.40368772814E+02  0.66742507154E+02  0.00000000000E+00 0.  1.
         12    1    6    6    0    0  0.28234846502E+02  0.79736112757E+01 -0.23977590756E+02  0.37890762624E+02  0.00000000000E+00 0. -1.
         -5    1    3    3    0  503  0.14309342572E+03  0.30363585245E+02 -0.28325638753E+03  0.31883216097E+03  0.47000000000E+01 0.  1.
         13    1    4    4    0    0  0.51111114973E+02  0.64661280705E+02 -0.19871124523E+03  0.21512690738E+03  0.00000000000E+00 0. -1.
        -14    1    4    4    0    0 -0.28895108251E+02  0.19018431307E+02 -0.84499923192E+02  0.91306434766E+02  0.00000000000E+00 0.  1.
</event>
<event>
12    1  0.8488291E-002  0.1835102E+03  0.7818608E-02  0.1164617E+00
         21   -1    0    0  501  502  0.00000000000E+00  0.00000000000E+00  0.12696303955E+04  0.12696303955E+04  0.00000000000E+00 0.  1.
         21   -1    0    0  502  503 -0.00000000000E+00 -0.00000000000E+00 -0.26534008104E+02  0.26534008104E+02  0.00000000000E+00 0.  1.
         -6    2    1    2    0  503 -0.40697330420E+02 -0.48501682922E+02  0.66503473468E+03  0.68988927035E+03  0.17224204207E+03 0.  0.
        -24    2    3    3    0    0  0.17451061316E+01  0.94399683641E+01  0.16056283796E+03  0.18030848190E+03  0.81477391420E+02 0.  0.
          6    2    1    2  501    0  0.40697330420E+02  0.48501682922E+02  0.57806165275E+03  0.60627513329E+03  0.17148054385E+03 0.  0.
         24    2    5    5    0    0  0.88989895349E+02  0.13772358564E+02  0.39092083867E+03  0.40985193687E+03  0.83968021984E+02 0.  0.
          5    1    5    5  501    0 -0.48292564929E+02  0.34729324358E+02  0.18714081408E+03  0.19642319642E+03  0.47000000000E+01 0. -1.
        -13    1    6    6    0    0  0.31779324717E+02  0.15067194276E+02  0.35930227470E+02  0.50278495093E+02  0.00000000000E+00 0.  1.
         14    1    6    6    0    0  0.57210570632E+02 -0.12948357125E+01  0.35499061120E+03  0.35957344178E+03  0.00000000000E+00 0. -1.
         -5    1    3    3    0  503 -0.42442436551E+02 -0.57941651286E+02  0.50447189672E+03  0.50958078845E+03  0.47000000000E+01 0.  1.
         13    1    4    4    0    0 -0.72452570659E+01 -0.33655250822E+02  0.45099471955E+02  0.56737395327E+02  0.00000000000E+00 0. -1.
        -14    1    4    4    0    0  0.89903631974E+01  0.43095219187E+02  0.11546336601E+03  0.12357108657E+03  0.00000000000E+00 0.  1.
</event>
<event>
12    1  0.8488291E-002  0.1732589E+03  0.7818608E-02  0.1174693E+00
         21   -1    0    0  503  502  0.00000000000E+00  0.00000000000E+00  0.72592667159E+03  0.72592667159E+03  0.00000000000E+00 0.  1.
         21   -1    0    0  501  503 -0.00000000000E+00 -0.00000000000E+00 -0.66117246502E+02  0.66117246502E+02  0.00000000000E+00 0.  1.
          6    2    1    2  501    0  0.14622656914E+02  0.62085650051E+01  0.87082745036E+02  0.19391243826E+03  0.17252901453E+03 0.  0.
         24    2    3    3    0    0  0.56462976409E+02 -0.40304210394E+02  0.76674425680E+02  0.13031626131E+03  0.79314962821E+02 0.  0.
         -6    2    1    2    0  502 -0.14622656914E+02 -0.62085650051E+01  0.57272668005E+03  0.59813147983E+03  0.17173540331E+03 0.  0.
        -24    2    5    5    0    0 -0.27768435149E+02  0.59312001909E+02  0.36741348530E+03  0.38216538501E+03  0.82272187034E+02 0.  0.
          5    1    3    3  501    0 -0.41840319495E+02  0.46512775399E+02  0.10408319356E+02  0.63596176950E+02  0.47000000000E+01 0. -1.
        -13    1    4    4    0    0  0.47411800902E+02 -0.20677048599E+00  0.75549649242E+02  0.89194568890E+02  0.00000000000E+00 0.  1.
         14    1    4    4    0    0  0.90511755073E+01 -0.40097439908E+02  0.11247764378E+01  0.41121692418E+02  0.00000000000E+00 0. -1.
         -5    1    5    5    0  502  0.13145778235E+02 -0.65520566914E+02  0.20531319475E+03  0.21596609482E+03  0.47000000000E+01 0.  1.
         11    1    6    6    0    0 -0.47579638837E+02  0.11015283739E+02  0.23096738154E+03  0.23607433118E+03  0.00000000000E+00 0. -1.
        -12    1    6    6    0    0  0.19811203688E+02  0.48296718170E+02  0.13644610376E+03  0.14609105383E+03  0.00000000000E+00 0.  1.
</event>
<event>
12    1  0.8488291E-002  0.2076890E+03  0.7818608E-02  0.1143643E+00
         21   -1    0    0  501  502  0.00000000000E+00  0.00000000000E+00  0.23497655449E+03  0.23497655449E+03  0.00000000000E+00 0. -1.
         21   -1    0    0  502  503 -0.00000000000E+00 -0.00000000000E+00 -0.18551470255E+03  0.18551470255E+03  0.00000000000E+00 0. -1.
         -6    2    1    2    0  503  0.18167691248E+02  0.11478853691E+03  0.51393783945E+02  0.21395340128E+03  0.17212862539E+03 0.  0.
        -24    2    3    3    0    0  0.43786515318E+02  0.12499344646E+03  0.80390501544E+02  0.17366241026E+03  0.78456226129E+02 0.  0.
          6    2    1    2  501    0 -0.18167691248E+02 -0.11478853691E+03 -0.19319320051E+01  0.20653785576E+03  0.17072691730E+03 0.  0.
         24    2    5    5    0    0  0.13858317146E+02 -0.85786303089E+02 -0.62006898879E+02  0.13239012198E+03  0.78300358473E+02 0.  0.
          5    1    5    5  501    0 -0.32026008394E+02 -0.29002233826E+02  0.60074966874E+02  0.74147733785E+02  0.47000000000E+01 0. -1.
        -11    1    6    6    0    0  0.36186339947E+02 -0.94225919650E+01 -0.20889968828E+02  0.42832548789E+02  0.00000000000E+00 0.  1.
         12    1    6    6    0    0 -0.22328022801E+02 -0.76363711124E+02 -0.41116930051E+02  0.89557573190E+02  0.00000000000E+00 0. -1.
         -5    1    3    3    0  503 -0.25618824070E+02 -0.10204909545E+02 -0.28996717599E+02  0.40290991016E+02  0.47000000000E+01 0.  1.
         13    1    4    4    0    0  0.50109120404E+02  0.12360346397E+03  0.49758691731E+02  0.14235402227E+03  0.00000000000E+00 0. -1.
        -14    1    4    4    0    0 -0.63226050854E+01  0.13899824884E+01  0.30631809813E+02  0.31308387994E+02  0.00000000000E+00 0.  1.
</event>
<event>
12    1  0.8488291E-002  0.1866999E+03  0.7818608E-02  0.1161924E+00
         21   -1    0    0  501  502  0.00000000000E+00  0.00000000000E+00  0.20824461081E+04  0.20824461081E+04  0.00000000000E+00 0.  1.
         21   -1    0    0  502  503 -0.00000000000E+00 -0.00000000000E+00 -0.18077460100E+02  0.18077460100E+02  0.00000000000E+00 0.  1.
         -6    2    1    2    0  503  0.56607786195E+02 -0.33286684281E+02  0.13410048418E+04  0.13539390095E+04  0.17476959381E+03 0.  0.
        -24    2    3    3    0    0  0.60032530009E+01  0.39892707326E+02  0.46778115387E+03  0.47618178720E+03  0.79387778696E+02 0.  0.
          6    2    1    2  501    0 -0.56607786195E+02  0.33286684281E+02  0.72336380619E+03  0.74658455869E+03  0.17268718063E+03 0.  0.
         24    2    5    5    0    0 -0.21308956073E+02  0.40303027739E+02  0.17951241464E+03  0.20152340379E+03  0.79426504468E+02 0.  0.
          5    1    5    5  501    0 -0.35298830122E+02 -0.70163434575E+01  0.54385139155E+03  0.54506115490E+03  0.47000000000E+01 0. -1.
        -13    1    6    6    0    0  0.25492983671E+01  0.41883191519E+01 -0.78340195820E+01  0.92419046897E+01  0.00000000000E+00 0.  1.
         14    1    6    6    0    0 -0.23858254440E+02  0.36114708587E+02  0.18734643422E+03  0.19228149910E+03  0.00000000000E+00 0. -1.
         -5    1    3    3    0  503  0.50604533194E+02 -0.73179391607E+02  0.87322368794E+03  0.87775722231E+03  0.47000000000E+01 0.  1.
         11    1    4    4    0    0  0.39654603118E+02  0.25702678828E+02  0.34054279965E+03  0.34380592439E+03  0.00000000000E+00 0. -1.
        -12    1    4    4    0    0 -0.33651350117E+02  0.14190028498E+02  0.12723835421E+03  0.13237586282E+03  0.00000000000E+00 0.  1.
</event>
<event>
12    1  0.8488291E-002  0.2180899E+03  0.7818608E-02  0.1135454E+00
         21   -1    0    0  503  502  0.00000000000E+00  0.00000000000E+00  0.20582665938E+03  0.20582665938E+03  0.00000000000E+00 0.  1.
         21   -1    0    0  501  503 -0.00000000000E+00 -0.00000000000E+00 -0.23149331711E+03  0.23149331711E+03  0.00000000000E+00 0. -1.
          6    2    1    2  501    0 -0.11454454526E+03 -0.70031446970E+02  0.28445143053E+01  0.21737430498E+03  0.17093460970E+03 0.  0.
         24    2    3    3    0    0 -0.10308621246E+03 -0.10029027138E+03 -0.34881955387E+02  0.16745170128E+03  0.78348042192E+02 0.  0.
         -6    2    1    2    0  502  0.11454454526E+03  0.70031446970E+02 -0.28511172034E+02  0.21994567150E+03  0.17186726003E+03 0.  0.
        -24    2    5    5    0    0  0.64928584943E+02  0.74015638623E+00 -0.70291041549E+02  0.12491581322E+03  0.80292346437E+02 0.  0.
          5    1    3    3  501    0 -0.11458332794E+02  0.30258824412E+02  0.37726469693E+02  0.49922603705E+02  0.47000000000E+01 0. -1.
        -11    1    4    4    0    0 -0.93775300842E+01 -0.22475264746E+02  0.22183055873E+02  0.32941820893E+02  0.00000000000E+00 0.  1.
         12    1    4    4    0    0 -0.93708682378E+02 -0.77815006636E+02 -0.57065011260E+02  0.13450988038E+03  0.00000000000E+00 0. -1.
         -5    1    5    5    0  502  0.49615960313E+02  0.69291290583E+02  0.41779869515E+02  0.95029858283E+02  0.47000000000E+01 0.  1.
         11    1    6    6    0    0  0.24832056587E+01  0.32581792580E+02 -0.28141222469E+02  0.43123867175E+02  0.00000000000E+00 0. -1.
        -12    1    6    6    0    0  0.62445379284E+02 -0.31841636194E+02 -0.42149819080E+02  0.81791946046E+02  0.00000000000E+00 0.  1.
</event>
<event>
12    1  0.8488291E-002  0.2147821E+03  0.7818608E-02  0.1137890E+00
         21   -1    0    0  501  502  0.00000000000E+00  0.00000000000E+00  0.11818705546E+03  0.11818705546E+03  0.00000000000E+00 0. -1.
         21   -1    0    0  502  503 -0.00000000000E+00 -0.00000000000E+00 -0.73201276837E+03  0.73201276837E+03  0.00000000000E+00 0.  1.
         -6    2    1    2    0  503 -0.12477451612E+03  0.22590010639E+02 -0.59767922567E+03  0.63509983232E+03  0.17335614140E+03 0.  0.
        -24    2    3    3    0    0 -0.87451692486E+02  0.20222147917E+02 -0.18200216934E+03  0.21771738767E+03  0.78862776176E+02 0.  0.
          6    2    1    2  501    0  0.12477451612E+03 -0.22590010639E+02 -0.16146487244E+02  0.21509999151E+03  0.17299800243E+03 0.  0.
         24    2    5    5    0    0  0.13545556983E+03 -0.21882783394E+02  0.34492244187E+02  0.16312926706E+03  0.81205758758E+02 0.  0.
          5    1    5    5  501    0 -0.10681053715E+02 -0.70722724533E+00 -0.50638731431E+02  0.51970724450E+02  0.47000000000E+01 0. -1.
        -11    1    6    6    0    0  0.54098081215E+02  0.30998695378E+02  0.15635343583E+02  0.64280521741E+02  0.00000000000E+00 0.  1.
         12    1    6    6    0    0  0.81357488618E+02 -0.52881478772E+02  0.18856900604E+02  0.98848745322E+02  0.00000000000E+00 0. -1.
         -5    1    3    3    0  503 -0.37322823631E+02  0.23678627217E+01 -0.41567705633E+03  0.41738244464E+03  0.47000000000E+01 0.  1.
         11    1    4    4    0    0 -0.68111150052E+02 -0.18154178592E+02 -0.77702675220E+02  0.10491143264E+03  0.00000000000E+00 0. -1.
        -12    1    4    4    0    0 -0.19340542434E+02  0.38376326510E+02 -0.10429949412E+03  0.11280595504E+03  0.00000000000E+00 0.  1.
</event>
<event>
12    1  0.8488291E-002  0.3305504E+03  0.7818608E-02  0.1070961E+00
         21   -1    0    0  503  502  0.00000000000E+00  0.00000000000E+00  0.58960422753E+03  0.58960422753E+03  0.00000000000E+00 0. -1.
         21   -1    0    0  501  503 -0.00000000000E+00 -0.00000000000E+00 -0.47178453305E+03  0.47178453305E+03  0.00000000000E+00 0.  1.
          6    2    1    2  501    0  0.28171219096E+03  0.61094077276E+01 -0.35484949073E+03  0.48495541238E+03  0.17281350506E+03 0.  0.
         24    2    3    3    0    0  0.10808720672E+03  0.59344921451E+02 -0.15111462422E+03  0.21199087090E+03  0.83065249867E+02 0.  0.
         -6    2    1    2    0  502 -0.28171219096E+03 -0.61094077276E+01  0.47266918521E+03  0.57643334820E+03  0.17163963085E+03 0.  0.
        -24    2    5    5    0    0 -0.11982178929E+03 -0.53586102398E+02  0.15760316127E+03  0.21901031016E+03  0.76798619465E+02 0.  0.
          5    1    3    3  501    0  0.17362498424E+03 -0.53235513723E+02 -0.20373486651E+03  0.27296454148E+03  0.47000000000E+01 0. -1.
        -13    1    4    4    0    0  0.85970408838E+02  0.15582300020E+02 -0.13417289403E+03  0.16011272517E+03  0.00000000000E+00 0.  1.
         14    1    4    4    0    0  0.22116797877E+02  0.43762621431E+02 -0.16941730194E+02  0.51878145734E+02  0.00000000000E+00 0. -1.
         -5    1    5    5    0  502 -0.16189040166E+03  0.47476694670E+02  0.31506602394E+03  0.35742303805E+03  0.47000000000E+01 0.  1.
         11    1    6    6    0    0 -0.96283074440E+02 -0.14016311280E+02  0.13827425751E+03  0.16907589330E+03  0.00000000000E+00 0. -1.
        -12    1    6    6    0    0 -0.23538714850E+02 -0.39569791118E+02  0.19328903765E+02  0.49934416855E+02  0.00000000000E+00 0.  1.
</event>
<event>
12    1  0.8488291E-002  0.4620458E+03  0.7818608E-02  0.1024209E+00
         21   -1    0    0  501  502  0.00000000000E+00  0.00000000000E+00  0.10161140059E+04  0.10161140059E+04  0.00000000000E+00 0.  1.
         21   -1    0    0  502  503 -0.00000000000E+00 -0.00000000000E+00 -0.23616986914E+03  0.23616986914E+03  0.00000000000E+00 0. -1.
         -6    2    1    2    0  503 -0.22738891787E+03  0.36331565964E+03  0.59839099487E+03  0.75584871105E+03  0.17184732396E+03 0.  0.
        -24    2    3    3    0    0 -0.94271513524E+02  0.17101466721E+03  0.38670873180E+03  0.44036275966E+03  0.79010013170E+02 0.  0.
          6    2    1    2  501    0  0.22738891787E+03 -0.36331565964E+03  0.18155314191E+03  0.49643516401E+03  0.17257560724E+03 0.  0.
         24    2    5    5    0    0  0.29647179734E+02 -0.85843174514E+02  0.52384975121E+02  0.13201880829E+03  0.80229509825E+02 0.  0.
          5    1    5    5  501    0  0.19774173814E+03 -0.27747248512E+03  0.12916816679E+03  0.36441635572E+03  0.47000000000E+01 0. -1.
        -13    1    6    6    0    0  0.18060216020E+02 -0.13769430741E+02 -0.19228573200E+02  0.29757463819E+02  0.00000000000E+00 0.  1.
         14    1    6    6    0    0  0.11586963714E+02 -0.72073743773E+02  0.71613548321E+02  0.10226134447E+03  0.00000000000E+00 0. -1.
         -5    1    3    3    0  503 -0.13311740435E+03  0.19230099243E+03  0.21168226307E+03  0.31548595140E+03  0.47000000000E+01 0.  1.
         13    1    4    4    0    0  0.10242618113E+02  0.44400336332E+01  0.42495843006E+02  0.43937703595E+02  0.00000000000E+00 0. -1.
        -14    1    4    4    0    0 -0.10451413164E+03  0.16657463358E+03  0.34421288879E+03  0.39642505606E+03  0.00000000000E+00 0.  1.
</event>
<event>
12    1  0.8488291E-002  0.2156606E+03  0.7818608E-02  0.1137187E+00
         21   -1    0    0  503  502  0.00000000000E+00  0.00000000000E+00  0.61883476858E+02  0.61883476858E+02  0.00000000000E+00 0.  1.
         21   -1    0    0  501  503 -0.00000000000E+00 -0.00000000000E+00 -0.89794253551E+03  0.89794253551E+03  0.00000000000E+00 0.  1.
          6    2    1    2  501    0  0.11910367350E+03  0.54252463462E+02 -0.61200074722E+03  0.64884111137E+03  0.17123334484E+03 0.  0.
         24    2    3    3    0    0  0.13076598965E+03  0.19471961180E+02 -0.57930363674E+03  0.59947630619E+03  0.79374031177E+02 0.  0.
         -6    2    1    2    0  502 -0.11910367350E+03 -0.54252463462E+02 -0.22405831143E+03  0.31098490099E+03  0.17140731282E+03 0.  0.
        -24    2    5    5    0    0 -0.12178959390E+03 -0.63861470111E+02 -0.10221611411E+03  0.18864456331E+03  0.78915427729E+02 0.  0.
          5    1    3    3  501    0 -0.11662316156E+02  0.34780502283E+02 -0.32697110481E+02  0.49364805185E+02  0.47000000000E+01 0. -1.
        -13    1    4    4    0    0  0.12889558939E+03  0.92719173096E+01 -0.41064049418E+03  0.43049466532E+03  0.00000000000E+00 0.  1.
         14    1    4    4    0    0  0.18704002674E+01  0.10200043870E+02 -0.16866314256E+03  0.16898164087E+03  0.00000000000E+00 0. -1.
         -5    1    5    5    0  502  0.26859204010E+01  0.96090066488E+01 -0.12184219732E+03  0.12234033769E+03  0.47000000000E+01 0.  1.
         13    1    6    6    0    0 -0.20139991549E+02 -0.21628984046E+02  0.10245339348E+02  0.31279373216E+02  0.00000000000E+00 0. -1.
        -14    1    6    6    0    0 -0.10164960235E+03 -0.42232486065E+02 -0.11246145346E+03  0.15736519009E+03  0.00000000000E+00 0.  1.
</event>
<event>
12    1  0.8488291E-002  0.2790500E+03  0.7818608E-02  0.1096293E+00
         21   -1    0    0  503  502  0.00000000000E+00  0.00000000000E+00  0.32673586700E+03  0.32673586700E+03  0.00000000000E+00 0. -1.
         21   -1    0    0  501  503 -0.00000000000E+00 -0.00000000000E+00 -0.10285151772E+04  0.10285151772E+04  0.00000000000E+00 0.  1.
          6    2    1    2  501    0  0.12856407013E+03  0.17800523775E+03 -0.94494779362E+03  0.98511614967E+03  0.17121013664E+03 0.  0.
         24    2    3    3    0    0  0.15474022051E+03  0.17024014557E+03 -0.89951050234E+03  0.93189843699E+03  0.79933159734E+02 0.  0.
         -6    2    1    2    0  502 -0.12856407013E+03 -0.17800523775E+03  0.24316848344E+03  0.37013489451E+03  0.17220436696E+03 0.  0.
        -24    2    5    5    0    0 -0.76610213188E+02 -0.20751281706E+02  0.93856605274E+02  0.14710095784E+03  0.80807728517E+02 0.  0.
          5    1    3    3  501    0 -0.26176150379E+02  0.77650921851E+01 -0.45437291271E+02  0.53217712684E+02  0.47000000000E+01 0. -1.
        -11    1    4    4    0    0  0.13191202463E+03  0.17591608125E+03 -0.82164356452E+03  0.85055593409E+03  0.00000000000E+00 0.  1.
         12    1    4    4    0    0  0.22828195879E+02 -0.56759356780E+01 -0.77866937819E+02  0.81342502901E+02  0.00000000000E+00 0. -1.
         -5    1    5    5    0  502 -0.51953856944E+02 -0.15725395605E+03  0.14931187817E+03  0.22303393667E+03  0.47000000000E+01 0.  1.
         13    1    6    6    0    0 -0.68749455591E+02 -0.14689461501E+02  0.10857523328E+03  0.12934778392E+03  0.00000000000E+00 0. -1.
        -14    1    6    6    0    0 -0.78607575973E+01 -0.60618202046E+01 -0.14718628003E+02  0.17753173927E+02  0.00000000000E+00 0.  1.
</event>
<event>
12    1  0.8488291E-002  0.1934537E+03  0.7818608E-02  0.1155386E+00
         21   -1    0    0  503  502  0.00000000000E+00  0.00000000000E+00  0.55412620185E+03  0.55412620185E+03  0.00000000000E+00 0.  1.
         21   -1    0    0  501  503 -0.00000000000E+00 -0.00000000000E+00 -0.86364428497E+02  0.86364428497E+02  0.00000000000E+00 0.  1.
          6    2    1    2  501    0  0.84931426487E+02  0.24032828863E+02  0.84330204638E+02  0.21102105583E+03  0.17212605417E+03 0.  0.
         24    2    3    3    0    0 -0.18330514269E+02 -0.11717175641E+02  0.21163783272E+02  0.84715165159E+02  0.79091425118E+02 0.  0.
         -6    2    1    2    0  502 -0.84931426487E+02 -0.24032828863E+02  0.38343156872E+03  0.42946957451E+03  0.17214361295E+03 0.  0.
        -24    2    5    5    0    0 -0.65615189477E+02  0.48867599714E+02  0.26853312323E+03  0.29195109476E+03  0.80199800924E+02 0.  0.
          5    1    3    3  501    0  0.10326194076E+03  0.35750004503E+02  0.63166421366E+02  0.12630589067E+03  0.47000000000E+01 0. -1.
        -11    1    4    4    0    0  0.11832075802E+02  0.27472091682E+02  0.18542628098E+02  0.35192938154E+02  0.00000000000E+00 0.  1.
         12    1    4    4    0    0 -0.30162590072E+02 -0.39189267323E+02  0.26211551746E+01  0.49522227005E+02  0.00000000000E+00 0. -1.
         -5    1    5    5    0  502 -0.19316237010E+02 -0.72900428576E+02  0.11489844548E+03  0.13751847975E+03  0.47000000000E+01 0.  1.
         13    1    6    6    0    0 -0.21388112729E+01  0.47832084248E+02  0.15043762165E+03  0.15787324284E+03  0.00000000000E+00 0. -1.
        -14    1    6    6    0    0 -0.63476378204E+02  0.10355154657E+01  0.11809550158E+03  0.13407785192E+03  0.00000000000E+00 0.  1.
</event>
<event>
12    1  0.8488291E-002  0.2762638E+03  0.7818608E-02  0.1097788E+00
         21   -1    0    0  501  502  0.00000000000E+00  0.00000000000E+00  0.10317252142E+03  0.10317252142E+03  0.00000000000E+00 0. -1.
         21   -1    0    0  502  503 -0.00000000000E+00 -0.00000000000E+00 -0.91448837422E+03  0.91448837422E+03  0.00000000000E+00 0.  1.
         -6    2    1    2    0  503 -0.15214087140E+03  0.15480281571E+03 -0.62875130387E+03  0.68676770800E+03  0.17091204207E+03 0.  0.
        -24    2    3    3    0    0 -0.17415007494E+03  0.15331610306E+03 -0.50910489316E+03  0.56501398546E+03  0.78860227401E+02 0.  0.
          6    2    1    2  501    0  0.15214087140E+03 -0.15480281571E+03 -0.18256454893E+03  0.33089318765E+03  0.17043981519E+03 0.  0.
         24    2    5    5    0    0  0.83017209774E+01 -0.75226650516E+02 -0.60078381385E+02  0.12583949102E+03  0.80611401618E+02 0.  0.
          5    1    5    5  501    0  0.14383915042E+03 -0.79576165196E+02 -0.12248616754E+03  0.20505369663E+03  0.47000000000E+01 0. -1.
        -13    1    6    6    0    0  0.23277518871E+02 -0.74810131508E+02 -0.72219918661E+02  0.10655569113E+03  0.00000000000E+00 0.  1.
         14    1    6    6    0    0 -0.14975797893E+02 -0.41651900846E+00  0.12141537277E+02  0.19283799887E+02  0.00000000000E+00 0. -1.
         -5    1    3    3    0  503  0.22009203547E+02  0.14867126515E+01 -0.11964641071E+03  0.12175372253E+03  0.47000000000E+01 0.  1.
         11    1    4    4    0    0 -0.23808688315E+02  0.68067928057E+02 -0.15792975422E+03  0.17361423829E+03  0.00000000000E+00 0. -1.
        -12    1    4    4    0    0 -0.15034138663E+03  0.85248175003E+02 -0.35117513894E+03  0.39139974717E+03  0.00000000000E+00 0.  1.
</event>
<event>
12    1  0.8488291E-002  0.1784912E+03  0.7818608E-02  0.1169559E+00
         21   -1    0    0  503  502  0.00000000000E+00  0.00000000000E+00  0.74685133174E+02  0.74685133174E+02  0.00000000000E+00 0. -1.
         21   -1    0    0  501  503 -0.00000000000E+00 -0.00000000000E+00 -0.78230347136E+03  0.78230347136E+03  0.00000000000E+00 0. -1.
          6    2    1    2  501    0  0.40033788306E+02  0.28501359227E+02 -0.64451576745E+03  0.66877475360E+03  0.17159272968E+03 0.  0.
         24    2    3    3    0    0 -0.28144647285E+02 -0.11690371936E+02 -0.22139967142E+03  0.23829479465E+03  0.82691043578E+02 0.  0.
         -6    2    1    2    0  502 -0.40033788306E+02 -0.28501359227E+02 -0.63102570733E+02  0.18821385093E+03  0.17037455081E+03 0.  0.
        -24    2    5    5    0    0 -0.39412212750E+02 -0.62655375369E+02  0.10197442526E+02  0.10720851087E+03  0.76880806397E+02 0.  0.
          5    1    3    3  501    0  0.68178435591E+02  0.40191731163E+02 -0.42311609603E+03  0.43047995895E+03  0.47000000000E+01 0. -1.
        -11    1    4    4    0    0 -0.29535701034E+02 -0.24334854182E+02 -0.36262365187E+02  0.52720981521E+02  0.00000000000E+00 0.  1.
         12    1    4    4    0    0  0.13910537485E+01  0.12644482246E+02 -0.18513730623E+03  0.18557381313E+03  0.00000000000E+00 0. -1.
         -5    1    5    5    0  502 -0.62157555637E+00  0.34154016142E+02 -0.73300013259E+02  0.81005340062E+02  0.47000000000E+01 0.  1.
         11    1    6    6    0    0  0.22384337882E+02 -0.27044929805E+02  0.71071307330E+01  0.35818963104E+02  0.00000000000E+00 0. -1.
        -12    1    6    6    0    0 -0.61796550631E+02 -0.35610445563E+02  0.30903117930E+01  0.71389547765E+02  0.00000000000E+00 0.  1.
</event>
<event>
12    1  0.8488291E-002  0.1992734E+03  0.7818608E-02  0.1150909E+00
         21   -1    0    0  501  502  0.00000000000E+00  0.00000000000E+00  0.19616606350E+02  0.19616606350E+02  0.00000000000E+00 0. -1.
         21   -1    0    0  502  503 -0.00000000000E+00 -0.00000000000E+00 -0.20298283873E+04  0.20298283873E+04  0.00000000000E+00 0.  1.
         -6    2    1    2    0  503  0.41794020230E+02 -0.82872283123E+02 -0.11400612045E+04  0.11573458584E+04  0.17633868097E+03 0.  0.
        -24    2    3    3    0    0  0.37989465747E+02 -0.38172317424E+02 -0.27811888613E+03  0.29422407565E+03  0.79481863015E+02 0.  0.
          6    2    1    2  501    0 -0.41794020230E+02  0.82872283123E+02 -0.87015057644E+03  0.89209913528E+03  0.17339055932E+03 0.  0.
         24    2    5    5    0    0 -0.64582170762E+02  0.95385785047E+02 -0.45354887173E+03  0.47466056747E+03  0.79540998813E+02 0.  0.
          5    1    5    5  501    0  0.22788150532E+02 -0.12513501924E+02 -0.41660170471E+03  0.41743856781E+03  0.47000000000E+01 0. -1.
        -11    1    6    6    0    0 -0.90230581489E+01 -0.14189762426E+02 -0.65753083901E+02  0.67869234404E+02  0.00000000000E+00 0.  1.
         12    1    6    6    0    0 -0.55559112613E+02  0.10957554747E+03 -0.38779578783E+03  0.40679133306E+03  0.00000000000E+00 0. -1.
         -5    1    3    3    0  503  0.38045544827E+01 -0.44699965698E+02 -0.86194231841E+03  0.86312178274E+03  0.47000000000E+01 0.  1.
         13    1    4    4    0    0 -0.12120103795E+02 -0.43827001563E+02 -0.13889480842E+03  0.14614879674E+03  0.00000000000E+00 0. -1.
        -14    1    4    4    0    0  0.50109569543E+02  0.56546841387E+01 -0.13922407771E+03  0.14807527892E+03  0.00000000000E+00 0.  1.
</event>
<event>
12    1  0.8488291E-002  0.2019246E+03  0.7818608E-02  0.1148170E+00
         21   -1    0    0  503  502  0.00000000000E+00  0.00000000000E+00  0.78527640778E+03  0.78527640778E+03  0.00000000000E+00 0.  1.
         21   -1    0    0  501  503 -0.00000000000E+00 -0.00000000000E+00 -0.52895881522E+02  0.52895881522E+02  0.00000000000E+00 0.  1.
          6    2    1    2  501    0  0.98938542034E+02  0.40095257262E+02  0.42444235022E+03  0.46993398152E+03  0.17114372197E+03 0.  0.
         24    2    3    3    0    0  0.10453212036E+03  0.76250007501E+02  0.38852123096E+03  0.41844737265E+03  0.86072230965E+02 0.  0.
         -6    2    1    2    0  502 -0.98938542034E+02 -0.40095257262E+02  0.30793817603E+03  0.36823830778E+03  0.17139739293E+03 0.  0.
        -24    2    5    5    0    0 -0.10025539637E+02  0.33175041800E+02  0.14029991091E+03  0.16477151281E+03  0.79148541305E+02 0.  0.
          5    1    3    3  501    0 -0.55935783296E+01 -0.36154750239E+02  0.35921119267E+02  0.51486608868E+02  0.47000000000E+01 0. -1.
        -11    1    4    4    0    0  0.11095208432E+03  0.50842984956E+02  0.25917861184E+03  0.28647674770E+03  0.00000000000E+00 0.  1.
         12    1    4    4    0    0 -0.64199639554E+01  0.25407022545E+02  0.12934261911E+03  0.13197062496E+03  0.00000000000E+00 0. -1.
         -5    1    5    5    0  502 -0.88913002397E+02 -0.73270299062E+02  0.16763826512E+03  0.20346679497E+03  0.47000000000E+01 0.  1.
         13    1    6    6    0    0 -0.21486797236E+02  0.55589517513E+02  0.82955777026E+02  0.10214469078E+03  0.00000000000E+00 0. -1.
        -14    1    6    6    0    0  0.11461257598E+02 -0.22414475713E+02  0.57344133881E+02  0.62626822032E+02  0.00000000000E+00 0.  1.
</event>
<event>
12    1  0.8488291E-002  0.2063359E+03  0.7818608E-02  0.1144520E+00
         21   -1    0    0  501  502  0.00000000000E+00  0.00000000000E+00  0.47372399954E+03  0.47372399954E+03  0.00000000000E+00 0.  1.
         21   -1    0    0  502  503 -0.00000000000E+00 -0.00000000000E+00 -0.89888839585E+02  0.89888839585E+02  0.00000000000E+00 0. -1.
         -6    2    1    2    0  503 -0.11412888961E+03  0.12179283593E+02  0.19900478755E+03  0.28659879047E+03  0.17135408614E+03 0.  0.
        -24    2    3    3    0    0  0.18854782094E+01 -0.23278613326E+02  0.62599870260E+02  0.10399269130E+03  0.79688689410E+02 0.  0.
          6    2    1    2  501    0  0.11412888961E+03 -0.12179283593E+02  0.18483037240E+03  0.27701404866E+03  0.17146655125E+03 0.  0.
         24    2    5    5    0    0  0.10540425573E+03  0.41776188281E+02  0.17149424724E+03  0.22055827467E+03  0.79877209876E+02 0.  0.
          5    1    5    5  501    0  0.87246338756E+01 -0.53955471874E+02  0.13336125168E+02  0.56455773982E+02  0.47000000000E+01 0. -1.
        -13    1    6    6    0    0  0.55600381583E+02  0.17711582808E+02  0.15046244968E+03  0.16138169463E+03  0.00000000000E+00 0.  1.
         14    1    6    6    0    0  0.49803874151E+02  0.24064605473E+02  0.21031797553E+02  0.59176580040E+02  0.00000000000E+00 0. -1.
         -5    1    3    3    0  503 -0.11601436782E+03  0.35457896918E+02  0.13640491729E+03  0.18260609917E+03  0.47000000000E+01 0.  1.
         11    1    4    4    0    0 -0.93950149563E+01  0.24586571773E+02  0.26498864440E+01  0.26453501011E+02  0.00000000000E+00 0. -1.
        -12    1    4    4    0    0  0.11280493166E+02 -0.47865185098E+02  0.59949983816E+02  0.77539190285E+02  0.00000000000E+00 0.  1.
</event>
<event>
12    1  0.8488291E-002  0.2294111E+03  0.7818608E-02  0.1127254E+00
         21   -1    0    0  501  502  0.00000000000E+00  0.00000000000E+00  0.10135687823E+03  0.10135687823E+03  0.00000000000E+00 0. -1.
         21   -1    0    0  502  503 -0.00000000000E+00 -0.00000000000E+00 -0.56981785504E+03  0.56981785504E+03  0.00000000000E+00 0. -1.
         -6    2    1    2    0  503 -0.30115882316E+02  0.14762622442E+03 -0.13125858735E+03  0.26333299520E+03  0.17150796221E+03 0.  0.
        -24    2    3    3    0    0 -0.48303316459E+02  0.14445387079E+03 -0.49385905174E+02  0.17927306018E+03  0.80620911114E+02 0.  0.
          6    2    1    2  501    0  0.30115882316E+02 -0.14762622442E+03 -0.33720238946E+03  0.40784173807E+03  0.17299989408E+03 0.  0.
         24    2    5    5    0    0  0.23216122041E+02 -0.46003057521E+01 -0.15535136451E+03  0.17633384322E+03  0.79996416634E+02 0.  0.
          5    1    5    5  501    0  0.68997602753E+01 -0.14302591867E+03 -0.18185102495E+03  0.23150789485E+03  0.47000000000E+01 0. -1.
        -11    1    6    6    0    0 -0.28627463752E+02 -0.11668885492E+02 -0.52091313117E+02  0.60573917421E+02  0.00000000000E+00 0.  1.
         12    1    6    6    0    0  0.51843585793E+02  0.70685797403E+01 -0.10326005140E+03  0.11575992580E+03  0.00000000000E+00 0. -1.
         -5    1    3    3    0  503  0.18187434143E+02  0.31723536317E+01 -0.81872682175E+02  0.84059935016E+02  0.47000000000E+01 0.  1.
         13    1    4    4    0    0 -0.19239080428E+02  0.80152612241E+02  0.14959687139E+02  0.83775746515E+02  0.00000000000E+00 0. -1.
        -14    1    4    4    0    0 -0.29064236031E+02  0.64301258551E+02 -0.64345592313E+02  0.95497313666E+02  0.00000000000E+00 0.  1.
</event>
<event>
12    1  0.8488291E-002  0.2528159E+03  0.7818608E-02  0.1111571E+00
         21   -1    0    0  503  502  0.00000000000E+00  0.00000000000E+00  0.86804025883E+02  0.86804025883E+02  0.00000000000E+00 0. -1.
         21   -1    0    0  501  503 -0.00000000000E+00 -0.00000000000E+00 -0.73647063292E+03  0.73647063292E+03  0.00000000000E+00 0. -1.
          6    2    1    2  501    0  0.10090664189E+03 -0.15519777341E+03 -0.31167219422E+03  0.40131714636E+03  0.17218419226E+03 0.  0.
         24    2    3    3    0    0  0.10488363344E+03 -0.51071395706E+02 -0.13137779136E+03  0.19302340978E+03  0.79931524677E+02 0.  0.
         -6    2    1    2    0  502 -0.10090664189E+03  0.15519777341E+03 -0.33799441282E+03  0.42195751245E+03  0.17187035800E+03 0.  0.
        -24    2    5    5    0    0 -0.12870617425E+03  0.10880588066E+03 -0.19892493310E+03  0.27266775425E+03  0.79828417501E+02 0.  0.
          5    1    3    3  501    0 -0.39769915504E+01 -0.10412637771E+03 -0.18029440286E+03  0.20829373658E+03  0.47000000000E+01 0. -1.
        -11    1    4    4    0    0  0.66994864554E+01 -0.39707008203E+02 -0.23125745000E+02  0.46436297236E+02  0.00000000000E+00 0.  1.
         12    1    4    4    0    0  0.98184146988E+02 -0.11364387503E+02 -0.10825204636E+03  0.14658711254E+03  0.00000000000E+00 0. -1.
         -5    1    5    5    0  502  0.27799532360E+02  0.46391892748E+02 -0.13906947972E+03  0.14928975819E+03  0.47000000000E+01 0.  1.
         11    1    6    6    0    0  0.35017367897E+00  0.38552482328E+02 -0.53388441156E+02  0.65853945700E+02  0.00000000000E+00 0. -1.
        -12    1    6    6    0    0 -0.12905634793E+03  0.70253398337E+02 -0.14553649195E+03  0.20681380855E+03  0.00000000000E+00 0.  1.
</event>
<event>
12    1  0.8488291E-002  0.1811939E+03  0.7818608E-02  0.1167248E+00
         21   -1    0    0  503  502  0.00000000000E+00  0.00000000000E+00  0.32966060361E+03  0.32966060361E+03  0.00000000000E+00 0.  1.
         21   -1    0    0  501  503 -0.00000000000E+00 -0.00000000000E+00 -0.11079348597E+03  0.11079348597E+03  0.00000000000E+00 0.  1.
          6    2    1    2  501    0  0.14341526413E+02 -0.55530472221E+02  0.35974597284E+02  0.18473058558E+03  0.17187758688E+03 0.  0.
         24    2    3    3    0    0 -0.34406854059E+02 -0.69894458005E+02  0.62267453037E+02  0.12731862733E+03  0.79143731848E+02 0.  0.
         -6    2    1    2    0  502 -0.14341526413E+02  0.55530472221E+02  0.18289252036E+03  0.25572350400E+03  0.16927942513E+03 0.  0.
        -24    2    5    5    0    0  0.17375125528E+02  0.47965903867E+02  0.19795789992E+03  0.21949886645E+03  0.79936220277E+02 0.  0.
          5    1    3    3  501    0  0.48748380472E+02  0.14363985784E+02 -0.26292855753E+02  0.57411958248E+02  0.47000000000E+01 0. -1.
        -13    1    4    4    0    0  0.12751592793E+02 -0.61347039784E+02  0.41033089971E+02  0.74898443786E+02  0.00000000000E+00 0.  1.
         14    1    4    4    0    0 -0.47158446852E+02 -0.85474182218E+01  0.21234363066E+02  0.52420183542E+02  0.00000000000E+00 0. -1.
         -5    1    5    5    0  502 -0.31716651942E+02  0.75645683542E+01 -0.15065379556E+02  0.36224637555E+02  0.47000000000E+01 0.  1.
         11    1    6    6    0    0  0.13125996296E+02  0.58473421180E+01 -0.25299844215E+01  0.14590545219E+02  0.00000000000E+00 0. -1.
        -12    1    6    6    0    0  0.42491292323E+01  0.42118561749E+02  0.20048788434E+03  0.20490832123E+03  0.00000000000E+00 0.  1.
</event>
<event>
12    1  0.8488291E-002  0.2037069E+03  0.7818608E-02  0.1146807E+00
         21   -1    0    0  503  502  0.00000000000E+00  0.00000000000E+00  0.58381554903E+02  0.58381554903E+02  0.00000000000E+00 0.  1.
         21   -1    0    0  501  503 -0.00000000000E+00 -0.00000000000E+00 -0.87679412345E+03  0.87679412345E+03  0.00000000000E+00 0.  1.
          6    2    1    2  501    0 -0.87576768089E+01  0.10829236391E+03 -0.61492359373E+03  0.64778664570E+03  0.17231534822E+03 0.  0.
         24    2    3    3    0    0  0.55578745521E+02  0.80766783180E+02 -0.33734801800E+03  0.36148763579E+03  0.85190113044E+02 0.  0.
         -6    2    1    2    0  502  0.87576768089E+01 -0.10829236391E+03 -0.20348897482E+03  0.28738903265E+03  0.17140816852E+03 0.  0.
        -24    2    5    5    0    0  0.56156420479E+02 -0.10491130983E+03 -0.10364966208E+03  0.17671812051E+03  0.79536879336E+02 0.  0.
          5    1    3    3  501    0 -0.64336422330E+02  0.27525580727E+02 -0.27757557573E+03  0.28629900991E+03  0.47000000000E+01 0. -1.
        -11    1    4    4    0    0  0.29069838828E+02 -0.10669232123E+02 -0.50332835311E+02  0.59095535822E+02  0.00000000000E+00 0.  1.
         12    1    4    4    0    0  0.26508906693E+02  0.91436015303E+02 -0.28701518269E+03  0.30239209996E+03  0.00000000000E+00 0. -1.
         -5    1    5    5    0  502 -0.47398743671E+02 -0.33810540767E+01 -0.99839312736E+02  0.11067091215E+03  0.47000000000E+01 0.  1.
         11    1    6    6    0    0  0.40022520899E+02 -0.66846770461E+02 -0.11009638224E+03  0.13487589215E+03  0.00000000000E+00 0. -1.
        -12    1    6    6    0    0  0.16133899581E+02 -0.38064539369E+02  0.64467201619E+01  0.41842228357E+02  0.00000000000E+00 0.  1.
</event>
<event>
12    1  0.8488291E-002  0.2094466E+03  0.7818608E-02  0.1142048E+00
         21   -1    0    0  501  502  0.00000000000E+00  0.00000000000E+00  0.15051150820E+03  0.15051150820E+03  0.00000000000E+00 0.  1.
         21   -1    0    0  502  503 -0.00000000000E+00 -0.00000000000E+00 -0.32534068988E+03  0.32534068988E+03  0.00000000000E+00 0.  1.
         -6    2    1    2    0  503  0.92035457977E+02  0.75227807879E+02 -0.16449573688E+03  0.26615083920E+03  0.17218499687E+03 0.  0.
        -24    2    3    3    0    0  0.82434198087E+02 -0.11500581466E+02 -0.12594933578E+03  0.17064213411E+03  0.79547736364E+02 0.  0.
          6    2    1    2  501    0 -0.92035457977E+02 -0.75227807879E+02 -0.10333444789E+02  0.20970135888E+03  0.17244747384E+03 0.  0.
         24    2    5    5    0    0 -0.53679460940E+02 -0.25035710191E+02 -0.64617059271E+02  0.12627935950E+03  0.90900170388E+02 0.  0.
          5    1    5    5  501    0 -0.38355997038E+02 -0.50192097688E+02  0.54283614482E+02  0.83421999379E+02  0.47000000000E+01 0. -1.
        -13    1    6    6    0    0 -0.38651094136E+02 -0.59456341745E+02 -0.41052379356E+02  0.81940597401E+02  0.00000000000E+00 0.  1.
         14    1    6    6    0    0 -0.15028366804E+02  0.34420631554E+02 -0.23564679915E+02  0.44338762104E+02  0.00000000000E+00 0. -1.
         -5    1    3    3    0  503  0.96012598901E+01  0.86728389346E+02 -0.38546401104E+02  0.95508705091E+02  0.47000000000E+01 0.  1.
         11    1    4    4    0    0 -0.14116443847E+02  0.85361866914E+01 -0.19393257417E+02  0.25460536195E+02  0.00000000000E+00 0. -1.
        -12    1    4    4    0    0  0.96550641934E+02 -0.20036768158E+02 -0.10655607836E+03  0.14518159791E+03  0.00000000000E+00 0.  1.
</event>
<event>
12    1  0.8488291E-002  0.1910343E+03  0.7818608E-02  0.1157704E+00
         21   -1    0    0  501  502  0.00000000000E+00  0.00000000000E+00  0.36654372480E+02  0.36654372480E+02  0.00000000000E+00 0.  1.
         21   -1    0    0  502  503 -0.00000000000E+00 -0.00000000000E+00 -0.11752060518E+04  0.11752060518E+04  0.00000000000E+00 0.  1.
         -6    2    1    2    0  503 -0.53353523531E+02 -0.64480602673E+02 -0.80972216066E+03  0.83195197716E+03  0.17172585200E+03 0.  0.
        -24    2    3    3    0    0  0.55209491078E+01  0.75337512123E+01 -0.56561067852E+03  0.57067668861E+03  0.75294123157E+02 0.  0.
          6    2    1    2  501    0  0.53353523531E+02  0.64480602673E+02 -0.32882951862E+03  0.37990844708E+03  0.17087196743E+03 0.  0.
         24    2    5    5    0    0 -0.32049620089E+02  0.47078399060E+02 -0.13117240781E+03  0.16383679904E+03  0.79954626786E+02 0.  0.
          5    1    5    5  501    0  0.85403143620E+02  0.17402203613E+02 -0.19765711081E+03  0.21607164804E+03  0.47000000000E+01 0. -1.
        -11    1    6    6    0    0  0.89444556615E+01  0.51044742204E+02 -0.46272650396E+02  0.69474651265E+02  0.00000000000E+00 0.  1.
         12    1    6    6    0    0 -0.40994075751E+02 -0.39663431434E+01 -0.84899757414E+02  0.94362147780E+02  0.00000000000E+00 0. -1.
         -5    1    3    3    0  503 -0.58874472639E+02 -0.72014353886E+02 -0.24411148214E+03  0.26127528855E+03  0.47000000000E+01 0.  1.
         11    1    4    4    0    0  0.83382210466E+01  0.38824770532E+02 -0.21306739579E+03  0.21673625420E+03  0.00000000000E+00 0. -1.
        -12    1    4    4    0    0 -0.28172719388E+01 -0.31291019320E+02 -0.35254328273E+03  0.35394043441E+03  0.00000000000E+00 0.  1.
</event>
<event>
12    1  0.8488291E-002  0.3915693E+03  0.7818608E-02  0.1046817E+00
         21   -1    0    0  503  502  0.00000000000E+00  0.00000000000E+00  0.67775016641E+03  0.67775016641E+03  0.00000000000E+00 0.  1.
         21   -1    0    0  501  503 -0.00000000000E+00 -0.00000000000E+00 -0.33853342186E+03  0.33853342186E+03  0.00000000000E+00 0.  1.
          6    2    1    2  501    0 -0.34297709709E+03 -0.69963511152E+02 -0.12360052929E+03  0.41061369699E+03  0.17549454490E+03 0.  0.
         24    2    3    3    0    0 -0.32835159332E+03 -0.70566526201E+02 -0.66359218552E+02  0.35134374978E+03  0.79022029589E+02 0.  0.
         -6    2    1    2    0  502  0.34297709709E+03  0.69963511152E+02  0.46281727385E+03  0.60566989128E+03  0.17351658773E+03 0.  0.
        -24    2    5    5    0    0  0.23686938100E+03 -0.15679557451E+02  0.26468757163E+03  0.36510586340E+03  0.83004992221E+02 0.  0.
          5    1    3    3  501    0 -0.14625503766E+02  0.60301504925E+00 -0.57241310735E+02  0.59269947210E+02  0.47000000000E+01 0. -1.
        -13    1    4    4    0    0 -0.26316387682E+03 -0.59378671463E+02 -0.19892465967E+02  0.27051203835E+03  0.00000000000E+00 0.  1.
         14    1    4    4    0    0 -0.65187716500E+02 -0.11187854738E+02 -0.46466752585E+02  0.80831711425E+02  0.00000000000E+00 0. -1.
         -5    1    5    5    0  502  0.10610771609E+03  0.85643068603E+02  0.19812970222E+03  0.24056402789E+03  0.47000000000E+01 0.  1.
         11    1    6    6    0    0  0.16780463968E+02 -0.65091094409E+01 -0.32008421195E+01  0.18281079480E+02  0.00000000000E+00 0. -1.
        -12    1    6    6    0    0  0.22008891703E+03 -0.91704480104E+01  0.26788841375E+03  0.34682478392E+03  0.00000000000E+00 0.  1.
</event>
<event>
12    1  0.8488291E-002  0.1881327E+03  0.7818608E-02  0.1162167E+00
         21   -1    0    0  501  502  0.00000000000E+00  0.00000000000E+00  0.97837118995E+02  0.97837118995E+02  0.00000000000E+00 0. -1.
         21   -1    0    0  502  503 -0.00000000000E+00 -0.00000000000E+00 -0.41791403659E+03  0.41791403659E+03  0.00000000000E+00 0. -1.
         -6    2    1    2    0  503  0.23355330007E+02  0.43959523019E+02 -0.27048874474E+03  0.32948155123E+03  0.18142772793E+03 0.  0.
        -24    2    3    3    0    0 -0.94784972247E+01  0.92448849594E+02 -0.21993406357E+03  0.25197580440E+03  0.80524418563E+02 0.  0.
          6    2    1    2  501    0 -0.23355330007E+02 -0.43959523019E+02 -0.49588172847E+02  0.18626960435E+03  0.17250932588E+03 0.  0.
         24    2    5    5    0    0 -0.78262486681E+02 -0.66672901190E+01 -0.36516367393E+02  0.11845759519E+03  0.80804004804E+02 0.  0.
          5    1    5    5  501    0  0.54907156674E+02 -0.37292232900E+02 -0.13071805454E+02  0.67812009161E+02  0.47000000000E+01 0. -1.
        -13    1    6    6    0    0 -0.32527770167E+02 -0.20288227474E+02 -0.55203345691E+02  0.67209206078E+02  0.00000000000E+00 0.  1.
         14    1    6    6    0    0 -0.45734716513E+02  0.13620937355E+02  0.18686978298E+02  0.51248389115E+02  0.00000000000E+00 0. -1.
         -5    1    3    3    0  503  0.32833827232E+02 -0.48489326575E+02 -0.50554681174E+02  0.77505746825E+02  0.47000000000E+01 0.  1.
         11    1    4    4    0    0  0.22985190188E+02  0.23045311538E+01 -0.72961951307E+02  0.76531537097E+02  0.00000000000E+00 0. -1.
        -12    1    4    4    0    0 -0.32463687413E+02  0.90144318440E+02 -0.14697211226E+03  0.17544426731E+03  0.00000000000E+00 0.  1.
</event>
<event>
12    1  0.8488291E-002  0.2747913E+03  0.7818608E-02  0.1098675E+00
         21   -1    0    0  501  502  0.00000000000E+00  0.00000000000E+00  0.51144252647E+02  0.51144252647E+02  0.00000000000E+00 0. -1.
         21   -1    0    0  502  503 -0.00000000000E+00 -0.00000000000E+00 -0.14763098169E+04  0.14763098169E+04  0.00000000000E+00 0.  1.
         -6    2    1    2    0  503  0.20252417163E+03 -0.64114321683E+02 -0.75317959037E+03  0.80174169191E+03  0.17430880316E+03 0.  0.
        -24    2    3    3    0    0  0.20560471949E+03 -0.12193279677E+02 -0.65210243596E+03  0.68797014221E+03  0.75122252632E+02 0.  0.
          6    2    1    2  501    0 -0.20252417163E+03  0.64114321683E+02 -0.67198597388E+03  0.72571237763E+03  0.17310869308E+03 0.  0.
         24    2    5    5    0    0 -0.20620567651E+03  0.76546628831E+02 -0.67220646603E+03  0.71191910550E+03  0.81161027539E+02 0.  0.
          5    1    5    5  501    0  0.36815048793E+01 -0.12432307147E+02  0.22049215777E+00  0.13793272127E+02  0.47000000000E+01 0. -1.
        -13    1    6    6    0    0 -0.20270781222E+03  0.53901242476E+02 -0.57542347611E+03  0.61246059296E+03  0.00000000000E+00 0.  1.
         14    1    6    6    0    0 -0.34978642912E+01  0.22645386355E+02 -0.96782989928E+02  0.99458512543E+02  0.00000000000E+00 0. -1.
         -5    1    3    3    0  503 -0.30805478575E+01 -0.51921042007E+02 -0.10107715441E+03  0.11377154970E+03  0.47000000000E+01 0.  1.
         11    1    4    4    0    0  0.33366115275E+02  0.12876201351E+02 -0.51822085490E+02  0.62965250371E+02  0.00000000000E+00 0. -1.
        -12    1    4    4    0    0  0.17223860421E+03 -0.25069481028E+02 -0.60028035047E+03  0.62500489184E+03  0.00000000000E+00 0.  1.
</event>
<event>
12    1  0.8488291E-002  0.1837352E+03  0.7818608E-02  0.1164316E+00
         21   -1    0    0  501  502  0.00000000000E+00  0.00000000000E+00  0.10520369984E+04  0.10520369984E+04  0.00000000000E+00 0.  1.
         21   -1    0    0  502  503 -0.00000000000E+00 -0.00000000000E+00 -0.46440500810E+02  0.46440500810E+02  0.00000000000E+00 0. -1.
         -6    2    1    2    0  503 -0.64704309696E+02 -0.92782878866E+01  0.19652623267E+03  0.26880689273E+03  0.17135300153E+03 0.  0.
        -24    2    3    3    0    0 -0.84635321240E+02 -0.29967869729E+01  0.76483867767E+02  0.14686854008E+03  0.92457923968E+02 0.  0.
          6    2    1    2  501    0  0.64704309696E+02  0.92782878866E+01  0.80907026494E+03  0.82967060649E+03  0.17171455196E+03 0.  0.
         24    2    5    5    0    0  0.20494772958E+02 -0.59204893188E+02  0.48098320825E+03  0.49157648351E+03  0.79858233317E+02 0.  0.
          5    1    5    5  501    0  0.44209536738E+02  0.68483181075E+02  0.32808705669E+03  0.33809412298E+03  0.47000000000E+01 0. -1.
        -13    1    6    6    0    0  0.16328500353E+02 -0.13713816182E+02  0.38162161900E+03  0.38221688707E+03  0.00000000000E+00 0.  1.
         14    1    6    6    0    0  0.41662726043E+01 -0.45491077006E+02  0.99361589252E+02  0.10935959644E+03  0.00000000000E+00 0. -1.
         -5    1    3    3    0  503  0.19931011545E+02 -0.62815009137E+01  0.12004236490E+03  0.12193835264E+03  0.47000000000E+01 0.  1.
         13    1    4    4    0    0 -0.22019119533E+02  0.87149472130E+01 -0.20172626941E+02  0.31108307694E+02  0.00000000000E+00 0. -1.
        -14    1    4    4    0    0 -0.62616201707E+02 -0.11711734186E+02  0.96656494707E+02  0.11576023239E+03  0.00000000000E+00 0.  1.
</event>
<event>
12    1  0.8488291E-002  0.1745323E+03  0.7818608E-02  0.1173664E+00
         21   -1    0    0  503  502  0.00000000000E+00  0.00000000000E+00  0.13492161756E+03  0.13492161756E+03  0.00000000000E+00 0.  1.
         21   -1    0    0  501  503 -0.00000000000E+00 -0.00000000000E+00 -0.54392458220E+03  0.54392458220E+03  0.00000000000E+00 0.  1.
          6    2    1    2  501    0 -0.45647963899E+01  0.12867864040E+02 -0.46460812470E+03  0.49567021154E+03  0.17216802775E+03 0.  0.
         24    2    3    3    0    0 -0.64783862343E+02 -0.13414525253E+02 -0.32986442773E+03  0.34568669990E+03  0.79447186846E+02 0.  0.
         -6    2    1    2    0  502  0.45647963899E+01 -0.12867864040E+02  0.55605160058E+02  0.18317598822E+03  0.17399738373E+03 0.  0.
        -24    2    5    5    0    0  0.38763767127E+02  0.50171881739E+02  0.41526699846E+02  0.10993752709E+03  0.79636334066E+02 0.  0.
          5    1    3    3  501    0  0.60219065953E+02  0.26282389293E+02 -0.13474369697E+03  0.14998351164E+03  0.47000000000E+01 0. -1.
        -11    1    4    4    0    0  0.12591251858E+02 -0.22155113360E+02 -0.77456086104E+02  0.81540382302E+02  0.00000000000E+00 0.  1.
         12    1    4    4    0    0 -0.77375114201E+02  0.87405881062E+01 -0.25240834163E+03  0.26414631760E+03  0.00000000000E+00 0. -1.
         -5    1    5    5    0  502 -0.34198970737E+02 -0.63039745779E+02  0.14078460212E+02  0.73238461134E+02  0.47000000000E+01 0.  1.
         13    1    6    6    0    0  0.52278056812E+02  0.46964709553E+02  0.45324430858E+01  0.70421745277E+02  0.00000000000E+00 0. -1.
        -14    1    6    6    0    0 -0.13514289685E+02  0.32071721855E+01  0.36994256760E+02  0.39515781813E+02  0.00000000000E+00 0.  1.
</event>
<event>
12    1  0.8488291E-002  0.2312935E+03  0.7818608E-02  0.1126267E+00
         21   -1    0    0  501  502  0.00000000000E+00  0.00000000000E+00  0.31898116878E+04  0.31898116878E+04  0.00000000000E+00 0. -1.
         21   -1    0    0  502  503 -0.00000000000E+00 -0.00000000000E+00 -0.28623675104E+02  0.28623675104E+02  0.00000000000E+00 0. -1.
         -6    2    1    2    0  503  0.63464603312E+02 -0.13775235687E+03  0.54158373554E+03  0.58890545086E+03  0.17462307908E+03 0.  0.
        -24    2    3    3    0    0  0.10901966059E+03 -0.98346418270E+02  0.37734576470E+03  0.41390747285E+03  0.85861898200E+02 0.  0.
          6    2    1    2  501    0 -0.63464603312E+02  0.13775235687E+03  0.26196042771E+04  0.26295299120E+04  0.17057995713E+03 0.  0.
         24    2    5    5    0    0 -0.13495145327E+02  0.13020097589E+02  0.14466923045E+04  0.14489369810E+04  0.78409879045E+02 0.  0.
          5    1    5    5  501    0 -0.49969457985E+02  0.12473225928E+03  0.11729119727E+04  0.11805929310E+04  0.47000000000E+01 0. -1.
        -13    1    6    6    0    0  0.22537629230E+02  0.31024553567E+02  0.86650060921E+03  0.86734870347E+03  0.00000000000E+00 0.  1.
         14    1    6    6    0    0 -0.36032774557E+02 -0.18004455978E+02  0.58019169526E+03  0.58158827750E+03  0.00000000000E+00 0. -1.
         -5    1    3    3    0  503 -0.45555057274E+02 -0.39405938601E+02  0.16423797084E+03  0.17499797801E+03  0.47000000000E+01 0.  1.
         13    1    4    4    0    0  0.77818807458E+02 -0.18638031329E+02  0.13554019556E+03  0.15739849942E+03  0.00000000000E+00 0. -1.
        -14    1    4    4    0    0  0.31200853128E+02 -0.79708386940E+02  0.24180556914E+03  0.25650897343E+03  0.00000000000E+00 0.  1.
</event>
<event>
12    1  0.8488291E-002  0.2472808E+03  0.7818608E-02  0.1115514E+00
         21   -1    0    0  503  502  0.00000000000E+00  0.00000000000E+00  0.43282645769E+02  0.43282645769E+02  0.00000000000E+00 0. -1.
         21   -1    0    0  501  503 -0.00000000000E+00 -0.00000000000E+00 -0.17276178904E+04  0.17276178904E+04  0.00000000000E+00 0. -1.
          6    2    1    2  501    0  0.11210581649E+03 -0.13300314027E+03 -0.12342895974E+04  0.12588163409E+04  0.17575613867E+03 0.  0.
         24    2    3    3    0    0  0.27330465555E+02  0.98022430534E+01 -0.44243628137E+03  0.44972178410E+03  0.75211579567E+02 0.  0.
         -6    2    1    2    0  502 -0.11210581649E+03  0.13300314027E+03 -0.45004564716E+03  0.51208419526E+03  0.17155637296E+03 0.  0.
        -24    2    5    5    0    0 -0.11527723195E+03  0.15348027081E+03 -0.44333208871E+03  0.48980118339E+03  0.80726852040E+02 0.  0.
          5    1    3    3  501    0  0.84775350933E+02 -0.14280538332E+03 -0.79185331606E+03  0.80909455676E+03  0.47000000000E+01 0. -1.
        -13    1    4    4    0    0  0.28227679054E+02 -0.10477675386E+02 -0.63866856701E+02  0.70608490503E+02  0.00000000000E+00 0.  1.
         14    1    4    4    0    0 -0.89721349959E+00  0.20279918439E+02 -0.37856942467E+03  0.37911329359E+03  0.00000000000E+00 0. -1.
         -5    1    5    5    0  502  0.31714154609E+01 -0.20477130534E+02 -0.67135584434E+01  0.22283011868E+02  0.47000000000E+01 0.  1.
         11    1    6    6    0    0 -0.37979795371E+02  0.11550705088E+03 -0.24223543206E+03  0.27103938497E+03  0.00000000000E+00 0. -1.
        -12    1    6    6    0    0 -0.77297436578E+02  0.37973219922E+02 -0.20109665665E+03  0.21876179842E+03  0.00000000000E+00 0.  1.
</event>
<event>
12    1  0.8488291E-002  0.1831077E+03  0.7818608E-02  0.1165481E+00
         21   -1    0    0  503  502  0.00000000000E+00  0.00000000000E+00  0.91445298455E+03  0.91445298455E+03  0.00000000000E+00 0.  1.
         21   -1    0    0  501  503 -0.00000000000E+00 -0.00000000000E+00 -0.11458600252E+03  0.11458600252E+03  0.00000000000E+00 0. -1.
          6    2    1    2  501    0 -0.27318824407E+02  0.51502980470E+02 -0.26782015466E+02  0.18235309747E+03  0.17069417284E+03 0.  0.
         24    2    3    3    0    0 -0.16867112900E+02  0.56222283588E+02  0.44984848541E+02  0.10952396275E+03  0.80786243561E+02 0.  0.
         -6    2    1    2    0  502  0.27318824407E+02 -0.51502980470E+02  0.82664899750E+03  0.84668588960E+03  0.17357867211E+03 0.  0.
        -24    2    5    5    0    0 -0.10970972321E+02 -0.51827309521E+02  0.24403997346E+03  0.26280098775E+03  0.81868298296E+02 0.  0.
          5    1    3    3  501    0 -0.10451711507E+02 -0.47193031181E+01 -0.71766864007E+02  0.72829134725E+02  0.47000000000E+01 0. -1.
        -13    1    4    4    0    0  0.27409455128E+02 -0.72210562105E+00  0.86100807279E+01  0.28739052821E+02  0.00000000000E+00 0.  1.
         14    1    4    4    0    0 -0.44276568027E+02  0.56944389209E+02  0.36374767813E+02  0.80784909928E+02  0.00000000000E+00 0. -1.
         -5    1    5    5    0  502  0.38289796728E+02  0.32432905075E+00  0.58260902403E+03  0.58388490185E+03  0.47000000000E+01 0.  1.
         11    1    6    6    0    0 -0.17131048683E+02 -0.55568646493E+02  0.24789758396E+03  0.25462631332E+03  0.00000000000E+00 0. -1.
        -12    1    6    6    0    0  0.61600763611E+01  0.37413369721E+01 -0.38576105004E+01  0.81746744208E+01  0.00000000000E+00 0.  1.
</event>
<event>
12    1  0.8488291E-002  0.2448603E+03  0.7818608E-02  0.1116768E+00
         21   -1    0    0  501  502  0.00000000000E+00  0.00000000000E+00  0.90222333417E+02  0.90222333417E+02  0.00000000000E+00 0. -1.
         21   -1    0    0  502  503 -0.00000000000E+00 -0.00000000000E+00 -0.68445591632E+03  0.68445591632E+03  0.00000000000E+00 0. -1.
         -6    2    1    2    0  503 -0.84885364375E+02  0.15012292414E+03 -0.36714629178E+03  0.44072433881E+03  0.17233434311E+03 0.  0.
        -24    2    3    3    0    0 -0.12701156100E+03  0.10701829456E+03 -0.26634267549E+03  0.32318249694E+03  0.76965274924E+02 0.  0.
          6    2    1    2  501    0  0.84885364375E+02 -0.15012292414E+03 -0.22708729112E+03  0.33395391093E+03  0.17382220627E+03 0.  0.
         24    2    5    5    0    0  0.52196892110E+02 -0.12931817322E+03 -0.24349398723E+03  0.29161428933E+03  0.79384296008E+02 0.  0.
          5    1    5    5  501    0  0.32688472265E+02 -0.20804750928E+02  0.16406696104E+02  0.42339621600E+02  0.47000000000E+01 0. -1.
        -11    1    6    6    0    0  0.28325956243E+02 -0.65217907294E+01 -0.84175300291E+02  0.89052651451E+02  0.00000000000E+00 0.  1.
         12    1    6    6    0    0  0.23870935867E+02 -0.12279638249E+03 -0.15931868694E+03  0.20256163787E+03  0.00000000000E+00 0. -1.
         -5    1    3    3    0  503  0.42126196623E+02  0.43104629580E+02 -0.10080361629E+03  0.11754184187E+03  0.47000000000E+01 0.  1.
         13    1    4    4    0    0 -0.79628089537E+02  0.99799738371E+02 -0.22989544711E+03  0.26296869971E+03  0.00000000000E+00 0. -1.
        -14    1    4    4    0    0 -0.47383471460E+02  0.72185561933E+01 -0.36447228377E+02  0.60213797235E+02  0.00000000000E+00 0.  1.
</event>
<event>
12    1  0.8488291E-002  0.1803812E+03  0.7818608E-02  0.1167953E+00
         21   -1    0    0  501  502  0.00000000000E+00  0.00000000000E+00  0.17524770430E+03  0.17524770430E+03  0.00000000000E+00 0. -1.
         21   -1    0    0  502  503 -0.00000000000E+00 -0.00000000000E+00 -0.18641415708E+03  0.18641415708E+03  0.00000000000E+00 0. -1.
         -6    2    1    2    0  503  0.43266064887E+02  0.35292697533E+02  0.17161274816E+02  0.17906983363E+03  0.16927483301E+03 0.  0.
        -24    2    3    3    0    0  0.86034383658E+02  0.56694490338E+02  0.73957566457E+01  0.13003289683E+03  0.78978963241E+02 0.  0.
          6    2    1    2  501    0 -0.43266064887E+02 -0.35292697533E+02 -0.28327727596E+02  0.18259202775E+03  0.17152218976E+03 0.  0.
         24    2    5    5    0    0 -0.28672769703E+02 -0.81759793762E+02  0.12957979044E+02  0.11857050896E+03  0.79901594322E+02 0.  0.
          5    1    5    5  501    0 -0.14593295184E+02  0.46467096229E+02 -0.41285706639E+02  0.64021518796E+02  0.47000000000E+01 0. -1.
        -11    1    6    6    0    0  0.19565518546E+02 -0.50707692865E+02  0.25201482126E+02  0.59909885102E+02  0.00000000000E+00 0.  1.
         12    1    6    6    0    0 -0.48238288250E+02 -0.31052100897E+02 -0.12243503083E+02  0.58660623855E+02  0.00000000000E+00 0. -1.
         -5    1    3    3    0  503 -0.42768318771E+02 -0.21401792805E+02  0.97655181700E+01  0.49036936801E+02  0.47000000000E+01 0.  1.
         13    1    4    4    0    0  0.75411038973E+02  0.13295446925E+02  0.27062721191E+02  0.81215667123E+02  0.00000000000E+00 0. -1.
        -14    1    4    4    0    0  0.10623344685E+02  0.43399043413E+02 -0.19666964546E+02  0.48817229703E+02  0.00000000000E+00 0.  1.
</event>
<event>
12    1  0.8488291E-002  0.2178796E+03  0.7818608E-02  0.1137575E+00
         21   -1    0    0  503  502  0.00000000000E+00  0.00000000000E+00  0.12665842524E+03  0.12665842524E+03  0.00000000000E+00 0.  1.
         21   -1    0    0  501  503 -0.00000000000E+00 -0.00000000000E+00 -0.94357668235E+03  0.94357668235E+03  0.00000000000E+00 0. -1.
          6    2    1    2  501    0  0.11924168489E+03  0.56701205032E+02 -0.82660444409E+03  0.85214033253E+03  0.15948239172E+03 0.  0.
         24    2    3    3    0    0  0.10940364359E+03 -0.67160852590E+01 -0.44934983404E+03  0.46943722231E+03  0.80260633629E+02 0.  0.
         -6    2    1    2    0  502 -0.11924168489E+03 -0.56701205032E+02  0.96861869781E+01  0.21809477507E+03  0.17331446168E+03 0.  0.
        -24    2    5    5    0    0 -0.15471854845E+02 -0.10648195264E+02  0.51725269991E+02  0.96940196793E+02  0.79806865895E+02 0.  0.
          5    1    3    3  501    0  0.98380412992E+01  0.63417290292E+02 -0.37725461005E+03  0.38270311022E+03  0.47000000000E+01 0. -1.
        -11    1    4    4    0    0  0.79360299611E+01 -0.29331465762E+02 -0.13368742114E+03  0.13709719919E+03  0.00000000000E+00 0.  1.
         12    1    4    4    0    0  0.10146761363E+03  0.22615380503E+02 -0.31566241290E+03  0.33234002312E+03  0.00000000000E+00 0. -1.
         -5    1    5    5    0  502 -0.10376983005E+03 -0.46053009769E+02 -0.42039083013E+02  0.12115457828E+03  0.47000000000E+01 0.  1.
         13    1    6    6    0    0  0.32059803523E+02  0.37479415900E+01  0.18810369290E+02  0.37359176395E+02  0.00000000000E+00 0. -1.
        -14    1    6    6    0    0 -0.47531658368E+02 -0.14396136854E+02  0.32914900701E+02  0.59581020398E+02  0.00000000000E+00 0.  1.
</event>
<event>
12    1  0.8488291E-002  0.1760243E+03  0.7818608E-02  0.1173140E+00
         21   -1    0    0  503  502  0.00000000000E+00  0.00000000000E+00  0.19483296421E+03  0.19483296421E+03  0.00000000000E+00 0.  1.
         21   -1    0    0  501  503 -0.00000000000E+00 -0.00000000000E+00 -0.15549661307E+03  0.15549661307E+03  0.00000000000E+00 0.  1.
          6    2    1    2  501    0  0.21326840321E+02 -0.25951507115E+02  0.36726817206E+02  0.17428598419E+03  0.16702823217E+03 0.  0.
         24    2    3    3    0    0 -0.46354761081E+02 -0.16803850861E+01 -0.15798634199E+01  0.92680970165E+02  0.80222681913E+02 0.  0.
         -6    2    1    2    0  502 -0.21326840321E+02  0.25951507115E+02  0.26095339342E+01  0.17604359310E+03  0.17278953141E+03 0.  0.
        -24    2    5    5    0    0  0.21779161017E+02  0.32201458633E+01 -0.65939449839E+02  0.91806455734E+02  0.59964264987E+02 0.  0.
          5    1    3    3  501    0  0.67681601402E+02 -0.24271122029E+02  0.38306680626E+02  0.81605014022E+02  0.47000000000E+01 0. -1.
        -11    1    4    4    0    0  0.12299336285E+02 -0.13042464925E+02 -0.23045636600E+02  0.29197276083E+02  0.00000000000E+00 0.  1.
         12    1    4    4    0    0 -0.58654097366E+02  0.11362079839E+02  0.21465773180E+02  0.63483694082E+02  0.00000000000E+00 0. -1.
         -5    1    5    5    0  502 -0.43106001339E+02  0.22731361252E+02  0.68548983773E+02  0.84237137369E+02  0.47000000000E+01 0.  1.
         13    1    6    6    0    0  0.17223205055E+02 -0.22881283975E+02 -0.57091707534E+02  0.63872177182E+02  0.00000000000E+00 0. -1.
        -14    1    6    6    0    0  0.45559559626E+01  0.26101429839E+02 -0.88477423044E+01  0.27934278552E+02  0.00000000000E+00 0.  1.
</event>
<event>
12    1  0.8488291E-002  0.4139011E+03  0.7818608E-02  0.1039134E+00
         21   -1    0    0  503  502  0.00000000000E+00  0.00000000000E+00  0.14240364483E+03  0.14240364483E+03  0.00000000000E+00 0. -1.
         21   -1    0    0  501  503 -0.00000000000E+00 -0.00000000000E+00 -0.12321047337E+04  0.12321047337E+04  0.00000000000E+00 0.  1.
          6    2    1    2  501    0  0.25915678297E+03 -0.27182395842E+03 -0.43573330949E+03  0.60098056922E+03  0.17396443617E+03 0.  0.
         24    2    3    3    0    0  0.13978110138E+03 -0.20922348972E+03 -0.36448507088E+03  0.44844279180E+03  0.70273363859E+02 0.  0.
         -6    2    1    2    0  502 -0.25915678297E+03  0.27182395842E+03 -0.65396777940E+03  0.77352780933E+03  0.17210727114E+03 0.  0.
        -24    2    5    5    0    0 -0.81430734293E+02  0.17045631478E+03 -0.38868094487E+03  0.43847387019E+03  0.74162916609E+02 0.  0.
          5    1    3    3  501    0  0.11937568159E+03 -0.62600468699E+02 -0.71248238617E+02  0.15253777743E+03  0.47000000000E+01 0. -1.
        -11    1    4    4    0    0  0.40621066375E+02 -0.21370142739E+02 -0.41573462656E+02  0.61928239369E+02  0.00000000000E+00 0.  1.
         12    1    4    4    0    0  0.99160035006E+02 -0.18785334698E+03 -0.32291160822E+03  0.38651455243E+03  0.00000000000E+00 0. -1.
         -5    1    5    5    0  502 -0.17772604868E+03  0.10136764364E+03 -0.26528683453E+03  0.33505393914E+03  0.47000000000E+01 0.  1.
         13    1    6    6    0    0 -0.11505896101E-01  0.25615474353E+02 -0.11892011455E+03  0.12164763172E+03  0.00000000000E+00 0. -1.
        -14    1    6    6    0    0 -0.81419228397E+02  0.14484084042E+03 -0.26976083032E+03  0.31682623847E+03  0.00000000000E+00 0.  1.
</event>
<event>
12    1  0.8488291E-002  0.3183209E+03  0.7818608E-02  0.1076599E+00
         21   -1    0    0  501  502  0.00000000000E+00  0.00000000000E+00  0.15673260857E+03  0.15673260857E+03  0.00000000000E+00 0. -1.
         21   -1    0    0  502  503 -0.00000000000E+00 -0.00000000000E+00 -0.19508886474E+04  0.19508886474E+04  0.00000000000E+00 0. -1.
         -6    2    1    2    0  503 -0.21106155870E+03  0.16335976150E+03 -0.17590698001E+04  0.17873725664E+04  0.17070657891E+03 0.  0.
        -24    2    3    3    0    0 -0.69462527396E+02  0.11101043256E+03 -0.64585477210E+03  0.66395789381E+03  0.81014438612E+02 0.  0.
          6    2    1    2  501    0  0.21106155870E+03 -0.16335976150E+03 -0.35086238683E+02  0.32024868958E+03  0.17347848799E+03 0.  0.
         24    2    5    5    0    0  0.20974723346E+03 -0.90037399154E+02 -0.43740565814E+02  0.24625623288E+03  0.81414126191E+02 0.  0.
          5    1    5    5  501    0  0.13143252361E+01 -0.73322362343E+02  0.86543271315E+01  0.73992456700E+02  0.47000000000E+01 0. -1.
        -13    1    6    6    0    0  0.13796222149E+03 -0.50006896199E+02 -0.66295035413E+02  0.16102576175E+03  0.00000000000E+00 0.  1.
         14    1    6    6    0    0  0.71785011971E+02 -0.40030502955E+02  0.22554469599E+02  0.85230471132E+02  0.00000000000E+00 0. -1.
         -5    1    3    3    0  503 -0.14159903130E+03  0.52349328934E+02 -0.11132150280E+04  0.11234146726E+04  0.47000000000E+01 0.  1.
         11    1    4    4    0    0 -0.86430084948E+02  0.88406139164E+02 -0.56298281935E+03  0.57639869874E+03  0.00000000000E+00 0. -1.
        -12    1    4    4    0    0  0.16967557552E+02  0.22604293398E+02 -0.82871952742E+02  0.87559195066E+02  0.00000000000E+00 0.  1.
</event>
<event>
12    1  0.8488291E-002  0.2772533E+03  0.7818608E-02  0.1097728E+00
         21   -1    0    0  501  502  0.00000000000E+00  0.00000000000E+00  0.17716417461E+03  0.17716417461E+03  0.00000000000E+00 0. -1.
         21   -1    0    0  502  503 -0.00000000000E+00 -0.00000000000E+00 -0.11199274033E+04  0.11199274033E+04  0.00000000000E+00 0.  1.
         -6    2    1    2    0  503 -0.20986354358E+03 -0.32176643202E+02 -0.97991951588E+03  0.10173595901E+04  0.17233756053E+03 0.  0.
        -24    2    3    3    0    0 -0.74235830025E+02 -0.64769827892E+02 -0.34814956615E+03  0.37035684537E+03  0.79056836736E+02 0.  0.
          6    2    1    2  501    0  0.20986354358E+03  0.32176643202E+02  0.37156287196E+02  0.27973198775E+03  0.17830129557E+03 0.  0.
         24    2    5    5    0    0  0.19648726440E+02  0.13910984737E+02 -0.19548684396E+00  0.84969167985E+02  0.81487013358E+02 0.  0.
          5    1    5    5  501    0  0.19021481714E+03  0.18265658466E+02  0.37351774040E+02  0.19476281977E+03  0.47000000000E+01 0. -1.
        -13    1    6    6    0    0 -0.23484746524E+02 -0.12130541721E+02  0.17348206224E+02  0.31617141251E+02  0.00000000000E+00 0.  1.
         14    1    6    6    0    0  0.43133472964E+02  0.26041526458E+02 -0.17543693067E+02  0.53352026734E+02  0.00000000000E+00 0. -1.
         -5    1    3    3    0  503 -0.13562771356E+03  0.32593184689E+02 -0.63176994973E+03  0.64700274478E+03  0.47000000000E+01 0.  1.
         11    1    4    4    0    0 -0.31747762984E+02  0.15340494921E+02 -0.11078256401E+03  0.11625845228E+03  0.00000000000E+00 0. -1.
        -12    1    4    4    0    0 -0.42488067041E+02 -0.80110322812E+02 -0.23736700215E+03  0.25409839309E+03  0.00000000000E+00 0.  1.
</event>
<event>
12    1  0.8488291E-002  0.1980240E+03  0.7818608E-02  0.1152389E+00
         21   -1    0    0  501  502  0.00000000000E+00  0.00000000000E+00  0.47647465027E+03  0.47647465027E+03  0.00000000000E+00 0.  1.
         21   -1    0    0  502  503 -0.00000000000E+00 -0.00000000000E+00 -0.21946850524E+03  0.21946850524E+03  0.00000000000E+00 0.  1.
         -6    2    1    2    0  503  0.39897247640E+02  0.78327017304E+02 -0.14898340501E+03  0.24423417166E+03  0.17241625106E+03 0.  0.
        -24    2    3    3    0    0  0.69244845380E+02  0.32461792982E+02 -0.15241732590E+03  0.18947303482E+03  0.82585550040E+02 0.  0.
          6    2    1    2  501    0 -0.39897247640E+02 -0.78327017304E+02  0.40598955004E+03  0.45170898385E+03  0.17744458105E+03 0.  0.
         24    2    5    5    0    0 -0.72667180969E+02 -0.59075815559E+01  0.29884147311E+03  0.31821275322E+03  0.81472151983E+02 0.  0.
          5    1    5    5  501    0  0.32769933329E+02 -0.72419435748E+02  0.10714807693E+03  0.13349623064E+03  0.47000000000E+01 0. -1.
        -11    1    6    6    0    0 -0.70195342376E+02 -0.31596018432E+02  0.26308650840E+03  0.27411713805E+03  0.00000000000E+00 0.  1.
         12    1    6    6    0    0 -0.24718385929E+01  0.25688436876E+02  0.35754964709E+02  0.44095615162E+02  0.00000000000E+00 0. -1.
         -5    1    3    3    0  503 -0.29347597740E+02  0.45865224322E+02  0.34339208907E+01  0.54761136839E+02  0.47000000000E+01 0.  1.
         11    1    4    4    0    0  0.78923204594E+02  0.24331265417E+02 -0.76710260077E+02  0.11271799635E+03  0.00000000000E+00 0. -1.
        -12    1    4    4    0    0 -0.96783592138E+01  0.81305275650E+01 -0.75707065822E+02  0.76755038472E+02  0.00000000000E+00 0.  1.
</event>
<event>
12    1  0.8488291E-002  0.1751139E+03  0.7818608E-02  0.1172636E+00
         21   -1    0    0  501  502  0.00000000000E+00  0.00000000000E+00  0.37211807832E+03  0.37211807832E+03  0.00000000000E+00 0. -1.
         21   -1    0    0  502  503 -0.00000000000E+00 -0.00000000000E+00 -0.83808043544E+02  0.83808043544E+02  0.00000000000E+00 0. -1.
         -6    2    1    2    0  503  0.29108914935E+02 -0.27632575774E+01  0.11434154009E+03  0.20913841468E+03  0.17265550724E+03 0.  0.
        -24    2    3    3    0    0  0.57557312423E+02  0.35626380008E+02  0.12478515890E+03  0.16000355162E+03  0.73808654540E+02 0.  0.
          6    2    1    2  501    0 -0.29108914935E+02  0.27632575774E+01  0.17396849468E+03  0.24678770718E+03  0.17258091075E+03 0.  0.
         24    2    5    5    0    0  0.29452127066E+02 -0.47291812505E+02  0.86389535913E+02  0.13005266660E+03  0.79665556271E+02 0.  0.
          5    1    5    5  501    0 -0.58561042001E+02  0.50055070082E+02  0.87578958768E+02  0.11673504058E+03  0.47000000000E+01 0. -1.
        -11    1    6    6    0    0 -0.43571264218E+01  0.20236882987E+02  0.11427189292E+02  0.23645224440E+02  0.00000000000E+00 0.  1.
         12    1    6    6    0    0  0.33809253488E+02 -0.67528695492E+02  0.74962346621E+02  0.10640744216E+03  0.00000000000E+00 0. -1.
         -5    1    3    3    0  503 -0.28448397488E+02 -0.38389637585E+02 -0.10443618806E+02  0.49134863054E+02  0.47000000000E+01 0.  1.
         11    1    4    4    0    0  0.29433668729E+02 -0.49592809110E+01  0.47694569388E+01  0.30227190433E+02  0.00000000000E+00 0. -1.
        -12    1    4    4    0    0  0.28123643694E+02  0.40585660919E+02  0.12001570196E+03  0.12977636119E+03  0.00000000000E+00 0.  1.
</event>
<event>
12    1  0.8488291E-002  0.1940063E+03  0.7818608E-02  0.1155021E+00
         21   -1    0    0  503  502  0.00000000000E+00  0.00000000000E+00  0.36414330039E+03  0.36414330039E+03  0.00000000000E+00 0. -1.
         21   -1    0    0  501  503 -0.00000000000E+00 -0.00000000000E+00 -0.13018294591E+03  0.13018294591E+03  0.00000000000E+00 0.  1.
          6    2    1    2  501    0  0.45971636310E+01 -0.87796728073E+02  0.42983726706E+01  0.19405389755E+03  0.17294230186E+03 0.  0.
         24    2    3    3    0    0  0.65699407778E+02 -0.32411641686E+02  0.19643510252E+02  0.11003868892E+03  0.79722762532E+02 0.  0.
         -6    2    1    2    0  502 -0.45971636310E+01  0.87796728073E+02  0.22966198180E+03  0.30027234874E+03  0.17230629170E+03 0.  0.
        -24    2    5    5    0    0  0.44890595536E+02  0.10228787779E+03  0.13600633229E+03  0.19325598358E+03  0.79825918441E+02 0.  0.
          5    1    3    3  501    0 -0.61102244147E+02 -0.55385086386E+02 -0.15345137581E+02  0.84015208630E+02  0.47000000000E+01 0. -1.
        -11    1    4    4    0    0 -0.29113493803E+00 -0.28769031398E+02  0.31751868060E+02  0.42847672660E+02  0.00000000000E+00 0.  1.
         12    1    4    4    0    0  0.65990542716E+02 -0.36426102883E+01 -0.12108357808E+02  0.67191016263E+02  0.00000000000E+00 0. -1.
         -5    1    5    5    0  502 -0.49487759167E+02 -0.14491149718E+02  0.93655649513E+02  0.10701636516E+03  0.47000000000E+01 0.  1.
         13    1    6    6    0    0  0.14122983868E+02  0.17205897001E+02  0.88124920742E+02  0.90892811711E+02  0.00000000000E+00 0. -1.
        -14    1    6    6    0    0  0.30767611668E+02  0.85081980789E+02  0.47881411549E+02  0.10236317187E+03  0.00000000000E+00 0.  1.
</event>
<event>
12    1  0.8488291E-002  0.2711402E+03  0.7818608E-02  0.1101173E+00
         21   -1    0    0  501  502  0.00000000000E+00  0.00000000000E+00  0.19886278695E+03  0.19886278695E+03  0.00000000000E+00 0. -1.
         21   -1    0    0  502  503 -0.00000000000E+00 -0.00000000000E+00 -0.62820208251E+03  0.62820208251E+03  0.00000000000E+00 0.  1.
         -6    2    1    2    0  503  0.18272822677E+03  0.98530927917E+02 -0.48170001598E+03  0.55091516385E+03  0.16844780722E+03 0.  0.
        -24    2    3    3    0    0  0.15161150052E+03  0.89127690533E+02 -0.24701497205E+03  0.31394294740E+03  0.81326413282E+02 0.  0.
          6    2    1    2  501    0 -0.18272822677E+03 -0.98530927917E+02  0.52360720414E+02  0.27614970561E+03  0.17441062540E+03 0.  0.
         24    2    5    5    0    0 -0.22040653980E+02 -0.23602544983E+02 -0.12616590816E+02  0.87261115188E+02  0.80077795315E+02 0.  0.
          5    1    5    5  501    0 -0.16068757279E+03 -0.74928382934E+02  0.64977311230E+02  0.18888859042E+03  0.47000000000E+01 0. -1.
        -11    1    6    6    0    0 -0.40343040802E+02 -0.43340224228E+02 -0.58030689696E+01  0.59494634941E+02  0.00000000000E+00 0.  1.
         12    1    6    6    0    0  0.18302386822E+02  0.19737679245E+02 -0.68135218466E+01  0.27766480247E+02  0.00000000000E+00 0. -1.
         -5    1    3    3    0  503  0.31116726248E+02  0.94032373839E+01 -0.23468504393E+03  0.23697221645E+03  0.47000000000E+01 0.  1.
         11    1    4    4    0    0  0.12479543353E+03  0.50995324591E+02 -0.12707999053E+03  0.18526669251E+03  0.00000000000E+00 0. -1.
        -12    1    4    4    0    0  0.26816066989E+02  0.38132365942E+02 -0.11993498152E+03  0.12867625489E+03  0.00000000000E+00 0.  1.
</event>
<event>
12    1  0.8488291E-002  0.2002457E+03  0.7818608E-02  0.1149668E+00
         21   -1    0    0  501  502  0.00000000000E+00  0.00000000000E+00  0.11524976026E+03  0.11524976026E+03  0.00000000000E+00 0. -1.
         21   -1    0    0  502  503 -0.00000000000E+00 -0.00000000000E+00 -0.53084923317E+03  0.53084923317E+03  0.00000000000E+00 0. -1.
         -6    2    1    2    0  503  0.26937525550E+02  0.97666594331E+02 -0.17365221235E+02  0.20035369908E+03  0.17197575381E+03 0.  0.
        -24    2    3    3    0    0  0.69256561327E+02  0.77687409224E+02 -0.51873356097E+02  0.14201871817E+03  0.81527089971E+02 0.  0.
          6    2    1    2  501    0 -0.26937525550E+02 -0.97666594331E+02 -0.39823425168E+03  0.44574529435E+03  0.17272508298E+03 0.  0.
         24    2    5    5    0    0  0.81833476697E+01 -0.12913460364E+03 -0.32224501382E+03  0.35618991697E+03  0.79288681309E+02 0.  0.
          5    1    5    5  501    0 -0.35120873220E+02  0.31468009314E+02 -0.75989237864E+02  0.89555377376E+02  0.47000000000E+01 0. -1.
        -11    1    6    6    0    0  0.25271815011E+02 -0.43855135233E+02 -0.53180307832E+02  0.73417182331E+02  0.00000000000E+00 0.  1.
         12    1    6    6    0    0 -0.17088467342E+02 -0.85279468412E+02 -0.26906470599E+03  0.28277273464E+03  0.00000000000E+00 0. -1.
         -5    1    3    3    0  503 -0.42319035777E+02  0.19979185107E+02  0.34508134862E+02  0.58334980914E+02  0.47000000000E+01 0.  1.
         11    1    4    4    0    0  0.67268008029E+00 -0.16016346418E+02 -0.49771230914E+01  0.16785339000E+02  0.00000000000E+00 0. -1.
        -12    1    4    4    0    0  0.68583881247E+02  0.93703755642E+02 -0.46896233005E+02  0.12523337917E+03  0.00000000000E+00 0.  1.
</event>
<event>
12    1  0.8488291E-002  0.2529132E+03  0.7818608E-02  0.1112142E+00
         21   -1    0    0  501  502  0.00000000000E+00  0.00000000000E+00  0.10186631261E+03  0.10186631261E+03  0.00000000000E+00 0. -1.
         21   -1    0    0  502  503 -0.00000000000E+00 -0.00000000000E+00 -0.62211972011E+03  0.62211972011E+03  0.00000000000E+00 0.  1.
         -6    2    1    2    0  503  0.15767343474E+03  0.89204744997E+02 -0.29359069777E+03  0.38750556904E+03  0.17648419099E+03 0.  0.
        -24    2    3    3    0    0  0.14030451937E+03  0.38771763544E+02 -0.11615107569E+03  0.20216244313E+03  0.78676382886E+02 0.  0.
          6    2    1    2  501    0 -0.15767343474E+03 -0.89204744997E+02 -0.22666270973E+03  0.33648046369E+03  0.17036642835E+03 0.  0.
         24    2    5    5    0    0 -0.12922448573E+03  0.39255225371E+01 -0.13907191660E+03  0.20542007122E+03  0.78371105874E+02 0.  0.
          5    1    5    5  501    0 -0.28448949008E+02 -0.93130267534E+02 -0.87590793136E+02  0.13106039246E+03  0.47000000000E+01 0. -1.
        -11    1    6    6    0    0  0.19897851903E+01  0.69904724370E+01 -0.40837632229E+02  0.41479370247E+02  0.00000000000E+00 0.  1.
         12    1    6    6    0    0 -0.13121427092E+03 -0.30649498999E+01 -0.98234284366E+02  0.16394070098E+03  0.00000000000E+00 0. -1.
         -5    1    3    3    0  503  0.17368915368E+02  0.50432981453E+02 -0.17743962207E+03  0.18534312591E+03  0.47000000000E+01 0.  1.
         11    1    4    4    0    0  0.10020650861E+03  0.34459182916E+02 -0.35092617222E+02  0.11162558595E+03  0.00000000000E+00 0. -1.
        -12    1    4    4    0    0  0.40098010762E+02  0.43125806273E+01 -0.81058458472E+02  0.90536857183E+02  0.00000000000E+00 0.  1.
</event>
<event>
12    1  0.8488291E-002  0.2194172E+03  0.7818608E-02  0.1136816E+00
         21   -1    0    0  503  502  0.00000000000E+00  0.00000000000E+00  0.41460872399E+03  0.41460872399E+03  0.00000000000E+00 0.  1.
         21   -1    0    0  501  503 -0.00000000000E+00 -0.00000000000E+00 -0.16687902180E+03  0.16687902180E+03  0.00000000000E+00 0. -1.
          6    2    1    2  501    0  0.27936015926E+02 -0.11274849465E+03 -0.44285955275E+02  0.22384179187E+03  0.18614848354E+03 0.  0.
         24    2    3    3    0    0  0.38144774365E+02 -0.13031604859E+03  0.15886037285E+02  0.16015822736E+03  0.83432579248E+02 0.  0.
         -6    2    1    2    0  502 -0.27936015926E+02  0.11274849465E+03  0.29201565746E+03  0.35764595391E+03  0.17071859920E+03 0.  0.
        -24    2    5    5    0    0  0.14490883329E+02 -0.28729339744E+01  0.92612468354E+02  0.12322735746E+03  0.79935429453E+02 0.  0.
          5    1    3    3  501    0 -0.10208758439E+02  0.17567553940E+02 -0.60171992559E+02  0.63683564511E+02  0.47000000000E+01 0. -1.
        -13    1    4    4    0    0  0.47975341070E+02 -0.13119816790E+03 -0.20232013192E+01  0.13970929087E+03  0.00000000000E+00 0.  1.
         14    1    4    4    0    0 -0.98305667049E+01  0.88211931594E+00  0.17909238604E+02  0.20448936491E+02  0.00000000000E+00 0. -1.
         -5    1    5    5    0  502 -0.42426899255E+02  0.11562142862E+03  0.19940318911E+03  0.23441859645E+03  0.47000000000E+01 0.  1.
         13    1    6    6    0    0 -0.32948529892E+02  0.42993892556E+01  0.40644040801E+02  0.52497889697E+02  0.00000000000E+00 0. -1.
        -14    1    6    6    0    0  0.47439413220E+02 -0.71723232300E+01  0.51968427553E+02  0.70729467759E+02  0.00000000000E+00 0.  1.
</event>
<event>
12    1  0.8488291E-002  0.2081665E+03  0.7818608E-02  0.1143141E+00
         21   -1    0    0  501  502  0.00000000000E+00  0.00000000000E+00  0.47735023687E+02  0.47735023687E+02  0.00000000000E+00 0.  1.
         21   -1    0    0  502  503 -0.00000000000E+00 -0.00000000000E+00 -0.90735370211E+03  0.90735370211E+03  0.00000000000E+00 0. -1.
         -6    2    1    2    0  503 -0.11601861709E+03  0.34839926716E+01 -0.45201098296E+03  0.49740181336E+03  0.17211094532E+03 0.  0.
        -24    2    3    3    0    0 -0.61805649847E+02 -0.59488761980E+02 -0.32718566305E+03  0.34737493531E+03  0.79120391955E+02 0.  0.
          6    2    1    2  501    0  0.11601861709E+03 -0.34839926716E+01 -0.40760769546E+03  0.45768691244E+03  0.17280283187E+03 0.  0.
         24    2    5    5    0    0  0.38998322447E+02  0.19677208737E+02 -0.34123857832E+03  0.35330532044E+03  0.80453840327E+02 0.  0.
          5    1    5    5  501    0  0.77020294640E+02 -0.23161201408E+02 -0.66369117144E+02  0.10438159200E+03  0.47000000000E+01 0. -1.
        -11    1    6    6    0    0  0.46695061994E+02  0.45128756551E+02 -0.23884337147E+03  0.24751401895E+03  0.00000000000E+00 0.  1.
         12    1    6    6    0    0 -0.76967395467E+01 -0.25451547814E+02 -0.10239520685E+03  0.10579130149E+03  0.00000000000E+00 0. -1.
         -5    1    3    3    0  503 -0.54212967240E+02  0.62972754652E+02 -0.12482531991E+03  0.15002687804E+03  0.47000000000E+01 0.  1.
         11    1    4    4    0    0  0.70884875777E+01 -0.41715482421E+02 -0.16365371877E+03  0.16903540397E+03  0.00000000000E+00 0. -1.
        -12    1    4    4    0    0 -0.68894137425E+02 -0.17773279559E+02 -0.16353194428E+03  0.17833953134E+03  0.00000000000E+00 0.  1.
</event>
<event>
12    1  0.8488291E-002  0.2155750E+03  0.7818608E-02  0.1137257E+00
         21   -1    0    0  501  502  0.00000000000E+00  0.00000000000E+00  0.35183869759E+04  0.35183869759E+04  0.00000000000E+00 0.  1.
         21   -1    0    0  502  503 -0.00000000000E+00 -0.00000000000E+00 -0.13631095225E+02  0.13631095225E+02  0.00000000000E+00 0.  1.
         -6    2    1    2    0  503 -0.50232280451E+02 -0.12023746660E+03  0.14383854230E+04  0.14544501384E+04  0.17173307742E+03 0.  0.
        -24    2    3    3    0    0 -0.39587064069E+01 -0.93319864243E+01  0.32808458350E+03  0.33765503043E+03  0.79174922286E+02 0.  0.
          6    2    1    2  501    0  0.50232280451E+02  0.12023746660E+03  0.20663704577E+04  0.20775679327E+04  0.17152642942E+03 0.  0.
         24    2    5    5    0    0  0.48369894242E+02  0.12483799411E+03  0.20645055089E+04  0.20704826402E+04  0.82408709576E+02 0.  0.
          5    1    5    5  501    0  0.18623862090E+01 -0.46005275134E+01  0.18649487779E+01  0.70852924948E+01  0.47000000000E+01 0. -1.
        -11    1    6    6    0    0  0.43669524087E+02  0.10546771412E+03  0.11272111244E+04  0.11329763391E+04  0.00000000000E+00 0.  1.
         12    1    6    6    0    0  0.47003701553E+01  0.19370279996E+02  0.93729438452E+03  0.93750630104E+03  0.00000000000E+00 0. -1.
         -5    1    3    3    0  503 -0.46273574044E+02 -0.11090548017E+03  0.11103008395E+04  0.11167951080E+04  0.47000000000E+01 0.  1.
         11    1    4    4    0    0 -0.24461151307E+02  0.22925291150E+02  0.22923220019E+03  0.23167071136E+03  0.00000000000E+00 0. -1.
        -12    1    4    4    0    0  0.20502444900E+02 -0.32257277575E+02  0.98852383304E+02  0.10598431907E+03  0.00000000000E+00 0.  1.
</event>
<event>
12    1  0.8488291E-002  0.1927570E+03  0.7818608E-02  0.1157179E+00
         21   -1    0    0  501  502  0.00000000000E+00  0.00000000000E+00  0.30739685836E+03  0.30739685836E+03  0.00000000000E+00 0. -1.
         21   -1    0    0  502  503 -0.00000000000E+00 -0.00000000000E+00 -0.13298622427E+03  0.13298622427E+03  0.00000000000E+00 0. -1.
         -6    2    1    2    0  503 -0.68218917519E+02 -0.45962792669E+02  0.16317059819E+03  0.25254687020E+03  0.17432406179E+03 0.  0.
        -24    2    3    3    0    0 -0.17027190437E+02  0.74722640670E+01  0.15937436226E+03  0.17830133419E+03  0.77752289254E+02 0.  0.
          6    2    1    2  501    0  0.68218917519E+02  0.45962792669E+02  0.11240035899E+02  0.18783621243E+03  0.16849244872E+03 0.  0.
         24    2    5    5    0    0  0.65533652488E+01  0.28483490119E+02 -0.49488891143E+02  0.99415293332E+02  0.81117164622E+02 0.  0.
          5    1    5    5  501    0  0.61665552270E+02  0.17479302550E+02  0.60728927042E+02  0.88420919097E+02  0.47000000000E+01 0. -1.
        -11    1    6    6    0    0  0.82086930207E+00  0.50834709825E+02 -0.55804853953E+02  0.75491875550E+02  0.00000000000E+00 0.  1.
         12    1    6    6    0    0  0.57324959467E+01 -0.22351219706E+02  0.63159628096E+01  0.23923417782E+02  0.00000000000E+00 0. -1.
         -5    1    3    3    0  503 -0.51191727082E+02 -0.53435056736E+02  0.37962359298E+01  0.74245536009E+02  0.47000000000E+01 0.  1.
         13    1    4    4    0    0 -0.32772938007E+02 -0.15124690763E+02  0.32820902725E+02  0.48785585904E+02  0.00000000000E+00 0. -1.
        -14    1    4    4    0    0  0.15745747571E+02  0.22596954830E+02  0.12655345954E+03  0.12951574829E+03  0.00000000000E+00 0.  1.
</event>
<event>
12    1  0.8488291E-002  0.1827227E+03  0.7818608E-02  0.1166001E+00
         21   -1    0    0  501  502  0.00000000000E+00  0.00000000000E+00  0.11520652487E+04  0.11520652487E+04  0.00000000000E+00 0.  1.
         21   -1    0    0  502  503 -0.00000000000E+00 -0.00000000000E+00 -0.21413930163E+03  0.21413930163E+03  0.00000000000E+00 0.  1.
         -6    2    1    2    0  503  0.67792199384E+01  0.66925352012E+02 -0.16656404438E+03  0.24724718930E+03  0.16989005613E+03 0.  0.
        -24    2    3    3    0    0  0.40223187169E+02  0.71174298504E+02 -0.48758571321E+02  0.12462267310E+03  0.80434612073E+02 0.  0.
          6    2    1    2  501    0 -0.67792199384E+01 -0.66925352012E+02  0.11044899915E+04  0.11189573610E+04  0.16626025988E+03 0.  0.
         24    2    5    5    0    0  0.24607197109E+02 -0.99298679771E+02  0.69968975455E+03  0.71162646197E+03  0.79879451744E+02 0.  0.
          5    1    5    5  501    0 -0.31386417047E+02  0.32373327758E+02  0.40480023693E+03  0.40733089908E+03  0.47000000000E+01 0. -1.
        -13    1    6    6    0    0  0.44766604308E+02 -0.23631630970E+02  0.31581691935E+03  0.31984813489E+03  0.00000000000E+00 0.  1.
         14    1    6    6    0    0 -0.20159407198E+02 -0.75667048801E+02  0.38387283519E+03  0.39177832708E+03  0.00000000000E+00 0. -1.
         -5    1    3    3    0  503 -0.33443967231E+02 -0.42489464921E+01 -0.11780547306E+03  0.12262451620E+03  0.47000000000E+01 0.  1.
         11    1    4    4    0    0  0.38437275832E+02  0.25335393408E+02 -0.61678268787E+02  0.76964376000E+02  0.00000000000E+00 0. -1.
        -12    1    4    4    0    0  0.17859113374E+01  0.45838905096E+02  0.12919697466E+02  0.47658297098E+02  0.00000000000E+00 0.  1.
</event>
<event>
12    1  0.8488291E-002  0.2011888E+03  0.7818608E-02  0.1149106E+00
         21   -1    0    0  501  502  0.00000000000E+00  0.00000000000E+00  0.67159125191E+02  0.67159125191E+02  0.00000000000E+00 0. -1.
         21   -1    0    0  502  503 -0.00000000000E+00 -0.00000000000E+00 -0.71589978445E+03  0.71589978445E+03  0.00000000000E+00 0. -1.
         -6    2    1    2    0  503  0.92114570541E+02 -0.44952966935E+02 -0.16397146234E+03  0.25819883118E+03  0.17109685158E+03 0.  0.
        -24    2    3    3    0    0  0.32034660750E+02  0.39076374185E+02 -0.78115469256E+02  0.12379694400E+03  0.81672971652E+02 0.  0.
          6    2    1    2  501    0 -0.92114570541E+02  0.44952966935E+02 -0.48476919692E+03  0.52486007846E+03  0.17312153054E+03 0.  0.
         24    2    5    5    0    0 -0.84451411158E+02 -0.28471879102E+02 -0.36593874496E+03  0.38488615824E+03  0.79268537256E+02 0.  0.
          5    1    5    5  501    0 -0.76631593825E+01  0.73424846036E+02 -0.11883045196E+03  0.13997392021E+03  0.47000000000E+01 0. -1.
        -13    1    6    6    0    0 -0.18152712736E+02 -0.44321287505E+02 -0.10899378687E+03  0.11905269036E+03  0.00000000000E+00 0.  1.
         14    1    6    6    0    0 -0.66298698422E+02  0.15849408403E+02 -0.25694495808E+03  0.26583346788E+03  0.00000000000E+00 0. -1.
         -5    1    3    3    0  503  0.60079909790E+02 -0.84029341120E+02 -0.85855993086E+02  0.13440188718E+03  0.47000000000E+01 0.  1.
         13    1    4    4    0    0  0.45147144030E+01 -0.21993290492E+02 -0.42177928941E+02  0.47781431148E+02  0.00000000000E+00 0. -1.
        -14    1    4    4    0    0  0.27519946347E+02  0.61069664677E+02 -0.35937540315E+02  0.76015512855E+02  0.00000000000E+00 0.  1.
</event>
<event>
12    1  0.8488291E-002  0.1907134E+03  0.7818608E-02  0.1158071E+00
         21   -1    0    0  501  502  0.00000000000E+00  0.00000000000E+00  0.22846436693E+03  0.22846436693E+03  0.00000000000E+00 0. -1.
         21   -1    0    0  502  503 -0.00000000000E+00 -0.00000000000E+00 -0.85647357378E+03  0.85647357378E+03  0.00000000000E+00 0. -1.
         -6    2    1    2    0  503  0.64816750372E+02  0.49623952126E+02 -0.80396417126E+03  0.82627477434E+03  0.17235970030E+03 0.  0.
        -24    2    3    3    0    0  0.51860452211E+02  0.86353677547E+01 -0.21461679062E+03  0.23534300605E+03  0.81005478821E+02 0.  0.
          6    2    1    2  501    0 -0.64816750372E+02 -0.49623952126E+02  0.17595496441E+03  0.25866316638E+03  0.17112199271E+03 0.  0.
         24    2    5    5    0    0 -0.10859936934E+02 -0.74086983672E+02  0.49394359663E+02  0.11884380327E+03  0.77956573991E+02 0.  0.
          5    1    5    5  501    0 -0.53956813438E+02  0.24463031546E+02  0.12656060474E+03  0.13981936311E+03  0.47000000000E+01 0. -1.
        -13    1    6    6    0    0  0.25895334214E+02 -0.65200195870E+02  0.34793584259E+02  0.78308539643E+02  0.00000000000E+00 0.  1.
         14    1    6    6    0    0 -0.36755271148E+02 -0.88867878022E+01  0.14600775404E+02  0.40535263623E+02  0.00000000000E+00 0. -1.
         -5    1    3    3    0  503  0.12956298161E+02  0.40988584372E+02 -0.58934738064E+03  0.59093176829E+03  0.47000000000E+01 0.  1.
         13    1    4    4    0    0  0.51355704625E+02 -0.28819623563E+02 -0.13886178537E+03  0.15083293585E+03  0.00000000000E+00 0. -1.
        -14    1    4    4    0    0  0.50474758573E+00  0.37454991318E+02 -0.75755005247E+02  0.84510070197E+02  0.00000000000E+00 0.  1.
</event>
<event>
12    1  0.8488291E-002  0.1785375E+03  0.7818608E-02  0.1169544E+00
         21   -1    0    0  503  502  0.00000000000E+00  0.00000000000E+00  0.11101847548E+03  0.11101847548E+03  0.00000000000E+00 0.  1.
         21   -1    0    0  501  503 -0.00000000000E+00 -0.00000000000E+00 -0.35317472331E+03  0.35317472331E+03  0.00000000000E+00 0.  1.
          6    2    1    2  501    0 -0.21361784852E+02 -0.36074078083E+02 -0.22266341064E+03  0.28459473074E+03  0.17221353421E+03 0.  0.
         24    2    3    3    0    0  0.23307064679E+02 -0.49159036505E+02 -0.50489399928E+02  0.10617807731E+03  0.75926111863E+02 0.  0.
         -6    2    1    2    0  502  0.21361784852E+02  0.36074078083E+02 -0.19492837190E+02  0.17959846806E+03  0.17354530839E+03 0.  0.
        -24    2    5    5    0    0  0.31685221266E+02  0.91104223216E+01 -0.76124028671E+02  0.11585841848E+03  0.80878627277E+02 0.  0.
          5    1    3    3  501    0 -0.44668849531E+02  0.13084958422E+02 -0.17217401071E+03  0.17841665342E+03  0.47000000000E+01 0. -1.
        -13    1    4    4    0    0 -0.34097143268E+01 -0.53382729308E+02 -0.57194705174E+02  0.78310767076E+02  0.00000000000E+00 0.  1.
         14    1    4    4    0    0  0.26716779006E+02  0.42236928035E+01  0.67053052457E+01  0.27867310236E+02  0.00000000000E+00 0. -1.
         -5    1    5    5    0  502 -0.10323436414E+02  0.26963655761E+02  0.56631191481E+02  0.63740049576E+02  0.47000000000E+01 0.  1.
         11    1    6    6    0    0 -0.15625176975E+02 -0.22861824078E+02 -0.12540118872E+02  0.30398416686E+02  0.00000000000E+00 0. -1.
        -12    1    6    6    0    0  0.47310398241E+02  0.31972246400E+02 -0.63583909799E+02  0.85460001795E+02  0.00000000000E+00 0.  1.
</event>
<event>
12    1  0.8488291E-002  0.1840231E+03  0.7818608E-02  0.1163976E+00
         21   -1    0    0  501  502  0.00000000000E+00  0.00000000000E+00  0.29353599479E+03  0.29353599479E+03  0.00000000000E+00 0.  1.
         21   -1    0    0  502  503 -0.00000000000E+00 -0.00000000000E+00 -0.15414916930E+03  0.15414916930E+03  0.00000000000E+00 0.  1.
         -6    2    1    2    0  503  0.43504469063E+02 -0.49342831399E+02 -0.42629947500E+02  0.18885202099E+03  0.17181507376E+03 0.  0.
        -24    2    3    3    0    0  0.50760496866E+02  0.34202920714E+02 -0.30294292447E+02  0.10395914131E+03  0.78379149519E+02 0.  0.
          6    2    1    2  501    0 -0.43504469063E+02  0.49342831399E+02  0.18201677299E+03  0.25883314309E+03  0.17186371484E+03 0.  0.
         24    2    5    5    0    0 -0.72306350186E+02  0.82314963869E+02  0.16033672003E+03  0.20975336547E+03  0.79275778018E+02 0.  0.
          5    1    5    5  501    0  0.28801881123E+02 -0.32972132470E+02  0.21680052953E+02  0.49079777627E+02  0.47000000000E+01 0. -1.
        -13    1    6    6    0    0  0.58462097150E+01  0.48374340762E+02  0.44758446490E+02  0.66163234084E+02  0.00000000000E+00 0.  1.
         14    1    6    6    0    0 -0.78152559901E+02  0.33940623107E+02  0.11557827354E+03  0.14359013138E+03  0.00000000000E+00 0. -1.
         -5    1    3    3    0  503 -0.72560278029E+01 -0.83545752113E+02 -0.12335655053E+02  0.84892879685E+02  0.47000000000E+01 0.  1.
         11    1    4    4    0    0  0.46641083655E+01  0.87628926439E+01  0.25428158517E+02  0.27297132449E+02  0.00000000000E+00 0. -1.
        -12    1    4    4    0    0  0.46096388500E+02  0.25440028070E+02 -0.55722450965E+02  0.76662008860E+02  0.00000000000E+00 0.  1.
</event>
<event>
12    1  0.8488291E-002  0.1789241E+03  0.7818608E-02  0.1169957E+00
         21   -1    0    0  501  502  0.00000000000E+00  0.00000000000E+00  0.41867385030E+03  0.41867385030E+03  0.00000000000E+00 0. -1.
         21   -1    0    0  502  503 -0.00000000000E+00 -0.00000000000E+00 -0.13079217935E+03  0.13079217935E+03  0.00000000000E+00 0. -1.
         -6    2    1    2    0  503 -0.11944978164E+02 -0.81659133379E+01 -0.35150143752E+02  0.18234413075E+03  0.17833811923E+03 0.  0.
        -24    2    3    3    0    0 -0.61002974792E+02  0.14493200980E+02  0.21303258405E+02  0.10405492900E+03  0.80263214634E+02 0.  0.
          6    2    1    2  501    0  0.11944978164E+02  0.81659133379E+01  0.32303181470E+03  0.36712189890E+03  0.17383777120E+03 0.  0.
         24    2    5    5    0    0 -0.15550001102E+02 -0.44809202595E+02  0.27402907822E+03  0.28975462561E+03  0.81339659334E+02 0.  0.
          5    1    5    5  501    0  0.27494979266E+02  0.52975115933E+02  0.49002736480E+02  0.77367273284E+02  0.47000000000E+01 0. -1.
        -13    1    6    6    0    0 -0.37392950406E+02  0.40736166661E+01  0.78802597182E+02  0.87319393124E+02  0.00000000000E+00 0.  1.
         14    1    6    6    0    0  0.21842949304E+02 -0.48882819261E+02  0.19522648104E+03  0.20243523249E+03  0.00000000000E+00 0. -1.
         -5    1    3    3    0  503  0.49057996628E+02 -0.22659114318E+02 -0.56453402157E+02  0.78289201746E+02  0.47000000000E+01 0.  1.
         13    1    4    4    0    0 -0.23353387961E+02  0.17787468025E+02 -0.28914451846E+02  0.41204614712E+02  0.00000000000E+00 0. -1.
        -14    1    4    4    0    0 -0.37649586831E+02 -0.32942670447E+01  0.50217710251E+02  0.62850314293E+02  0.00000000000E+00 0.  1.
</event>
<event>
12    1  0.8488291E-002  0.2453960E+03  0.7818608E-02  0.1116512E+00
         21   -1    0    0  501  502  0.00000000000E+00  0.00000000000E+00  0.99832363675E+02  0.99832363675E+02  0.00000000000E+00 0. -1.
         21   -1    0    0  502  503 -0.00000000000E+00 -0.00000000000E+00 -0.60253847395E+03  0.60253847395E+03  0.00000000000E+00 0.  1.
         -6    2    1    2    0  503 -0.17248838788E+03 -0.28789831204E+01 -0.27651754056E+03  0.36863371206E+03  0.17224497360E+03 0.  0.
        -24    2    3    3    0    0 -0.25719989844E+02 -0.81782250054E+01 -0.10275926034E+03  0.14107476459E+03  0.92812835198E+02 0.  0.
          6    2    1    2  501    0  0.17248838788E+03  0.28789831204E+01 -0.22618856971E+03  0.33373712556E+03  0.17452411700E+03 0.  0.
         24    2    5    5    0    0  0.15821081778E+03  0.58880989333E+02 -0.17499039057E+03  0.25638457386E+03  0.81325144660E+02 0.  0.
          5    1    5    5  501    0  0.14277570100E+02 -0.56002006213E+02 -0.51198179140E+02  0.77352551703E+02  0.47000000000E+01 0. -1.
        -11    1    6    6    0    0  0.53679008510E+02  0.33862149262E+02 -0.17721569019E+02  0.65894879284E+02  0.00000000000E+00 0.  1.
         12    1    6    6    0    0  0.10453180927E+03  0.25018840071E+02 -0.15726882155E+03  0.19048969457E+03  0.00000000000E+00 0. -1.
         -5    1    3    3    0  503 -0.14676839803E+03  0.52992418850E+01 -0.17375828023E+03  0.22755894747E+03  0.47000000000E+01 0.  1.
         11    1    4    4    0    0 -0.25764658140E+02  0.39950343545E+02 -0.40995175127E+02  0.62773019221E+02  0.00000000000E+00 0. -1.
        -12    1    4    4    0    0  0.44668296807E-01 -0.48128568551E+02 -0.61764085209E+02  0.78301745368E+02  0.00000000000E+00 0.  1.
</event>
<event>
12    1  0.8488291E-002  0.1938788E+03  0.7818608E-02  0.1155571E+00
         21   -1    0    0  501  502  0.00000000000E+00  0.00000000000E+00  0.58895627876E+03  0.58895627876E+03  0.00000000000E+00 0.  1.
         21   -1    0    0  502  503 -0.00000000000E+00 -0.00000000000E+00 -0.64113016371E+02  0.64113016371E+02  0.00000000000E+00 0.  1.
         -6    2    1    2    0  503  0.69617941718E+02 -0.49294199686E+02  0.22089860800E+03  0.29391356623E+03  0.17410460496E+03 0.  0.
        -24    2    3    3    0    0  0.40162007311E+01 -0.59966755206E+02  0.20062286085E+03  0.22426668702E+03  0.80211426936E+02 0.  0.
          6    2    1    2  501    0 -0.69617941718E+02  0.49294199686E+02  0.30394465439E+03  0.35915572889E+03  0.17127144752E+03 0.  0.
         24    2    5    5    0    0 -0.11380047797E+03  0.28623067895E+02  0.20577923464E+03  0.24943821966E+03  0.78131320313E+02 0.  0.
          5    1    5    5  501    0  0.44182536252E+02  0.20671131791E+02  0.98165419745E+02  0.10971750924E+03  0.47000000000E+01 0. -1.
        -11    1    6    6    0    0 -0.39288033228E+02 -0.19822068055E+02  0.32534547415E+02  0.54726234224E+02  0.00000000000E+00 0.  1.
         12    1    6    6    0    0 -0.74512444742E+02  0.48445135950E+02  0.17324468723E+03  0.19471198543E+03  0.00000000000E+00 0. -1.
         -5    1    3    3    0  503  0.65601740987E+02  0.10672555521E+02  0.20275747143E+02  0.69646879213E+02  0.47000000000E+01 0.  1.
         11    1    4    4    0    0  0.60473569508E+01 -0.60651795740E+02  0.20791536711E+03  0.21666566580E+03  0.00000000000E+00 0. -1.
        -12    1    4    4    0    0 -0.20311562198E+01  0.68504053409E+00 -0.72925062588E+01  0.76010212246E+01  0.00000000000E+00 0.  1.
</event>
<event>
12    1  0.8488291E-002  0.1924888E+03  0.7818608E-02  0.1158094E+00
         21   -1    0    0  503  502  0.00000000000E+00  0.00000000000E+00  0.39071488622E+02  0.39071488622E+02  0.00000000000E+00 0.  1.
         21   -1    0    0  501  503 -0.00000000000E+00 -0.00000000000E+00 -0.93007610254E+03  0.93007610254E+03  0.00000000000E+00 0.  1.
          6    2    1    2  501    0 -0.64220733144E+01  0.69431842975E+02 -0.52894702260E+03  0.56288266224E+03  0.17941548119E+03 0.  0.
         24    2    3    3    0    0  0.23816767303E+02 -0.76491840742E+01 -0.40743785727E+03  0.41576896651E+03  0.78946042047E+02 0.  0.
         -6    2    1    2    0  502  0.64220733144E+01 -0.69431842975E+02 -0.36205759132E+03  0.40626492892E+03  0.17059738918E+03 0.  0.
        -24    2    5    5    0    0  0.39506606749E+02 -0.76589112153E+02 -0.35134480318E+03  0.37045059262E+03  0.79773471641E+02 0.  0.
          5    1    3    3  501    0 -0.30238840618E+02  0.77081027049E+02 -0.12150916533E+03  0.14711369573E+03  0.47000000000E+01 0. -1.
        -11    1    4    4    0    0  0.75909875859E+01 -0.99300932135E+01 -0.57694524363E+01  0.13766496474E+02  0.00000000000E+00 0.  1.
         12    1    4    4    0    0  0.16225779717E+02  0.22809091393E+01 -0.40166840483E+03  0.40200247003E+03  0.00000000000E+00 0. -1.
         -5    1    5    5    0  502 -0.33084533435E+02  0.71572691777E+01 -0.10712788143E+02  0.35814336298E+02  0.47000000000E+01 0.  1.
         13    1    6    6    0    0  0.60108835294E+02 -0.34758017184E+02 -0.18172980800E+03  0.19454283578E+03  0.00000000000E+00 0. -1.
        -14    1    6    6    0    0 -0.20602228544E+02 -0.41831094968E+02 -0.16961499518E+03  0.17590775684E+03  0.00000000000E+00 0.  1.
</event>
<event>
12    1  0.8488291E-002  0.1917257E+03  0.7818608E-02  0.1157163E+00
         21   -1    0    0  503  502  0.00000000000E+00  0.00000000000E+00  0.24928844768E+03  0.24928844768E+03  0.00000000000E+00 0. -1.
         21   -1    0    0  501  503 -0.00000000000E+00 -0.00000000000E+00 -0.14870152875E+03  0.14870152875E+03  0.00000000000E+00 0. -1.
          6    2    1    2  501    0  0.82540718757E+02 -0.63287232573E+01  0.74102841762E+02  0.20554798200E+03  0.17293270008E+03 0.  0.
         24    2    3    3    0    0  0.12421882567E+03  0.30063963759E+01  0.67711821530E+02  0.16210670907E+03  0.79084380757E+02 0.  0.
         -6    2    1    2    0  502 -0.82540718757E+02  0.63287232573E+01  0.26484077168E+02  0.19244199442E+03  0.17169592855E+03 0.  0.
        -24    2    5    5    0    0 -0.52395952116E+01 -0.23727212107E+02  0.62054647130E+02  0.10207508455E+03  0.77318236549E+02 0.  0.
          5    1    3    3  501    0 -0.41678106914E+02 -0.93351196332E+01  0.63910202322E+01  0.43441272933E+02  0.47000000000E+01 0. -1.
        -11    1    4    4    0    0  0.99609269737E+02 -0.11080810184E+02  0.13769298292E+02  0.10116513504E+03  0.00000000000E+00 0.  1.
         12    1    4    4    0    0  0.24609555934E+02  0.14087206560E+02  0.53942523238E+02  0.60941574030E+02  0.00000000000E+00 0. -1.
         -5    1    5    5    0  502 -0.77301123546E+02  0.30055935364E+02 -0.35570569962E+02  0.90366909870E+02  0.47000000000E+01 0.  1.
         13    1    6    6    0    0  0.18834532994E+02  0.12209149374E+02 -0.43129055765E+01  0.22856161447E+02  0.00000000000E+00 0. -1.
        -14    1    6    6    0    0 -0.24074128206E+02 -0.35936361481E+02  0.66367552706E+02  0.79218923103E+02  0.00000000000E+00 0.  1.
</event>
<event>
12    1  0.8488291E-002  0.1781641E+03  0.7818608E-02  0.1169608E+00
         21   -1    0    0  503  502  0.00000000000E+00  0.00000000000E+00  0.13328534435E+03  0.13328534435E+03  0.00000000000E+00 0. -1.
         21   -1    0    0  501  503 -0.00000000000E+00 -0.00000000000E+00 -0.26066081766E+03  0.26066081766E+03  0.00000000000E+00 0. -1.
          6    2    1    2  501    0 -0.45190567325E+02 -0.94335128973E+01 -0.56831051577E+01  0.17818822389E+03  0.17201036860E+03 0.  0.
         24    2    3    3    0    0  0.11418967326E+02 -0.45336765336E+02  0.36702470862E+02  0.98738176666E+02  0.78843776279E+02 0.  0.
         -6    2    1    2    0  502  0.45190567325E+02  0.94335128973E+01 -0.12169236815E+03  0.21575793813E+03  0.17207927492E+03 0.  0.
        -24    2    5    5    0    0  0.55413077877E+02  0.44956459435E+02 -0.23251702019E+02  0.11050094690E+03  0.81105642067E+02 0.  0.
          5    1    3    3  501    0 -0.56609534652E+02  0.35903252439E+02 -0.42385576020E+02  0.79450047223E+02  0.47000000000E+01 0. -1.
        -11    1    4    4    0    0  0.28711040356E+02  0.12483992076E+02  0.12997975782E+02  0.33898691285E+02  0.00000000000E+00 0.  1.
         12    1    4    4    0    0 -0.17292073029E+02 -0.57820757412E+02  0.23704495081E+02  0.64839485380E+02  0.00000000000E+00 0. -1.
         -5    1    5    5    0  502 -0.10222510551E+02 -0.35522946537E+02 -0.98440666134E+02  0.10525699122E+03  0.47000000000E+01 0.  1.
         11    1    6    6    0    0  0.32473356389E+02  0.16197066709E+02  0.29100691887E+02  0.46515740492E+02  0.00000000000E+00 0. -1.
        -12    1    6    6    0    0  0.22939721488E+02  0.28759392725E+02 -0.52352393906E+02  0.63985206412E+02  0.00000000000E+00 0.  1.
</event>
<event>
12    1  0.8488291E-002  0.1850995E+03  0.7818608E-02  0.1163398E+00
         21   -1    0    0  501  502  0.00000000000E+00  0.00000000000E+00  0.78545088005E+03  0.78545088005E+03  0.00000000000E+00 0.  1.
         21   -1    0    0  502  503 -0.00000000000E+00 -0.00000000000E+00 -0.46545705567E+02  0.46545705567E+02  0.00000000000E+00 0.  1.
         -6    2    1    2    0  503 -0.60997036499E+02  0.14547006277E+02  0.25581494760E+03  0.31465919004E+03  0.17215360759E+03 0.  0.
        -24    2    3    3    0    0 -0.26434480929E+02  0.75214297830E+02  0.14415205844E+03  0.18287989983E+03  0.79430909792E+02 0.  0.
          6    2    1    2  501    0  0.60997036499E+02 -0.14547006277E+02  0.48309022689E+03  0.51733739558E+03  0.17415383918E+03 0.  0.
         24    2    5    5    0    0 -0.20008375272E+02 -0.14403847003E+02  0.12786803642E+03  0.15296561864E+03  0.80252351109E+02 0.  0.
          5    1    5    5  501    0  0.81005411771E+02 -0.14315927363E+00  0.35522219047E+03  0.36437177695E+03  0.47000000000E+01 0. -1.
        -11    1    6    6    0    0 -0.65844927845E+01 -0.44564402881E+02  0.10031367502E+03  0.10996442582E+03  0.00000000000E+00 0.  1.
         12    1    6    6    0    0 -0.13423882488E+02  0.30160555877E+02  0.27554361394E+02  0.43001192817E+02  0.00000000000E+00 0. -1.
         -5    1    3    3    0  503 -0.34562555569E+02 -0.60667291553E+02  0.11166288916E+03  0.13177929021E+03  0.47000000000E+01 0.  1.
         13    1    4    4    0    0 -0.45575824826E+02  0.44643399779E+02  0.12869092201E+03  0.14363684193E+03  0.00000000000E+00 0. -1.
        -14    1    4    4    0    0  0.19141343897E+02  0.30570898051E+02  0.15461136433E+02  0.39243057904E+02  0.00000000000E+00 0.  1.
</event>
<event>
12    1  0.8488291E-002  0.1850590E+03  0.7818608E-02  0.1163210E+00
         21   -1    0    0  501  502  0.00000000000E+00  0.00000000000E+00  0.67356946699E+03  0.67356946699E+03  0.00000000000E+00 0.  1.
         21   -1    0    0  502  503 -0.00000000000E+00 -0.00000000000E+00 -0.50674004049E+02  0.50674004049E+02  0.00000000000E+00 0. -1.
         -6    2    1    2    0  503  0.67177187593E+02  0.92337977266E+01  0.32684427009E+03  0.37559821196E+03  0.17218827597E+03 0.  0.
        -24    2    3    3    0    0  0.68019203975E+02 -0.41444454403E+02  0.29445996726E+03  0.31526723069E+03  0.79639811148E+02 0.  0.
          6    2    1    2  501    0 -0.67177187593E+02 -0.92337977266E+01  0.29605119285E+03  0.34864525908E+03  0.17119921243E+03 0.  0.
         24    2    5    5    0    0 -0.66187895250E+02  0.33734929636E+02  0.28339173738E+03  0.30359371035E+03  0.79620231036E+02 0.  0.
          5    1    5    5  501    0 -0.98929234256E+00 -0.42968727363E+02  0.12659455467E+02  0.45051548733E+02  0.47000000000E+01 0. -1.
        -11    1    6    6    0    0  0.16155443790E+01 -0.57234827788E+01  0.14015417002E+03  0.14028028946E+03  0.00000000000E+00 0.  1.
         12    1    6    6    0    0 -0.67803439629E+02  0.39458412415E+02  0.14323756737E+03  0.16331342088E+03  0.00000000000E+00 0. -1.
         -5    1    3    3    0  503 -0.84201638234E+00  0.50678252130E+02  0.32384302827E+02  0.60330981263E+02  0.47000000000E+01 0.  1.
         11    1    4    4    0    0  0.35995365820E+02 -0.13081146856E+02  0.33678111029E+02  0.50999979667E+02  0.00000000000E+00 0. -1.
        -12    1    4    4    0    0  0.32023838156E+02 -0.28363307547E+02  0.26078185623E+03  0.26426725103E+03  0.00000000000E+00 0.  1.
</event>
<event>
12    1  0.8488291E-002  0.2194446E+03  0.7818608E-02  0.1134436E+00
         21   -1    0    0  501  502  0.00000000000E+00  0.00000000000E+00  0.28988789167E+03  0.28988789167E+03  0.00000000000E+00 0.  1.
         21   -1    0    0  502  503 -0.00000000000E+00 -0.00000000000E+00 -0.23370508959E+03  0.23370508959E+03  0.00000000000E+00 0. -1.
         -6    2    1    2    0  503 -0.21497521692E+02  0.13357160554E+03 -0.11330700442E+03  0.24631566656E+03  0.17184124388E+03 0.  0.
        -24    2    3    3    0    0  0.40878619075E+02  0.10778254949E+03 -0.11327229022E+03  0.17865512005E+03  0.76150513561E+02 0.  0.
          6    2    1    2  501    0  0.21497521692E+02 -0.13357160554E+03  0.16948980650E+03  0.27727731469E+03  0.17277846362E+03 0.  0.
         24    2    5    5    0    0 -0.35713445252E+02 -0.32186908903E+02  0.11919154039E+03  0.15037594739E+03  0.78069552164E+02 0.  0.
          5    1    5    5  501    0  0.57210966944E+02 -0.10138469664E+03  0.50298266105E+02  0.12690136731E+03  0.47000000000E+01 0. -1.
        -11    1    6    6    0    0 -0.45135937442E+02 -0.16283249127E+02  0.24460671670E+02  0.53858346701E+02  0.00000000000E+00 0.  1.
         12    1    6    6    0    0  0.94224921900E+01 -0.15903659777E+02  0.94730868721E+02  0.96517600685E+02  0.00000000000E+00 0. -1.
         -5    1    3    3    0  503 -0.62376140768E+02  0.25789056045E+02 -0.34714192801E-01  0.67660546509E+02  0.47000000000E+01 0.  1.
         13    1    4    4    0    0 -0.18906805227E+02  0.55714211895E+02 -0.50393996462E+02  0.77466738478E+02  0.00000000000E+00 0. -1.
        -14    1    4    4    0    0  0.59785424302E+02  0.52068337598E+02 -0.62878293761E+02  0.10118838157E+03  0.00000000000E+00 0.  1.
</event>
<event>
12    1  0.8488291E-002  0.1892884E+03  0.7818608E-02  0.1159417E+00
         21   -1    0    0  501  502  0.00000000000E+00  0.00000000000E+00  0.51624293245E+03  0.51624293245E+03  0.00000000000E+00 0. -1.
         21   -1    0    0  502  503 -0.00000000000E+00 -0.00000000000E+00 -0.17980623128E+03  0.17980623128E+03  0.00000000000E+00 0. -1.
         -6    2    1    2    0  503 -0.15587910526E+02  0.69751748502E+02 -0.10487087177E+03  0.21639773836E+03  0.17527633054E+03 0.  0.
        -24    2    3    3    0    0 -0.64646321268E+02  0.12265250795E+01 -0.35288218716E+02  0.10700729309E+03  0.77618626483E+02 0.  0.
          6    2    1    2  501    0  0.15587910526E+02 -0.69751748502E+02  0.44130757294E+03  0.47965142538E+03  0.17379535828E+03 0.  0.
         24    2    5    5    0    0 -0.38759120617E+02 -0.83083845632E+02  0.36474526859E+03  0.38470290746E+03  0.80944556407E+02 0.  0.
          5    1    5    5  501    0  0.54347031142E+02  0.13332097129E+02  0.76562304343E+02  0.94948517914E+02  0.47000000000E+01 0. -1.
        -13    1    6    6    0    0 -0.14119341303E+02  0.47006754885E+00  0.17887536884E+03  0.17943236703E+03  0.00000000000E+00 0.  1.
         14    1    6    6    0    0 -0.24639779314E+02 -0.83553913181E+02  0.18586989976E+03  0.20527054043E+03  0.00000000000E+00 0. -1.
         -5    1    3    3    0  503  0.49058410742E+02  0.68525223423E+02 -0.69582653052E+02  0.10939044527E+03  0.47000000000E+01 0.  1.
         13    1    4    4    0    0 -0.50553814681E+02  0.26575102366E+02  0.50377837568E+01  0.57335011204E+02  0.00000000000E+00 0. -1.
        -14    1    4    4    0    0 -0.14092506587E+02 -0.25348577287E+02 -0.40326002473E+02  0.49672281886E+02  0.00000000000E+00 0.  1.
</event>
<event>
12    1  0.8488291E-002  0.2181085E+03  0.7818608E-02  0.1135338E+00
         21   -1    0    0  501  502  0.00000000000E+00  0.00000000000E+00  0.69924703157E+03  0.69924703157E+03  0.00000000000E+00 0. -1.
         21   -1    0    0  502  503 -0.00000000000E+00 -0.00000000000E+00 -0.69775451320E+02  0.69775451320E+02  0.00000000000E+00 0.  1.
         -6    2    1    2    0  503  0.40094748593E+01 -0.13343689292E+03  0.37670994971E+03  0.43529497580E+03  0.17248144673E+03 0.  0.
        -24    2    3    3    0    0 -0.21165674552E+02 -0.48234227587E+02  0.30958440737E+03  0.32384449010E+03  0.79108924880E+02 0.  0.
          6    2    1    2  501    0 -0.40094748593E+01  0.13343689292E+03  0.25276163054E+03  0.33372750709E+03  0.17223276934E+03 0.  0.
         24    2    5    5    0    0  0.43219428700E+02  0.11916887336E+03  0.12222327778E+03  0.19409764906E+03  0.81646973875E+02 0.  0.
          5    1    5    5  501    0 -0.47228903559E+02  0.14268019559E+02  0.13053835276E+03  0.13962985804E+03  0.47000000000E+01 0. -1.
        -13    1    6    6    0    0 -0.91606671536E+01 -0.14773675311E+01 -0.54785574309E+01  0.10775668380E+02  0.00000000000E+00 0.  1.
         14    1    6    6    0    0  0.52380095854E+02  0.12064624089E+03  0.12770183521E+03  0.18332198067E+03  0.00000000000E+00 0. -1.
         -5    1    3    3    0  503  0.25175149411E+02 -0.85202665330E+02  0.67125542345E+02  0.11145048570E+03  0.47000000000E+01 0.  1.
         11    1    4    4    0    0 -0.26467356816E+02  0.15317698524E+02  0.82902248395E+02  0.88362524036E+02  0.00000000000E+00 0. -1.
        -12    1    4    4    0    0  0.53016822642E+01 -0.63551926112E+02  0.22668215897E+03  0.23548196607E+03  0.00000000000E+00 0.  1.
</event>
<event>
12    1  0.8488291E-002  0.1795872E+03  0.7818608E-02  0.1169832E+00
         21   -1    0    0  501  502  0.00000000000E+00  0.00000000000E+00  0.37564385950E+03  0.37564385950E+03  0.00000000000E+00 0. -1.
         21   -1    0    0  502  503 -0.00000000000E+00 -0.00000000000E+00 -0.10549210713E+03  0.10549210713E+03  0.00000000000E+00 0. -1.
         -6    2    1    2    0  503 -0.43166600077E+01  0.18299848556E+02  0.25346709082E+02  0.18136705753E+03  0.17860021244E+03 0.  0.
        -24    2    3    3    0    0  0.35502817161E+02  0.52753039798E+02 -0.28825298297E+02  0.10567485494E+03  0.79328077697E+02 0.  0.
          6    2    1    2  501    0  0.43166600077E+01 -0.18299848556E+02  0.24480504329E+03  0.29976890910E+03  0.17198363770E+03 0.  0.
         24    2    5    5    0    0  0.29267186914E+02  0.40974597026E+02  0.19911185551E+03  0.22073761086E+03  0.80895463500E+02 0.  0.
          5    1    5    5  501    0 -0.24950526907E+02 -0.59274445582E+02  0.45693187782E+02  0.79031298241E+02  0.47000000000E+01 0. -1.
        -11    1    6    6    0    0 -0.54615914301E+01  0.44907042670E+02  0.49330744293E+02  0.66932755769E+02  0.00000000000E+00 0.  1.
         12    1    6    6    0    0  0.34728778344E+02 -0.39324456448E+01  0.14978111121E+03  0.15380485509E+03  0.00000000000E+00 0. -1.
         -5    1    3    3    0  503 -0.39819477169E+02 -0.34453191242E+02  0.54172007379E+02  0.75692202586E+02  0.47000000000E+01 0.  1.
         11    1    4    4    0    0  0.42981149582E+02  0.58636103779E+02  0.26928265436E+01  0.72751791734E+02  0.00000000000E+00 0. -1.
        -12    1    4    4    0    0 -0.74783324206E+01 -0.58830639808E+01 -0.31518124841E+02  0.32923063209E+02  0.00000000000E+00 0.  1.
</event>
<event>
12    1  0.8488291E-002  0.1764013E+03  0.7818608E-02  0.1171665E+00
         21   -1    0    0  503  502  0.00000000000E+00  0.00000000000E+00  0.83839905917E+02  0.83839905917E+02  0.00000000000E+00 0. -1.
         21   -1    0    0  501  503 -0.00000000000E+00 -0.00000000000E+00 -0.38263316020E+03  0.38263316020E+03  0.00000000000E+00 0. -1.
          6    2    1    2  501    0  0.77512197455E+01 -0.36469035871E+02 -0.19391434690E+03  0.26124877687E+03  0.17104992691E+03 0.  0.
         24    2    3    3    0    0 -0.22844219134E+02 -0.80919745186E+02 -0.14864892826E+03  0.19065844776E+03  0.84760110433E+02 0.  0.
         -6    2    1    2    0  502 -0.77512197455E+01  0.36469035871E+02 -0.10487890738E+03  0.20522428925E+03  0.17241621646E+03 0.  0.
        -24    2    5    5    0    0 -0.58621852565E+02  0.51816534855E+02 -0.10274214144E+03  0.15183868466E+03  0.79859649688E+02 0.  0.
          5    1    3    3  501    0  0.30595438879E+02  0.44450709315E+02 -0.45265418639E+02  0.70590329106E+02  0.47000000000E+01 0. -1.
        -13    1    4    4    0    0 -0.96218726599E+01 -0.28908905227E+02 -0.13049672982E+03  0.13400634958E+03  0.00000000000E+00 0.  1.
         14    1    4    4    0    0 -0.13222346474E+02 -0.52010839959E+02 -0.18152198439E+02  0.56652098176E+02  0.00000000000E+00 0. -1.
         -5    1    5    5    0  502  0.50870632820E+02 -0.15347498984E+02 -0.21367659385E+01  0.53385604588E+02  0.47000000000E+01 0.  1.
         11    1    6    6    0    0 -0.29605565957E+02  0.34374527672E+02 -0.10840350836E+03  0.11751348141E+03  0.00000000000E+00 0. -1.
        -12    1    6    6    0    0 -0.29016286608E+02  0.17442007183E+02  0.56613669123E+01  0.34325203254E+02  0.00000000000E+00 0.  1.
</event>
<event>
12    1  0.8488291E-002  0.2722568E+03  0.7818608E-02  0.1100001E+00
         21   -1    0    0  501  502  0.00000000000E+00  0.00000000000E+00  0.30629989047E+03  0.30629989047E+03  0.00000000000E+00 0. -1.
         21   -1    0    0  502  503 -0.00000000000E+00 -0.00000000000E+00 -0.24282819261E+03  0.24282819261E+03  0.00000000000E+00 0.  1.
         -6    2    1    2    0  503  0.17346739082E+03  0.12020160276E+03  0.48137829526E+02  0.27647970398E+03  0.17200120666E+03 0.  0.
        -24    2    3    3    0    0  0.19830270416E+03  0.81918510078E+02  0.40185383939E+02  0.22992093075E+03  0.72209172159E+02 0.  0.
          6    2    1    2  501    0 -0.17346739082E+03 -0.12020160276E+03  0.15333868329E+02  0.27264837910E+03  0.17193792520E+03 0.  0.
         24    2    5    5    0    0 -0.13636998883E+03 -0.21757398663E+02 -0.21923050352E+02  0.16094499265E+03  0.79702649079E+02 0.  0.
          5    1    5    5  501    0 -0.37097401991E+02 -0.98444204101E+02  0.37256918681E+02  0.11170338645E+03  0.47000000000E+01 0. -1.
        -11    1    6    6    0    0 -0.78627568034E+02 -0.13032306774E+02 -0.52092599133E+02  0.95214360047E+02  0.00000000000E+00 0.  1.
         12    1    6    6    0    0 -0.57742420798E+02 -0.87250918883E+01  0.30169548781E+02  0.65730632598E+02  0.00000000000E+00 0. -1.
         -5    1    3    3    0  503 -0.24835313333E+02  0.38283092686E+02  0.79524455865E+01  0.46558773231E+02  0.47000000000E+01 0.  1.
         13    1    4    4    0    0  0.94489550322E+02  0.35042360145E+02  0.55402760095E+02  0.11500307800E+03  0.00000000000E+00 0. -1.
        -14    1    4    4    0    0  0.10381315383E+03  0.46876149933E+02 -0.15217376156E+02  0.11491785274E+03  0.00000000000E+00 0.  1.
</event>
<event>
12    1  0.8488291E-002  0.2123314E+03  0.7818608E-02  0.1140044E+00
         21   -1    0    0  501  502  0.00000000000E+00  0.00000000000E+00  0.20206894438E+03  0.20206894438E+03  0.00000000000E+00 0. -1.
         21   -1    0    0  502  503 -0.00000000000E+00 -0.00000000000E+00 -0.24634226215E+03  0.24634226215E+03  0.00000000000E+00 0. -1.
         -6    2    1    2    0  503 -0.10034453943E+03 -0.69737909538E+02 -0.93484584634E+02  0.23200001004E+03  0.17364398773E+03 0.  0.
        -24    2    3    3    0    0 -0.27930558430E+02  0.11825933149E+01 -0.98679971510E+02  0.13039988989E+03  0.80528751915E+02 0.  0.
          6    2    1    2  501    0  0.10034453943E+03  0.69737909538E+02  0.49211266855E+02  0.21641119649E+03  0.17169640229E+03 0.  0.
         24    2    5    5    0    0  0.56808965734E+02 -0.29485344781E+02  0.28404712907E+02  0.10597749211E+03  0.79547199664E+02 0.  0.
          5    1    5    5  501    0  0.43535573700E+02  0.99223254319E+02  0.20806553948E+02  0.11043370438E+03  0.47000000000E+01 0. -1.
        -13    1    6    6    0    0  0.72130294360E+02 -0.11995951861E+02  0.36019207640E+02  0.81511137549E+02  0.00000000000E+00 0.  1.
         14    1    6    6    0    0 -0.15321328626E+02 -0.17489392920E+02 -0.76144947325E+01  0.24466354563E+02  0.00000000000E+00 0. -1.
         -5    1    3    3    0  503 -0.72413981004E+02 -0.70920502853E+02  0.51953868760E+01  0.10160012015E+03  0.47000000000E+01 0.  1.
         11    1    4    4    0    0 -0.40072488720E+02 -0.83019566350E+00 -0.10784653272E+03  0.11505376220E+03  0.00000000000E+00 0. -1.
        -12    1    4    4    0    0  0.12141930290E+02  0.20127889784E+01  0.91665612092E+01  0.15346127689E+02  0.00000000000E+00 0.  1.
</event>
<event>
12    1  0.8488291E-002  0.2002600E+03  0.7818608E-02  0.1149945E+00
         21   -1    0    0  501  502  0.00000000000E+00  0.00000000000E+00  0.19040408945E+03  0.19040408945E+03  0.00000000000E+00 0.  1.
         21   -1    0    0  502  503 -0.00000000000E+00 -0.00000000000E+00 -0.45860159674E+03  0.45860159674E+03  0.00000000000E+00 0.  1.
         -6    2    1    2    0  503  0.10006232498E+03 -0.21573304976E+02 -0.37342086817E+03  0.42278449127E+03  0.16978134439E+03 0.  0.
        -24    2    3    3    0    0  0.14447649981E+02  0.37810874578E+02 -0.20510681891E+03  0.22477423261E+03  0.82560593835E+02 0.  0.
          6    2    1    2  501    0 -0.10006232498E+03  0.21573304976E+02  0.10522336089E+03  0.22622119492E+03  0.17212262195E+03 0.  0.
         24    2    5    5    0    0 -0.10366418761E+03 -0.10411100435E+02  0.17645436668E+02  0.13279765178E+03  0.80431337652E+02 0.  0.
          5    1    5    5  501    0  0.36018626324E+01  0.31984405411E+02  0.87577924217E+02  0.93423543147E+02  0.47000000000E+01 0. -1.
        -13    1    6    6    0    0 -0.22485203226E+02  0.29098869487E+02  0.21194821988E+02  0.42444658659E+02  0.00000000000E+00 0.  1.
         14    1    6    6    0    0 -0.81178984384E+02 -0.39509969922E+02 -0.35493853202E+01  0.90352993116E+02  0.00000000000E+00 0. -1.
         -5    1    3    3    0  503  0.85614674997E+02 -0.59384179553E+02 -0.16831404926E+03  0.19801025866E+03  0.47000000000E+01 0.  1.
         11    1    4    4    0    0 -0.21171521837E+01 -0.70282139181E+00  0.76280398690E+01  0.79475331720E+01  0.00000000000E+00 0. -1.
        -12    1    4    4    0    0  0.16564802165E+02  0.38513695969E+02 -0.21273485878E+03  0.21682669944E+03  0.00000000000E+00 0.  1.
</event>
<event>
12    1  0.8488291E-002  0.1879982E+03  0.7818608E-02  0.1160452E+00
         21   -1    0    0  501  502  0.00000000000E+00  0.00000000000E+00  0.59054471545E+03  0.59054471545E+03  0.00000000000E+00 0. -1.
         21   -1    0    0  502  503 -0.00000000000E+00 -0.00000000000E+00 -0.10104146506E+03  0.10104146506E+03  0.00000000000E+00 0. -1.
         -6    2    1    2    0  503 -0.57132422932E+02  0.48361659995E+02  0.23611780861E+02  0.18947517020E+03  0.17245393594E+03 0.  0.
        -24    2    3    3    0    0  0.18930642030E+02  0.32876468454E+02  0.56727243097E+02  0.10495236353E+03  0.79735732995E+02 0.  0.
          6    2    1    2  501    0  0.57132422932E+02 -0.48361659995E+02  0.46589146953E+03  0.50211101031E+03  0.17163228538E+03 0.  0.
         24    2    5    5    0    0 -0.21984716888E+02 -0.59660663284E+02  0.19466241088E+03  0.21931341211E+03  0.78499656070E+02 0.  0.
          5    1    5    5  501    0  0.79117139819E+02  0.11299003289E+02  0.27122905866E+03  0.28279759820E+03  0.47000000000E+01 0. -1.
        -13    1    6    6    0    0  0.68683235961E+01  0.12995363371E+02  0.75450655742E+01  0.16522147339E+02  0.00000000000E+00 0.  1.
         14    1    6    6    0    0 -0.28853040484E+02 -0.72656026656E+02  0.18711734530E+03  0.20279126477E+03  0.00000000000E+00 0. -1.
         -5    1    3    3    0  503 -0.76063064962E+02  0.15485191540E+02 -0.33115462235E+02  0.84522806671E+02  0.47000000000E+01 0.  1.
         13    1    4    4    0    0 -0.19492534010E+02  0.99774055320E+00 -0.97477623886E+01  0.21816810947E+02  0.00000000000E+00 0. -1.
        -14    1    4    4    0    0  0.38423176040E+02  0.31878727901E+02  0.66475005485E+02  0.83135552587E+02  0.00000000000E+00 0.  1.
</event>
<event>
12    1  0.8488291E-002  0.2357807E+03  0.7818608E-02  0.1122887E+00
         21   -1    0    0  501  502  0.00000000000E+00  0.00000000000E+00  0.70997135254E+02  0.70997135254E+02  0.00000000000E+00 0. -1.
         21   -1    0    0  502  503 -0.00000000000E+00 -0.00000000000E+00 -0.10570207316E+04  0.10570207316E+04  0.00000000000E+00 0. -1.
         -6    2    1    2    0  503  0.56350355799E+02  0.14953446315E+03 -0.78384293025E+03  0.81853667611E+03  0.17336848782E+03 0.  0.
        -24    2    3    3    0    0  0.10227060513E+02  0.54384404015E+01 -0.34961770139E+03  0.35868380668E+03  0.79292916789E+02 0.  0.
          6    2    1    2  501    0 -0.56350355799E+02 -0.14953446315E+03 -0.20218066611E+03  0.30948119075E+03  0.17136413690E+03 0.  0.
         24    2    5    5    0    0 -0.33406862254E+02 -0.17119114634E+03 -0.19951333054E+03  0.27747149688E+03  0.82234028770E+02 0.  0.
          5    1    5    5  501    0 -0.22943493545E+02  0.21656683192E+02 -0.26673355713E+01  0.32009693875E+02  0.47000000000E+01 0. -1.
        -13    1    6    6    0    0  0.23327549142E+02 -0.30808593148E+02 -0.61287029850E+02  0.72453046786E+02  0.00000000000E+00 0.  1.
         14    1    6    6    0    0 -0.56734411396E+02 -0.14038255319E+03 -0.13822630069E+03  0.20501845009E+03  0.00000000000E+00 0. -1.
         -5    1    3    3    0  503  0.46123295286E+02  0.14409602275E+03 -0.43422522886E+03  0.45985286942E+03  0.47000000000E+01 0.  1.
         13    1    4    4    0    0  0.40947417679E+02  0.19370163934E+02 -0.22905923144E+03  0.23349523716E+03  0.00000000000E+00 0. -1.
        -14    1    4    4    0    0 -0.30720357166E+02 -0.13931723532E+02 -0.12055846995E+03  0.12518856953E+03  0.00000000000E+00 0.  1.
</event>
<event>
12    1  0.8488291E-002  0.3136022E+03  0.7818608E-02  0.1078686E+00
         21   -1    0    0  503  502  0.00000000000E+00  0.00000000000E+00  0.83264695091E+03  0.83264695091E+03  0.00000000000E+00 0.  1.
         21   -1    0    0  501  503 -0.00000000000E+00 -0.00000000000E+00 -0.14890315768E+03  0.14890315768E+03  0.00000000000E+00 0.  1.
          6    2    1    2  501    0 -0.10876808394E+03 -0.23675208191E+03  0.56586007045E+03  0.64694971115E+03  0.17454015317E+03 0.  0.
         24    2    3    3    0    0 -0.13123530689E+03 -0.17264502991E+03  0.50405740841E+03  0.55499238813E+03  0.83148468307E+02 0.  0.
         -6    2    1    2    0  502  0.10876808394E+03  0.23675208191E+03  0.11788372278E+03  0.33460039744E+03  0.17372049245E+03 0.  0.
        -24    2    5    5    0    0  0.13374153542E+03  0.14707337704E+03  0.48851300572E+02  0.21861113629E+03  0.76726806358E+02 0.  0.
          5    1    3    3  501    0  0.22467222955E+02 -0.64107051997E+02  0.61802662036E+02  0.91957323024E+02  0.47000000000E+01 0. -1.
        -11    1    4    4    0    0 -0.12408398148E+02 -0.12090887149E+02  0.12811404260E+03  0.12928018335E+03  0.00000000000E+00 0.  1.
         12    1    4    4    0    0 -0.11882690874E+03 -0.16055414276E+03  0.37594336581E+03  0.42571220478E+03  0.00000000000E+00 0. -1.
         -5    1    5    5    0  502 -0.24973451480E+02  0.89678704868E+02  0.69032422204E+02  0.11598926115E+03  0.47000000000E+01 0.  1.
         13    1    6    6    0    0  0.61788665998E+02  0.50871722742E+02  0.56912290566E+02  0.98207842040E+02  0.00000000000E+00 0. -1.
        -14    1    6    6    0    0  0.71952869417E+02  0.96201654297E+02 -0.80609899945E+01  0.12040329425E+03  0.00000000000E+00 0.  1.
</event>
<event>
12    1  0.8488291E-002  0.1780206E+03  0.7818608E-02  0.1170073E+00
         21   -1    0    0  501  502  0.00000000000E+00  0.00000000000E+00  0.52849793568E+02  0.52849793568E+02  0.00000000000E+00 0. -1.
         21   -1    0    0  502  503 -0.00000000000E+00 -0.00000000000E+00 -0.63183250802E+03  0.63183250802E+03  0.00000000000E+00 0. -1.
         -6    2    1    2    0  503  0.20489573454E+02 -0.37806314952E+02 -0.37107512827E+03  0.41097280409E+03  0.17132645681E+03 0.  0.
        -24    2    3    3    0    0  0.54758908054E+02  0.49865016630E+01 -0.32503478128E+03  0.33922730946E+03  0.80025965982E+02 0.  0.
          6    2    1    2  501    0 -0.20489573454E+02  0.37806314952E+02 -0.20790758618E+03  0.27370949750E+03  0.17274890611E+03 0.  0.
         24    2    5    5    0    0 -0.29980850305E+02  0.37530358370E+01 -0.26447768808E+02  0.88778522610E+02  0.79178311039E+02 0.  0.
          5    1    5    5  501    0  0.94912768517E+01  0.34053279115E+02 -0.18145981737E+03  0.18493097489E+03  0.47000000000E+01 0. -1.
        -13    1    6    6    0    0 -0.28403062073E+02 -0.16278139403E+02 -0.48773985686E+02  0.58741922315E+02  0.00000000000E+00 0.  1.
         14    1    6    6    0    0 -0.15777882325E+01  0.20031175240E+02  0.22326216878E+02  0.30036600295E+02  0.00000000000E+00 0. -1.
         -5    1    3    3    0  503 -0.34269334600E+02 -0.42792816615E+02 -0.46040346995E+02  0.71745494626E+02  0.47000000000E+01 0.  1.
         13    1    4    4    0    0 -0.19273873238E+02 -0.43327406181E+01 -0.10617969676E+03  0.10800177237E+03  0.00000000000E+00 0. -1.
        -14    1    4    4    0    0  0.74032781292E+02  0.93192422811E+01 -0.21885508452E+03  0.23122553709E+03  0.00000000000E+00 0.  1.
</event>
<event>
12    1  0.8488291E-002  0.2255457E+03  0.7818608E-02  0.1130049E+00
         21   -1    0    0  503  502  0.00000000000E+00  0.00000000000E+00  0.70050537031E+03  0.70050537031E+03  0.00000000000E+00 0.  1.
         21   -1    0    0  501  503 -0.00000000000E+00 -0.00000000000E+00 -0.78806473414E+02  0.78806473414E+02  0.00000000000E+00 0. -1.
          6    2    1    2  501    0 -0.10614041676E+03  0.10011148507E+03  0.42281906734E+03  0.47860593224E+03  0.17029262212E+03 0.  0.
         24    2    3    3    0    0 -0.12407829961E+03  0.41790895397E+02  0.35890656451E+03  0.39011888889E+03  0.78974185997E+02 0.  0.
         -6    2    1    2    0  502  0.10614041676E+03 -0.10011148507E+03  0.19887982955E+03  0.30070591148E+03  0.17199639846E+03 0.  0.
        -24    2    5    5    0    0  0.86787164558E+02 -0.65503504067E+02  0.45277594736E+02  0.14199864240E+03  0.79314770886E+02 0.  0.
          5    1    3    3  501    0  0.17937882842E+02  0.58320589677E+02  0.63912502835E+02  0.88487043344E+02  0.47000000000E+01 0. -1.
        -13    1    4    4    0    0 -0.16110561403E+02 -0.18318844688E+02  0.29401622806E+02  0.38204524380E+02  0.00000000000E+00 0.  1.
         14    1    4    4    0    0 -0.10796773820E+03  0.60109740085E+02  0.32950494170E+03  0.35191436451E+03  0.00000000000E+00 0. -1.
         -5    1    5    5    0  502  0.19353252206E+02 -0.34607981007E+02  0.15360223481E+03  0.15870726908E+03  0.47000000000E+01 0.  1.
         11    1    6    6    0    0  0.69191903515E+02 -0.75408361770E+02  0.58481653385E+02  0.11787300081E+03  0.00000000000E+00 0. -1.
        -12    1    6    6    0    0  0.17595261043E+02  0.99048577028E+01 -0.13204058650E+02  0.24125641589E+02  0.00000000000E+00 0.  1.
</event>
<event>
12    1  0.8488291E-002  0.2038109E+03  0.7818608E-02  0.1146874E+00
         21   -1    0    0  503  502  0.00000000000E+00  0.00000000000E+00  0.11236409631E+03  0.11236409631E+03  0.00000000000E+00 0.  1.
         21   -1    0    0  501  503 -0.00000000000E+00 -0.00000000000E+00 -0.46957616818E+03  0.46957616818E+03  0.00000000000E+00 0.  1.
          6    2    1    2  501    0  0.10315707048E+03  0.29050413712E+02 -0.31411259335E+03  0.37362210566E+03  0.17158510659E+03 0.  0.
         24    2    3    3    0    0  0.41092163208E+02  0.30746339833E+02 -0.28285418363E+03  0.30395068355E+03  0.98719934873E+02 0.  0.
         -6    2    1    2    0  502 -0.10315707048E+03 -0.29050413712E+02 -0.43099478519E+02  0.20831815884E+03  0.17335969118E+03 0.  0.
        -24    2    5    5    0    0 -0.85330690784E+01 -0.70224658812E+01 -0.71155778690E+02  0.10708487327E+03  0.79258418783E+02 0.  0.
          5    1    3    3  501    0  0.62064907273E+02 -0.16959261211E+01 -0.31258409721E+02  0.69671422107E+02  0.47000000000E+01 0. -1.
        -13    1    4    4    0    0  0.73235199468E+02  0.29708947518E+02 -0.19601622627E+03  0.21134894597E+03  0.00000000000E+00 0.  1.
         14    1    4    4    0    0 -0.32143036260E+02  0.10373923148E+01 -0.86837957365E+02  0.92601737576E+02  0.00000000000E+00 0. -1.
         -5    1    5    5    0  502 -0.94624001403E+02 -0.22027947831E+02  0.28056300171E+02  0.10123328557E+03  0.47000000000E+01 0.  1.
         11    1    6    6    0    0  0.23383135224E+02  0.33401974430E+01  0.47493152814E+01  0.24093234061E+02  0.00000000000E+00 0. -1.
        -12    1    6    6    0    0 -0.31916204302E+02 -0.10362663324E+02 -0.75905093972E+02  0.82991639212E+02  0.00000000000E+00 0.  1.
</event>
<event>
12    1  0.8488291E-002  0.1773868E+03  0.7818608E-02  0.1170910E+00
         21   -1    0    0  503  502  0.00000000000E+00  0.00000000000E+00  0.60902838999E+02  0.60902838999E+02  0.00000000000E+00 0.  1.
         21   -1    0    0  501  503 -0.00000000000E+00 -0.00000000000E+00 -0.61092145634E+03  0.61092145634E+03  0.00000000000E+00 0. -1.
          6    2    1    2  501    0  0.29500140945E+02  0.24548844684E+02 -0.40995768187E+03  0.44580852253E+03  0.17090065461E+03 0.  0.
         24    2    3    3    0    0  0.74776473956E+02  0.34446143387E+02 -0.21896189399E+03  0.24921405709E+03  0.85937636581E+02 0.  0.
         -6    2    1    2    0  502 -0.29500140945E+02 -0.24548844684E+02 -0.14006093547E+03  0.22601577281E+03  0.17318533374E+03 0.  0.
        -24    2    5    5    0    0 -0.70736871578E+02 -0.29058640605E+02 -0.14673946784E+03  0.18373694824E+03  0.79866670968E+02 0.  0.
          5    1    3    3  501    0 -0.45276333011E+02 -0.98972987031E+01 -0.19099578789E+03  0.19659446544E+03  0.47000000000E+01 0. -1.
        -13    1    4    4    0    0  0.75628812188E+01  0.10586603217E+02  0.51757298891E+01  0.14002196966E+02  0.00000000000E+00 0.  1.
         14    1    4    4    0    0  0.67213592737E+02  0.23859540171E+02 -0.22413762388E+03  0.23521186012E+03  0.00000000000E+00 0. -1.
         -5    1    5    5    0  502  0.41236730632E+02  0.45097959202E+01  0.66785323707E+01  0.42278824571E+02  0.47000000000E+01 0.  1.
         13    1    6    6    0    0 -0.50632973110E+02  0.21272743772E+02 -0.58979987853E+02  0.80590734956E+02  0.00000000000E+00 0. -1.
        -14    1    6    6    0    0 -0.20103898468E+02 -0.50331384377E+02 -0.87759479987E+02  0.10314621328E+03  0.00000000000E+00 0.  1.
</event>
<event>
12    1  0.8488291E-002  0.1900180E+03  0.7818608E-02  0.1158720E+00
         21   -1    0    0  503  502  0.00000000000E+00  0.00000000000E+00  0.25371463060E+02  0.25371463060E+02  0.00000000000E+00 0. -1.
         21   -1    0    0  501  503 -0.00000000000E+00 -0.00000000000E+00 -0.17044596849E+04  0.17044596849E+04  0.00000000000E+00 0. -1.
          6    2    1    2  501    0  0.38535717833E+02  0.73779144055E+02 -0.11987833037E+04  0.12137496729E+04  0.17081714054E+03 0.  0.
         24    2    3    3    0    0 -0.31698649393E+02  0.39759349167E+02 -0.53390879961E+03  0.54429436519E+03  0.92801613441E+02 0.  0.
         -6    2    1    2    0  502 -0.38535717833E+02 -0.73779144055E+02 -0.48030491818E+03  0.51608147513E+03  0.16946654804E+03 0.  0.
        -24    2    5    5    0    0 -0.73113317775E+02 -0.28401050573E+01 -0.30503809121E+03  0.32380951070E+03  0.80316490821E+02 0.  0.
          5    1    3    3  501    0  0.70234367226E+02  0.34019794888E+02 -0.66487450408E+03  0.66945530767E+03  0.47000000000E+01 0. -1.
        -13    1    4    4    0    0 -0.38465913581E+02 -0.10137068041E+02 -0.38610762077E+03  0.38815136413E+03  0.00000000000E+00 0.  1.
         14    1    4    4    0    0  0.67672641880E+01  0.49896417208E+02 -0.14780117883E+03  0.15614300106E+03  0.00000000000E+00 0. -1.
         -5    1    5    5    0  502  0.34577599941E+02 -0.70939038998E+02 -0.17526682697E+03  0.19227196443E+03  0.47000000000E+01 0.  1.
         11    1    6    6    0    0 -0.82840378959E+02  0.13933510089E+02 -0.19885080758E+03  0.21586642806E+03  0.00000000000E+00 0. -1.
        -12    1    6    6    0    0  0.97270611847E+01 -0.16773615146E+02 -0.10618728363E+03  0.10794308264E+03  0.00000000000E+00 0.  1.
</event>
<event>
12    1  0.8488291E-002  0.2376929E+03  0.7818608E-02  0.1121400E+00
         21   -1    0    0  503  502  0.00000000000E+00  0.00000000000E+00  0.33625177784E+03  0.33625177784E+03  0.00000000000E+00 0.  1.
         21   -1    0    0  501  503 -0.00000000000E+00 -0.00000000000E+00 -0.18347419931E+03  0.18347419931E+03  0.00000000000E+00 0. -1.
          6    2    1    2  501    0 -0.16186384596E+03  0.25284015369E+02  0.15236110373E+03  0.28203271825E+03  0.17172466966E+03 0.  0.
         24    2    3    3    0    0 -0.10206376135E+03  0.16477902424E+02  0.16138240004E+02  0.13292753274E+03  0.81980202004E+02 0.  0.
         -6    2    1    2    0  502  0.16186384596E+03 -0.25284015369E+02  0.41647480735E+00  0.23769325890E+03  0.17221708920E+03 0.  0.
        -24    2    5    5    0    0  0.15603157904E+03 -0.72626254502E+02 -0.70498335074E+00  0.18974901408E+03  0.79898465825E+02 0.  0.
          5    1    3    3  501    0 -0.59800084615E+02  0.88061129449E+01  0.13622286372E+03  0.14910518551E+03  0.47000000000E+01 0. -1.
        -11    1    4    4    0    0 -0.17217083617E+02  0.25815501110E+02  0.33668735778E+02  0.45787026926E+02  0.00000000000E+00 0.  1.
         12    1    4    4    0    0 -0.84846677730E+02 -0.93375986859E+01 -0.17530495774E+02  0.87140505812E+02  0.00000000000E+00 0. -1.
         -5    1    5    5    0  502  0.58322669256E+01  0.47342239132E+02  0.11214581581E+01  0.47944244826E+02  0.47000000000E+01 0.  1.
         13    1    6    6    0    0  0.10374187915E+02 -0.38816284585E+02  0.14247916574E+01  0.40203951984E+02  0.00000000000E+00 0. -1.
        -14    1    6    6    0    0  0.14565739112E+03 -0.33809969917E+02 -0.21297750082E+01  0.14954506209E+03  0.00000000000E+00 0.  1.
</event>
<event>
12    1  0.8488291E-002  0.1861945E+03  0.7818608E-02  0.1161969E+00
         21   -1    0    0  501  502  0.00000000000E+00  0.00000000000E+00  0.49636091288E+03  0.49636091288E+03  0.00000000000E+00 0.  1.
         21   -1    0    0  502  503 -0.00000000000E+00 -0.00000000000E+00 -0.82414213944E+02  0.82414213944E+02  0.00000000000E+00 0. -1.
         -6    2    1    2    0  503 -0.28684311813E+02  0.66097313603E+02  0.32026635119E+03  0.37045770494E+03  0.17168788786E+03 0.  0.
        -24    2    3    3    0    0 -0.48090905961E+02  0.72159409895E+02  0.11695589190E+03  0.16607914011E+03  0.79899214366E+02 0.  0.
          6    2    1    2  501    0  0.28684311813E+02 -0.66097313603E+02  0.93680347743E+02  0.20831742188E+03  0.17154735817E+03 0.  0.
         24    2    5    5    0    0 -0.82907084362E+01 -0.10406347824E+03  0.74794155364E+02  0.15186071242E+03  0.81052865158E+02 0.  0.
          5    1    5    5  501    0  0.36975020249E+02  0.37966164640E+02  0.18886192380E+02  0.56456709455E+02  0.47000000000E+01 0. -1.
        -13    1    6    6    0    0  0.64593493984E+01  0.95179837865E+01 -0.47166585459E+01  0.12432299781E+02  0.00000000000E+00 0.  1.
         14    1    6    6    0    0 -0.14750057835E+02 -0.11358146203E+03  0.79510813910E+02  0.13942841264E+03  0.00000000000E+00 0. -1.
         -5    1    3    3    0  503  0.19406594148E+02 -0.60620962917E+01  0.20331045929E+03  0.20437856483E+03  0.47000000000E+01 0.  1.
         11    1    4    4    0    0 -0.61754082597E+02  0.46595170136E+02  0.11282521842E+03  0.13679987759E+03  0.00000000000E+00 0. -1.
        -12    1    4    4    0    0  0.13663176636E+02  0.25564239759E+02  0.41306734827E+01  0.29279262519E+02  0.00000000000E+00 0.  1.
</event>
<event>
12    1  0.8488291E-002  0.1780417E+03  0.7818608E-02  0.1169748E+00
         21   -1    0    0  503  502  0.00000000000E+00  0.00000000000E+00  0.27564847939E+03  0.27564847939E+03  0.00000000000E+00 0.  1.
         21   -1    0    0  501  503 -0.00000000000E+00 -0.00000000000E+00 -0.20335214636E+03  0.20335214636E+03  0.00000000000E+00 0.  1.
          6    2    1    2  501    0 -0.12859281755E+02  0.44451979770E+02 -0.12181324742E+03  0.21560477754E+03  0.17177198030E+03 0.  0.
         24    2    3    3    0    0 -0.27931216461E+02 -0.22021608854E+02 -0.12676177354E+03  0.14710310522E+03  0.65617621286E+02 0.  0.
         -6    2    1    2    0  502  0.12859281755E+02 -0.44451979770E+02  0.19410958045E+03  0.26339584821E+03  0.17192295948E+03 0.  0.
        -24    2    5    5    0    0  0.20809391613E+02  0.16205620406E+02  0.30469892074E+02  0.88631474498E+02  0.78939667067E+02 0.  0.
          5    1    3    3  501    0  0.15071934707E+02  0.66473588623E+02  0.49485261204E+01  0.68501672323E+02  0.47000000000E+01 0. -1.
        -13    1    4    4    0    0  0.19928478814E+02 -0.13005714045E+02 -0.59319730884E+02  0.63914969590E+02  0.00000000000E+00 0.  1.
         14    1    4    4    0    0 -0.47859695275E+02 -0.90158948091E+01 -0.67442042658E+02  0.83188135626E+02  0.00000000000E+00 0. -1.
         -5    1    5    5    0  502 -0.79501098588E+01 -0.60657600176E+02  0.16363968838E+03  0.17476437371E+03  0.47000000000E+01 0.  1.
         11    1    6    6    0    0  0.18624856266E+02 -0.30686748979E+02  0.17467191059E+02  0.39920728918E+02  0.00000000000E+00 0. -1.
        -12    1    6    6    0    0  0.21845353474E+01  0.46892369385E+02  0.13002701015E+02  0.48710745580E+02  0.00000000000E+00 0.  1.
</event>
<event>
12    1  0.8488291E-002  0.2858708E+03  0.7818608E-02  0.1092652E+00
         21   -1    0    0  503  502  0.00000000000E+00  0.00000000000E+00  0.78457311908E+03  0.78457311908E+03  0.00000000000E+00 0.  1.
         21   -1    0    0  501  503 -0.00000000000E+00 -0.00000000000E+00 -0.10406082762E+03  0.10406082762E+03  0.00000000000E+00 0.  1.
          6    2    1    2  501    0 -0.22331791110E+03  0.42699470761E+02  0.31918651888E+03  0.42848818817E+03  0.17328577364E+03 0.  0.
         24    2    3    3    0    0 -0.16478271644E+03 -0.36862378670E+02  0.19510923431E+03  0.26982590707E+03  0.78906452290E+02 0.  0.
         -6    2    1    2    0  502  0.22331791110E+03 -0.42699470761E+02  0.36132577258E+03  0.46014575854E+03  0.17170809808E+03 0.  0.
        -24    2    5    5    0    0  0.17532356266E+03  0.37344243360E+01  0.33750539676E+03  0.38908898968E+03  0.82024700546E+02 0.  0.
          5    1    3    3  501    0 -0.58535194664E+02  0.79561849430E+02  0.12407728456E+03  0.15866228110E+03  0.47000000000E+01 0. -1.
        -13    1    4    4    0    0 -0.11592245161E+03  0.12885415514E+02  0.12035239436E+03  0.16759697954E+03  0.00000000000E+00 0.  1.
         14    1    4    4    0    0 -0.48860264825E+02 -0.49747794183E+02  0.74756839953E+02  0.10222892753E+03  0.00000000000E+00 0. -1.
         -5    1    5    5    0  502  0.47994348439E+02 -0.46433895097E+02  0.23820375823E+02  0.71056768857E+02  0.47000000000E+01 0.  1.
         11    1    6    6    0    0 -0.66007697098E+01 -0.88794930305E+01  0.23406082785E+02  0.25889385249E+02  0.00000000000E+00 0. -1.
        -12    1    6    6    0    0  0.18192433237E+03  0.12613917367E+02  0.31409931397E+03  0.36319960443E+03  0.00000000000E+00 0.  1.
</event>
<event>
12    1  0.8488291E-002  0.1753515E+03  0.7818608E-02  0.1172761E+00
         21   -1    0    0  503  502  0.00000000000E+00  0.00000000000E+00  0.34589241950E+03  0.34589241950E+03  0.00000000000E+00 0.  1.
         21   -1    0    0  501  503 -0.00000000000E+00 -0.00000000000E+00 -0.10149258223E+03  0.10149258223E+03  0.00000000000E+00 0.  1.
          6    2    1    2  501    0 -0.34216425633E+02  0.15811405669E+02  0.41486178786E+02  0.18019226360E+03  0.17125239998E+03 0.  0.
         24    2    3    3    0    0 -0.49217300398E+01  0.53469454284E+02  0.73122015593E+02  0.12275339187E+03  0.82694377577E+02 0.  0.
         -6    2    1    2    0  502  0.34216425633E+02 -0.15811405669E+02  0.20291365848E+03  0.26719273812E+03  0.16969750197E+03 0.  0.
        -24    2    5    5    0    0 -0.12783667613E+02  0.13164573974E+02  0.19476361114E+03  0.21118265480E+03  0.79552003755E+02 0.  0.
          5    1    3    3  501    0 -0.29294695593E+02 -0.37658048615E+02 -0.31635836807E+02  0.57438871732E+02  0.47000000000E+01 0. -1.
        -13    1    4    4    0    0 -0.25219128103E+02 -0.35490770320E+01  0.53290989132E+02  0.59063778178E+02  0.00000000000E+00 0.  1.
         14    1    4    4    0    0  0.20297398063E+02  0.57018531316E+02  0.19831026461E+02  0.63689613690E+02  0.00000000000E+00 0. -1.
         -5    1    5    5    0  502  0.47000093246E+02 -0.28975979643E+02  0.81500473455E+01  0.56010083317E+02  0.47000000000E+01 0.  1.
         11    1    6    6    0    0  0.14978947203E+02  0.83009264759E+01  0.17708639205E+03  0.17791251920E+03  0.00000000000E+00 0. -1.
        -12    1    6    6    0    0 -0.27762614816E+02  0.48636474980E+01  0.17677219091E+02  0.33270135605E+02  0.00000000000E+00 0.  1.
</event>
<event>
12    1  0.8488291E-002  0.2129274E+03  0.7818608E-02  0.1139849E+00
         21   -1    0    0  503  502  0.00000000000E+00  0.00000000000E+00  0.23114392862E+03  0.23114392862E+03  0.00000000000E+00 0. -1.
         21   -1    0    0  501  503 -0.00000000000E+00 -0.00000000000E+00 -0.26373381371E+03  0.26373381371E+03  0.00000000000E+00 0.  1.
          6    2    1    2  501    0 -0.44648254694E+02 -0.11656461453E+03 -0.14413546214E+03  0.25712473575E+03  0.17250310803E+03 0.  0.
         24    2    3    3    0    0  0.38731589348E+02 -0.58765222752E+02 -0.99609419428E+02  0.14623007149E+03  0.80670378391E+02 0.  0.
         -6    2    1    2    0  502  0.44648254694E+02  0.11656461453E+03  0.11154557705E+03  0.23775300658E+03  0.16882920473E+03 0.  0.
        -24    2    5    5    0    0  0.27554080941E+02  0.42829536055E+02  0.12984283740E+03  0.15974049277E+03  0.77873397715E+02 0.  0.
          5    1    3    3  501    0 -0.83379844042E+02 -0.57799391779E+02 -0.44526042709E+02  0.11089466426E+03  0.47000000000E+01 0. -1.
        -11    1    4    4    0    0  0.29062816896E+02 -0.47335313800E+02 -0.11328500964E+02  0.56688748377E+02  0.00000000000E+00 0.  1.
         12    1    4    4    0    0  0.96687724515E+01 -0.11429908953E+02 -0.88280918464E+02  0.89541323110E+02  0.00000000000E+00 0. -1.
         -5    1    5    5    0  502  0.17094173753E+02  0.73735078476E+02 -0.18297260350E+02  0.78012513807E+02  0.47000000000E+01 0.  1.
         11    1    6    6    0    0  0.40939003380E+02  0.35310627589E+02  0.36705326918E+02  0.65346181545E+02  0.00000000000E+00 0. -1.
        -12    1    6    6    0    0 -0.13384922438E+02  0.75189084661E+01  0.93137510479E+02  0.94394311224E+02  0.00000000000E+00 0.  1.
</event>
<event>
12    1  0.8488291E-002  0.1766432E+03  0.7818608E-02  0.1171586E+00
         21   -1    0    0  501  502  0.00000000000E+00  0.00000000000E+00  0.14117508534E+03  0.14117508534E+03  0.00000000000E+00 0. -1.
         21   -1    0    0  502  503 -0.00000000000E+00 -0.00000000000E+00 -0.50871960858E+03  0.50871960858E+03  0.00000000000E+00 0. -1.
         -6    2    1    2    0  503 -0.79416546524E+01 -0.34223774461E+02 -0.42962821539E+03  0.46452471054E+03  0.17311402782E+03 0.  0.
        -24    2    3    3    0    0 -0.15633897866E+02 -0.61171004508E+02 -0.42326690155E+03  0.43540632929E+03  0.80233977094E+02 0.  0.
          6    2    1    2  501    0  0.79416546524E+01  0.34223774461E+02  0.62083692137E+02  0.18536998338E+03  0.17109444554E+03 0.  0.
         24    2    5    5    0    0 -0.24233723576E+02  0.43445018022E+02 -0.20859879307E+02  0.95804296089E+02  0.79174400124E+02 0.  0.
          5    1    5    5  501    0  0.32175378228E+02 -0.92212435604E+01  0.82943571444E+02  0.89565687296E+02  0.47000000000E+01 0. -1.
        -13    1    6    6    0    0 -0.36383634161E+02  0.16847162290E+02  0.20594186428E+02  0.45074562966E+02  0.00000000000E+00 0.  1.
         14    1    6    6    0    0  0.12149910585E+02  0.26597855732E+02 -0.41454065734E+02  0.50729733122E+02  0.00000000000E+00 0. -1.
         -5    1    3    3    0  503  0.76922432138E+01  0.26947230046E+02 -0.63613138346E+01  0.29118381248E+02  0.47000000000E+01 0.  1.
         13    1    4    4    0    0 -0.46955637778E+02 -0.31021869039E+02 -0.19153991195E+03  0.19963648501E+03  0.00000000000E+00 0. -1.
        -14    1    4    4    0    0  0.31321739912E+02 -0.30149135468E+02 -0.23172698960E+03  0.23576984428E+03  0.00000000000E+00 0.  1.
</event>
<event>
12    1  0.8488291E-002  0.2725501E+03  0.7818608E-02  0.1099969E+00
         21   -1    0    0  501  502  0.00000000000E+00  0.00000000000E+00  0.11789393858E+03  0.11789393858E+03  0.00000000000E+00 0. -1.
         21   -1    0    0  502  503 -0.00000000000E+00 -0.00000000000E+00 -0.99162867748E+03  0.99162867748E+03  0.00000000000E+00 0. -1.
         -6    2    1    2    0  503  0.19576862765E+03 -0.78517683049E+02 -0.77239500222E+03  0.81874207883E+03  0.17103850464E+03 0.  0.
        -24    2    3    3    0    0  0.16260630356E+03 -0.97343520301E+02 -0.45459509621E+03  0.49862800206E+03  0.77824238107E+02 0.  0.
          6    2    1    2  501    0 -0.19576862765E+03  0.78517683049E+02 -0.10133973669E+03  0.29078053724E+03  0.17260705803E+03 0.  0.
         24    2    5    5    0    0 -0.77976062085E+02  0.54888019913E+02 -0.11491457217E+03  0.16978543139E+03  0.80800821938E+02 0.  0.
          5    1    5    5  501    0 -0.11779256556E+03  0.23629663137E+02  0.13574835482E+02  0.12099510585E+03  0.47000000000E+01 0. -1.
        -13    1    6    6    0    0 -0.67561436734E+02  0.75420547567E+02 -0.10025478634E+03  0.14249150471E+03  0.00000000000E+00 0.  1.
         14    1    6    6    0    0 -0.10414625351E+02 -0.20532527655E+02 -0.14659785825E+02  0.27293926678E+02  0.00000000000E+00 0. -1.
         -5    1    3    3    0  503  0.33162324091E+02  0.18825837252E+02 -0.31779990600E+03  0.32011407677E+03  0.47000000000E+01 0.  1.
         13    1    4    4    0    0  0.12786043629E+03 -0.35392872267E+02 -0.32072688170E+03  0.34708310132E+03  0.00000000000E+00 0. -1.
        -14    1    4    4    0    0  0.34745867263E+02 -0.61950648035E+02 -0.13386821452E+03  0.15154490074E+03  0.00000000000E+00 0.  1.
</event>
<event>
12    1  0.8488291E-002  0.2491497E+03  0.7818608E-02  0.1113885E+00
         21   -1    0    0  503  502  0.00000000000E+00  0.00000000000E+00  0.10337588155E+03  0.10337588155E+03  0.00000000000E+00 0.  1.
         21   -1    0    0  501  503 -0.00000000000E+00 -0.00000000000E+00 -0.75201238433E+03  0.75201238433E+03  0.00000000000E+00 0.  1.
          6    2    1    2  501    0 -0.93229936093E+02 -0.15411647567E+03 -0.51683954907E+03  0.57375837091E+03  0.17213901255E+03 0.  0.
         24    2    3    3    0    0 -0.56346133925E+02 -0.50023499640E+02 -0.12853758451E+03  0.17003040779E+03  0.81921862868E+02 0.  0.
         -6    2    1    2    0  502  0.93229936093E+02  0.15411647567E+03 -0.13179695371E+03  0.28162989498E+03  0.17175928412E+03 0.  0.
        -24    2    5    5    0    0  0.11690838543E+03  0.13883511839E+03 -0.63436987035E+02  0.20753965347E+03  0.78138951603E+02 0.  0.
          5    1    3    3  501    0 -0.36883802169E+02 -0.10409297603E+03 -0.38830196456E+03  0.40372796312E+03  0.47000000000E+01 0. -1.
        -11    1    4    4    0    0 -0.20119603562E+02 -0.56961484735E+02 -0.11649930107E+03  0.13123069893E+03  0.00000000000E+00 0.  1.
         12    1    4    4    0    0 -0.36226530362E+02  0.69379850952E+01 -0.12038283436E+02  0.38799708857E+02  0.00000000000E+00 0. -1.
         -5    1    5    5    0  502 -0.23678449337E+02  0.15281357283E+02 -0.68359966670E+02  0.74090241507E+02  0.47000000000E+01 0.  1.
         11    1    6    6    0    0  0.46467057650E+02  0.12268402517E+02 -0.36163771462E+02  0.60145818752E+02  0.00000000000E+00 0. -1.
        -12    1    6    6    0    0  0.70441327780E+02  0.12656671587E+03 -0.27273215573E+02  0.14739383472E+03  0.00000000000E+00 0.  1.
</event>
<event>
12    1  0.8488291E-002  0.2004557E+03  0.7818608E-02  0.1149446E+00
         21   -1    0    0  501  502  0.00000000000E+00  0.00000000000E+00  0.16590577864E+04  0.16590577864E+04  0.00000000000E+00 0. -1.
         21   -1    0    0  502  503 -0.00000000000E+00 -0.00000000000E+00 -0.29861581352E+02  0.29861581352E+02  0.00000000000E+00 0. -1.
         -6    2    1    2    0  503  0.67227157743E+01 -0.10239505624E+03  0.44514019255E+03  0.48801507804E+03  0.17169444639E+03 0.  0.
        -24    2    3    3    0    0 -0.46524973996E+02 -0.48733318327E+02  0.14652805555E+03  0.17994658412E+03  0.79817244706E+02 0.  0.
          6    2    1    2  501    0 -0.67227157743E+01  0.10239505624E+03  0.11840560125E+04  0.12009042897E+04  0.17219909952E+03 0.  0.
         24    2    5    5    0    0  0.33629853786E+02  0.90155150284E+02  0.49898259806E+03  0.51451823337E+03  0.80538569150E+02 0.  0.
          5    1    5    5  501    0 -0.40352569560E+02  0.12239905952E+02  0.68507341443E+03  0.68638605634E+03  0.47000000000E+01 0. -1.
        -13    1    6    6    0    0  0.42001993446E+02  0.95733524546E+01  0.13855141914E+03  0.14509414970E+03  0.00000000000E+00 0.  1.
         14    1    6    6    0    0 -0.83721396597E+01  0.80581797829E+02  0.36043117892E+03  0.36942408368E+03  0.00000000000E+00 0. -1.
         -5    1    3    3    0  503  0.53247689771E+02 -0.53661737908E+02  0.29861213700E+03  0.30806849392E+03  0.47000000000E+01 0.  1.
         13    1    4    4    0    0 -0.14345086173E+02 -0.64472329647E+02  0.11296767029E+03  0.13085930352E+03  0.00000000000E+00 0. -1.
        -14    1    4    4    0    0 -0.32179887824E+02  0.15739011320E+02  0.33560385259E+02  0.49087280597E+02  0.00000000000E+00 0.  1.
</event>
<event>
12    1  0.8488291E-002  0.2330101E+03  0.7818608E-02  0.1126692E+00
         21   -1    0    0  503  502  0.00000000000E+00  0.00000000000E+00  0.17965468098E+03  0.17965468098E+03  0.00000000000E+00 0.  1.
         21   -1    0    0  501  503 -0.00000000000E+00 -0.00000000000E+00 -0.29217890375E+03  0.29217890375E+03  0.00000000000E+00 0.  1.
          6    2    1    2  501    0 -0.13855853372E+03 -0.10499405088E+01 -0.89932657123E+02  0.24976304045E+03  0.18733425719E+03 0.  0.
         24    2    3    3    0    0 -0.14396164789E+03 -0.54477091554E+02 -0.43722307917E+02  0.17876205112E+03  0.79696431194E+02 0.  0.
         -6    2    1    2    0  502  0.13855853372E+03  0.10499405088E+01 -0.22591565648E+02  0.22207054428E+03  0.17206213459E+03 0.  0.
        -24    2    5    5    0    0  0.51711632328E+02  0.59033128703E+02  0.13172706303E+02  0.11159155288E+03  0.78231395744E+02 0.  0.
          5    1    3    3  501    0  0.54031141704E+01  0.53427151046E+02 -0.46210349205E+02  0.71000989326E+02  0.47000000000E+01 0. -1.
        -13    1    4    4    0    0 -0.10953833013E+03 -0.77905814004E+01 -0.49527682628E+02  0.12046713358E+03  0.00000000000E+00 0.  1.
         14    1    4    4    0    0 -0.34423317756E+02 -0.46686510154E+02  0.58053747107E+01  0.58294917542E+02  0.00000000000E+00 0. -1.
         -5    1    5    5    0  502  0.86846901387E+02 -0.57983188195E+02 -0.35764271951E+02  0.11047899141E+03  0.47000000000E+01 0.  1.
         13    1    6    6    0    0 -0.13729279025E+02  0.36250326151E+02 -0.70686464443E+01  0.39402347787E+02  0.00000000000E+00 0. -1.
        -14    1    6    6    0    0  0.65440911352E+02  0.22782802553E+02  0.20241352747E+02  0.72189205092E+02  0.00000000000E+00 0.  1.
</event>
<event>
12    1  0.8488291E-002  0.1929988E+03  0.7818608E-02  0.1156529E+00
         21   -1    0    0  503  502  0.00000000000E+00  0.00000000000E+00  0.89597812759E+02  0.89597812759E+02  0.00000000000E+00 0.  1.
         21   -1    0    0  501  503 -0.00000000000E+00 -0.00000000000E+00 -0.41587031840E+03  0.41587031840E+03  0.00000000000E+00 0.  1.
          6    2    1    2  501    0 -0.15029608706E+02  0.79865259895E+02 -0.13104536641E+03  0.23328403804E+03  0.17505486417E+03 0.  0.
         24    2    3    3    0    0 -0.60647368287E+02  0.95500889824E+02 -0.69207751317E+02  0.15472556584E+03  0.79697958857E+02 0.  0.
         -6    2    1    2    0  502  0.15029608706E+02 -0.79865259895E+02 -0.19522713922E+03  0.27218409312E+03  0.17136567854E+03 0.  0.
        -24    2    5    5    0    0 -0.55169706845E+02 -0.67870363674E+02 -0.11298313067E+03  0.16328970216E+03  0.79045911956E+02 0.  0.
          5    1    3    3  501    0  0.45617759581E+02 -0.15635629929E+02 -0.61837615096E+02  0.78558472193E+02  0.47000000000E+01 0. -1.
        -13    1    4    4    0    0  0.97194469732E+01  0.91511361233E+01 -0.36146056200E+02  0.38532432062E+02  0.00000000000E+00 0.  1.
         14    1    4    4    0    0 -0.70366815260E+02  0.86349753701E+02 -0.33061695117E+02  0.11619313378E+03  0.00000000000E+00 0. -1.
         -5    1    5    5    0  502  0.70199315551E+02 -0.11994896221E+02 -0.82244008555E+02  0.10889439096E+03  0.47000000000E+01 0.  1.
         13    1    6    6    0    0 -0.29500826651E+00  0.83700647394E+01 -0.48817915768E+02  0.49531140847E+02  0.00000000000E+00 0. -1.
        -14    1    6    6    0    0 -0.54874698578E+02 -0.76240428413E+02 -0.64165214900E+02  0.11375856131E+03  0.00000000000E+00 0.  1.
</event>
<event>
12    1  0.8488291E-002  0.1998107E+03  0.7818608E-02  0.1150342E+00
         21   -1    0    0  501  502  0.00000000000E+00  0.00000000000E+00  0.24147333417E+03  0.24147333417E+03  0.00000000000E+00 0.  1.
         21   -1    0    0  502  503 -0.00000000000E+00 -0.00000000000E+00 -0.25417939903E+03  0.25417939903E+03  0.00000000000E+00 0.  1.
         -6    2    1    2    0  503  0.36869318255E+02 -0.95919170754E+02 -0.15426169480E+03  0.25078067471E+03  0.16892140888E+03 0.  0.
        -24    2    3    3    0    0  0.54604093779E+02 -0.19479985939E+02 -0.14000496369E+03  0.17088814928E+03  0.78995523898E+02 0.  0.
          6    2    1    2  501    0 -0.36869318255E+02  0.95919170754E+02  0.14155562995E+03  0.24487205849E+03  0.17136071520E+03 0.  0.
         24    2    5    5    0    0 -0.22245132547E+02  0.10275979475E+03  0.16821817487E+03  0.21334996709E+03  0.78526637277E+02 0.  0.
          5    1    5    5  501    0 -0.14624185708E+02 -0.68406239979E+01 -0.26662544924E+02  0.31522091399E+02  0.47000000000E+01 0. -1.
        -11    1    6    6    0    0 -0.35556547147E+02  0.82156593782E+02  0.74471525514E+02  0.11644733599E+03  0.00000000000E+00 0.  1.
         12    1    6    6    0    0  0.13311414600E+02  0.20603200969E+02  0.93746649357E+02  0.96902631102E+02  0.00000000000E+00 0. -1.
         -5    1    3    3    0  503 -0.17734775524E+02 -0.76439184815E+02 -0.14256731113E+02  0.79892525433E+02  0.47000000000E+01 0.  1.
         11    1    4    4    0    0  0.78497617735E+01  0.14698296119E+02 -0.97843333029E+02  0.99252085554E+02  0.00000000000E+00 0. -1.
        -12    1    4    4    0    0  0.46754332006E+02 -0.34178282057E+02 -0.42161630660E+02  0.71636063722E+02  0.00000000000E+00 0.  1.
</event>
<event>
12    1  0.8488291E-002  0.1729787E+03  0.7818608E-02  0.1174819E+00
         21   -1    0    0  503  502  0.00000000000E+00  0.00000000000E+00  0.74720510150E+02  0.74720510150E+02  0.00000000000E+00 0. -1.
         21   -1    0    0  501  503 -0.00000000000E+00 -0.00000000000E+00 -0.71275640953E+03  0.71275640953E+03  0.00000000000E+00 0. -1.
          6    2    1    2  501    0  0.13011542686E+02  0.55980481430E+01 -0.57989551572E+03  0.60514497367E+03  0.17239777149E+03 0.  0.
         24    2    3    3    0    0 -0.17995539832E+02 -0.43717437832E+02 -0.46337071937E+03  0.47478556860E+03  0.92053564640E+02 0.  0.
         -6    2    1    2    0  502 -0.13011542686E+02 -0.55980481430E+01 -0.58140383663E+02  0.18233194602E+03  0.17223238935E+03 0.  0.
        -24    2    5    5    0    0 -0.64553385738E+01 -0.70870475755E+02 -0.42897726465E+02  0.11481970848E+03  0.79240487062E+02 0.  0.
          5    1    3    3  501    0  0.31007082518E+02  0.49315485975E+02 -0.11652479635E+03  0.13035940506E+03  0.47000000000E+01 0. -1.
        -13    1    4    4    0    0 -0.16781237459E+02  0.27402460428E+02 -0.15892490792E+03  0.16214077564E+03  0.00000000000E+00 0.  1.
         14    1    4    4    0    0 -0.12143023731E+01 -0.71119898260E+02 -0.30444581145E+03  0.31264479296E+03  0.00000000000E+00 0. -1.
         -5    1    5    5    0  502 -0.65562041118E+01  0.65272427612E+02 -0.15242657198E+02  0.67512237537E+02  0.47000000000E+01 0.  1.
         11    1    6    6    0    0 -0.20505156009E+02 -0.26787684441E+02  0.18081106344E+02  0.38274898658E+02  0.00000000000E+00 0. -1.
        -12    1    6    6    0    0  0.14049817435E+02 -0.44082791314E+02 -0.60978832809E+02  0.76544809823E+02  0.00000000000E+00 0.  1.
</event>
<event>
12    1  0.8488291E-002  0.1993806E+03  0.7818608E-02  0.1150900E+00
         21   -1    0    0  501  502  0.00000000000E+00  0.00000000000E+00  0.63241488534E+02  0.63241488534E+02  0.00000000000E+00 0.  1.
         21   -1    0    0  502  503 -0.00000000000E+00 -0.00000000000E+00 -0.81037072925E+03  0.81037072925E+03  0.00000000000E+00 0.  1.
         -6    2    1    2    0  503  0.93115405952E+02  0.30460469888E+02 -0.58356124001E+03  0.61572247158E+03  0.17021199170E+03 0.  0.
        -24    2    3    3    0    0 -0.16808370485E+02  0.14567041501E+02 -0.31398440892E+03  0.32412412531E+03  0.77301484742E+02 0.  0.
          6    2    1    2  501    0 -0.93115405952E+02 -0.30460469888E+02 -0.16356800071E+03  0.25788974620E+03  0.17364996772E+03 0.  0.
         24    2    5    5    0    0  0.29129822601E+01  0.27001994824E+02 -0.48733324489E+02  0.97476283377E+02  0.79931819165E+02 0.  0.
          5    1    5    5  501    0 -0.96028388212E+02 -0.57462464712E+02 -0.11483467622E+03  0.16041346282E+03  0.47000000000E+01 0. -1.
        -11    1    6    6    0    0 -0.33866558860E+02 -0.58656448795E+01 -0.26352917917E+02  0.43310805599E+02  0.00000000000E+00 0.  1.
         12    1    6    6    0    0  0.36779541120E+02  0.32867639703E+02 -0.22380406572E+02  0.54165477778E+02  0.00000000000E+00 0. -1.
         -5    1    3    3    0  503  0.10992377644E+03  0.15893428387E+02 -0.26957683108E+03  0.29159834627E+03  0.47000000000E+01 0.  1.
         11    1    4    4    0    0  0.17965815377E+02 -0.92098617751E+01 -0.22241689130E+03  0.22333129116E+03  0.00000000000E+00 0. -1.
        -12    1    4    4    0    0 -0.34774185861E+02  0.23776903276E+02 -0.91567517624E+02  0.10079283415E+03  0.00000000000E+00 0.  1.
</event>
<event>
12    1  0.8488291E-002  0.2954204E+03  0.7818608E-02  0.1087838E+00
         21   -1    0    0  503  502  0.00000000000E+00  0.00000000000E+00  0.46420799904E+03  0.46420799904E+03  0.00000000000E+00 0. -1.
         21   -1    0    0  501  503 -0.00000000000E+00 -0.00000000000E+00 -0.26207101455E+03  0.26207101455E+03  0.00000000000E+00 0. -1.
          6    2    1    2  501    0  0.17530551633E+03  0.16585168177E+03 -0.93549391253E+02  0.30987849654E+03  0.17039480511E+03 0.  0.
         24    2    3    3    0    0  0.64969113904E+02  0.14735033154E+02 -0.60942156459E+02  0.11988985227E+03  0.78876633295E+02 0.  0.
         -6    2    1    2    0  502 -0.17530551633E+03 -0.16585168177E+03  0.29568637574E+03  0.41640051706E+03  0.16649370381E+03 0.  0.
        -24    2    5    5    0    0 -0.18465762544E+03 -0.17097215672E+03  0.30340825213E+03  0.40242201273E+03  0.80975254617E+02 0.  0.
          5    1    3    3  501    0  0.11033640243E+03  0.15111664862E+03 -0.32607234794E+02  0.18998864427E+03  0.47000000000E+01 0. -1.
        -11    1    4    4    0    0 -0.15349595369E+02  0.48272900864E+01 -0.28446214922E+02  0.32681798466E+02  0.00000000000E+00 0.  1.
         12    1    4    4    0    0  0.80318709273E+02  0.99077430677E+01 -0.32495941537E+02  0.87208053805E+02  0.00000000000E+00 0. -1.
         -5    1    5    5    0  502  0.93521091059E+01  0.51204749514E+01 -0.77218763902E+01  0.13978504335E+02  0.47000000000E+01 0.  1.
         11    1    6    6    0    0 -0.91178922941E+02 -0.10998407386E+03  0.11484643190E+03  0.18330246973E+03  0.00000000000E+00 0. -1.
        -12    1    6    6    0    0 -0.93478702495E+02 -0.60988082863E+02  0.18856182023E+03  0.21911954299E+03  0.00000000000E+00 0.  1.
</event>
<event>
12    1  0.8488291E-002  0.1960286E+03  0.7818608E-02  0.1153294E+00
         21   -1    0    0  503  502  0.00000000000E+00  0.00000000000E+00  0.12562653760E+04  0.12562653760E+04  0.00000000000E+00 0. -1.
         21   -1    0    0  501  503 -0.00000000000E+00 -0.00000000000E+00 -0.54769023056E+02  0.54769023056E+02  0.00000000000E+00 0. -1.
          6    2    1    2  501    0  0.30385220348E+02  0.87565353331E+02  0.16478103807E+03  0.25608589446E+03  0.17273170558E+03 0.  0.
         24    2    3    3    0    0  0.45280627337E+02 -0.11068025764E+02  0.52928942394E+02  0.10614124491E+03  0.79319950335E+02 0.  0.
         -6    2    1    2    0  502 -0.30385220348E+02 -0.87565353331E+02  0.10367153149E+04  0.10549485046E+04  0.17189168260E+03 0.  0.
        -24    2    5    5    0    0 -0.20070574567E+02 -0.12652890502E+03  0.72045672583E+03  0.73609722983E+03  0.79805051230E+02 0.  0.
          5    1    3    3  501    0 -0.14895406989E+02  0.98633379095E+02  0.11185209568E+03  0.14994464955E+03  0.47000000000E+01 0. -1.
        -13    1    4    4    0    0  0.58224647610E+02  0.77113328315E+01  0.58250417910E+02  0.82720526051E+02  0.00000000000E+00 0.  1.
         14    1    4    4    0    0 -0.12944020273E+02 -0.18779358595E+02 -0.53214755169E+01  0.23420718856E+02  0.00000000000E+00 0. -1.
         -5    1    5    5    0  502 -0.10314645781E+02  0.38963551693E+02  0.31625858908E+03  0.31885127481E+03  0.47000000000E+01 0.  1.
         11    1    6    6    0    0 -0.37697073271E+02 -0.31654431538E+02  0.34235789475E+03  0.34587859209E+03  0.00000000000E+00 0. -1.
        -12    1    6    6    0    0  0.17626498704E+02 -0.94874473486E+02  0.37809883107E+03  0.39021863773E+03  0.00000000000E+00 0.  1.
</event>
<event>
12    1  0.8488291E-002  0.2268015E+03  0.7818608E-02  0.1129510E+00
         21   -1    0    0  503  502  0.00000000000E+00  0.00000000000E+00  0.13082259368E+03  0.13082259368E+03  0.00000000000E+00 0. -1.
         21   -1    0    0  501  503 -0.00000000000E+00 -0.00000000000E+00 -0.63568536797E+03  0.63568536797E+03  0.00000000000E+00 0. -1.
          6    2    1    2  501    0  0.38490849457E+02 -0.14336906464E+03 -0.49304827291E+03  0.54271128132E+03  0.17147215885E+03 0.  0.
         24    2    3    3    0    0 -0.51311727436E+01 -0.46755376727E+01 -0.13867093743E+03  0.15963927614E+03  0.78783754758E+02 0.  0.
         -6    2    1    2    0  502 -0.38490849457E+02  0.14336906464E+03 -0.11814501375E+02  0.22379668034E+03  0.16706028103E+03 0.  0.
        -24    2    5    5    0    0 -0.29667703627E+02  0.10277833334E+03  0.55442959903E+02  0.14460633075E+03  0.79959431262E+02 0.  0.
          5    1    3    3  501    0  0.43622022201E+02 -0.13869352697E+03 -0.35437733549E+03  0.38307200518E+03  0.47000000000E+01 0. -1.
        -11    1    4    4    0    0  0.17696046519E+01 -0.95796233862E+01  0.80725734870E+01  0.12651763812E+02  0.00000000000E+00 0.  1.
         12    1    4    4    0    0 -0.69007773955E+01  0.49040857135E+01 -0.14674351091E+03  0.14698751233E+03  0.00000000000E+00 0. -1.
         -5    1    5    5    0  502 -0.88231458305E+01  0.40590731299E+02 -0.67257461278E+02  0.79190349584E+02  0.47000000000E+01 0.  1.
         13    1    6    6    0    0 -0.26013045992E+02  0.61629464031E+02 -0.95731018103E+01  0.67575984468E+02  0.00000000000E+00 0. -1.
        -14    1    6    6    0    0 -0.36546576342E+01  0.41148869312E+02  0.65016061713E+02  0.77030346285E+02  0.00000000000E+00 0.  1.
</event>
<event>
12    1  0.8488291E-002  0.1987788E+03  0.7818608E-02  0.1151400E+00
         21   -1    0    0  501  502  0.00000000000E+00  0.00000000000E+00  0.13395345461E+03  0.13395345461E+03  0.00000000000E+00 0.  1.
         21   -1    0    0  502  503 -0.00000000000E+00 -0.00000000000E+00 -0.47689346239E+03  0.47689346239E+03  0.00000000000E+00 0. -1.
         -6    2    1    2    0  503  0.87422671635E+02 -0.47424639507E+02 -0.36310933767E+03  0.41395821447E+03  0.17210808312E+03 0.  0.
        -24    2    3    3    0    0  0.25616682883E+02 -0.51999348284E+02 -0.31918731145E+03  0.33785208729E+03  0.94357545734E+02 0.  0.
          6    2    1    2  501    0 -0.87422671635E+02  0.47424639507E+02  0.20169329894E+02  0.19688870253E+03  0.16872029922E+03 0.  0.
         24    2    5    5    0    0 -0.14951570493E+02  0.79524357477E+02  0.32118724051E+02  0.11659343234E+03  0.77554775081E+02 0.  0.
          5    1    5    5  501    0 -0.72471101142E+02 -0.32099717971E+02 -0.11949394157E+02  0.80295270193E+02  0.47000000000E+01 0. -1.
        -13    1    6    6    0    0 -0.25593495337E+02  0.77342009305E+02  0.50061086715E+02  0.95618647815E+02  0.00000000000E+00 0.  1.
         14    1    6    6    0    0  0.10641924844E+02  0.21823481724E+01 -0.17942362664E+02  0.20974784526E+02  0.00000000000E+00 0. -1.
         -5    1    3    3    0  503  0.61805988752E+02  0.45747087768E+01 -0.43922026222E+02  0.76106127174E+02  0.47000000000E+01 0.  1.
         13    1    4    4    0    0 -0.33318093327E+02 -0.14436673994E+02 -0.15881828552E+03  0.16291642248E+03  0.00000000000E+00 0. -1.
        -14    1    4    4    0    0  0.58934776210E+02 -0.37562674289E+02 -0.16036902593E+03  0.17493566481E+03  0.00000000000E+00 0.  1.
</event>
<event>
12    1  0.8488291E-002  0.1918805E+03  0.7818608E-02  0.1158778E+00
         21   -1    0    0  503  502  0.00000000000E+00  0.00000000000E+00  0.24510697253E+02  0.24510697253E+02  0.00000000000E+00 0.  1.
         21   -1    0    0  501  503 -0.00000000000E+00 -0.00000000000E+00 -0.17796867550E+04  0.17796867550E+04  0.00000000000E+00 0.  1.
          6    2    1    2  501    0 -0.26588757953E+02  0.59104152883E+02 -0.12914643892E+04  0.13056409909E+04  0.18060416792E+03 0.  0.
         24    2    3    3    0    0 -0.38112369914E+02  0.67471486171E+02 -0.43210875206E+03  0.44615451220E+03  0.79567084648E+02 0.  0.
         -6    2    1    2    0  502  0.26588757953E+02 -0.59104152883E+02 -0.46371166852E+03  0.49855646138E+03  0.17125936682E+03 0.  0.
        -24    2    5    5    0    0  0.65708825848E+02 -0.72314756690E+02 -0.42168290789E+03  0.43945141519E+03  0.75855109755E+02 0.  0.
          5    1    3    3  501    0  0.11523611961E+02 -0.83673332882E+01 -0.85935563718E+03  0.85948647869E+03  0.47000000000E+01 0. -1.
        -13    1    4    4    0    0 -0.44365828573E+02  0.65230323947E+02 -0.43236863874E+03  0.43950649788E+03  0.00000000000E+00 0.  1.
         14    1    4    4    0    0  0.62534586583E+01  0.22411622242E+01  0.25988668298E+00  0.66480143196E+01  0.00000000000E+00 0. -1.
         -5    1    5    5    0  502 -0.39120067895E+02  0.13210603807E+02 -0.42028760633E+02  0.59105046193E+02  0.47000000000E+01 0.  1.
         13    1    6    6    0    0 -0.13023117384E+01  0.61211774087E+01 -0.12841833566E+03  0.12857073448E+03  0.00000000000E+00 0. -1.
        -14    1    6    6    0    0  0.67011137587E+02 -0.78435934099E+02 -0.29326457222E+03  0.31088068071E+03  0.00000000000E+00 0.  1.
</event>
<event>
12    1  0.8488291E-002  0.1857348E+03  0.7818608E-02  0.1166930E+00
         21   -1    0    0  503  502  0.00000000000E+00  0.00000000000E+00  0.13711075706E+03  0.13711075706E+03  0.00000000000E+00 0. -1.
         21   -1    0    0  501  503 -0.00000000000E+00 -0.00000000000E+00 -0.22707539452E+03  0.22707539452E+03  0.00000000000E+00 0. -1.
          6    2    1    2  501    0 -0.38943236334E+02 -0.59755713933E+02 -0.43807684881E+02  0.17280201925E+03  0.15117573747E+03 0.  0.
         24    2    3    3    0    0  0.78441218517E+01  0.35228731345E+01  0.41641236136E+01  0.80516479333E+02  0.79947624330E+02 0.  0.
         -6    2    1    2    0  502  0.38943236334E+02  0.59755713933E+02 -0.46156952581E+02  0.19138413233E+03  0.17149373409E+03 0.  0.
        -24    2    5    5    0    0  0.28054100676E+02  0.61672625146E+02 -0.94502778974E+02  0.14156790251E+03  0.80747449063E+02 0.  0.
          5    1    3    3  501    0 -0.46787358186E+02 -0.63278587068E+02 -0.47971808495E+02  0.92285539916E+02  0.47000000000E+01 0. -1.
        -11    1    4    4    0    0  0.40022236644E+02 -0.11003805990E+02  0.14104944127E+02  0.43838483335E+02  0.00000000000E+00 0.  1.
         12    1    4    4    0    0 -0.32178114793E+02  0.14526679124E+02 -0.99408205135E+01  0.36677995999E+02  0.00000000000E+00 0. -1.
         -5    1    5    5    0  502  0.10889135658E+02 -0.19169112130E+01  0.48345826393E+02  0.49816229821E+02  0.47000000000E+01 0.  1.
         13    1    6    6    0    0  0.51441977404E+02  0.56807606098E+02 -0.51370505460E+02  0.92262180665E+02  0.00000000000E+00 0. -1.
        -14    1    6    6    0    0 -0.23387876728E+02  0.48650190484E+01 -0.43132273514E+02  0.49305721845E+02  0.00000000000E+00 0.  1.
</event>
<event>
12    1  0.8488291E-002  0.2485624E+03  0.7818608E-02  0.1114290E+00
         21   -1    0    0  501  502  0.00000000000E+00  0.00000000000E+00  0.21645935596E+03  0.21645935596E+03  0.00000000000E+00 0. -1.
         21   -1    0    0  502  503 -0.00000000000E+00 -0.00000000000E+00 -0.46475566504E+03  0.46475566504E+03  0.00000000000E+00 0.  1.
         -6    2    1    2    0  503 -0.14097341518E+03  0.10880863025E+03 -0.33596441271E+03  0.41764541036E+03  0.17275063062E+03 0.  0.
        -24    2    3    3    0    0 -0.81129802910E+01  0.20496862889E+02 -0.16471537066E+03  0.18355314689E+03  0.77940121654E+02 0.  0.
          6    2    1    2  501    0  0.14097341518E+03 -0.10880863025E+03  0.87668103625E+02  0.26356961064E+03  0.17340825083E+03 0.  0.
         24    2    5    5    0    0  0.51687913698E+02 -0.11008993255E+03  0.85442100871E+01  0.14417018418E+03  0.76945466471E+02 0.  0.
          5    1    5    5  501    0  0.89285501481E+02  0.12813022965E+01  0.79123893538E+02  0.11939942646E+03  0.47000000000E+01 0. -1.
        -13    1    6    6    0    0 -0.12148267412E+02  0.41552861738E+01  0.29860783736E+01  0.13181937200E+02  0.00000000000E+00 0.  1.
         14    1    6    6    0    0  0.63836181109E+02 -0.11424521872E+03  0.55581317135E+01  0.13098824698E+03  0.00000000000E+00 0. -1.
         -5    1    3    3    0  503 -0.13286043489E+03  0.88311767364E+02 -0.17124904206E+03  0.23409226347E+03  0.47000000000E+01 0.  1.
         11    1    4    4    0    0  0.13877443091E+02  0.33136363855E+02 -0.30992802087E+02  0.47446346724E+02  0.00000000000E+00 0. -1.
        -12    1    4    4    0    0 -0.21990423382E+02 -0.12639500966E+02 -0.13372256857E+03  0.13610680016E+03  0.00000000000E+00 0.  1.
</event>
<event>
12    1  0.8488291E-002  0.1887776E+03  0.7818608E-02  0.1159580E+00
         21   -1    0    0  501  502  0.00000000000E+00  0.00000000000E+00  0.10050398319E+03  0.10050398319E+03  0.00000000000E+00 0. -1.
         21   -1    0    0  502  503 -0.00000000000E+00 -0.00000000000E+00 -0.11072563710E+04  0.11072563710E+04  0.00000000000E+00 0. -1.
         -6    2    1    2    0  503 -0.44302052819E+02  0.62809687204E+02 -0.10012723438E+04  0.10189032616E+04  0.17236537162E+03 0.  0.
        -24    2    3    3    0    0 -0.58801652732E+02  0.43819641076E+02 -0.98190441368E+03  0.98778948704E+03  0.78828914736E+02 0.  0.
          6    2    1    2  501    0  0.44302052819E+02 -0.62809687204E+02 -0.54800440515E+01  0.18885709264E+03  0.17242169778E+03 0.  0.
         24    2    5    5    0    0  0.41241823627E+02 -0.11312697414E+03 -0.12748318974E+02  0.13770914852E+03  0.65594890452E+02 0.  0.
          5    1    5    5  501    0  0.30602291928E+01  0.50317286940E+02  0.72682749227E+01  0.51147944123E+02  0.47000000000E+01 0. -1.
        -11    1    6    6    0    0 -0.12740435181E+02 -0.58353143379E+02 -0.11323824489E+02  0.60791751348E+02  0.00000000000E+00 0.  1.
         12    1    6    6    0    0  0.53982258808E+02 -0.54773830765E+02 -0.14244944852E+01  0.76917397169E+02  0.00000000000E+00 0. -1.
         -5    1    3    3    0  503  0.14499599913E+02  0.18990046128E+02 -0.19367930117E+02  0.31113774548E+02  0.47000000000E+01 0.  1.
         11    1    4    4    0    0  0.17783815740E+02  0.16506479594E+01 -0.10195310371E+03  0.10350567181E+03  0.00000000000E+00 0. -1.
        -12    1    4    4    0    0 -0.76585468472E+02  0.42168993116E+02 -0.87995130997E+03  0.88428381523E+03  0.00000000000E+00 0.  1.
</event>
<event>
12    1  0.8488291E-002  0.1902494E+03  0.7818608E-02  0.1160548E+00
         21   -1    0    0  501  502  0.00000000000E+00  0.00000000000E+00  0.30250459717E+04  0.30250459717E+04  0.00000000000E+00 0. -1.
         21   -1    0    0  502  503 -0.00000000000E+00 -0.00000000000E+00 -0.11806578580E+02  0.11806578580E+02  0.00000000000E+00 0. -1.
         -6    2    1    2    0  503  0.27331271910E+01 -0.53915164135E+02  0.11678345859E+04  0.11816669181E+04  0.17200223916E+03 0.  0.
        -24    2    3    3    0    0 -0.23698594739E+02 -0.66288601841E+02  0.39787356077E+03  0.41113865244E+03  0.75998809471E+02 0.  0.
          6    2    1    2  501    0 -0.27331271910E+01  0.53915164135E+02  0.18454048071E+04  0.18551856321E+04  0.18242947302E+03 0.  0.
         24    2    5    5    0    0  0.27695708159E+02 -0.35446700535E+02  0.92565512179E+03  0.93059219146E+03  0.84503854801E+02 0.  0.
          5    1    5    5  501    0 -0.30428835350E+02  0.89361864670E+02  0.91974968533E+03  0.92459344068E+03  0.47000000000E+01 0. -1.
        -13    1    6    6    0    0  0.12150985831E+02 -0.21664009283E+02  0.88090191147E+03  0.88125203738E+03  0.00000000000E+00 0.  1.
         14    1    6    6    0    0  0.15544722328E+02 -0.13782691252E+02  0.44753210315E+02  0.49340154073E+02  0.00000000000E+00 0. -1.
         -5    1    3    3    0  503  0.26431721930E+02  0.12373437706E+02  0.76996102518E+03  0.77052826566E+03  0.47000000000E+01 0.  1.
         13    1    4    4    0    0  0.47831951282E+01 -0.35477096554E+02  0.54464960143E+02  0.65176185980E+02  0.00000000000E+00 0. -1.
        -14    1    4    4    0    0 -0.28481789867E+02 -0.30811505287E+02  0.34340860063E+03  0.34596246646E+03  0.00000000000E+00 0.  1.
</event>
<event>
12    1  0.8488291E-002  0.1747595E+03  0.7818608E-02  0.1173168E+00
         21   -1    0    0  503  502  0.00000000000E+00  0.00000000000E+00  0.37105384518E+02  0.37105384518E+02  0.00000000000E+00 0. -1.
         21   -1    0    0  501  503 -0.00000000000E+00 -0.00000000000E+00 -0.84513953929E+03  0.84513953929E+03  0.00000000000E+00 0. -1.
          6    2    1    2  501    0 -0.30144772529E+01 -0.31778472561E+02 -0.32797525541E+03  0.37162972398E+03  0.17181945521E+03 0.  0.
         24    2    3    3    0    0  0.40710274641E+02 -0.64796330875E+02 -0.16742419864E+03  0.20192184341E+03  0.82979983128E+02 0.  0.
         -6    2    1    2    0  502  0.30144772529E+01  0.31778472561E+02 -0.48005889936E+03  0.51061519983E+03  0.17103326300E+03 0.  0.
        -24    2    5    5    0    0 -0.57508738887E+02 -0.56519893821E+01 -0.22127745824E+03  0.24218639467E+03  0.79695270904E+02 0.  0.
          5    1    3    3  501    0 -0.43724751894E+02  0.33017858314E+02 -0.16055105677E+03  0.16970788057E+03  0.47000000000E+01 0. -1.
        -13    1    4    4    0    0  0.52011438218E+02 -0.64138736680E+01 -0.91951503534E+02  0.10583669724E+03  0.00000000000E+00 0.  1.
         14    1    4    4    0    0 -0.11301163577E+02 -0.58382457207E+02 -0.75472695105E+02  0.96085146168E+02  0.00000000000E+00 0. -1.
         -5    1    5    5    0  502  0.60523216140E+02  0.37430461943E+02 -0.25878144112E+03  0.26842880516E+03  0.47000000000E+01 0.  1.
         13    1    6    6    0    0  0.17493157243E+02 -0.13699688198E+02 -0.64182892033E+02  0.67920067998E+02  0.00000000000E+00 0. -1.
        -14    1    6    6    0    0 -0.75001896129E+02  0.80476988159E+01 -0.15709456621E+03  0.17426632667E+03  0.00000000000E+00 0.  1.
</event>
<event>
12    1  0.8488291E-002  0.2049055E+03  0.7818608E-02  0.1146248E+00
         21   -1    0    0  503  502  0.00000000000E+00  0.00000000000E+00  0.42051896589E+03  0.42051896589E+03  0.00000000000E+00 0.  1.
         21   -1    0    0  501  503 -0.00000000000E+00 -0.00000000000E+00 -0.99102283097E+02  0.99102283097E+02  0.00000000000E+00 0.  1.
          6    2    1    2  501    0  0.35748448980E+02  0.10402005275E+03  0.18036747634E+03  0.27086205669E+03  0.16951608847E+03 0.  0.
         24    2    3    3    0    0 -0.22638717629E+02  0.43508123974E+02  0.34876095497E+02  0.10275320311E+03  0.83285114666E+02 0.  0.
         -6    2    1    2    0  502 -0.35748448980E+02 -0.10402005275E+03  0.14104920645E+03  0.24875919231E+03  0.17288185022E+03 0.  0.
        -24    2    5    5    0    0 -0.34997736669E+02 -0.12806362857E+03  0.63571132259E+02  0.16749666042E+03  0.79929392984E+02 0.  0.
          5    1    3    3  501    0  0.58387166610E+02  0.60511928779E+02  0.14549138085E+03  0.16810885357E+03  0.47000000000E+01 0. -1.
        -13    1    4    4    0    0 -0.14795353791E+02 -0.91488560847E+01 -0.19856930758E+02  0.26398896958E+02  0.00000000000E+00 0.  1.
         14    1    4    4    0    0 -0.78433638384E+01  0.52656980059E+02  0.54733026255E+02  0.76354306154E+02  0.00000000000E+00 0. -1.
         -5    1    5    5    0  502 -0.75071231167E+00  0.24043575814E+02  0.77478074193E+02  0.81262531880E+02  0.47000000000E+01 0.  1.
         13    1    6    6    0    0 -0.26955418762E+02 -0.88716682432E+01 -0.63445741451E+01  0.29078423601E+02  0.00000000000E+00 0. -1.
        -14    1    6    6    0    0 -0.80423179068E+01 -0.11919196032E+03  0.69915706404E+02  0.13841823682E+03  0.00000000000E+00 0.  1.
</event>
<event>
12    1  0.8488291E-002  0.2358322E+03  0.7818608E-02  0.1122630E+00
         21   -1    0    0  503  502  0.00000000000E+00  0.00000000000E+00  0.38255205310E+03  0.38255205310E+03  0.00000000000E+00 0.  1.
         21   -1    0    0  501  503 -0.00000000000E+00 -0.00000000000E+00 -0.24550074483E+03  0.24550074483E+03  0.00000000000E+00 0. -1.
          6    2    1    2  501    0  0.10946597194E+03  0.11950624563E+03 -0.13213301161E+03  0.27017430507E+03  0.17108617889E+03 0.  0.
         24    2    3    3    0    0  0.93497540409E+02  0.65724797223E+02 -0.15561307860E+03  0.20917562850E+03  0.80482757742E+02 0.  0.
         -6    2    1    2    0  502 -0.10946597194E+03 -0.11950624563E+03  0.26918431988E+03  0.35787849286E+03  0.17132505896E+03 0.  0.
        -24    2    5    5    0    0 -0.10085433074E+03 -0.21911021183E+02  0.10357608835E+03  0.16540209288E+03  0.77318544826E+02 0.  0.
          5    1    3    3  501    0  0.15968431528E+02  0.53781448404E+02  0.23480066988E+02  0.60998676573E+02  0.47000000000E+01 0. -1.
        -11    1    4    4    0    0 -0.67313623734E+01 -0.29960383581E+01  0.41414755530E+01  0.84521775302E+01  0.00000000000E+00 0.  1.
         12    1    4    4    0    0  0.10022890278E+03  0.68720835581E+02 -0.15975455415E+03  0.20072345097E+03  0.00000000000E+00 0. -1.
         -5    1    5    5    0  502 -0.86116412010E+01 -0.97595224444E+02  0.16560823153E+03  0.19247639998E+03  0.47000000000E+01 0.  1.
         11    1    6    6    0    0 -0.31238766312E+02  0.28248974405E+02  0.44224696247E+02  0.61071178421E+02  0.00000000000E+00 0. -1.
        -12    1    6    6    0    0 -0.69615564423E+02 -0.50159995588E+02  0.59351392100E+02  0.10433091446E+03  0.00000000000E+00 0.  1.
</event>
<event>
12    1  0.8488291E-002  0.2137562E+03  0.7818608E-02  0.1138746E+00
         21   -1    0    0  501  502  0.00000000000E+00  0.00000000000E+00  0.26448202075E+03  0.26448202075E+03  0.00000000000E+00 0. -1.
         21   -1    0    0  502  503 -0.00000000000E+00 -0.00000000000E+00 -0.18593222595E+03  0.18593222595E+03  0.00000000000E+00 0.  1.
         -6    2    1    2    0  503  0.50947815739E+02  0.11478802135E+03  0.10040212299E+03  0.23616162433E+03  0.17297328329E+03 0.  0.
        -24    2    3    3    0    0 -0.17849283047E+02  0.11070372521E+03  0.33474576338E+02  0.13997893994E+03  0.76809144531E+02 0.  0.
          6    2    1    2  501    0 -0.50947815739E+02 -0.11478802135E+03 -0.21852328188E+02  0.21425262237E+03  0.17220537788E+03 0.  0.
         24    2    5    5    0    0 -0.30622525642E+02 -0.63767685811E+02  0.51900973281E+02  0.12217748168E+03  0.85026873227E+02 0.  0.
          5    1    5    5  501    0 -0.20325290097E+02 -0.51020335537E+02 -0.73753301469E+02  0.92075140692E+02  0.47000000000E+01 0. -1.
        -11    1    6    6    0    0  0.47777079093E+01 -0.34039435668E+02 -0.17669795188E+02  0.38648820622E+02  0.00000000000E+00 0.  1.
         12    1    6    6    0    0 -0.35400233551E+02 -0.29728250142E+02  0.69570768470E+02  0.83528661054E+02  0.00000000000E+00 0. -1.
         -5    1    3    3    0  503  0.68797098786E+02  0.40842961360E+01  0.66927546651E+02  0.96182684393E+02  0.47000000000E+01 0.  1.
         13    1    4    4    0    0 -0.24527089463E+02  0.10966841974E+03  0.69337822080E+01  0.11259137508E+03  0.00000000000E+00 0. -1.
        -14    1    4    4    0    0  0.66778064155E+01  0.10353054723E+01  0.26540794130E+02  0.27387564861E+02  0.00000000000E+00 0.  1.
</event>
<event>
12    1  0.8488291E-002  0.2453344E+03  0.7818608E-02  0.1116850E+00
         21   -1    0    0  503  502  0.00000000000E+00  0.00000000000E+00  0.12539982334E+03  0.12539982334E+03  0.00000000000E+00 0. -1.
         21   -1    0    0  501  503 -0.00000000000E+00 -0.00000000000E+00 -0.12535208563E+04  0.12535208563E+04  0.00000000000E+00 0. -1.
          6    2    1    2  501    0  0.16784294378E+03  0.45992188367E+02 -0.11065031201E+04  0.11326357061E+04  0.16801176377E+03 0.  0.
         24    2    3    3    0    0  0.88799816705E+02 -0.37299052879E+02 -0.50955544431E+03  0.52472628485E+03  0.80089302635E+02 0.  0.
         -6    2    1    2    0  502 -0.16784294378E+03 -0.45992188367E+02 -0.21617912827E+02  0.24628497352E+03  0.17292315882E+03 0.  0.
        -24    2    5    5    0    0 -0.34333094846E+02 -0.55823081102E+02  0.24032768197E+02  0.10476606703E+03  0.78124113231E+02 0.  0.
          5    1    3    3  501    0  0.79043127080E+02  0.83291241246E+02 -0.59694767580E+03  0.60790942125E+03  0.47000000000E+01 0. -1.
        -13    1    4    4    0    0  0.49005014026E+02 -0.20644477630E+02 -0.10326717841E+03  0.11615419060E+03  0.00000000000E+00 0.  1.
         14    1    4    4    0    0  0.39794802679E+02 -0.16654575249E+02 -0.40628826590E+03  0.40857209425E+03  0.00000000000E+00 0. -1.
         -5    1    5    5    0  502 -0.13350984894E+03  0.98308927350E+01 -0.45650681024E+02  0.14151890649E+03  0.47000000000E+01 0.  1.
         11    1    6    6    0    0 -0.23007873748E+02  0.16471864991E+02  0.21045212311E+01  0.28374523790E+02  0.00000000000E+00 0. -1.
        -12    1    6    6    0    0 -0.11325221097E+02 -0.72294946093E+02  0.21928246966E+02  0.76391543240E+02  0.00000000000E+00 0.  1.
</event>
<event>
12    1  0.8488291E-002  0.2628331E+03  0.7818608E-02  0.1105481E+00
         21   -1    0    0  501  502  0.00000000000E+00  0.00000000000E+00  0.42494757121E+03  0.42494757121E+03  0.00000000000E+00 0. -1.
         21   -1    0    0  502  503 -0.00000000000E+00 -0.00000000000E+00 -0.40574215894E+03  0.40574215894E+03  0.00000000000E+00 0.  1.
         -6    2    1    2    0  503  0.18916208481E+03  0.65357343835E+02 -0.31202111056E+03  0.40796861472E+03  0.17037411906E+03 0.  0.
        -24    2    3    3    0    0  0.83689183616E+02  0.22181369382E+02 -0.61781757304E+02  0.13295857569E+03  0.79781606345E+02 0.  0.
          6    2    1    2  501    0 -0.18916208481E+03 -0.65357343835E+02  0.33122652282E+03  0.42272111542E+03  0.17008308346E+03 0.  0.
         24    2    5    5    0    0 -0.99456995412E+02  0.27751772922E+02  0.13436648410E+03  0.18715313047E+03  0.79436058311E+02 0.  0.
          5    1    5    5  501    0 -0.89705089395E+02 -0.93109116757E+02  0.19686003872E+03  0.23556798495E+03  0.47000000000E+01 0. -1.
        -11    1    6    6    0    0 -0.16683542246E+01  0.28169252135E+02  0.52566767500E+02  0.59662008155E+02  0.00000000000E+00 0.  1.
         12    1    6    6    0    0 -0.97788641187E+02 -0.41747921347E+00  0.81799716598E+02  0.12749112232E+03  0.00000000000E+00 0. -1.
         -5    1    3    3    0  503  0.10547290119E+03  0.43175974453E+02 -0.25023935325E+03  0.27501003904E+03  0.47000000000E+01 0.  1.
         13    1    4    4    0    0 -0.23737601954E+01  0.80913338278E+01 -0.42910833154E+02  0.43731499203E+02  0.00000000000E+00 0. -1.
        -14    1    4    4    0    0  0.86062943812E+02  0.14090035554E+02 -0.18870924150E+02  0.89227076483E+02  0.00000000000E+00 0.  1.
</event>
<event>
12    1  0.8488291E-002  0.2339272E+03  0.7818608E-02  0.1124093E+00
         21   -1    0    0  503  502  0.00000000000E+00  0.00000000000E+00  0.34854452042E+03  0.34854452042E+03  0.00000000000E+00 0. -1.
         21   -1    0    0  501  503 -0.00000000000E+00 -0.00000000000E+00 -0.32102516000E+03  0.32102516000E+03  0.00000000000E+00 0. -1.
          6    2    1    2  501    0  0.15805026700E+03 -0.41948401378E+01 -0.22609081016E+03  0.32454788466E+03  0.17092920001E+03 0.  0.
         24    2    3    3    0    0  0.10281851881E+03  0.59491476076E+02 -0.12750492672E+03  0.19474896597E+03  0.86941186278E+02 0.  0.
         -6    2    1    2    0  502 -0.15805026700E+03  0.41948401378E+01  0.25361017057E+03  0.34502179576E+03  0.17240776475E+03 0.  0.
        -24    2    5    5    0    0 -0.89639944115E+02  0.58743488480E+02  0.94949099467E+02  0.16377347770E+03  0.79500336406E+02 0.  0.
          5    1    3    3  501    0  0.55231748195E+02 -0.63686316213E+02 -0.98585883437E+02  0.12979891870E+03  0.47000000000E+01 0. -1.
        -11    1    4    4    0    0  0.90293634597E+02  0.75540529336E+02 -0.12861702782E+03  0.17436069473E+03  0.00000000000E+00 0.  1.
         12    1    4    4    0    0  0.12524884212E+02 -0.16049053260E+02  0.11121011044E+01  0.20388271234E+02  0.00000000000E+00 0. -1.
         -5    1    5    5    0  502 -0.68410322888E+02 -0.54548648342E+02  0.15866107111E+03  0.18124831806E+03  0.47000000000E+01 0.  1.
         11    1    6    6    0    0 -0.81538134033E+02  0.88376338527E+01  0.49542710131E+02  0.95817802108E+02  0.00000000000E+00 0. -1.
        -12    1    6    6    0    0 -0.81018100823E+01  0.49905854627E+02  0.45406389337E+02  0.67955675593E+02  0.00000000000E+00 0.  1.
</event>
<event>
12    1  0.8488291E-002  0.1954247E+03  0.7818608E-02  0.1153774E+00
         21   -1    0    0  503  502  0.00000000000E+00  0.00000000000E+00  0.33720228024E+02  0.33720228024E+02  0.00000000000E+00 0. -1.
         21   -1    0    0  501  503 -0.00000000000E+00 -0.00000000000E+00 -0.13916021182E+04  0.13916021182E+04  0.00000000000E+00 0. -1.
          6    2    1    2  501    0 -0.91582435090E+02  0.70217956894E+01 -0.98748212360E+03  0.10065302710E+04  0.17188831858E+03 0.  0.
         24    2    3    3    0    0 -0.12723515147E+03  0.15504014830E+02 -0.66130387564E+03  0.67826604261E+03  0.79327488141E+02 0.  0.
         -6    2    1    2    0  502  0.91582435090E+02 -0.70217956894E+01 -0.37039976656E+03  0.41879207516E+03  0.17249396257E+03 0.  0.
        -24    2    5    5    0    0  0.28394926363E+02  0.38479276921E+02 -0.83582675224E+02  0.12155623824E+03  0.74181728632E+02 0.  0.
          5    1    3    3  501    0  0.35652716378E+02 -0.84822191407E+01 -0.32617824796E+03  0.32826422844E+03  0.47000000000E+01 0. -1.
        -11    1    4    4    0    0 -0.94259298983E+02  0.35401870547E+02 -0.57512843945E+03  0.58387569717E+03  0.00000000000E+00 0.  1.
         12    1    4    4    0    0 -0.32975852485E+02 -0.19897855717E+02 -0.86175436187E+02  0.94390345435E+02  0.00000000000E+00 0. -1.
         -5    1    5    5    0  502  0.63187508727E+02 -0.45501072610E+02 -0.28681709133E+03  0.29723583692E+03  0.47000000000E+01 0.  1.
         11    1    6    6    0    0 -0.14496679192E+02 -0.12364734597E+02 -0.32548723036E+02  0.37715510610E+02  0.00000000000E+00 0. -1.
        -12    1    6    6    0    0  0.42891605555E+02  0.50844011518E+02 -0.51033952188E+02  0.83840727634E+02  0.00000000000E+00 0.  1.
</event>
<event>
12    1  0.8488291E-002  0.2011078E+03  0.7818608E-02  0.1149157E+00
         21   -1    0    0  501  502  0.00000000000E+00  0.00000000000E+00  0.23768332399E+03  0.23768332399E+03  0.00000000000E+00 0.  1.
         21   -1    0    0  502  503 -0.00000000000E+00 -0.00000000000E+00 -0.41761019161E+03  0.41761019161E+03  0.00000000000E+00 0. -1.
         -6    2    1    2    0  503 -0.87229877216E+02 -0.50760565332E+02 -0.34303770609E+03  0.39764208989E+03  0.17395021524E+03 0.  0.
        -24    2    3    3    0    0  0.24978317528E+01 -0.59604983901E+02 -0.24598484328E+03  0.26508782298E+03  0.78765585754E+02 0.  0.
          6    2    1    2  501    0  0.87229877216E+02  0.50760565332E+02  0.16311083847E+03  0.25765142572E+03  0.17202739629E+03 0.  0.
         24    2    5    5    0    0  0.94023467543E+02  0.93574469955E+02  0.11694184306E+03  0.19414670592E+03  0.80130861011E+02 0.  0.
          5    1    5    5  501    0 -0.67935903270E+01 -0.42813904623E+02  0.46168995410E+02  0.63504719791E+02  0.47000000000E+01 0. -1.
        -13    1    6    6    0    0  0.64339238482E+02  0.85439132605E+01  0.50004667435E+02  0.81932916631E+02  0.00000000000E+00 0.  1.
         14    1    6    6    0    0  0.29684229060E+02  0.85030556695E+02  0.66937175626E+02  0.11221378929E+03  0.00000000000E+00 0. -1.
         -5    1    3    3    0  503 -0.89727708969E+02  0.88444185687E+01 -0.97052862806E+02  0.13255426691E+03  0.47000000000E+01 0.  1.
         11    1    4    4    0    0  0.31912936492E+02 -0.15154792581E+02 -0.16053709520E+03  0.16437841157E+03  0.00000000000E+00 0. -1.
        -12    1    4    4    0    0 -0.29415104740E+02 -0.44450191320E+02 -0.85447748079E+02  0.10070941141E+03  0.00000000000E+00 0.  1.
</event>
<event>
12    1  0.8488291E-002  0.2189813E+03  0.7818608E-02  0.1138244E+00
         21   -1    0    0  503  502  0.00000000000E+00  0.00000000000E+00  0.62684645964E+02  0.62684645964E+02  0.00000000000E+00 0.  1.
         21   -1    0    0  501  503 -0.00000000000E+00 -0.00000000000E+00 -0.71943921974E+03  0.71943921974E+03  0.00000000000E+00 0.  1.
          6    2    1    2  501    0  0.57767656100E+02  0.86397320654E+02 -0.40264153285E+03  0.45833721285E+03  0.19274645938E+03 0.  0.
         24    2    3    3    0    0  0.84138324363E+02  0.38486903151E+02 -0.12352086849E+03  0.17387059702E+03  0.80081709619E+02 0.  0.
         -6    2    1    2    0  502 -0.57767656100E+02 -0.86397320654E+02 -0.25411304093E+03  0.32378665285E+03  0.17164719598E+03 0.  0.
        -24    2    5    5    0    0 -0.10406588513E+03 -0.49538401128E+02 -0.19097566762E+03  0.23712337419E+03  0.80448911300E+02 0.  0.
          5    1    3    3  501    0 -0.26370668263E+02  0.47910417503E+02 -0.27912066436E+03  0.28446661583E+03  0.47000000000E+01 0. -1.
        -13    1    4    4    0    0  0.38521010187E+02  0.15764548231E+02 -0.11487030472E+03  0.12217846010E+03  0.00000000000E+00 0.  1.
         14    1    4    4    0    0  0.45617314175E+02  0.22722354920E+02 -0.86505637709E+01  0.51692136919E+02  0.00000000000E+00 0. -1.
         -5    1    5    5    0  502  0.46298229034E+02 -0.36858919526E+02 -0.63137373306E+02  0.86663278661E+02  0.47000000000E+01 0.  1.
         11    1    6    6    0    0 -0.67652732587E+02 -0.52812234278E+02 -0.17923579940E+03  0.19872467411E+03  0.00000000000E+00 0. -1.
        -12    1    6    6    0    0 -0.36413152547E+02  0.32738331506E+01 -0.11739868228E+02  0.38398700081E+02  0.00000000000E+00 0.  1.
</event>
<event>
12    1  0.8488291E-002  0.1868027E+03  0.7818608E-02  0.1161913E+00
         21   -1    0    0  503  502  0.00000000000E+00  0.00000000000E+00  0.51861699674E+03  0.51861699674E+03  0.00000000000E+00 0.  1.
         21   -1    0    0  501  503 -0.00000000000E+00 -0.00000000000E+00 -0.71377598813E+02  0.71377598813E+02  0.00000000000E+00 0. -1.
          6    2    1    2  501    0 -0.14161144104E+02  0.67451135670E+02  0.29978229829E+03  0.35200540520E+03  0.17113791286E+03 0.  0.
         24    2    3    3    0    0 -0.40294925324E+02 -0.83302798921E+00  0.24754531680E+03  0.26202488641E+03  0.75855008300E+02 0.  0.
         -6    2    1    2    0  502  0.14161144104E+02 -0.67451135670E+02  0.14745709964E+03  0.23798919035E+03  0.17362334171E+03 0.  0.
        -24    2    5    5    0    0  0.72697228204E+02 -0.21749101896E+02  0.93107036126E+02  0.14584165411E+03  0.82722170392E+02 0.  0.
          5    1    3    3  501    0  0.26133781220E+02  0.68284163660E+02  0.52236981495E+02  0.89980518798E+02  0.47000000000E+01 0. -1.
        -11    1    4    4    0    0  0.10077322446E+02  0.10166959501E+02  0.68505179957E+01  0.15869753936E+02  0.00000000000E+00 0.  1.
         12    1    4    4    0    0 -0.50372247769E+02 -0.10999987491E+02  0.24069479880E+03  0.24615513247E+03  0.00000000000E+00 0. -1.
         -5    1    5    5    0  502 -0.58536084100E+02 -0.45702033775E+02  0.54350063512E+02  0.92147536248E+02  0.47000000000E+01 0.  1.
         13    1    6    6    0    0  0.17454994156E+02 -0.42224683494E+02  0.15170744782E+02  0.48143039106E+02  0.00000000000E+00 0. -1.
        -14    1    6    6    0    0  0.55242234048E+02  0.20475581598E+02  0.77936291344E+02  0.97698615000E+02  0.00000000000E+00 0.  1.
</event>
<event>
12    1  0.8488291E-002  0.1870193E+03  0.7818608E-02  0.1163652E+00
         21   -1    0    0  503  502  0.00000000000E+00  0.00000000000E+00  0.19068239147E+03  0.19068239147E+03  0.00000000000E+00 0. -1.
         21   -1    0    0  501  503 -0.00000000000E+00 -0.00000000000E+00 -0.22175978226E+03  0.22175978226E+03  0.00000000000E+00 0. -1.
          6    2    1    2  501    0  0.29919444415E+02  0.25784073485E+02 -0.11221175791E+03  0.21810021777E+03  0.18280107980E+03 0.  0.
         24    2    3    3    0    0  0.61824131197E+01 -0.40477497299E+02 -0.54625910700E+01  0.90148988627E+02  0.80127087989E+02 0.  0.
         -6    2    1    2    0  502 -0.29919444415E+02 -0.25784073485E+02  0.81134367120E+02  0.19434195596E+03  0.17212210410E+03 0.  0.
        -24    2    5    5    0    0 -0.56979274088E+02  0.80854509402E-01 -0.66545020312E+01  0.98789852746E+02  0.80427037713E+02 0.  0.
          5    1    3    3  501    0  0.23737031295E+02  0.66261570784E+02 -0.10674916684E+03  0.12795122914E+03  0.47000000000E+01 0. -1.
        -11    1    4    4    0    0 -0.18590621027E+02 -0.56951585142E+02 -0.72421768245E+01  0.60345201677E+02  0.00000000000E+00 0.  1.
         12    1    4    4    0    0  0.24773034147E+02  0.16474087843E+02  0.17795857545E+01  0.29803786950E+02  0.00000000000E+00 0. -1.
         -5    1    5    5    0  502  0.27059829673E+02 -0.25864927994E+02  0.87788869151E+02  0.95552103216E+02  0.47000000000E+01 0.  1.
         11    1    6    6    0    0 -0.27097061395E+02  0.36682379316E+02  0.13290118199E+02  0.47502367628E+02  0.00000000000E+00 0. -1.
        -12    1    6    6    0    0 -0.29882212693E+02 -0.36601524807E+02 -0.19944620230E+02  0.51287485118E+02  0.00000000000E+00 0.  1.
</event>
<event>
12    1  0.8488291E-002  0.2029466E+03  0.7818608E-02  0.1147408E+00
         21   -1    0    0  503  502  0.00000000000E+00  0.00000000000E+00  0.42677369433E+03  0.42677369433E+03  0.00000000000E+00 0. -1.
         21   -1    0    0  501  503 -0.00000000000E+00 -0.00000000000E+00 -0.17401045630E+03  0.17401045630E+03  0.00000000000E+00 0. -1.
          6    2    1    2  501    0  0.98015725157E+02  0.35183867649E+02 -0.74372392579E+02  0.21614483630E+03  0.17419055818E+03 0.  0.
         24    2    3    3    0    0  0.67782778705E+02  0.73158839008E+02 -0.10990340512E+01  0.12812663039E+03  0.80427014896E+02 0.  0.
         -6    2    1    2    0  502 -0.98015725157E+02 -0.35183867649E+02  0.32713563061E+03  0.38463931434E+03  0.17344940012E+03 0.  0.
        -24    2    5    5    0    0 -0.42711564587E+00 -0.59813665410E+02  0.18327752161E+03  0.20900500912E+03  0.80712990985E+02 0.  0.
          5    1    3    3  501    0  0.30232946452E+02 -0.37974971359E+02 -0.73273358528E+02  0.88018205906E+02  0.47000000000E+01 0. -1.
        -13    1    4    4    0    0 -0.13925236565E+02  0.10802708591E+02  0.16151147492E+02  0.23905444811E+02  0.00000000000E+00 0.  1.
         14    1    4    4    0    0  0.81708015270E+02  0.62356130417E+02 -0.17250181543E+02  0.10422118558E+03  0.00000000000E+00 0. -1.
         -5    1    5    5    0  502 -0.97588609511E+02  0.24629797761E+02  0.14385810899E+03  0.17563430521E+03  0.47000000000E+01 0.  1.
         13    1    6    6    0    0  0.38893039094E+02 -0.24823417129E+02  0.10484446510E+03  0.11454794800E+03  0.00000000000E+00 0. -1.
        -14    1    6    6    0    0 -0.39320154739E+02 -0.34990248281E+02  0.78433056511E+02  0.94457061129E+02  0.00000000000E+00 0.  1.
</event>
<event>
12    1  0.8488291E-002  0.2505972E+03  0.7818608E-02  0.1112999E+00
         21   -1    0    0  501  502  0.00000000000E+00  0.00000000000E+00  0.74360133499E+03  0.74360133499E+03  0.00000000000E+00 0.  1.
         21   -1    0    0  502  503 -0.00000000000E+00 -0.00000000000E+00 -0.12790162340E+03  0.12790162340E+03  0.00000000000E+00 0.  1.
         -6    2    1    2    0  503  0.18142545522E+03  0.11739154019E+02  0.53248947193E+02  0.25575153151E+03  0.17181499338E+03 0.  0.
        -24    2    3    3    0    0  0.19632380203E+03 -0.21284517398E+02  0.47224960861E+02  0.21872583742E+03  0.81330984885E+02 0.  0.
          6    2    1    2  501    0 -0.18142545522E+03 -0.11739154019E+02  0.56245076440E+03  0.61575142688E+03  0.17247015332E+03 0.  0.
         24    2    5    5    0    0 -0.18161430279E+03 -0.45576456188E+02  0.53458836021E+03  0.57166739067E+03  0.77187578919E+02 0.  0.
          5    1    5    5  501    0  0.18884756887E+00  0.33837302169E+02  0.27862404188E+02  0.44084036210E+02  0.47000000000E+01 0. -1.
        -13    1    6    6    0    0 -0.52822243207E+02 -0.48685803640E+02  0.22990640735E+03  0.24086812366E+03  0.00000000000E+00 0.  1.
         14    1    6    6    0    0 -0.12879205959E+03  0.31093474526E+01  0.30468195286E+03  0.33079926701E+03  0.00000000000E+00 0. -1.
         -5    1    3    3    0  503 -0.14898346805E+02  0.33023671417E+02  0.60239863314E+01  0.37025694089E+02  0.47000000000E+01 0.  1.
         13    1    4    4    0    0  0.52374501759E+02  0.29703856569E+02  0.21057179651E+02  0.63787242803E+02  0.00000000000E+00 0. -1.
        -14    1    4    4    0    0  0.14394930027E+03 -0.50988373968E+02  0.26167781211E+02  0.15493859462E+03  0.00000000000E+00 0.  1.
</event>
<event>
12    1  0.8488291E-002  0.2072276E+03  0.7818608E-02  0.1145116E+00
         21   -1    0    0  501  502  0.00000000000E+00  0.00000000000E+00  0.17431619135E+03  0.17431619135E+03  0.00000000000E+00 0.  1.
         21   -1    0    0  502  503 -0.00000000000E+00 -0.00000000000E+00 -0.31854434744E+03  0.31854434744E+03  0.00000000000E+00 0.  1.
         -6    2    1    2    0  503  0.70347444145E+00 -0.10687781025E+03 -0.19636687839E+03  0.28548772871E+03  0.17753853418E+03 0.  0.
        -24    2    3    3    0    0  0.63317459571E+02 -0.10141877430E+03 -0.13234670599E+03  0.19564906955E+03  0.80424121765E+02 0.  0.
          6    2    1    2  501    0 -0.70347444145E+00  0.10687781025E+03  0.52138722295E+02  0.20737281007E+03  0.16988724142E+03 0.  0.
         24    2    5    5    0    0 -0.17821706290E+02  0.13163396948E+03  0.13214359805E+01  0.14812428377E+03  0.65528178005E+02 0.  0.
          5    1    5    5  501    0  0.17118231849E+02 -0.24756159230E+02  0.50817286314E+02  0.59248526309E+02  0.47000000000E+01 0. -1.
        -13    1    6    6    0    0 -0.23592012627E+02  0.10492293124E+03  0.26724681108E+02  0.11081341589E+03  0.00000000000E+00 0.  1.
         14    1    6    6    0    0  0.57703063371E+01  0.26711038235E+02 -0.25403245128E+02  0.37310867878E+02  0.00000000000E+00 0. -1.
         -5    1    3    3    0  503 -0.62613985129E+02 -0.54590359512E+01 -0.64020172396E+02  0.89838659167E+02  0.47000000000E+01 0.  1.
         13    1    4    4    0    0 -0.12858579904E+02 -0.50998591789E+02 -0.44126193101E+02  0.68653625972E+02  0.00000000000E+00 0. -1.
        -14    1    4    4    0    0  0.76176039475E+02 -0.50420182506E+02 -0.88220512891E+02  0.12699544357E+03  0.00000000000E+00 0.  1.
</event>
<event>
12    1  0.8488291E-002  0.2290270E+03  0.7818608E-02  0.1127489E+00
         21   -1    0    0  501  502  0.00000000000E+00  0.00000000000E+00  0.14446185861E+04  0.14446185861E+04  0.00000000000E+00 0. -1.
         21   -1    0    0  502  503 -0.00000000000E+00 -0.00000000000E+00 -0.57426353312E+02  0.57426353312E+02  0.00000000000E+00 0. -1.
         -6    2    1    2    0  503 -0.14802559896E+03  0.25154728392E+02  0.23749169686E+03  0.32993279831E+03  0.17294220715E+03 0.  0.
        -24    2    3    3    0    0 -0.31883672908E+02  0.54689623553E+02  0.68739186180E+02  0.12290440199E+03  0.79830400163E+02 0.  0.
          6    2    1    2  501    0  0.14802559896E+03 -0.25154728392E+02  0.11497005359E+04  0.11721121411E+04  0.17173005182E+03 0.  0.
         24    2    5    5    0    0  0.10463455486E+03 -0.81808710287E+02  0.74544445646E+03  0.76157892179E+03  0.81694316186E+02 0.  0.
          5    1    5    5  501    0  0.43391044103E+02  0.56653981895E+02  0.40425607944E+03  0.41053321929E+03  0.47000000000E+01 0. -1.
        -11    1    6    6    0    0  0.40985357962E+02 -0.13039406351E+02  0.93290953834E+02  0.10272793073E+03  0.00000000000E+00 0.  1.
         12    1    6    6    0    0  0.63649196898E+02 -0.68769303937E+02  0.65215350263E+03  0.65885099106E+03  0.00000000000E+00 0. -1.
         -5    1    3    3    0  503 -0.11614192606E+03 -0.29534895161E+02  0.16875251068E+03  0.20702839632E+03  0.47000000000E+01 0.  1.
         11    1    4    4    0    0 -0.18365395326E+02  0.47151741823E+02 -0.18522935660E+01  0.50636009854E+02  0.00000000000E+00 0. -1.
        -12    1    4    4    0    0 -0.13518277582E+02  0.75378817297E+01  0.70591479746E+02  0.72268392140E+02  0.00000000000E+00 0.  1.
</event>
<event>
12    1  0.8488291E-002  0.2747938E+03  0.7818608E-02  0.1099056E+00
         21   -1    0    0  503  502  0.00000000000E+00  0.00000000000E+00  0.24359892195E+03  0.24359892195E+03  0.00000000000E+00 0.  1.
         21   -1    0    0  501  503 -0.00000000000E+00 -0.00000000000E+00 -0.48901786576E+03  0.48901786576E+03  0.00000000000E+00 0. -1.
          6    2    1    2  501    0  0.20303986592E+03 -0.70685512797E+02 -0.34724427942E+03  0.44282074324E+03  0.17114319204E+03 0.  0.
         24    2    3    3    0    0  0.17731680283E+03 -0.30653851752E+02 -0.17288562234E+03  0.26202461175E+03  0.79915903053E+02 0.  0.
         -6    2    1    2    0  502 -0.20303986592E+03  0.70685512797E+02  0.10182533561E+03  0.28979604447E+03  0.16550443965E+03 0.  0.
        -24    2    5    5    0    0 -0.21412220746E+03  0.86217830887E+02  0.11060153998E+03  0.26827435860E+03  0.80352951077E+02 0.  0.
          5    1    3    3  501    0  0.25723063096E+02 -0.40031661045E+02 -0.17435865709E+03  0.18079613149E+03  0.47000000000E+01 0. -1.
        -13    1    4    4    0    0  0.10668743484E+03 -0.54909114709E+02 -0.86984584801E+02  0.14820100412E+03  0.00000000000E+00 0.  1.
         14    1    4    4    0    0  0.70629367991E+02  0.24255262957E+02 -0.85901037535E+02  0.11382360763E+03  0.00000000000E+00 0. -1.
         -5    1    5    5    0  502  0.11082341540E+02 -0.15532318089E+02 -0.87762043697E+01  0.21521685863E+02  0.47000000000E+01 0.  1.
         11    1    6    6    0    0 -0.43442392410E+02  0.51586971142E+02  0.13172639681E+02  0.68716631801E+02  0.00000000000E+00 0. -1.
        -12    1    6    6    0    0 -0.17067981505E+03  0.34630859745E+02  0.97428900300E+02  0.19955772680E+03  0.00000000000E+00 0.  1.
</event>
<event>
12    1  0.8488291E-002  0.2081732E+03  0.7818608E-02  0.1143079E+00
         21   -1    0    0  503  502  0.00000000000E+00  0.00000000000E+00  0.35099418104E+03  0.35099418104E+03  0.00000000000E+00 0.  1.
         21   -1    0    0  501  503 -0.00000000000E+00 -0.00000000000E+00 -0.34932721196E+03  0.34932721196E+03  0.00000000000E+00 0. -1.
          6    2    1    2  501    0  0.11003803277E+03 -0.38220224573E+02 -0.28083451849E+03  0.34940380454E+03  0.17217966672E+03 0.  0.
         24    2    3    3    0    0  0.87143404016E+01 -0.22517763125E+02 -0.20704654416E+03  0.22299251910E+03  0.79211127653E+02 0.  0.
         -6    2    1    2    0  502 -0.11003803277E+03  0.38220224573E+02  0.28250148757E+03  0.35091758846E+03  0.17253089344E+03 0.  0.
        -24    2    5    5    0    0 -0.13705549350E+03  0.54234028930E+02  0.18937534903E+03  0.25252575550E+03  0.78617403784E+02 0.  0.
          5    1    3    3  501    0  0.10132369237E+03 -0.15702461448E+02 -0.73787974332E+02  0.12641128544E+03  0.47000000000E+01 0. -1.
        -11    1    4    4    0    0 -0.12298732152E+02 -0.19033331011E+02 -0.99515908708E+01  0.24749962885E+02  0.00000000000E+00 0.  1.
         12    1    4    4    0    0  0.21013072554E+02 -0.34844321140E+01 -0.19709495329E+03  0.19824255622E+03  0.00000000000E+00 0. -1.
         -5    1    5    5    0  502  0.27017460728E+02 -0.16013804358E+02  0.93126138544E+02  0.98391832966E+02  0.47000000000E+01 0.  1.
         13    1    6    6    0    0 -0.11913829235E+02  0.60017921218E+01 -0.67334658016E+01  0.14943239187E+02  0.00000000000E+00 0. -1.
        -14    1    6    6    0    0 -0.12514166426E+03  0.48232236809E+02  0.19610881483E+03  0.23758251631E+03  0.00000000000E+00 0.  1.
</event>
<event>
12    1  0.8488291E-002  0.2435457E+03  0.7818608E-02  0.1117517E+00
         21   -1    0    0  501  502  0.00000000000E+00  0.00000000000E+00  0.43587352814E+03  0.43587352814E+03  0.00000000000E+00 0.  1.
         21   -1    0    0  502  503 -0.00000000000E+00 -0.00000000000E+00 -0.14133864665E+03  0.14133864665E+03  0.00000000000E+00 0. -1.
         -6    2    1    2    0  503 -0.54510327557E+01  0.17122359703E+03  0.90577922518E+02  0.25984389564E+03  0.17311053150E+03 0.  0.
        -24    2    3    3    0    0  0.23123829617E+02  0.59229991785E+02 -0.16098352583E+02  0.10248758644E+03  0.78750523779E+02 0.  0.
          6    2    1    2  501    0  0.54510327557E+01 -0.17122359703E+03  0.20395695897E+03  0.31736827916E+03  0.17255998830E+03 0.  0.
         24    2    5    5    0    0  0.41536352844E+01 -0.40884509717E+02  0.14982139218E+03  0.17614961710E+03  0.83026756098E+02 0.  0.
          5    1    5    5  501    0  0.12973974713E+01 -0.13033908731E+03  0.54135566797E+02  0.14121866206E+03  0.47000000000E+01 0. -1.
        -13    1    6    6    0    0 -0.47302283752E+01 -0.55224682941E+02  0.49166836221E+02  0.74091284578E+02  0.00000000000E+00 0.  1.
         14    1    6    6    0    0  0.88838636596E+01  0.14340173224E+02  0.10065455596E+03  0.10205833252E+03  0.00000000000E+00 0. -1.
         -5    1    3    3    0  503 -0.28574862373E+02  0.11199360525E+03  0.10667627510E+03  0.15735630920E+03  0.47000000000E+01 0.  1.
         11    1    4    4    0    0  0.23609367094E+02  0.51161037140E+02  0.24246249230E+02  0.61341132510E+02  0.00000000000E+00 0. -1.
        -12    1    4    4    0    0 -0.48553747726E+00  0.80689546452E+01 -0.40344601812E+02  0.41146453931E+02  0.00000000000E+00 0.  1.
</event>
<event>
12    1  0.8488291E-002  0.1847076E+03  0.7818608E-02  0.1164421E+00
         21   -1    0    0  501  502  0.00000000000E+00  0.00000000000E+00  0.22533957731E+03  0.22533957731E+03  0.00000000000E+00 0. -1.
         21   -1    0    0  502  503 -0.00000000000E+00 -0.00000000000E+00 -0.15048377328E+03  0.15048377328E+03  0.00000000000E+00 0. -1.
         -6    2    1    2    0  503 -0.40156054623E+01 -0.36221338247E+02  0.11086698181E+02  0.18041761656E+03  0.17635047791E+03 0.  0.
        -24    2    3    3    0    0 -0.44782889148E+02 -0.51278037959E+02 -0.32238630836E+02  0.11887210690E+03  0.91958165179E+02 0.  0.
          6    2    1    2  501    0  0.40156054623E+01  0.36221338247E+02  0.63769105849E+02  0.19540573402E+03  0.18107675609E+03 0.  0.
         24    2    5    5    0    0 -0.20584642440E+02 -0.21910933390E+02 -0.22519138802E+02  0.88390387612E+02  0.80012077234E+02 0.  0.
          5    1    5    5  501    0  0.24600247902E+02  0.58132271637E+02  0.86288244652E+02  0.10701534641E+03  0.47000000000E+01 0. -1.
        -11    1    6    6    0    0  0.21986407154E+02 -0.61045405807E+01 -0.34557350345E+02  0.41411085208E+02  0.00000000000E+00 0.  1.
         12    1    6    6    0    0 -0.42571049594E+02 -0.15806392810E+02  0.12038211543E+02  0.46979302404E+02  0.00000000000E+00 0. -1.
         -5    1    3    3    0  503  0.40767283686E+02  0.15056699712E+02  0.43325329017E+02  0.61545509664E+02  0.47000000000E+01 0.  1.
         11    1    4    4    0    0  0.15473724977E+02  0.14453796246E+02  0.57575285969E+01  0.21943051888E+02  0.00000000000E+00 0. -1.
        -12    1    4    4    0    0 -0.60256614125E+02 -0.65731834205E+02 -0.37996159433E+02  0.96929055011E+02  0.00000000000E+00 0.  1.
</event>
<event>
12    1  0.8488291E-002  0.2161006E+03  0.7818608E-02  0.1136920E+00
         21   -1    0    0  503  502  0.00000000000E+00  0.00000000000E+00  0.65173941554E+02  0.65173941554E+02  0.00000000000E+00 0.  1.
         21   -1    0    0  501  503 -0.00000000000E+00 -0.00000000000E+00 -0.77842117259E+03  0.77842117259E+03  0.00000000000E+00 0.  1.
          6    2    1    2  501    0  0.93926757615E+02  0.89664069972E+02 -0.23571530717E+03  0.31944228083E+03  0.17210399039E+03 0.  0.
         24    2    3    3    0    0  0.81731941883E+02  0.42230976268E+02 -0.24106189489E+03  0.26995199987E+03  0.79370519624E+02 0.  0.
         -6    2    1    2    0  502 -0.93926757615E+02 -0.89664069972E+02 -0.47753192387E+03  0.52415283332E+03  0.17273555836E+03 0.  0.
        -24    2    5    5    0    0 -0.18397042112E+01  0.87893638242E+01 -0.17102483198E+03  0.18927704828E+03  0.80595722103E+02 0.  0.
          5    1    3    3  501    0  0.12194815732E+02  0.47433093703E+02  0.53465877207E+01  0.49490280958E+02  0.47000000000E+01 0. -1.
        -13    1    4    4    0    0  0.59256916097E+02 -0.13013354943E+02 -0.10266563023E+03  0.11925167144E+03  0.00000000000E+00 0.  1.
         14    1    4    4    0    0  0.22475025785E+02  0.55244331211E+02 -0.13839626466E+03  0.15070032843E+03  0.00000000000E+00 0. -1.
         -5    1    5    5    0  502 -0.92087053404E+02 -0.98453433796E+02 -0.30650709188E+03  0.33487578504E+03  0.47000000000E+01 0.  1.
         13    1    6    6    0    0 -0.24438474579E+02  0.13319686746E+02 -0.16224189873E+03  0.16461192788E+03  0.00000000000E+00 0. -1.
        -14    1    6    6    0    0  0.22598770368E+02 -0.45303229217E+01 -0.87829332525E+01  0.24665120402E+02  0.00000000000E+00 0.  1.
</event>
<event>
12    1  0.8488291E-002  0.1802506E+03  0.7818608E-02  0.1168578E+00
         21   -1    0    0  501  502  0.00000000000E+00  0.00000000000E+00  0.15679671116E+03  0.15679671116E+03  0.00000000000E+00 0. -1.
         21   -1    0    0  502  503 -0.00000000000E+00 -0.00000000000E+00 -0.26769939298E+03  0.26769939298E+03  0.00000000000E+00 0. -1.
         -6    2    1    2    0  503 -0.51083778851E+02  0.19383556685E+02 -0.16071530765E+03  0.24149471055E+03  0.17177022553E+03 0.  0.
        -24    2    3    3    0    0 -0.15163322777E+02  0.76691520095E+02 -0.11270964519E+03  0.15842175789E+03  0.79262056762E+02 0.  0.
          6    2    1    2  501    0  0.51083778851E+02 -0.19383556685E+02  0.49812625827E+02  0.18300139359E+03  0.16740053056E+03 0.  0.
         24    2    5    5    0    0  0.52473148506E+02  0.47573770467E+02  0.15187920697E+02  0.10746217058E+03  0.79377265133E+02 0.  0.
          5    1    5    5  501    0 -0.13893696556E+01 -0.66957327151E+02  0.34624705130E+02  0.75539223008E+02  0.47000000000E+01 0. -1.
        -13    1    6    6    0    0 -0.11215467470E+02  0.26098991176E+02  0.27034014349E+02  0.39214563402E+02  0.00000000000E+00 0.  1.
         14    1    6    6    0    0  0.63688615977E+02  0.21474779290E+02 -0.11846093652E+02  0.68247607177E+02  0.00000000000E+00 0. -1.
         -5    1    3    3    0  503 -0.35920456074E+02 -0.57307963410E+02 -0.48005662458E+02  0.83072952655E+02  0.47000000000E+01 0.  1.
         13    1    4    4    0    0 -0.50199229756E+01  0.31062049837E+02 -0.10676127449E+03  0.11130148381E+03  0.00000000000E+00 0. -1.
        -14    1    4    4    0    0 -0.10143399801E+02  0.45629470258E+02 -0.59483706975E+01  0.47120274081E+02  0.00000000000E+00 0.  1.
</event>
<event>
12    1  0.8488291E-002  0.1840930E+03  0.7818608E-02  0.1164440E+00
         21   -1    0    0  501  502  0.00000000000E+00  0.00000000000E+00  0.26477211071E+02  0.26477211071E+02  0.00000000000E+00 0. -1.
         21   -1    0    0  502  503 -0.00000000000E+00 -0.00000000000E+00 -0.20590916092E+04  0.20590916092E+04  0.00000000000E+00 0. -1.
         -6    2    1    2    0  503  0.47811695766E+02  0.44315214208E+02 -0.16603292140E+04  0.16702538831E+04  0.16972076630E+03 0.  0.
        -24    2    3    3    0    0 -0.40266303844E+01  0.22457062057E+02 -0.14548888015E+04  0.14571979186E+04  0.78764306836E+02 0.  0.
          6    2    1    2  501    0 -0.47811695766E+02 -0.44315214208E+02 -0.37228518408E+03  0.41531493718E+03  0.17216399825E+03 0.  0.
         24    2    5    5    0    0 -0.93823768800E+02 -0.44828020513E+01 -0.25528431790E+03  0.28334893924E+03  0.79331855508E+02 0.  0.
          5    1    5    5  501    0  0.46012073034E+02 -0.39832412157E+02 -0.11700086619E+03  0.13196599794E+03  0.47000000000E+01 0. -1.
        -11    1    6    6    0    0  0.10641305886E+02 -0.55128746312E+01 -0.66637026059E+02  0.67706147577E+02  0.00000000000E+00 0.  1.
         12    1    6    6    0    0 -0.10446507469E+03  0.10300725799E+01 -0.18864729184E+03  0.21564279166E+03  0.00000000000E+00 0. -1.
         -5    1    3    3    0  503  0.51838326150E+02  0.21858152152E+02 -0.20544041256E+03  0.21305596444E+03  0.47000000000E+01 0.  1.
         13    1    4    4    0    0 -0.12290387650E+02 -0.27021654725E+02 -0.38995352576E+03  0.39108180181E+03  0.00000000000E+00 0. -1.
        -14    1    4    4    0    0  0.82637572658E+01  0.49478716782E+02 -0.10649352757E+04  0.10661161168E+04  0.00000000000E+00 0.  1.
</event>
<event>
12    1  0.8488291E-002  0.2908324E+03  0.7818608E-02  0.1090159E+00
         21   -1    0    0  503  502  0.00000000000E+00  0.00000000000E+00  0.10271003748E+03  0.10271003748E+03  0.00000000000E+00 0. -1.
         21   -1    0    0  501  503 -0.00000000000E+00 -0.00000000000E+00 -0.87095807681E+03  0.87095807681E+03  0.00000000000E+00 0.  1.
          6    2    1    2  501    0  0.21887658193E+03  0.80017655966E+02 -0.26317805470E+03  0.39084810660E+03  0.17085014067E+03 0.  0.
         24    2    3    3    0    0  0.12196992618E+03 -0.15403171979E+02 -0.85243846113E+02  0.16684206444E+03  0.73863662024E+02 0.  0.
         -6    2    1    2    0  502 -0.21887658193E+03 -0.80017655966E+02 -0.50506998463E+03  0.58282000769E+03  0.17399335793E+03 0.  0.
        -24    2    5    5    0    0 -0.66487010266E+02 -0.56141500209E+02 -0.11286405455E+03  0.16134612480E+03  0.75643153025E+02 0.  0.
          5    1    3    3  501    0  0.96906655755E+02  0.95420827946E+02 -0.17793420859E+03  0.22400604216E+03  0.47000000000E+01 0. -1.
        -13    1    4    4    0    0 -0.21999313384E+01 -0.19030943154E+02 -0.10048268246E+02  0.21632942240E+02  0.00000000000E+00 0.  1.
         14    1    4    4    0    0  0.12416985752E+03  0.36277711747E+01 -0.75195577867E+02  0.14520912220E+03  0.00000000000E+00 0. -1.
         -5    1    5    5    0  502 -0.15238957167E+03 -0.23876155757E+02 -0.39220593008E+03  0.42147388288E+03  0.47000000000E+01 0.  1.
         13    1    6    6    0    0  0.11502317900E+02  0.82412476821E+01 -0.12884746366E+02  0.19137350113E+02  0.00000000000E+00 0. -1.
        -14    1    6    6    0    0 -0.77989328166E+02 -0.64382747891E+02 -0.99979308185E+02  0.14220877469E+03  0.00000000000E+00 0.  1.
</event>
<event>
12    1  0.8488291E-002  0.1912518E+03  0.7818608E-02  0.1157746E+00
         21   -1    0    0  503  502  0.00000000000E+00  0.00000000000E+00  0.68804862493E+02  0.68804862493E+02  0.00000000000E+00 0. -1.
         21   -1    0    0  501  503 -0.00000000000E+00 -0.00000000000E+00 -0.12626587163E+04  0.12626587163E+04  0.00000000000E+00 0.  1.
          6    2    1    2  501    0  0.55971823954E+02 -0.59416935021E+02 -0.11064163688E+04  0.11228243111E+04  0.17295674372E+03 0.  0.
         24    2    3    3    0    0 -0.18242855140E+02 -0.73763237504E+02 -0.78920829777E+03  0.79670058409E+03  0.78155399405E+02 0.  0.
         -6    2    1    2    0  502 -0.55971823954E+02  0.59416935021E+02 -0.87437484945E+02  0.20863926764E+03  0.17094388840E+03 0.  0.
        -24    2    5    5    0    0 -0.61135141349E+02  0.10274036233E+03 -0.79328960867E+02  0.16401396805E+03  0.79463262735E+02 0.  0.
          5    1    3    3  501    0  0.74214679094E+02  0.14346302483E+02 -0.31720807107E+03  0.32612372704E+03  0.47000000000E+01 0. -1.
        -11    1    4    4    0    0 -0.30067034022E+02 -0.73280801936E+02 -0.77051930029E+03  0.77457994719E+03  0.00000000000E+00 0.  1.
         12    1    4    4    0    0  0.11824178882E+02 -0.48243556819E+00 -0.18688997480E+02  0.22120636905E+02  0.00000000000E+00 0. -1.
         -5    1    5    5    0  502  0.51633173952E+01 -0.43323427308E+02 -0.81085240785E+01  0.44625299584E+02  0.47000000000E+01 0.  1.
         13    1    6    6    0    0 -0.33386544880E+02  0.46381289461E+02 -0.83356376159E+02  0.10106518113E+03  0.00000000000E+00 0. -1.
        -14    1    6    6    0    0 -0.27748596469E+02  0.56359072868E+02  0.40274152927E+01  0.62948786918E+02  0.00000000000E+00 0.  1.
</event>
<event>
12    1  0.8488291E-002  0.2419154E+03  0.7818608E-02  0.1118645E+00
         21   -1    0    0  501  502  0.00000000000E+00  0.00000000000E+00  0.32184060195E+03  0.32184060195E+03  0.00000000000E+00 0.  1.
         21   -1    0    0  502  503 -0.00000000000E+00 -0.00000000000E+00 -0.23097537360E+03  0.23097537360E+03  0.00000000000E+00 0. -1.
         -6    2    1    2    0  503  0.71915888286E+02  0.15321661876E+03 -0.82715190416E+02  0.25566554919E+03  0.17284629897E+03 0.  0.
        -24    2    3    3    0    0 -0.10122309965E+02  0.11865614832E+03 -0.71085718845E+02  0.16576545632E+03  0.90792424750E+02 0.  0.
          6    2    1    2  501    0 -0.71915888286E+02 -0.15321661876E+03  0.17358041877E+03  0.29715042635E+03  0.17181672459E+03 0.  0.
         24    2    5    5    0    0 -0.11168961297E+02 -0.46035358098E+01  0.45140199186E+02  0.91492901401E+02  0.78659870238E+02 0.  0.
          5    1    5    5  501    0 -0.60746926989E+02 -0.14861308295E+03  0.12844021959E+03  0.20565752495E+03  0.47000000000E+01 0. -1.
        -13    1    6    6    0    0 -0.99839084462E+01 -0.18735507603E+02  0.64266703257E+02  0.67682396681E+02  0.00000000000E+00 0.  1.
         14    1    6    6    0    0 -0.11850528508E+01  0.14131971793E+02 -0.19126504071E+02  0.23810504720E+02  0.00000000000E+00 0. -1.
         -5    1    3    3    0  503  0.82038198251E+02  0.34560470438E+02 -0.11629471570E+02  0.89900092871E+02  0.47000000000E+01 0.  1.
         13    1    4    4    0    0  0.18852380627E+02  0.10280512588E+03 -0.79924674951E+02  0.13157606100E+03  0.00000000000E+00 0. -1.
        -14    1    4    4    0    0 -0.28974690592E+02  0.15851022443E+02  0.88389561057E+01  0.34189395321E+02  0.00000000000E+00 0.  1.
</event>
<event>
12    1  0.8488291E-002  0.1793778E+03  0.7818608E-02  0.1168763E+00
         21   -1    0    0  501  502  0.00000000000E+00  0.00000000000E+00  0.14653408940E+03  0.14653408940E+03  0.00000000000E+00 0. -1.
         21   -1    0    0  502  503 -0.00000000000E+00 -0.00000000000E+00 -0.22089937910E+03  0.22089937910E+03  0.00000000000E+00 0. -1.
         -6    2    1    2    0  503  0.25677933715E+02 -0.46227602284E+02 -0.58804999901E+02  0.18738203285E+03  0.16987539766E+03 0.  0.
        -24    2    3    3    0    0 -0.50373848071E+02 -0.35683224347E+02 -0.26064602341E+02  0.10378130887E+03  0.79248845452E+02 0.  0.
          6    2    1    2  501    0 -0.25677933715E+02  0.46227602284E+02 -0.15560289804E+02  0.18005143565E+03  0.17140609489E+03 0.  0.
         24    2    5    5    0    0 -0.72816885162E+02  0.14148206749E+02  0.22483854253E+02  0.11134470193E+03  0.79935276483E+02 0.  0.
          5    1    5    5  501    0  0.47138951447E+02  0.32079395535E+02 -0.38044144057E+02  0.68706733720E+02  0.47000000000E+01 0. -1.
        -13    1    6    6    0    0 -0.28363638871E+02 -0.12244240524E+02 -0.26068316417E+02  0.40422451148E+02  0.00000000000E+00 0.  1.
         14    1    6    6    0    0 -0.44453246291E+02  0.26392447273E+02  0.48552170670E+02  0.70922250780E+02  0.00000000000E+00 0. -1.
         -5    1    3    3    0  503  0.76051781787E+02 -0.10544377937E+02 -0.32740397560E+02  0.83600723988E+02  0.47000000000E+01 0.  1.
         13    1    4    4    0    0 -0.42359905429E+02  0.45691152504E+01 -0.41931498732E+02  0.59778666663E+02  0.00000000000E+00 0. -1.
        -14    1    4    4    0    0 -0.80139426425E+01 -0.40252339597E+02  0.15866896391E+02  0.44002642203E+02  0.00000000000E+00 0.  1.
</event>
<event>
12    1  0.8488291E-002  0.1880727E+03  0.7818608E-02  0.1160474E+00
         21   -1    0    0  503  502  0.00000000000E+00  0.00000000000E+00  0.19241782277E+04  0.19241782277E+04  0.00000000000E+00 0. -1.
         21   -1    0    0  501  503 -0.00000000000E+00 -0.00000000000E+00 -0.19410666536E+02  0.19410666536E+02  0.00000000000E+00 0. -1.
          6    2    1    2  501    0  0.39210594175E+01  0.74452188904E+02  0.71963625835E+03  0.74380621402E+03  0.17266394109E+03 0.  0.
         24    2    3    3    0    0  0.69008630052E+02  0.57154079551E+02  0.39133634962E+03  0.40863679938E+03  0.76230672613E+02 0.  0.
         -6    2    1    2    0  502 -0.39210594175E+01 -0.74452188904E+02  0.11851313029E+04  0.11997826803E+04  0.17141695273E+03 0.  0.
        -24    2    5    5    0    0 -0.43593918022E+01 -0.99985256343E+02  0.57602194339E+03  0.59012012485E+03  0.80152521518E+02 0.  0.
          5    1    3    3  501    0 -0.65087570635E+02  0.17298109353E+02  0.32829990873E+03  0.33516941464E+03  0.47000000000E+01 0. -1.
        -11    1    4    4    0    0  0.59059624080E+02  0.24246562872E+02  0.34545346214E+03  0.35130332978E+03  0.00000000000E+00 0.  1.
         12    1    4    4    0    0  0.99490059720E+01  0.32907516679E+02  0.45882887477E+02  0.57333469606E+02  0.00000000000E+00 0. -1.
         -5    1    5    5    0  502  0.43833238472E+00  0.25533067438E+02  0.60910935947E+03  0.60966255540E+03  0.47000000000E+01 0.  1.
         13    1    6    6    0    0  0.26516261743E+02 -0.47258742558E+01  0.15739690698E+03  0.15968479061E+03  0.00000000000E+00 0. -1.
        -14    1    6    6    0    0 -0.30875653545E+02 -0.95259382087E+02  0.41862503640E+03  0.43043533424E+03  0.00000000000E+00 0.  1.
</event>
<event>
12    1  0.8488291E-002  0.1971022E+03  0.7818608E-02  0.1152598E+00
         21   -1    0    0  501  502  0.00000000000E+00  0.00000000000E+00  0.28952683954E+03  0.28952683954E+03  0.00000000000E+00 0.  1.
         21   -1    0    0  502  503 -0.00000000000E+00 -0.00000000000E+00 -0.36167227956E+03  0.36167227956E+03  0.00000000000E+00 0.  1.
         -6    2    1    2    0  503  0.83806569038E+02 -0.39357367170E+02 -0.29493687033E+03  0.35373432267E+03  0.17195252307E+03 0.  0.
        -24    2    3    3    0    0  0.16737943287E+02 -0.69932127280E+01 -0.43577869903E+02  0.91533872350E+02  0.78424200808E+02 0.  0.
          6    2    1    2  501    0 -0.83806569038E+02  0.39357367170E+02  0.22279143031E+03  0.29746479643E+03  0.17400212737E+03 0.  0.
         24    2    5    5    0    0 -0.81911457608E+02  0.57012289332E+02  0.24048390344E+03  0.27196182936E+03  0.78554699356E+02 0.  0.
          5    1    5    5  501    0 -0.18951114298E+01 -0.17654922162E+02 -0.17692473132E+02  0.25502967071E+02  0.47000000000E+01 0. -1.
        -13    1    6    6    0    0 -0.62170223772E+02  0.30212307202E+02  0.70437343481E+02  0.98688092427E+02  0.00000000000E+00 0.  1.
         14    1    6    6    0    0 -0.19741233837E+02  0.26799982130E+02  0.17004655996E+03  0.17327373693E+03  0.00000000000E+00 0. -1.
         -5    1    3    3    0  503  0.67068625751E+02 -0.32364154443E+02 -0.25135900042E+03  0.26220045032E+03  0.47000000000E+01 0.  1.
         13    1    4    4    0    0 -0.31481542484E+02 -0.14727289969E+01 -0.12513716427E+02  0.33909431530E+02  0.00000000000E+00 0. -1.
        -14    1    4    4    0    0  0.48219485771E+02 -0.55204837311E+01 -0.31064153476E+02  0.57624440820E+02  0.00000000000E+00 0.  1.
</event>
<event>
12    1  0.8488291E-002  0.1816797E+03  0.7818608E-02  0.1167051E+00
         21   -1    0    0  501  502  0.00000000000E+00  0.00000000000E+00  0.27542313775E+03  0.27542313775E+03  0.00000000000E+00 0.  1.
         21   -1    0    0  502  503 -0.00000000000E+00 -0.00000000000E+00 -0.17424070666E+03  0.17424070666E+03  0.00000000000E+00 0. -1.
         -6    2    1    2    0  503  0.53787678249E+02  0.20902106843E+02 -0.77369950064E+02  0.19746806431E+03  0.17227163100E+03 0.  0.
        -24    2    3    3    0    0  0.61370454087E+02 -0.25836146343E+02 -0.10130129107E+03  0.14420680369E+03  0.78101290420E+02 0.  0.
          6    2    1    2  501    0 -0.53787678249E+02 -0.20902106843E+02  0.17855238116E+03  0.25219578010E+03  0.16849850527E+03 0.  0.
         24    2    5    5    0    0 -0.20125869014E+02  0.52097641076E+02  0.90352131452E+02  0.13276607422E+03  0.79649908950E+02 0.  0.
          5    1    5    5  501    0 -0.33661809234E+02 -0.72999747919E+02  0.88200249711E+02  0.11942970588E+03  0.47000000000E+01 0. -1.
        -11    1    6    6    0    0  0.14432309425E+02 -0.15392330713E+02  0.24548741159E+02  0.32370605379E+02  0.00000000000E+00 0.  1.
         12    1    6    6    0    0 -0.34558178440E+02  0.67489971789E+02  0.65803390293E+02  0.10039546884E+03  0.00000000000E+00 0. -1.
         -5    1    3    3    0  503 -0.75827758378E+01  0.46738253186E+02  0.23931341010E+02  0.53261260620E+02  0.47000000000E+01 0.  1.
         11    1    4    4    0    0  0.24358715745E+02 -0.47820834098E+02 -0.79588620175E+02  0.95992331298E+02  0.00000000000E+00 0. -1.
        -12    1    4    4    0    0  0.37011738341E+02  0.21984687756E+02 -0.21712670900E+02  0.48214472395E+02  0.00000000000E+00 0.  1.
</event>
<event>
12    1  0.8488291E-002  0.1815365E+03  0.7818608E-02  0.1166361E+00
         21   -1    0    0  503  502  0.00000000000E+00  0.00000000000E+00  0.31952898800E+02  0.31952898800E+02  0.00000000000E+00 0. -1.
         21   -1    0    0  501  503 -0.00000000000E+00 -0.00000000000E+00 -0.10307087288E+04  0.10307087288E+04  0.00000000000E+00 0. -1.
          6    2    1    2  501    0  0.52053708220E+02 -0.27696271666E+02 -0.50687361548E+03  0.53840166000E+03  0.17169395278E+03 0.  0.
         24    2    3    3    0    0 -0.21301260763E+02  0.29126823079E+02 -0.27598981360E+03  0.28952571593E+03  0.79703497024E+02 0.  0.
         -6    2    1    2    0  502 -0.52053708220E+02  0.27696271666E+02 -0.49188221454E+03  0.52425996761E+03  0.17153346221E+03 0.  0.
        -24    2    5    5    0    0 -0.62246344261E+02  0.93993594460E+00 -0.48367408646E+03  0.49410611716E+03  0.79528248080E+02 0.  0.
          5    1    3    3  501    0  0.73354968984E+02 -0.56823094746E+02 -0.23088380187E+03  0.24887594407E+03  0.47000000000E+01 0. -1.
        -11    1    4    4    0    0 -0.12108263816E+02 -0.10490784001E+01 -0.24501279513E+03  0.24531404443E+03  0.00000000000E+00 0.  1.
         12    1    4    4    0    0 -0.91929969472E+01  0.30175901479E+02 -0.30977018473E+02  0.44211671496E+02  0.00000000000E+00 0. -1.
         -5    1    5    5    0  502  0.10192636041E+02  0.26756335722E+02 -0.82081280732E+01  0.30153850454E+02  0.47000000000E+01 0.  1.
         13    1    6    6    0    0 -0.60328304242E+02 -0.85912303094E+01 -0.17549186082E+03  0.18577057556E+03  0.00000000000E+00 0. -1.
        -14    1    6    6    0    0 -0.19180400191E+01  0.95311662540E+01 -0.30818222565E+03  0.30833554160E+03  0.00000000000E+00 0.  1.
</event>
<event>
12    1  0.8488291E-002  0.2666514E+03  0.7818608E-02  0.1103345E+00
         21   -1    0    0  503  502  0.00000000000E+00  0.00000000000E+00  0.21044659226E+04  0.21044659226E+04  0.00000000000E+00 0.  1.
         21   -1    0    0  501  503 -0.00000000000E+00 -0.00000000000E+00 -0.62817043186E+02  0.62817043186E+02  0.00000000000E+00 0.  1.
          6    2    1    2  501    0  0.98396889224E+02  0.17682871747E+03  0.28174455275E+03  0.38729246342E+03  0.17223564116E+03 0.  0.
         24    2    3    3    0    0  0.80635724981E+02  0.15440797444E+03  0.29777504316E+03  0.35416822311E+03  0.80132460437E+02 0.  0.
         -6    2    1    2    0  502 -0.98396889224E+02 -0.17682871747E+03  0.17599043267E+04  0.17799905024E+04  0.17364505862E+03 0.  0.
        -24    2    5    5    0    0 -0.44764997552E+02 -0.19551115194E+02  0.47892384593E+03  0.48826850983E+03  0.81559404009E+02 0.  0.
          5    1    3    3  501    0  0.17761164243E+02  0.22420743025E+02 -0.16030490413E+02  0.33124240308E+02  0.47000000000E+01 0. -1.
        -13    1    4    4    0    0 -0.62970967598E+01 -0.18025900991E+01 -0.34102722620E+00  0.65588915402E+01  0.00000000000E+00 0.  1.
         14    1    4    4    0    0  0.86932821741E+02  0.15621056454E+03  0.29811607039E+03  0.34760933157E+03  0.00000000000E+00 0. -1.
         -5    1    5    5    0  502 -0.53631891672E+02 -0.15727760227E+03  0.12809804807E+04  0.12917219925E+04  0.47000000000E+01 0.  1.
         11    1    6    6    0    0 -0.52373502645E+02 -0.36904303906E+02  0.44342136580E+03  0.44802613660E+03  0.00000000000E+00 0. -1.
        -12    1    6    6    0    0  0.76085050924E+01  0.17353188712E+02  0.35502480129E+02  0.40242373234E+02  0.00000000000E+00 0.  1.
</event>
<event>
12    1  0.8488291E-002  0.2815841E+03  0.7818608E-02  0.1095119E+00
         21   -1    0    0  503  502  0.00000000000E+00  0.00000000000E+00  0.29262128152E+03  0.29262128152E+03  0.00000000000E+00 0. -1.
         21   -1    0    0  501  503 -0.00000000000E+00 -0.00000000000E+00 -0.28374000404E+03  0.28374000404E+03  0.00000000000E+00 0. -1.
          6    2    1    2  501    0  0.79090462943E+02 -0.20504080545E+03 -0.61447633800E+02  0.28821071893E+03  0.17604707773E+03 0.  0.
         24    2    3    3    0    0  0.61706395204E+02 -0.30153371208E+02 -0.17968220594E+02  0.10710199512E+03  0.80193986080E+02 0.  0.
         -6    2    1    2    0  502 -0.79090462943E+02  0.20504080545E+03  0.70328911287E+02  0.28815056663E+03  0.17259072994E+03 0.  0.
        -24    2    5    5    0    0 -0.10347341606E+03  0.84708783390E+02  0.46144643290E+02  0.16292559806E+03  0.80827573176E+02 0.  0.
          5    1    3    3  501    0  0.17384067739E+02 -0.17488743424E+03 -0.43479413206E+02  0.18110872381E+03  0.47000000000E+01 0. -1.
        -13    1    4    4    0    0  0.74397661304E+02 -0.21758442561E+02  0.70347482848E+01  0.77832702083E+02  0.00000000000E+00 0.  1.
         14    1    4    4    0    0 -0.12691266100E+02 -0.83949286464E+01 -0.25002968879E+02  0.29269293038E+02  0.00000000000E+00 0. -1.
         -5    1    5    5    0  502  0.24382953115E+02  0.12033202206E+03  0.24184267997E+02  0.12522496857E+03  0.47000000000E+01 0.  1.
         13    1    6    6    0    0 -0.63778838011E+02  0.63040602835E+02 -0.10670796092E+02  0.90309045356E+02  0.00000000000E+00 0. -1.
        -14    1    6    6    0    0 -0.39694578047E+02  0.21668180555E+02  0.56815439381E+02  0.72616552706E+02  0.00000000000E+00 0.  1.
</event>
<event>
12    1  0.8488291E-002  0.1956262E+03  0.7818608E-02  0.1153746E+00
         21   -1    0    0  501  502  0.00000000000E+00  0.00000000000E+00  0.34894245646E+03  0.34894245646E+03  0.00000000000E+00 0.  1.
         21   -1    0    0  502  503 -0.00000000000E+00 -0.00000000000E+00 -0.12120569119E+03  0.12120569119E+03  0.00000000000E+00 0.  1.
         -6    2    1    2    0  503  0.64389180112E+02 -0.66093639066E+02  0.18815880171E+03  0.27055846464E+03  0.17112513692E+03 0.  0.
        -24    2    3    3    0    0  0.39363798583E+02  0.26836654489E+02  0.11916330739E+03  0.15204780091E+03  0.81540942297E+02 0.  0.
          6    2    1    2  501    0 -0.64389180112E+02  0.66093639066E+02  0.39577963554E+02  0.19958968301E+03  0.17249721947E+03 0.  0.
         24    2    5    5    0    0 -0.89439064913E+01 -0.27924516161E+02  0.45966059534E+01  0.84875354092E+02  0.79516821364E+02 0.  0.
          5    1    5    5  501    0 -0.55445273621E+02  0.94018155227E+02  0.34981357601E+02  0.11471432892E+03  0.47000000000E+01 0. -1.
        -11    1    6    6    0    0 -0.26070536136E+02  0.19911980109E+02 -0.49502844737E+01  0.33176273490E+02  0.00000000000E+00 0.  1.
         12    1    6    6    0    0  0.17126629645E+02 -0.47836496269E+02  0.95468904272E+01  0.51699080603E+02  0.00000000000E+00 0. -1.
         -5    1    3    3    0  503  0.25025381530E+02 -0.92930293555E+02  0.68995494323E+02  0.11851066373E+03  0.47000000000E+01 0.  1.
         11    1    4    4    0    0 -0.17279491425E+02 -0.12690613009E+02  0.49515819957E+02  0.53957843808E+02  0.00000000000E+00 0. -1.
        -12    1    4    4    0    0  0.56643290008E+02  0.39527267498E+02  0.69647487434E+02  0.98089957103E+02  0.00000000000E+00 0.  1.
</event>
<event>
12    1  0.8488291E-002  0.2190650E+03  0.7818608E-02  0.1134828E+00
         21   -1    0    0  503  502  0.00000000000E+00  0.00000000000E+00  0.30937678109E+03  0.30937678109E+03  0.00000000000E+00 0. -1.
         21   -1    0    0  501  503 -0.00000000000E+00 -0.00000000000E+00 -0.17378656833E+03  0.17378656833E+03  0.00000000000E+00 0. -1.
          6    2    1    2  501    0 -0.97259765265E+02  0.92874755028E+02  0.14873506941E+03  0.26370429207E+03  0.17126777491E+03 0.  0.
         24    2    3    3    0    0  0.25369939608E+01  0.37391969554E+02  0.11513047839E+03  0.14458632040E+03  0.79028990043E+02 0.  0.
         -6    2    1    2    0  502  0.97259765265E+02 -0.92874755028E+02 -0.13144856646E+02  0.21945905735E+03  0.17292862267E+03 0.  0.
        -24    2    5    5    0    0  0.47238955679E+02 -0.12654220735E+03 -0.21136261326E+02  0.15845470270E+03  0.80104320046E+02 0.  0.
          5    1    3    3  501    0 -0.99796759226E+02  0.55482785473E+02  0.33604591013E+02  0.11911797166E+03  0.47000000000E+01 0. -1.
        -11    1    4    4    0    0  0.28689368594E+02  0.41139729032E+02  0.10486573455E+03  0.11624276088E+03  0.00000000000E+00 0.  1.
         12    1    4    4    0    0 -0.26152374633E+02 -0.37477594778E+01  0.10264743843E+02  0.28343559519E+02  0.00000000000E+00 0. -1.
         -5    1    5    5    0  502  0.50020809587E+02  0.33667452325E+02  0.79914046800E+01  0.61004354652E+02  0.47000000000E+01 0.  1.
         11    1    6    6    0    0  0.55352445502E+02 -0.11316259783E+03 -0.41625518874E+02  0.13267385045E+03  0.00000000000E+00 0. -1.
        -12    1    6    6    0    0 -0.81134898233E+01 -0.13379609521E+02  0.20489257548E+02  0.25780852254E+02  0.00000000000E+00 0.  1.
</event>
<event>
12    1  0.8488291E-002  0.2062496E+03  0.7818608E-02  0.1144596E+00
         21   -1    0    0  503  502  0.00000000000E+00  0.00000000000E+00  0.49383730644E+03  0.49383730644E+03  0.00000000000E+00 0.  1.
         21   -1    0    0  501  503 -0.00000000000E+00 -0.00000000000E+00 -0.90829744802E+02  0.90829744802E+02  0.00000000000E+00 0. -1.
          6    2    1    2  501    0  0.49597980163E+02  0.10173528217E+03  0.26824646587E+03  0.33829445688E+03  0.17226997949E+03 0.  0.
         24    2    3    3    0    0 -0.31588445837E+02  0.29077358294E+02  0.67043696153E+02  0.10943848862E+03  0.75090631388E+02 0.  0.
         -6    2    1    2    0  502 -0.49597980163E+02 -0.10173528217E+03  0.13476109577E+03  0.24637259436E+03  0.17242063405E+03 0.  0.
        -24    2    5    5    0    0 -0.41541759012E+02 -0.40187618604E+02  0.37239579433E+01  0.10130075326E+03  0.83109640344E+02 0.  0.
          5    1    3    3  501    0  0.81186426000E+02  0.72657923871E+02  0.20120276971E+03  0.22885596826E+03  0.47000000000E+01 0. -1.
        -13    1    4    4    0    0  0.45982239552E+01  0.36485070610E+02  0.62100827871E+02  0.72172133565E+02  0.00000000000E+00 0.  1.
         14    1    4    4    0    0 -0.36186669792E+02 -0.74077123161E+01  0.49428682817E+01  0.37266355058E+02  0.00000000000E+00 0. -1.
         -5    1    5    5    0  502 -0.80562211511E+01 -0.61547663561E+02  0.13103713783E+03  0.14507184110E+03  0.47000000000E+01 0.  1.
         13    1    6    6    0    0 -0.57401409783E+02 -0.48955773839E+02  0.18774749002E+02  0.77743686801E+02  0.00000000000E+00 0. -1.
        -14    1    6    6    0    0  0.15859650772E+02  0.87681552352E+01 -0.15050791059E+02  0.23557066463E+02  0.00000000000E+00 0.  1.
</event>
<event>
12    1  0.8488291E-002  0.2736562E+03  0.7818608E-02  0.1099223E+00
         21   -1    0    0  503  502  0.00000000000E+00  0.00000000000E+00  0.13191820158E+04  0.13191820158E+04  0.00000000000E+00 0.  1.
         21   -1    0    0  501  503 -0.00000000000E+00 -0.00000000000E+00 -0.21768620614E+03  0.21768620614E+03  0.00000000000E+00 0.  1.
          6    2    1    2  501    0  0.16227897702E+03 -0.13738005801E+03 -0.11002352282E+03  0.29482682787E+03  0.17207537923E+03 0.  0.
         24    2    3    3    0    0  0.16941819385E+03 -0.12306070292E+03 -0.13792249338E+03  0.26232367564E+03  0.77101463092E+02 0.  0.
         -6    2    1    2    0  502 -0.16227897702E+03  0.13738005801E+03  0.12115193325E+04  0.12420413941E+04  0.17227879984E+03 0.  0.
        -24    2    5    5    0    0 -0.19598941054E+02  0.73370177249E+02  0.37317740942E+03  0.38922598177E+03  0.80425024577E+02 0.  0.
          5    1    3    3  501    0 -0.71392168251E+01 -0.14319355089E+02  0.27898970558E+02  0.32503152236E+02  0.47000000000E+01 0. -1.
        -11    1    4    4    0    0  0.15388545900E+03 -0.74143754735E+02 -0.95251736065E+02  0.19557843460E+03  0.00000000000E+00 0.  1.
         12    1    4    4    0    0  0.15532734851E+02 -0.48916948186E+02 -0.42670757311E+02  0.66745241039E+02  0.00000000000E+00 0. -1.
         -5    1    5    5    0  502 -0.14268003597E+03  0.64009880761E+02  0.83834192306E+03  0.85281541230E+03  0.47000000000E+01 0.  1.
         11    1    6    6    0    0 -0.25666266583E+02  0.83534568372E+02  0.23809217784E+03  0.25362307959E+03  0.00000000000E+00 0. -1.
        -12    1    6    6    0    0  0.60673255291E+01 -0.10164391124E+02  0.13508523159E+03  0.13560290218E+03  0.00000000000E+00 0.  1.
</event>
<event>
12    1  0.8488291E-002  0.1744692E+03  0.7818608E-02  0.1173476E+00
         21   -1    0    0  503  502  0.00000000000E+00  0.00000000000E+00  0.18481583335E+03  0.18481583335E+03  0.00000000000E+00 0. -1.
         21   -1    0    0  501  503 -0.00000000000E+00 -0.00000000000E+00 -0.17581919017E+03  0.17581919017E+03  0.00000000000E+00 0. -1.
          6    2    1    2  501    0  0.81324916137E+01  0.28515125802E+02 -0.42409451320E+02  0.17954962502E+03  0.17193096424E+03 0.  0.
         24    2    3    3    0    0  0.60508149505E+02 -0.12317116163E+02 -0.10990961607E+01  0.10119710772E+03  0.80166695654E+02 0.  0.
         -6    2    1    2    0  502 -0.81324916137E+01 -0.28515125802E+02  0.51406094504E+02  0.18108539850E+03  0.17108502325E+03 0.  0.
        -24    2    5    5    0    0 -0.10207068565E+02  0.51135651499E+02  0.20013246203E+02  0.95317390957E+02  0.77238823738E+02 0.  0.
          5    1    3    3  501    0 -0.52375657891E+02  0.40832241965E+02 -0.41310355159E+02  0.78352517297E+02  0.47000000000E+01 0. -1.
        -13    1    4    4    0    0  0.31912099160E+02 -0.26500001102E+02 -0.35261641692E+02  0.54442772762E+02  0.00000000000E+00 0.  1.
         14    1    4    4    0    0  0.28596050345E+02  0.14182884939E+02  0.34162545531E+02  0.46754334961E+02  0.00000000000E+00 0. -1.
         -5    1    5    5    0  502  0.20745769515E+01 -0.79650777301E+02  0.31392848300E+02  0.85768007547E+02  0.47000000000E+01 0.  1.
         11    1    6    6    0    0 -0.17271798476E+02 -0.68097734438E+01  0.30792067103E+02  0.35956076446E+02  0.00000000000E+00 0. -1.
        -12    1    6    6    0    0  0.70647299111E+01  0.57945424943E+02 -0.10778820899E+02  0.59361314511E+02  0.00000000000E+00 0.  1.
</event>
<event>
12    1  0.8488291E-002  0.2183600E+03  0.7818608E-02  0.1137022E+00
         21   -1    0    0  503  502  0.00000000000E+00  0.00000000000E+00  0.12149706887E+04  0.12149706887E+04  0.00000000000E+00 0. -1.
         21   -1    0    0  501  503 -0.00000000000E+00 -0.00000000000E+00 -0.37505989142E+02  0.37505989142E+02  0.00000000000E+00 0. -1.
          6    2    1    2  501    0 -0.41396362120E+02  0.12069873934E+03  0.61694117434E+03  0.65444441432E+03  0.17719829108E+03 0.  0.
         24    2    3    3    0    0 -0.39624972841E+02  0.10974141597E+03  0.62448802913E+03  0.64022310029E+03  0.79290622172E+02 0.  0.
         -6    2    1    2    0  502  0.41396362120E+02 -0.12069873934E+03  0.56052352522E+03  0.59803226353E+03  0.16484575038E+03 0.  0.
        -24    2    5    5    0    0  0.64203777818E+01 -0.11324402706E+03  0.24505700401E+03  0.28051044031E+03  0.75945644976E+02 0.  0.
          5    1    3    3  501    0 -0.17713892795E+01  0.10957323364E+02 -0.75468547953E+01  0.14221314025E+02  0.47000000000E+01 0. -1.
        -13    1    4    4    0    0  0.21399289774E+00  0.17125714501E+01  0.21089454841E+03  0.21090161034E+03  0.00000000000E+00 0.  1.
         14    1    4    4    0    0 -0.39838965739E+02  0.10802884452E+03  0.41359348072E+03  0.42932148995E+03  0.00000000000E+00 0. -1.
         -5    1    5    5    0  502  0.34975984339E+02 -0.74547122726E+01  0.31546652121E+03  0.31752182322E+03  0.47000000000E+01 0.  1.
         13    1    6    6    0    0  0.23400813018E+02 -0.67494381148E+02  0.20591021420E+03  0.21794977827E+03  0.00000000000E+00 0. -1.
        -14    1    6    6    0    0 -0.16980435236E+02 -0.45749645915E+02  0.39146789814E+02  0.62560662040E+02  0.00000000000E+00 0.  1.
</event>
<event>
12    1  0.8488291E-002  0.1990847E+03  0.7818608E-02  0.1151209E+00
         21   -1    0    0  503  502  0.00000000000E+00  0.00000000000E+00  0.10123303599E+03  0.10123303599E+03  0.00000000000E+00 0.  1.
         21   -1    0    0  501  503 -0.00000000000E+00 -0.00000000000E+00 -0.46220144291E+03  0.46220144291E+03  0.00000000000E+00 0.  1.
          6    2    1    2  501    0 -0.57420698550E+02 -0.81307639365E+02 -0.29426224930E+03  0.35347159165E+03  0.16865297477E+03 0.  0.
         24    2    3    3    0    0 -0.88608455569E+02 -0.46049323531E+02 -0.27325359505E+03  0.30170984345E+03  0.79933120995E+02 0.  0.
         -6    2    1    2    0  502  0.57420698550E+02  0.81307639365E+02 -0.66706157618E+02  0.20996288725E+03  0.17241413433E+03 0.  0.
        -24    2    5    5    0    0  0.97028829467E+01  0.11339518276E+03 -0.32140720304E+02  0.14270621603E+03  0.79871301357E+02 0.  0.
          5    1    3    3  501    0  0.31187757020E+02 -0.35258315834E+02 -0.21008654258E+02  0.51761748204E+02  0.47000000000E+01 0. -1.
        -11    1    4    4    0    0 -0.44515122409E+02 -0.24534475542E+02 -0.43883793950E+02  0.67151500242E+02  0.00000000000E+00 0.  1.
         12    1    4    4    0    0 -0.44093333161E+02 -0.21514847989E+02 -0.22936980110E+03  0.23455834321E+03  0.00000000000E+00 0. -1.
         -5    1    5    5    0  502  0.47717815603E+02 -0.32087543394E+02 -0.34565437314E+02  0.67256671221E+02  0.47000000000E+01 0.  1.
         11    1    6    6    0    0  0.22984350246E+02  0.28270098253E+02 -0.42444162173E+02  0.55937337388E+02  0.00000000000E+00 0. -1.
        -12    1    6    6    0    0 -0.13281467300E+02  0.85125084506E+02  0.10303441870E+02  0.86768878639E+02  0.00000000000E+00 0.  1.
</event>
<event>
12    1  0.8488291E-002  0.2152237E+03  0.7818608E-02  0.1137712E+00
         21   -1    0    0  503  502  0.00000000000E+00  0.00000000000E+00  0.68699559109E+02  0.68699559109E+02  0.00000000000E+00 0.  1.
         21   -1    0    0  501  503 -0.00000000000E+00 -0.00000000000E+00 -0.73847303461E+03  0.73847303461E+03  0.00000000000E+00 0.  1.
          6    2    1    2  501    0  0.12592315872E+03 -0.17858311301E+02 -0.45792163191E+03  0.50597770884E+03  0.17362505491E+03 0.  0.
         24    2    3    3    0    0  0.18864053784E+02 -0.64994352437E+02 -0.14209240521E+03  0.16914889659E+03  0.61975634140E+02 0.  0.
         -6    2    1    2    0  502 -0.12592315872E+03  0.17858311301E+02 -0.21185184360E+03  0.30119488488E+03  0.17222541584E+03 0.  0.
        -24    2    5    5    0    0 -0.12032340841E+03  0.59964027535E+02 -0.20513184147E+03  0.25793408309E+03  0.79859323966E+02 0.  0.
          5    1    3    3  501    0  0.10705910493E+03  0.47136041136E+02 -0.31582922670E+03  0.33682881225E+03  0.47000000000E+01 0. -1.
        -11    1    4    4    0    0  0.23476449794E+02  0.78103536387E+00 -0.22195477505E+02  0.32317068753E+02  0.00000000000E+00 0.  1.
         12    1    4    4    0    0 -0.46123960099E+01 -0.65775387800E+02 -0.11989692770E+03  0.13683182784E+03  0.00000000000E+00 0. -1.
         -5    1    5    5    0  502 -0.55997503041E+01 -0.42105716235E+02 -0.67200021278E+01  0.43260801792E+02  0.47000000000E+01 0.  1.
         11    1    6    6    0    0 -0.11020592344E+02  0.44115180569E+02 -0.68974227836E+02  0.82613840958E+02  0.00000000000E+00 0. -1.
        -12    1    6    6    0    0 -0.10930281607E+03  0.15848846966E+02 -0.13615761363E+03  0.17532024213E+03  0.00000000000E+00 0.  1.
</event>
<event>
12    1  0.8488291E-002  0.1936194E+03  0.7818608E-02  0.1157563E+00
         21   -1    0    0  501  502  0.00000000000E+00  0.00000000000E+00  0.10459758221E+03  0.10459758221E+03  0.00000000000E+00 0.  1.
         21   -1    0    0  502  503 -0.00000000000E+00 -0.00000000000E+00 -0.34057413947E+03  0.34057413947E+03  0.00000000000E+00 0.  1.
         -6    2    1    2    0  503  0.25332286022E+02  0.84018946622E+02 -0.12638420417E+03  0.22268808273E+03  0.16098480369E+03 0.  0.
        -24    2    3    3    0    0  0.72665325571E+02  0.75136752572E+02 -0.10938892210E+03  0.17140222097E+03  0.80541939049E+02 0.  0.
          6    2    1    2  501    0 -0.25332286022E+02 -0.84018946622E+02 -0.10959235309E+03  0.22248363895E+03  0.17259078086E+03 0.  0.
         24    2    5    5    0    0 -0.47390064908E+02 -0.11515094994E+03 -0.10905033356E+03  0.18403716935E+03  0.80449642189E+02 0.  0.
          5    1    5    5  501    0  0.22057778886E+02  0.31132003317E+02 -0.54201953563E+00  0.38446469605E+02  0.47000000000E+01 0. -1.
        -13    1    6    6    0    0 -0.15336785559E+02  0.67206518089E+01  0.93993644179E+00  0.16771035524E+02  0.00000000000E+00 0.  1.
         14    1    6    6    0    0 -0.32053279349E+02 -0.12187160175E+03 -0.10999027000E+03  0.16726613382E+03  0.00000000000E+00 0. -1.
         -5    1    3    3    0  503 -0.47333039548E+02  0.88821940501E+01 -0.16995282062E+02  0.51285861760E+02  0.47000000000E+01 0.  1.
         13    1    4    4    0    0 -0.38098268110E+01  0.65570703938E+01  0.10864097918E+02  0.13249097178E+02  0.00000000000E+00 0. -1.
        -14    1    4    4    0    0  0.76475152382E+02  0.68579682178E+02 -0.12025302002E+03  0.15815312379E+03  0.00000000000E+00 0.  1.
</event>
<event>
12    1  0.8488291E-002  0.2954580E+03  0.7818608E-02  0.1088190E+00
         21   -1    0    0  501  502  0.00000000000E+00  0.00000000000E+00  0.18711280731E+03  0.18711280731E+03  0.00000000000E+00 0. -1.
         21   -1    0    0  502  503 -0.00000000000E+00 -0.00000000000E+00 -0.45876721540E+03  0.45876721540E+03  0.00000000000E+00 0.  1.
         -6    2    1    2    0  503 -0.19124700589E+03 -0.13045417090E+03 -0.14220878939E+03  0.32330968598E+03  0.17524869558E+03 0.  0.
        -24    2    3    3    0    0 -0.16866296810E+03 -0.15349822410E+03 -0.15919481533E+03  0.28654445474E+03  0.68962552926E+02 0.  0.
          6    2    1    2  501    0  0.19124700589E+03  0.13045417090E+03 -0.12944561870E+03  0.32257033673E+03  0.18358035290E+03 0.  0.
         24    2    5    5    0    0  0.64937294161E+02  0.11604015026E+02  0.25473277418E+01  0.10457095430E+03  0.81099261818E+02 0.  0.
          5    1    5    5  501    0  0.12630971173E+03  0.11885015587E+03 -0.13199294644E+03  0.21799938243E+03  0.47000000000E+01 0. -1.
        -11    1    6    6    0    0  0.18082006162E+02  0.16652414209E+02 -0.36065404059E+02  0.43646021764E+02  0.00000000000E+00 0.  1.
         12    1    6    6    0    0  0.46855287998E+02 -0.50483991834E+01  0.38612731801E+02  0.60924932539E+02  0.00000000000E+00 0. -1.
         -5    1    3    3    0  503 -0.22584037792E+02  0.23044053204E+02  0.16986025935E+02  0.36765231239E+02  0.47000000000E+01 0.  1.
         13    1    4    4    0    0 -0.85670232304E+02 -0.10642944259E+03 -0.60982608099E+02  0.14961782462E+03  0.00000000000E+00 0. -1.
        -14    1    4    4    0    0 -0.82992735797E+02 -0.47068781505E+02 -0.98212207228E+02  0.13692663012E+03  0.00000000000E+00 0.  1.
</event>
<event>
12    1  0.8488291E-002  0.2226979E+03  0.7818608E-02  0.1131985E+00
         21   -1    0    0  501  502  0.00000000000E+00  0.00000000000E+00  0.82910934596E+02  0.82910934596E+02  0.00000000000E+00 0. -1.
         21   -1    0    0  502  503 -0.00000000000E+00 -0.00000000000E+00 -0.87125423960E+03  0.87125423960E+03  0.00000000000E+00 0. -1.
         -6    2    1    2    0  503  0.12910948935E+03  0.58837665192E+02 -0.66164721811E+03  0.69794994805E+03  0.17095601092E+03 0.  0.
        -24    2    3    3    0    0  0.15239746683E+03  0.24158596238E+02 -0.44752934026E+03  0.47974471591E+03  0.77870767184E+02 0.  0.
          6    2    1    2  501    0 -0.12910948935E+03 -0.58837665192E+02 -0.12669608690E+03  0.25621522614E+03  0.17164851467E+03 0.  0.
         24    2    5    5    0    0 -0.90653987988E+02  0.28275702751E+01 -0.13723065455E+03  0.18263198100E+03  0.79347635409E+02 0.  0.
          5    1    5    5  501    0 -0.38455501357E+02 -0.61665235467E+02  0.10534567655E+02  0.73583245141E+02  0.47000000000E+01 0. -1.
        -11    1    6    6    0    0 -0.13975998823E+02  0.30924923896E+02 -0.66232359848E+02  0.74420460574E+02  0.00000000000E+00 0.  1.
         12    1    6    6    0    0 -0.76677989165E+02 -0.28097353621E+02 -0.70998294703E+02  0.10821152043E+03  0.00000000000E+00 0. -1.
         -5    1    3    3    0  503 -0.23287977488E+02  0.34679068954E+02 -0.21411787785E+03  0.21820523215E+03  0.47000000000E+01 0.  1.
         13    1    4    4    0    0  0.21669241024E+02 -0.49436079968E+01 -0.17156507069E+03  0.17299875360E+03  0.00000000000E+00 0. -1.
        -14    1    4    4    0    0  0.13072822581E+03  0.29102204234E+02 -0.27596426957E+03  0.30674596231E+03  0.00000000000E+00 0.  1.
</event>
<event>
12    1  0.8488291E-002  0.1856637E+03  0.7818608E-02  0.1162581E+00
         21   -1    0    0  501  502  0.00000000000E+00  0.00000000000E+00  0.10494288618E+03  0.10494288618E+03  0.00000000000E+00 0.  1.
         21   -1    0    0  502  503 -0.00000000000E+00 -0.00000000000E+00 -0.57936174713E+03  0.57936174713E+03  0.00000000000E+00 0.  1.
         -6    2    1    2    0  503 -0.55731115599E+02 -0.41182582358E+02 -0.46310769518E+03  0.49893861911E+03  0.17224704924E+03 0.  0.
        -24    2    3    3    0    0  0.63693614393E+01  0.28798232620E+02 -0.27055547750E+03  0.28480728034E+03  0.83934579039E+02 0.  0.
          6    2    1    2  501    0  0.55731115599E+02  0.41182582358E+02 -0.11311165764E+02  0.18536601419E+03  0.17155364879E+03 0.  0.
         24    2    5    5    0    0 -0.17176254131E+02  0.45917844502E+02  0.35828964514E+02  0.98290247467E+02  0.77290270405E+02 0.  0.
          5    1    5    5  501    0  0.72907369730E+02 -0.47352621440E+01 -0.47140130278E+02  0.87075766727E+02  0.47000000000E+01 0. -1.
        -11    1    6    6    0    0  0.31082229851E+01  0.27016126205E+02 -0.21461794570E+02  0.34643047664E+02  0.00000000000E+00 0.  1.
         12    1    6    6    0    0 -0.20284477116E+02  0.18901718297E+02  0.57290759084E+02  0.63647199804E+02  0.00000000000E+00 0. -1.
         -5    1    3    3    0  503 -0.62100477038E+02 -0.69980814979E+02 -0.19255221768E+03  0.21413133878E+03  0.47000000000E+01 0.  1.
         13    1    4    4    0    0  0.26394344173E+01  0.57057417679E+02 -0.14053630184E+03  0.15170025597E+03  0.00000000000E+00 0. -1.
        -14    1    4    4    0    0  0.37299270220E+01 -0.28259185059E+02 -0.13001917566E+03  0.13310702436E+03  0.00000000000E+00 0.  1.
</event>
<event>
12    1  0.8488291E-002  0.2156460E+03  0.7818608E-02  0.1137416E+00
         21   -1    0    0  503  502  0.00000000000E+00  0.00000000000E+00  0.16590997982E+04  0.16590997982E+04  0.00000000000E+00 0.  1.
         21   -1    0    0  501  503 -0.00000000000E+00 -0.00000000000E+00 -0.37575535148E+02  0.37575535148E+02  0.00000000000E+00 0.  1.
          6    2    1    2  501    0 -0.12164011369E+03 -0.37316687301E+02  0.37768377669E+03  0.43427984323E+03  0.17252563478E+03 0.  0.
         24    2    3    3    0    0 -0.11633642307E+03 -0.27599082834E+02  0.15947142013E+03  0.21573629260E+03  0.82553869679E+02 0.  0.
         -6    2    1    2    0  502  0.12164011369E+03  0.37316687301E+02  0.12438404863E+04  0.12623954901E+04  0.17411021088E+03 0.  0.
        -24    2    5    5    0    0  0.13273233415E+03  0.60680545202E+02  0.82160942880E+03  0.83934695485E+03  0.90339670360E+02 0.  0.
          5    1    3    3  501    0 -0.53036906242E+01 -0.97176044672E+01  0.21821235656E+03  0.21854355064E+03  0.47000000000E+01 0. -1.
        -13    1    4    4    0    0 -0.78461053474E+02  0.12758629186E+02  0.52408045885E+02  0.95213039047E+02  0.00000000000E+00 0.  1.
         14    1    4    4    0    0 -0.37875369595E+02 -0.40357712020E+02  0.10706337425E+03  0.12052325355E+03  0.00000000000E+00 0. -1.
         -5    1    5    5    0  502 -0.11092220460E+02 -0.23363857902E+02  0.42223105755E+03  0.42304853524E+03  0.47000000000E+01 0.  1.
         13    1    6    6    0    0  0.11866920769E+03  0.17859796074E+02  0.47985667055E+03  0.49463499415E+03  0.00000000000E+00 0. -1.
        -14    1    6    6    0    0  0.14063126465E+02  0.42820749128E+02  0.34175275825E+03  0.34471196071E+03  0.00000000000E+00 0.  1.
</event>
<event>
12    1  0.8488291E-002  0.1943035E+03  0.7818608E-02  0.1155204E+00
         21   -1    0    0  503  502  0.00000000000E+00  0.00000000000E+00  0.20188903099E+03  0.20188903099E+03  0.00000000000E+00 0. -1.
         21   -1    0    0  501  503 -0.00000000000E+00 -0.00000000000E+00 -0.20370441194E+03  0.20370441194E+03  0.00000000000E+00 0. -1.
          6    2    1    2  501    0  0.87713777050E+02  0.27866823880E+02 -0.63114947797E+02  0.20184972796E+03  0.16819497461E+03 0.  0.
         24    2    3    3    0    0  0.11819834190E+03  0.97189091456E+01 -0.17734965059E+02  0.14405623060E+03  0.79827084152E+02 0.  0.
         -6    2    1    2    0  502 -0.87713777050E+02 -0.27866823880E+02  0.61299566853E+02  0.20374371497E+03  0.17112451004E+03 0.  0.
        -24    2    5    5    0    0  0.12005022213E+02 -0.21537558237E+02 -0.64023439207E+01  0.82956558155E+02  0.78948170086E+02 0.  0.
          5    1    3    3  501    0 -0.30484564855E+02  0.18147914735E+02 -0.45379982739E+02  0.57793497359E+02  0.47000000000E+01 0. -1.
        -11    1    4    4    0    0  0.40085047787E+02  0.18735926520E+02  0.28696907638E+02  0.52738586505E+02  0.00000000000E+00 0.  1.
         12    1    4    4    0    0  0.78113294118E+02 -0.90170173747E+01 -0.46431872696E+02  0.91317644092E+02  0.00000000000E+00 0. -1.
         -5    1    5    5    0  502 -0.99718799263E+02 -0.63292656426E+01  0.67701910773E+02  0.12078715682E+03  0.47000000000E+01 0.  1.
         11    1    6    6    0    0 -0.10961117642E+02 -0.16759192069E+02  0.32121619545E+02  0.37852543653E+02  0.00000000000E+00 0. -1.
        -12    1    6    6    0    0  0.22966139855E+02 -0.47783661686E+01 -0.38523963466E+02  0.45104014502E+02  0.00000000000E+00 0.  1.
</event>
<event>
12    1  0.8488291E-002  0.1990961E+03  0.7818608E-02  0.1150630E+00
         21   -1    0    0  501  502  0.00000000000E+00  0.00000000000E+00  0.87331109173E+03  0.87331109173E+03  0.00000000000E+00 0. -1.
         21   -1    0    0  502  503 -0.00000000000E+00 -0.00000000000E+00 -0.47147373500E+02  0.47147373500E+02  0.00000000000E+00 0. -1.
         -6    2    1    2    0  503 -0.75927047438E+02  0.66453821226E+02  0.50471854961E+03  0.54234967148E+03  0.17094246093E+03 0.  0.
        -24    2    3    3    0    0 -0.56868436628E+02  0.11205467279E+03  0.39125864446E+03  0.41850336194E+03  0.79192602642E+02 0.  0.
          6    2    1    2  501    0  0.75927047438E+02 -0.66453821226E+02  0.32144516862E+03  0.37810879374E+03  0.17163401933E+03 0.  0.
         24    2    5    5    0    0  0.52098853014E+02  0.22509131142E+02  0.12473747544E+03  0.16085733507E+03  0.84230000565E+02 0.  0.
          5    1    5    5  501    0  0.23828194424E+02 -0.88962952368E+02  0.19670769318E+03  0.21725145868E+03  0.47000000000E+01 0. -1.
        -11    1    6    6    0    0  0.25609543108E+02  0.53610714122E+02  0.86227561854E+02  0.10471461116E+03  0.00000000000E+00 0.  1.
         12    1    6    6    0    0  0.26489309907E+02 -0.31101582981E+02  0.38509913585E+02  0.56142723906E+02  0.00000000000E+00 0. -1.
         -5    1    3    3    0  503 -0.19058610810E+02 -0.45600851568E+02  0.11345990515E+03  0.12384630954E+03  0.47000000000E+01 0.  1.
         11    1    4    4    0    0 -0.36469819048E+02  0.36476714243E+02  0.26478990425E+03  0.26976710655E+03  0.00000000000E+00 0. -1.
        -12    1    4    4    0    0 -0.20398617580E+02  0.75577958551E+02  0.12646874021E+03  0.14873625539E+03  0.00000000000E+00 0.  1.
</event>
<event>
12    1  0.8488291E-002  0.1756329E+03  0.7818608E-02  0.1172104E+00
         21   -1    0    0  501  502  0.00000000000E+00  0.00000000000E+00  0.12978458190E+03  0.12978458190E+03  0.00000000000E+00 0.  1.
         21   -1    0    0  502  503 -0.00000000000E+00 -0.00000000000E+00 -0.24318186052E+03  0.24318186052E+03  0.00000000000E+00 0.  1.
         -6    2    1    2    0  503 -0.66032366375E+01 -0.29454439350E+02 -0.84846500484E+02  0.19505347376E+03  0.17301954297E+03 0.  0.
        -24    2    3    3    0    0 -0.40862191761E+02 -0.44007258712E+01  0.11086282533E+02  0.90046076769E+02  0.79349260723E+02 0.  0.
          6    2    1    2  501    0  0.66032366375E+01  0.29454439350E+02 -0.28550778129E+02  0.17791296866E+03  0.17299338356E+03 0.  0.
         24    2    5    5    0    0 -0.66952016802E+01  0.74115436846E+02 -0.58799333719E+02  0.12215888115E+03  0.76990303893E+02 0.  0.
          5    1    5    5  501    0  0.13298438318E+02 -0.44660997496E+02  0.30248555590E+02  0.55754087512E+02  0.47000000000E+01 0. -1.
        -13    1    6    6    0    0  0.24913117865E+02  0.71064551220E+02 -0.42337464616E+02  0.86390362842E+02  0.00000000000E+00 0.  1.
         14    1    6    6    0    0 -0.31608319545E+02  0.30508856265E+01 -0.16461869103E+02  0.35768518308E+02  0.00000000000E+00 0. -1.
         -5    1    3    3    0  503  0.34258955124E+02 -0.25053713479E+02 -0.95932783017E+02  0.10500739699E+03  0.47000000000E+01 0.  1.
         11    1    4    4    0    0 -0.72065833761E+01  0.21054097062E+02 -0.25749117659E+02  0.34032732880E+02  0.00000000000E+00 0. -1.
        -12    1    4    4    0    0 -0.33655608385E+02 -0.25454822933E+02  0.36835400191E+02  0.56013343889E+02  0.00000000000E+00 0.  1.
</event>
<event>
12    1  0.8488291E-002  0.1757408E+03  0.7818608E-02  0.1172401E+00
         21   -1    0    0  503  502  0.00000000000E+00  0.00000000000E+00  0.17535033739E+03  0.17535033739E+03  0.00000000000E+00 0.  1.
         21   -1    0    0  501  503 -0.00000000000E+00 -0.00000000000E+00 -0.18068716182E+03  0.18068716182E+03  0.00000000000E+00 0.  1.
          6    2    1    2  501    0 -0.31930605612E+02  0.46130483380E+00 -0.35618465078E+02  0.17770684241E+03  0.17114692637E+03 0.  0.
         24    2    3    3    0    0 -0.14847534940E+02  0.66593281098E+02 -0.12771662634E+02  0.10553111262E+03  0.79489533801E+02 0.  0.
         -6    2    1    2    0  502  0.31930605612E+02 -0.46130483380E+00  0.30281640648E+02  0.17833065679E+03  0.17281512959E+03 0.  0.
        -24    2    5    5    0    0 -0.51918231893E+02 -0.12166033354E+01  0.24421058410E+02  0.94142567073E+02  0.74628760640E+02 0.  0.
          5    1    3    3  501    0 -0.17083070672E+02 -0.66131976264E+02 -0.22846802444E+02  0.72175729786E+02  0.47000000000E+01 0. -1.
        -13    1    4    4    0    0 -0.39234117942E+02  0.62722011031E+02 -0.24848914498E+02  0.78043803278E+02  0.00000000000E+00 0.  1.
         14    1    4    4    0    0  0.24386583002E+02  0.38712700670E+01  0.12077251864E+02  0.27487309345E+02  0.00000000000E+00 0. -1.
         -5    1    5    5    0  502  0.83848837505E+02  0.75529850158E+00  0.58605822386E+01  0.84188089721E+02  0.47000000000E+01 0.  1.
         11    1    6    6    0    0 -0.37303264807E+02 -0.33721801222E+02 -0.11155452548E+01  0.50298487891E+02  0.00000000000E+00 0. -1.
        -12    1    6    6    0    0 -0.14614967086E+02  0.32505197887E+02  0.25536603664E+02  0.43844079182E+02  0.00000000000E+00 0.  1.
</event>
<event>
12    1  0.8488291E-002  0.2059392E+03  0.7818608E-02  0.1144875E+00
         21   -1    0    0  501  502  0.00000000000E+00  0.00000000000E+00  0.14829262806E+04  0.14829262806E+04  0.00000000000E+00 0. -1.
         21   -1    0    0  502  503 -0.00000000000E+00 -0.00000000000E+00 -0.47903843100E+02  0.47903843100E+02  0.00000000000E+00 0. -1.
         -6    2    1    2    0  503  0.24353147876E+02 -0.10890811564E+03  0.23143923446E+03  0.30979843282E+03  0.17308060626E+03 0.  0.
        -24    2    3    3    0    0 -0.15833153961E+02 -0.28709763066E+02  0.51473825908E+02  0.10866078620E+03  0.89903684263E+02 0.  0.
          6    2    1    2  501    0 -0.24353147876E+02  0.10890811564E+03  0.12035832031E+04  0.12210316909E+04  0.17277676361E+03 0.  0.
         24    2    5    5    0    0  0.26560750611E+02  0.66228248933E+02  0.37535654631E+03  0.39013140745E+03  0.78856349125E+02 0.  0.
          5    1    5    5  501    0 -0.50913898487E+02  0.42679866710E+02  0.82822665677E+03  0.83090028346E+03  0.47000000000E+01 0. -1.
        -11    1    6    6    0    0  0.30201547120E+02  0.79674249629E+02  0.35733708953E+03  0.36735529812E+03  0.00000000000E+00 0.  1.
         12    1    6    6    0    0 -0.36407965093E+01 -0.13446000696E+02  0.18019456778E+02  0.22776109337E+02  0.00000000000E+00 0. -1.
         -5    1    3    3    0  503  0.40186301838E+02 -0.80198352577E+02  0.17996540856E+03  0.20113764662E+03  0.47000000000E+01 0.  1.
         11    1    4    4    0    0  0.26126447920E+02 -0.41302566472E+02  0.40566508632E+02  0.63514840003E+02  0.00000000000E+00 0. -1.
        -12    1    4    4    0    0 -0.41959601882E+02  0.12592803406E+02  0.10907317276E+02  0.45145946195E+02  0.00000000000E+00 0.  1.
</event>
<event>
12    1  0.8488291E-002  0.1904046E+03  0.7818608E-02  0.1158350E+00
         21   -1    0    0  501  502  0.00000000000E+00  0.00000000000E+00  0.72336215785E+03  0.72336215785E+03  0.00000000000E+00 0.  1.
         21   -1    0    0  502  503 -0.00000000000E+00 -0.00000000000E+00 -0.54395350344E+02  0.54395350344E+02  0.00000000000E+00 0. -1.
         -6    2    1    2    0  503 -0.27841065820E+02 -0.75986981993E+02  0.22264945733E+03  0.29296190879E+03  0.17235066805E+03 0.  0.
        -24    2    3    3    0    0 -0.82255373419E+02 -0.31212810858E+02  0.15400947243E+03  0.19447748972E+03  0.79764593608E+02 0.  0.
          6    2    1    2  501    0  0.27841065820E+02  0.75986981993E+02  0.44631735018E+03  0.48479559940E+03  0.17110946716E+03 0.  0.
         24    2    5    5    0    0  0.38508751211E+01  0.42035288036E+02  0.43314156036E+03  0.44093287936E+03  0.70911198777E+02 0.  0.
          5    1    5    5  501    0  0.23990190699E+02  0.33951693957E+02  0.13175789821E+02  0.43862720045E+02  0.47000000000E+01 0. -1.
        -13    1    6    6    0    0 -0.24586824960E+02  0.29822928458E+02  0.35155640563E+03  0.35367474516E+03  0.00000000000E+00 0.  1.
         14    1    6    6    0    0  0.28437700081E+02  0.12212359578E+02  0.81585154727E+02  0.87258134201E+02  0.00000000000E+00 0. -1.
         -5    1    3    3    0  503  0.54414307599E+02 -0.44774171135E+02  0.68639984906E+02  0.98484419073E+02  0.47000000000E+01 0.  1.
         11    1    4    4    0    0 -0.62591530830E+02  0.16430657784E+02  0.10509069611E+03  0.12341685726E+03  0.00000000000E+00 0. -1.
        -12    1    4    4    0    0 -0.19663842589E+02 -0.47643468642E+02  0.48918776316E+02  0.71060632462E+02  0.00000000000E+00 0.  1.
</event>
<event>
12    1  0.8488291E-002  0.1921302E+03  0.7818608E-02  0.1157004E+00
         21   -1    0    0  501  502  0.00000000000E+00  0.00000000000E+00  0.61104526956E+03  0.61104526956E+03  0.00000000000E+00 0. -1.
         21   -1    0    0  502  503 -0.00000000000E+00 -0.00000000000E+00 -0.70461002030E+02  0.70461002030E+02  0.00000000000E+00 0.  1.
         -6    2    1    2    0  503  0.72848643648E+02  0.36605620826E+02  0.13641021276E+03  0.23399015534E+03  0.17174617985E+03 0.  0.
        -24    2    3    3    0    0  0.37389674693E+02 -0.34620811989E+02  0.25131643494E+02  0.97112278423E+02  0.78756629685E+02 0.  0.
          6    2    1    2  501    0 -0.72848643648E+02 -0.36605620826E+02  0.40417405477E+03  0.44751611625E+03  0.17397445617E+03 0.  0.
         24    2    5    5    0    0  0.12433970036E+02  0.14497749033E+02  0.11782957138E+03  0.14436610096E+03  0.81197135882E+02 0.  0.
          5    1    5    5  501    0 -0.85282613684E+02 -0.51103369859E+02  0.28634448339E+03  0.30315001530E+03  0.47000000000E+01 0. -1.
        -13    1    6    6    0    0  0.92547468105E+01 -0.25677546865E+02  0.93246713806E+02  0.97159335049E+02  0.00000000000E+00 0.  1.
         14    1    6    6    0    0  0.31792232251E+01  0.40175295898E+02  0.24582857576E+02  0.47206765907E+02  0.00000000000E+00 0. -1.
         -5    1    3    3    0  503  0.35458968955E+02  0.71226432815E+02  0.11127856927E+03  0.13687787692E+03  0.47000000000E+01 0.  1.
         13    1    4    4    0    0 -0.52702942683E+01 -0.48056204604E+02  0.19104887803E+02  0.51982415686E+02  0.00000000000E+00 0. -1.
        -14    1    4    4    0    0  0.42659968961E+02  0.13435392615E+02  0.60267556914E+01  0.45129862737E+02  0.00000000000E+00 0.  1.
</event>
<event>
12    1  0.8488291E-002  0.4165245E+03  0.7818608E-02  0.1038225E+00
         21   -1    0    0  501  502  0.00000000000E+00  0.00000000000E+00  0.18403095808E+04  0.18403095808E+04  0.00000000000E+00 0. -1.
         21   -1    0    0  502  503 -0.00000000000E+00 -0.00000000000E+00 -0.10747926536E+03  0.10747926536E+03  0.00000000000E+00 0.  1.
         -6    2    1    2    0  503  0.23499141911E+03 -0.29702504072E+03  0.52452276157E+03  0.66978863300E+03  0.17334313840E+03 0.  0.
        -24    2    3    3    0    0  0.22539053582E+03 -0.27108191828E+03  0.52922147138E+03  0.64133884503E+03  0.83389737499E+02 0.  0.
          6    2    1    2  501    0 -0.23499141911E+03  0.29702504072E+03  0.12083075538E+04  0.12780002131E+04  0.17272104157E+03 0.  0.
         24    2    5    5    0    0 -0.12962856400E+03  0.74507843469E+02  0.45284424716E+03  0.48341722057E+03  0.79178997318E+02 0.  0.
          5    1    5    5  501    0 -0.10536285511E+03  0.22251719725E+03  0.75546330667E+03  0.79458299254E+03  0.47000000000E+01 0. -1.
        -11    1    6    6    0    0 -0.92627003330E+01 -0.77055639451E+01  0.61210382297E+01  0.13514453085E+02  0.00000000000E+00 0.  1.
         12    1    6    6    0    0 -0.12036586367E+03  0.82213407414E+02  0.44672320893E+03  0.46990276749E+03  0.00000000000E+00 0. -1.
         -5    1    3    3    0  503  0.96008832901E+01 -0.25943122443E+02 -0.46987098099E+01  0.28449787977E+02  0.47000000000E+01 0.  1.
         11    1    4    4    0    0  0.49783133042E+01 -0.24817970800E+02  0.13183484886E+02  0.28539788922E+02  0.00000000000E+00 0. -1.
        -12    1    4    4    0    0  0.22041222252E+03 -0.24626394748E+03  0.51603798649E+03  0.61279905610E+03  0.00000000000E+00 0.  1.
</event>
<event>
12    1  0.8488291E-002  0.2136780E+03  0.7818608E-02  0.1138785E+00
         21   -1    0    0  503  502  0.00000000000E+00  0.00000000000E+00  0.66831901988E+02  0.66831901988E+02  0.00000000000E+00 0.  1.
         21   -1    0    0  501  503 -0.00000000000E+00 -0.00000000000E+00 -0.68164388495E+03  0.68164388495E+03  0.00000000000E+00 0. -1.
          6    2    1    2  501    0  0.10940679672E+03  0.63375622304E+02 -0.31199804982E+03  0.37815482225E+03  0.17225553642E+03 0.  0.
         24    2    3    3    0    0  0.12698872677E+03  0.91565444444E+02 -0.23214986449E+03  0.29154296950E+03  0.81199606750E+02 0.  0.
         -6    2    1    2    0  502 -0.10940679672E+03 -0.63375622304E+02 -0.30281393314E+03  0.37032096469E+03  0.17162465474E+03 0.  0.
        -24    2    5    5    0    0 -0.11883635664E+03 -0.29326921312E+02 -0.13448420777E+03  0.19825929818E+03  0.78984803598E+02 0.  0.
          5    1    3    3  501    0 -0.17581930056E+02 -0.28189822140E+02 -0.79848185328E+02  0.86611852751E+02  0.47000000000E+01 0. -1.
        -11    1    4    4    0    0  0.10764394902E+03  0.10660728833E+03 -0.19305085167E+03  0.24539960273E+03  0.00000000000E+00 0.  1.
         12    1    4    4    0    0  0.19344777754E+02 -0.15041843886E+02 -0.39099012814E+02  0.46143366770E+02  0.00000000000E+00 0. -1.
         -5    1    5    5    0  502  0.94295599277E+01 -0.34048700992E+02 -0.16832972537E+03  0.17206166651E+03  0.47000000000E+01 0.  1.
         11    1    6    6    0    0 -0.29617758818E+01 -0.29637234698E+02 -0.28598580588E+02  0.41291846756E+02  0.00000000000E+00 0. -1.
        -12    1    6    6    0    0 -0.11587458076E+03  0.31031338575E+00 -0.10588562718E+03  0.15696745142E+03  0.00000000000E+00 0.  1.
</event>
<event>
12    1  0.8488291E-002  0.1757443E+03  0.7818608E-02  0.1172662E+00
         21   -1    0    0  503  502  0.00000000000E+00  0.00000000000E+00  0.71184650020E+03  0.71184650020E+03  0.00000000000E+00 0.  1.
         21   -1    0    0  501  503 -0.00000000000E+00 -0.00000000000E+00 -0.45665423075E+02  0.45665423075E+02  0.00000000000E+00 0.  1.
          6    2    1    2  501    0  0.22317046966E+02 -0.21804959276E+02  0.23464123392E+03  0.29155838018E+03  0.17022418619E+03 0.  0.
         24    2    3    3    0    0  0.66044676827E+02  0.17701260107E+02  0.19207479559E+03  0.21871032835E+03  0.79159627841E+02 0.  0.
         -6    2    1    2    0  502 -0.22317046966E+02  0.21804959276E+02  0.43153984321E+03  0.46595354310E+03  0.17295248254E+03 0.  0.
        -24    2    5    5    0    0  0.11549073296E+02  0.34865557070E+02  0.10201493636E+03  0.13440226870E+03  0.79422505811E+02 0.  0.
          5    1    3    3  501    0 -0.43727629861E+02 -0.39506219383E+02  0.42566438333E+02  0.72848051831E+02  0.47000000000E+01 0. -1.
        -11    1    4    4    0    0  0.24483453652E+02  0.28469705501E+02  0.16199043701E+03  0.16628549340E+03  0.00000000000E+00 0.  1.
         12    1    4    4    0    0  0.41561223175E+02 -0.10768445394E+02  0.30084358579E+02  0.52424834946E+02  0.00000000000E+00 0. -1.
         -5    1    5    5    0  502 -0.33866120262E+02 -0.13060597793E+02  0.32952490686E+03  0.33155127440E+03  0.47000000000E+01 0.  1.
         11    1    6    6    0    0 -0.30008687937E+01  0.58127453113E+02  0.55653661051E+02  0.80530342154E+02  0.00000000000E+00 0. -1.
        -12    1    6    6    0    0  0.14549942090E+02 -0.23261896044E+02  0.46361275304E+02  0.53871926550E+02  0.00000000000E+00 0.  1.
</event>
<event>
12    1  0.8488291E-002  0.1730133E+03  0.7818608E-02  0.1175300E+00
         21   -1    0    0  503  502  0.00000000000E+00  0.00000000000E+00  0.86657466244E+02  0.86657466244E+02  0.00000000000E+00 0. -1.
         21   -1    0    0  501  503 -0.00000000000E+00 -0.00000000000E+00 -0.43815468083E+03  0.43815468083E+03  0.00000000000E+00 0. -1.
          6    2    1    2  501    0 -0.73818635741E+01 -0.21174290929E+02 -0.30012106801E+03  0.34641919761E+03  0.17155396382E+03 0.  0.
         24    2    3    3    0    0 -0.48316281010E+02 -0.48148584014E+01 -0.28437826629E+03  0.29937471473E+03  0.79978594688E+02 0.  0.
         -6    2    1    2    0  502  0.73818635741E+01  0.21174290929E+02 -0.51376146577E+02  0.17839294947E+03  0.16935670485E+03 0.  0.
        -24    2    5    5    0    0 -0.14389682465E+01  0.63776490774E+02 -0.74171796047E+02  0.12905243731E+03  0.84163916499E+02 0.  0.
          5    1    3    3  501    0  0.40934417435E+02 -0.16359432528E+02 -0.15742801721E+02  0.47044482880E+02  0.47000000000E+01 0. -1.
        -13    1    4    4    0    0 -0.43726663824E+02 -0.69572157958E+01 -0.58141090487E+02  0.73080848270E+02  0.00000000000E+00 0.  1.
         14    1    4    4    0    0 -0.45896171853E+01  0.21423573943E+01 -0.22623717580E+03  0.22629386646E+03  0.00000000000E+00 0. -1.
         -5    1    5    5    0  502  0.88208318206E+01 -0.42602199845E+02  0.22795649470E+02  0.49340512162E+02  0.47000000000E+01 0.  1.
         13    1    6    6    0    0  0.29367223482E+02  0.59116149469E+02 -0.24482147297E+02  0.70402616992E+02  0.00000000000E+00 0. -1.
        -14    1    6    6    0    0 -0.30806191728E+02  0.46603413055E+01 -0.49689648750E+02  0.58649820313E+02  0.00000000000E+00 0.  1.
</event>
<event>
12    1  0.8488291E-002  0.1730485E+03  0.7818608E-02  0.1174706E+00
         21   -1    0    0  503  502  0.00000000000E+00  0.00000000000E+00  0.22846978588E+03  0.22846978588E+03  0.00000000000E+00 0.  1.
         21   -1    0    0  501  503 -0.00000000000E+00 -0.00000000000E+00 -0.13306384747E+03  0.13306384747E+03  0.00000000000E+00 0.  1.
          6    2    1    2  501    0 -0.10360547392E+02 -0.17482766902E+02  0.25565146684E+02  0.17492298925E+03  0.17184727918E+03 0.  0.
         24    2    3    3    0    0 -0.54676367336E+02 -0.38738187528E+02  0.54335735579E+02  0.11777824681E+03  0.80182235829E+02 0.  0.
         -6    2    1    2    0  502  0.10360547392E+02  0.17482766902E+02  0.69840791722E+02  0.18661064411E+03  0.17185112227E+03 0.  0.
        -24    2    5    5    0    0  0.47567003385E+02  0.41629324789E+01  0.10028699699E+03  0.13650276277E+03  0.79344644820E+02 0.  0.
          5    1    3    3  501    0  0.44315819944E+02  0.21255420626E+02 -0.28770588894E+02  0.57144742441E+02  0.47000000000E+01 0. -1.
        -11    1    4    4    0    0 -0.59665924935E+02 -0.46023461426E+02  0.14196646702E+02  0.76679373873E+02  0.00000000000E+00 0.  1.
         12    1    4    4    0    0  0.49895575989E+01  0.72852738974E+01  0.40139088876E+02  0.41098872936E+02  0.00000000000E+00 0. -1.
         -5    1    5    5    0  502 -0.37206455993E+02  0.13319834423E+02 -0.30446205266E+02  0.50107881333E+02  0.47000000000E+01 0.  1.
         11    1    6    6    0    0  0.46131862943E+01 -0.33498385566E+02  0.50210528403E+02  0.60535282983E+02  0.00000000000E+00 0. -1.
        -12    1    6    6    0    0  0.42953817091E+02  0.37661318045E+02  0.50076468585E+02  0.75967479789E+02  0.00000000000E+00 0.  1.
</event>
<event>
12    1  0.8488291E-002  0.1890779E+03  0.7818608E-02  0.1161157E+00
         21   -1    0    0  503  502  0.00000000000E+00  0.00000000000E+00  0.47076773568E+02  0.47076773568E+02  0.00000000000E+00 0.  1.
         21   -1    0    0  501  503 -0.00000000000E+00 -0.00000000000E+00 -0.98998691100E+03  0.98998691100E+03  0.00000000000E+00 0. -1.
          6    2    1    2  501    0  0.23923331036E+02  0.75766550816E+02 -0.74588004549E+03  0.76947222241E+03  0.17157378240E+03 0.  0.
         24    2    3    3    0    0  0.16733937100E+02 -0.14802435636E+01 -0.16706524740E+03  0.18546244928E+03  0.78761078141E+02 0.  0.
         -6    2    1    2    0  502 -0.23923331036E+02 -0.75766550816E+02 -0.19703009194E+03  0.26759146216E+03  0.16270045329E+03 0.  0.
        -24    2    5    5    0    0 -0.55486094990E+02 -0.47536932274E+02 -0.57846647003E+02  0.12203308632E+03  0.78786882924E+02 0.  0.
          5    1    3    3  501    0  0.71893939353E+01  0.77246794379E+02 -0.57881479809E+03  0.58400977313E+03  0.47000000000E+01 0. -1.
        -13    1    4    4    0    0 -0.46793922301E+01  0.36571332797E+02 -0.76229915743E+02  0.84677973219E+02  0.00000000000E+00 0.  1.
         14    1    4    4    0    0  0.21413329330E+02 -0.38051576361E+02 -0.90835331658E+02  0.10078447606E+03  0.00000000000E+00 0. -1.
         -5    1    5    5    0  502  0.31562763954E+02 -0.28229618541E+02 -0.13918344493E+03  0.14555837583E+03  0.47000000000E+01 0.  1.
         11    1    6    6    0    0 -0.64381412892E+01  0.20875880309E+02 -0.20440855701E+02  0.29917898050E+02  0.00000000000E+00 0. -1.
        -12    1    6    6    0    0 -0.49047953700E+02 -0.68412812583E+02 -0.37405791302E+02  0.92115188273E+02  0.00000000000E+00 0.  1.
</event>
<event>
12    1  0.8488291E-002  0.2288028E+03  0.7818608E-02  0.1127718E+00
         21   -1    0    0  503  502  0.00000000000E+00  0.00000000000E+00  0.21682680470E+03  0.21682680470E+03  0.00000000000E+00 0.  1.
         21   -1    0    0  501  503 -0.00000000000E+00 -0.00000000000E+00 -0.24657667237E+03  0.24657667237E+03  0.00000000000E+00 0.  1.
          6    2    1    2  501    0 -0.60334019515E+02  0.13754408533E+03  0.22743688772E+02  0.22993044747E+03  0.17260407287E+03 0.  0.
         24    2    3    3    0    0 -0.39203782231E+02  0.59570582776E+01  0.36672761695E+02  0.95849346301E+02  0.79181959129E+02 0.  0.
         -6    2    1    2    0  502  0.60334019515E+02 -0.13754408533E+03 -0.52493556434E+02  0.23347302961E+03  0.17086694462E+03 0.  0.
        -24    2    5    5    0    0  0.40440477408E+01 -0.12274194362E+03 -0.77738103922E+02  0.16985666772E+03  0.87898439815E+02 0.  0.
          5    1    3    3  501    0 -0.21130237284E+02  0.13158702706E+03 -0.13929072923E+02  0.13408110116E+03  0.47000000000E+01 0. -1.
        -11    1    4    4    0    0 -0.57807615908E+01  0.15613259254E+02  0.54337982532E+02  0.56831394622E+02  0.00000000000E+00 0.  1.
         12    1    4    4    0    0 -0.33423020640E+02 -0.96562009768E+01 -0.17665220837E+02  0.39017951679E+02  0.00000000000E+00 0. -1.
         -5    1    5    5    0  502  0.56289971774E+02 -0.14802141713E+02  0.25244547488E+02  0.63616361885E+02  0.47000000000E+01 0.  1.
         11    1    6    6    0    0 -0.15318145917E+02 -0.28972549693E+01  0.11344023063E+02  0.19280211097E+02  0.00000000000E+00 0. -1.
        -12    1    6    6    0    0  0.19362193657E+02 -0.11984468865E+03 -0.89082126986E+02  0.15057645662E+03  0.00000000000E+00 0.  1.
</event>
<event>
12    1  0.8488291E-002  0.2179384E+03  0.7818608E-02  0.1137569E+00
         21   -1    0    0  503  502  0.00000000000E+00  0.00000000000E+00  0.44023633038E+02  0.44023633038E+02  0.00000000000E+00 0.  1.
         21   -1    0    0  501  503 -0.00000000000E+00 -0.00000000000E+00 -0.12933997613E+04  0.12933997613E+04  0.00000000000E+00 0.  1.
          6    2    1    2  501    0 -0.20627944220E+02 -0.11414910449E+03 -0.91638493771E+03  0.93945317750E+03  0.17133414289E+03 0.  0.
         24    2    3    3    0    0 -0.41159207078E+02 -0.13516603246E+03 -0.86477163136E+03  0.87987744916E+03  0.79940067959E+02 0.  0.
         -6    2    1    2    0  502  0.20627944220E+02  0.11414910449E+03 -0.33299119054E+03  0.39797021682E+03  0.18450374078E+03 0.  0.
        -24    2    5    5    0    0 -0.25697201606E+02  0.13726931272E+03 -0.28507263768E+03  0.32726773544E+03  0.79589895860E+02 0.  0.
          5    1    3    3  501    0  0.20531262858E+02  0.21016927972E+02 -0.51613306341E+02  0.59575728341E+02  0.47000000000E+01 0. -1.
        -13    1    4    4    0    0 -0.15506112326E+02 -0.53428842520E+02 -0.14989782514E+03  0.15988883237E+03  0.00000000000E+00 0.  1.
         14    1    4    4    0    0 -0.25653094752E+02 -0.81737189943E+02 -0.71487380622E+03  0.71998861679E+03  0.00000000000E+00 0. -1.
         -5    1    5    5    0  502  0.46325145826E+02 -0.23120208234E+02 -0.47918552855E+02  0.70702481373E+02  0.47000000000E+01 0.  1.
         13    1    6    6    0    0 -0.26715873761E+02  0.25875449029E+02 -0.13706981807E+03  0.14202609549E+03  0.00000000000E+00 0. -1.
        -14    1    6    6    0    0  0.10186721559E+01  0.11139386370E+03 -0.14800281961E+03  0.18524163996E+03  0.00000000000E+00 0.  1.
</event>
<event>
12    1  0.8488291E-002  0.1987786E+03  0.7818608E-02  0.1150951E+00
         21   -1    0    0  501  502  0.00000000000E+00  0.00000000000E+00  0.76528696061E+03  0.76528696061E+03  0.00000000000E+00 0.  1.
         21   -1    0    0  502  503 -0.00000000000E+00 -0.00000000000E+00 -0.58190254116E+02  0.58190254116E+02  0.00000000000E+00 0. -1.
         -6    2    1    2    0  503 -0.97294388672E+02  0.16636481899E+02  0.49338349670E+03  0.53161034492E+03  0.17157888392E+03 0.  0.
        -24    2    3    3    0    0 -0.74673162683E+02 -0.48324787014E+02  0.22332208615E+03  0.25288657163E+03  0.78533417634E+02 0.  0.
          6    2    1    2  501    0  0.97294388672E+02 -0.16636481899E+02  0.21371320979E+03  0.29186686981E+03  0.17253974341E+03 0.  0.
         24    2    5    5    0    0  0.62166420775E+02  0.54209339989E+02  0.96450713601E+02  0.15035472326E+03  0.80625592951E+02 0.  0.
          5    1    5    5  501    0  0.35127967896E+02 -0.70845821887E+02  0.11726249619E+03  0.14151214655E+03  0.47000000000E+01 0. -1.
        -11    1    6    6    0    0  0.56117902211E+00  0.92925455336E+01  0.68533660527E+02  0.69163060586E+02  0.00000000000E+00 0.  1.
         12    1    6    6    0    0  0.61605241753E+02  0.44916794455E+02  0.27917053074E+02  0.81191662675E+02  0.00000000000E+00 0. -1.
         -5    1    3    3    0  503 -0.22621225989E+02  0.64961268913E+02  0.27006141056E+03  0.27872377329E+03  0.47000000000E+01 0.  1.
         11    1    4    4    0    0 -0.68309118616E+02 -0.14895577761E+02  0.83119885156E+02  0.10861366963E+03  0.00000000000E+00 0. -1.
        -12    1    4    4    0    0 -0.63640440675E+01 -0.33429209254E+02  0.14020220099E+03  0.14427290200E+03  0.00000000000E+00 0.  1.
</event>
<event>
12    1  0.8488291E-002  0.1855050E+03  0.7818608E-02  0.1162816E+00
         21   -1    0    0  503  502  0.00000000000E+00  0.00000000000E+00  0.12729269163E+03  0.12729269163E+03  0.00000000000E+00 0.  1.
         21   -1    0    0  501  503 -0.00000000000E+00 -0.00000000000E+00 -0.32793003455E+03  0.32793003455E+03  0.00000000000E+00 0. -1.
          6    2    1    2  501    0 -0.28080847387E+02  0.62036100277E+02 -0.19714780519E+03  0.27070158858E+03  0.17255457469E+03 0.  0.
         24    2    3    3    0    0 -0.63692909588E+02 -0.11680567516E+02 -0.12196726645E+03  0.15945155717E+03  0.79721782531E+02 0.  0.
         -6    2    1    2    0  502  0.28080847387E+02 -0.62036100277E+02 -0.34895377354E+01  0.18452113760E+03  0.17146096238E+03 0.  0.
        -24    2    5    5    0    0 -0.21991042673E+02 -0.93763677208E+02  0.42456569891E+01  0.12455651012E+03  0.78873731292E+02 0.  0.
          5    1    3    3  501    0  0.35612062201E+02  0.73716667793E+02 -0.75180538735E+02  0.11125003141E+03  0.47000000000E+01 0. -1.
        -13    1    4    4    0    0 -0.56917028482E+02 -0.23056464168E+02 -0.33409808188E+02  0.69909684267E+02  0.00000000000E+00 0.  1.
         14    1    4    4    0    0 -0.67758811061E+01  0.11375896653E+02 -0.88557458262E+02  0.89541872905E+02  0.00000000000E+00 0. -1.
         -5    1    5    5    0  502  0.50071890060E+02  0.31727576931E+02 -0.77351947245E+01  0.59964627486E+02  0.47000000000E+01 0.  1.
         11    1    6    6    0    0 -0.23216872858E+01 -0.83899660892E+02 -0.25350634161E+02  0.87676667261E+02  0.00000000000E+00 0. -1.
        -12    1    6    6    0    0 -0.19669355387E+02 -0.98640163160E+01  0.29596291151E+02  0.36879842856E+02  0.00000000000E+00 0.  1.
</event>
<event>
12    1  0.8488291E-002  0.2377659E+03  0.7818608E-02  0.1121683E+00
         21   -1    0    0  501  502  0.00000000000E+00  0.00000000000E+00  0.50408324184E+02  0.50408324184E+02  0.00000000000E+00 0. -1.
         21   -1    0    0  502  503 -0.00000000000E+00 -0.00000000000E+00 -0.13244701187E+04  0.13244701187E+04  0.00000000000E+00 0. -1.
         -6    2    1    2    0  503  0.14705046295E+03  0.70430589437E+02 -0.91065773188E+03  0.94060300616E+03  0.16985936528E+03 0.  0.
        -24    2    3    3    0    0  0.85500762365E+02  0.74035215907E+02 -0.34249418919E+03  0.36908462481E+03  0.78291743386E+02 0.  0.
          6    2    1    2  501    0 -0.14705046295E+03 -0.70430589437E+02 -0.36340406262E+03  0.43427543671E+03  0.17305587428E+03 0.  0.
         24    2    5    5    0    0  0.10304793888E-03 -0.15856639262E+02 -0.13208985035E+03  0.15475702982E+03  0.79060588806E+02 0.  0.
          5    1    5    5  501    0 -0.14705056600E+03 -0.54573950175E+02 -0.23131421227E+03  0.27951840690E+03  0.47000000000E+01 0. -1.
        -11    1    6    6    0    0 -0.66757930554E+01  0.22452635963E+02 -0.10445982719E+03  0.10705392366E+03  0.00000000000E+00 0.  1.
         12    1    6    6    0    0  0.66758961034E+01 -0.38309275224E+02 -0.27630023167E+02  0.47703106159E+02  0.00000000000E+00 0. -1.
         -5    1    3    3    0  503  0.61549700584E+02 -0.36046264703E+01 -0.56816354270E+03  0.57151838135E+03  0.47000000000E+01 0.  1.
         11    1    4    4    0    0  0.26578629358E+02  0.21856665075E+02 -0.22531336746E+03  0.22792597680E+03  0.00000000000E+00 0. -1.
        -12    1    4    4    0    0  0.58922133007E+02  0.52178550832E+02 -0.11718082173E+03  0.14115864801E+03  0.00000000000E+00 0.  1.
</event>
<event>
12    1  0.8488291E-002  0.2126187E+03  0.7818608E-02  0.1140283E+00
         21   -1    0    0  501  502  0.00000000000E+00  0.00000000000E+00  0.70259327026E+02  0.70259327026E+02  0.00000000000E+00 0. -1.
         21   -1    0    0  502  503 -0.00000000000E+00 -0.00000000000E+00 -0.99960811589E+03  0.99960811589E+03  0.00000000000E+00 0.  1.
         -6    2    1    2    0  503 -0.95579597532E+02  0.70857833325E+02 -0.78650903986E+03  0.81372315506E+03  0.17144273473E+03 0.  0.
        -24    2    3    3    0    0 -0.13343501253E+03  0.70006104106E+02 -0.63718430614E+03  0.65960072325E+03  0.79771654958E+02 0.  0.
          6    2    1    2  501    0  0.95579597532E+02 -0.70857833325E+02 -0.14283974900E+03  0.25614428785E+03  0.17621126609E+03 0.  0.
         24    2    5    5    0    0  0.87631235640E+02 -0.11177483752E+03 -0.13760624615E+03  0.21387305364E+03  0.81445419346E+02 0.  0.
          5    1    5    5  501    0  0.79483618924E+01  0.40917004199E+02 -0.52335028505E+01  0.42271234208E+02  0.47000000000E+01 0. -1.
        -11    1    6    6    0    0  0.72799458322E+02 -0.37497527196E+02 -0.10017117029E+03  0.12938349599E+03  0.00000000000E+00 0.  1.
         12    1    6    6    0    0  0.14831777317E+02 -0.74277310328E+02 -0.37435075865E+02  0.84489557656E+02  0.00000000000E+00 0. -1.
         -5    1    3    3    0  503  0.37855415000E+02  0.85172921862E+00 -0.14932473372E+03  0.15412243182E+03  0.47000000000E+01 0.  1.
         13    1    4    4    0    0 -0.21239296580E+02  0.18889897426E+02 -0.35817903013E+02  0.45725902071E+02  0.00000000000E+00 0. -1.
        -14    1    4    4    0    0 -0.11219571595E+03  0.51116206681E+02 -0.60136640313E+03  0.61387482117E+03  0.00000000000E+00 0.  1.
</event>
<event>
12    1  0.8488291E-002  0.2075570E+03  0.7818608E-02  0.1143828E+00
         21   -1    0    0  503  502  0.00000000000E+00  0.00000000000E+00  0.14780061259E+03  0.14780061259E+03  0.00000000000E+00 0. -1.
         21   -1    0    0  501  503 -0.00000000000E+00 -0.00000000000E+00 -0.47086320537E+03  0.47086320537E+03  0.00000000000E+00 0. -1.
          6    2    1    2  501    0 -0.65978583755E+02  0.93579211259E+02 -0.35324212160E+03  0.40892422615E+03  0.17125648592E+03 0.  0.
         24    2    3    3    0    0  0.31015174805E+02  0.48695655594E+02 -0.13382681795E+03  0.16481874026E+03  0.76957078922E+02 0.  0.
         -6    2    1    2    0  502  0.65978583755E+02 -0.93579211259E+02  0.30179528812E+02  0.20973959181E+03  0.17311744602E+03 0.  0.
        -24    2    5    5    0    0 -0.20397849061E+02 -0.98508758913E+01  0.39790904104E+02  0.88967944370E+02  0.76281498897E+02 0.  0.
          5    1    3    3  501    0 -0.96993758560E+02  0.44883555665E+02 -0.21941530365E+03  0.24410548589E+03  0.47000000000E+01 0. -1.
        -13    1    4    4    0    0 -0.24733657156E+02  0.82589783036E+01 -0.49445695015E+02  0.55900279735E+02  0.00000000000E+00 0.  1.
         14    1    4    4    0    0  0.55748831961E+02  0.40436677291E+02 -0.84381122935E+02  0.10891846052E+03  0.00000000000E+00 0. -1.
         -5    1    5    5    0  502  0.86376432816E+02 -0.83728335368E+02 -0.96113752916E+01  0.12077164744E+03  0.47000000000E+01 0.  1.
         13    1    6    6    0    0  0.62855290959E+01 -0.12750110339E+02  0.55890072420E+02  0.57669518680E+02  0.00000000000E+00 0. -1.
        -14    1    6    6    0    0 -0.26683378157E+02  0.28992344474E+01 -0.16099168316E+02  0.31298425691E+02  0.00000000000E+00 0.  1.
</event>
<event>
12    1  0.8488291E-002  0.1881401E+03  0.7818608E-02  0.1164030E+00
         21   -1    0    0  503  502  0.00000000000E+00  0.00000000000E+00  0.10252525723E+03  0.10252525723E+03  0.00000000000E+00 0. -1.
         21   -1    0    0  501  503 -0.00000000000E+00 -0.00000000000E+00 -0.49285101654E+03  0.49285101654E+03  0.00000000000E+00 0. -1.
          6    2    1    2  501    0  0.28847772607E+01 -0.17848021237E+02 -0.37891124906E+03  0.42304894966E+03  0.18726933904E+03 0.  0.
         24    2    3    3    0    0 -0.66368121940E+02 -0.38859098546E+02 -0.19665741398E+03  0.22689599960E+03  0.83023484695E+02 0.  0.
         -6    2    1    2    0  502 -0.28847772607E+01  0.17848021237E+02 -0.11414510247E+02  0.17232732411E+03  0.17099573617E+03 0.  0.
        -24    2    5    5    0    0 -0.36841437924E+02  0.20265387327E+02  0.48632413793E+02  0.10314190983E+03  0.80654599503E+02 0.  0.
          5    1    3    3  501    0  0.69252899200E+02  0.21011077310E+02 -0.18225383508E+03  0.19615295007E+03  0.47000000000E+01 0. -1.
        -11    1    4    4    0    0 -0.29514409566E+02 -0.62126485905E+02 -0.10688803279E+03  0.12710567327E+03  0.00000000000E+00 0.  1.
         12    1    4    4    0    0 -0.36853712373E+02  0.23267387358E+02 -0.89769381190E+02  0.99790326332E+02  0.00000000000E+00 0. -1.
         -5    1    5    5    0  502  0.33956660663E+02 -0.24173660906E+01 -0.60046924040E+02  0.69185414278E+02  0.47000000000E+01 0.  1.
         11    1    6    6    0    0 -0.59073197605E+02  0.85962346777E+01  0.15691939356E+02  0.61723373908E+02  0.00000000000E+00 0. -1.
        -12    1    6    6    0    0  0.22231759681E+02  0.11669152650E+02  0.32940474437E+02  0.41418535925E+02  0.00000000000E+00 0.  1.
</event>
<event>
12    1  0.8488291E-002  0.1808343E+03  0.7818608E-02  0.1169190E+00
         21   -1    0    0  503  502  0.00000000000E+00  0.00000000000E+00  0.18649675977E+03  0.18649675977E+03  0.00000000000E+00 0.  1.
         21   -1    0    0  501  503 -0.00000000000E+00 -0.00000000000E+00 -0.17728703294E+03  0.17728703294E+03  0.00000000000E+00 0.  1.
          6    2    1    2  501    0  0.11113344922E+02  0.48299011671E+02 -0.39628350058E+02  0.17647071949E+03  0.16466696009E+03 0.  0.
         24    2    3    3    0    0 -0.55414459259E+02  0.38650289082E+02 -0.17414470660E+02  0.10551585345E+03  0.79156328868E+02 0.  0.
         -6    2    1    2    0  502 -0.11113344922E+02 -0.48299011671E+02  0.48838076893E+02  0.18731307322E+03  0.17391011667E+03 0.  0.
        -24    2    5    5    0    0  0.33955735601E+02 -0.80728930585E+02  0.53988666307E+02  0.13135290675E+03  0.81661850387E+02 0.  0.
          5    1    3    3  501    0  0.66527804181E+02  0.96487225890E+01 -0.22213879399E+02  0.70954866039E+02  0.47000000000E+01 0. -1.
        -11    1    4    4    0    0 -0.37559323060E+02  0.18851205105E+02  0.29645204499E+02  0.51428677141E+02  0.00000000000E+00 0.  1.
         12    1    4    4    0    0 -0.17855136199E+02  0.19799083977E+02 -0.47059675159E+02  0.54087176309E+02  0.00000000000E+00 0. -1.
         -5    1    5    5    0  502 -0.45069080523E+02  0.32429918914E+02 -0.51505894137E+01  0.55960166469E+02  0.47000000000E+01 0.  1.
         13    1    6    6    0    0 -0.24796578179E+02 -0.42884145896E+02  0.27159899861E+02  0.56494074195E+02  0.00000000000E+00 0. -1.
        -14    1    6    6    0    0  0.58752313780E+02 -0.37844784688E+02  0.26828766446E+02  0.74858832556E+02  0.00000000000E+00 0.  1.
</event>
<event>
12    1  0.8488291E-002  0.2020192E+03  0.7818608E-02  0.1148352E+00
         21   -1    0    0  503  502  0.00000000000E+00  0.00000000000E+00  0.10856096596E+03  0.10856096596E+03  0.00000000000E+00 0.  1.
         21   -1    0    0  501  503 -0.00000000000E+00 -0.00000000000E+00 -0.11445890767E+04  0.11445890767E+04  0.00000000000E+00 0. -1.
          6    2    1    2  501    0 -0.78530618870E+02  0.63526100867E+02 -0.10317746114E+04  0.10510860333E+04  0.17326389461E+03 0.  0.
         24    2    3    3    0    0  0.17731503241E+01  0.85394772841E+02 -0.63988515711E+03  0.65042861292E+03  0.79428930008E+02 0.  0.
         -6    2    1    2    0  502  0.78530618870E+02 -0.63526100867E+02 -0.42534993756E+01  0.20206400936E+03  0.17495470279E+03 0.  0.
        -24    2    5    5    0    0  0.98264124251E+02 -0.98558410451E+02 -0.10234029361E+02  0.16114297945E+03  0.80577453950E+02 0.  0.
          5    1    3    3  501    0 -0.80303769194E+02 -0.21868671973E+02 -0.39188945425E+03  0.40065742039E+03  0.47000000000E+01 0. -1.
        -13    1    4    4    0    0 -0.12412359234E+02  0.59638731121E+02 -0.18875826491E+03  0.19834446673E+03  0.00000000000E+00 0.  1.
         14    1    4    4    0    0  0.14185509558E+02  0.25756041720E+02 -0.45112689220E+03  0.45208414619E+03  0.00000000000E+00 0. -1.
         -5    1    5    5    0  502 -0.19733505381E+02  0.35032309584E+02  0.59805299850E+01  0.40921029903E+02  0.47000000000E+01 0.  1.
         13    1    6    6    0    0  0.79250333440E+01  0.74995708149E+01  0.16010406045E+02  0.19374798519E+02  0.00000000000E+00 0. -1.
        -14    1    6    6    0    0  0.90339090907E+02 -0.10605798127E+03 -0.26244435406E+02  0.14176818094E+03  0.00000000000E+00 0.  1.
</event>
<event>
12    1  0.8488291E-002  0.2922818E+03  0.7818608E-02  0.1089676E+00
         21   -1    0    0  501  502  0.00000000000E+00  0.00000000000E+00  0.69727980504E+03  0.69727980504E+03  0.00000000000E+00 0. -1.
         21   -1    0    0  502  503 -0.00000000000E+00 -0.00000000000E+00 -0.12347607467E+03  0.12347607467E+03  0.00000000000E+00 0.  1.
         -6    2    1    2    0  503  0.73547514188E+02 -0.22367611645E+03  0.22539533195E+03  0.36598443975E+03  0.16643711292E+03 0.  0.
        -24    2    3    3    0    0  0.39577550794E+02 -0.12860501893E+03  0.21333831264E+03  0.26420068018E+03  0.78632883347E+02 0.  0.
          6    2    1    2  501    0 -0.73547514188E+02  0.22367611645E+03  0.34840839842E+03  0.45477143997E+03  0.17317161604E+03 0.  0.
         24    2    5    5    0    0 -0.61862527865E+02  0.46122240595E+02  0.17414736099E+03  0.20567122539E+03  0.77582963201E+02 0.  0.
          5    1    5    5  501    0 -0.11684986323E+02  0.17755387586E+03  0.17426103743E+03  0.24910021458E+03  0.47000000000E+01 0. -1.
        -13    1    6    6    0    0 -0.10672261794E+01  0.23344081183E+02  0.41967398235E+01  0.23742319245E+02  0.00000000000E+00 0.  1.
         14    1    6    6    0    0 -0.60795301685E+02  0.22778159412E+02  0.16995062117E+03  0.18192890614E+03  0.00000000000E+00 0. -1.
         -5    1    3    3    0  503  0.33969963393E+02 -0.95071097529E+02  0.12057019305E+02  0.10178375957E+03  0.47000000000E+01 0.  1.
         13    1    4    4    0    0  0.75653619491E+01 -0.12005490724E+03  0.18462557243E+03  0.22035656888E+03  0.00000000000E+00 0. -1.
        -14    1    4    4    0    0  0.32012188845E+02 -0.85501116831E+01  0.28712740213E+02  0.43844111292E+02  0.00000000000E+00 0.  1.
</event>
<event>
12    1  0.8488291E-002  0.1882026E+03  0.7818608E-02  0.1160197E+00
         21   -1    0    0  501  502  0.00000000000E+00  0.00000000000E+00  0.97497591322E+03  0.97497591322E+03  0.00000000000E+00 0.  1.
         21   -1    0    0  502  503 -0.00000000000E+00 -0.00000000000E+00 -0.41557717826E+02  0.41557717826E+02  0.00000000000E+00 0.  1.
         -6    2    1    2    0  503 -0.72396623112E+02  0.19875873049E+02  0.28540688392E+03  0.34187321132E+03  0.17258007377E+03 0.  0.
        -24    2    3    3    0    0 -0.50309759735E+02 -0.53744048547E+02  0.18596756004E+03  0.21610361434E+03  0.81837302422E+02 0.  0.
          6    2    1    2  501    0  0.72396623112E+02 -0.19875873049E+02  0.64801131147E+03  0.67466041972E+03  0.17208050668E+03 0.  0.
         24    2    5    5    0    0 -0.18569915566E+02  0.43368851203E+01  0.18256346727E+03  0.19976574247E+03  0.78824374047E+02 0.  0.
          5    1    5    5  501    0  0.90966538677E+02 -0.24212758169E+02  0.46544784420E+03  0.47489467725E+03  0.47000000000E+01 0. -1.
        -13    1    6    6    0    0  0.22785080625E+02 -0.21936205337E+02  0.82391588460E+02  0.88253786619E+02  0.00000000000E+00 0.  1.
         14    1    6    6    0    0 -0.41354996190E+02  0.26273090457E+02  0.10017187881E+03  0.11151195585E+03  0.00000000000E+00 0. -1.
         -5    1    3    3    0  503 -0.22086863377E+02  0.73619921595E+02  0.99439323885E+02  0.12576959698E+03  0.47000000000E+01 0.  1.
         13    1    4    4    0    0  0.30454032840E+01  0.19040128769E+02  0.25102110244E+02  0.31653071311E+02  0.00000000000E+00 0. -1.
        -14    1    4    4    0    0 -0.53355163019E+02 -0.72784177315E+02  0.16086544979E+03  0.18445054303E+03  0.00000000000E+00 0.  1.
</event>
<event>
12    1  0.8488291E-002  0.3010812E+03  0.7818608E-02  0.1084702E+00
         21   -1    0    0  501  502  0.00000000000E+00  0.00000000000E+00  0.15662108504E+04  0.15662108504E+04  0.00000000000E+00 0.  1.
         21   -1    0    0  502  503 -0.00000000000E+00 -0.00000000000E+00 -0.69968371176E+02  0.69968371176E+02  0.00000000000E+00 0. -1.
         -6    2    1    2    0  503 -0.24575350554E+03 -0.20618833641E+02  0.40803555122E+03  0.50708923785E+03  0.17270368351E+03 0.  0.
        -24    2    3    3    0    0 -0.15387500297E+03 -0.16087572879E+02  0.13830873908E+03  0.22206847589E+03  0.79049188105E+02 0.  0.
          6    2    1    2  501    0  0.24575350554E+03  0.20618833641E+02  0.10882069280E+04  0.11290899837E+04  0.17271349515E+03 0.  0.
         24    2    5    5    0    0  0.90983758293E+02  0.32528376184E+02  0.29043005657E+03  0.31633815293E+03  0.79900373655E+02 0.  0.
          5    1    5    5  501    0  0.15476974725E+03 -0.11909542543E+02  0.79777687139E+03  0.81275183076E+03  0.47000000000E+01 0. -1.
        -13    1    6    6    0    0  0.66006581603E+02  0.59324562802E+02  0.20552683847E+03  0.22386950193E+03  0.00000000000E+00 0.  1.
         14    1    6    6    0    0  0.24977176690E+02 -0.26796186618E+02  0.84903218100E+02  0.92468650993E+02  0.00000000000E+00 0. -1.
         -5    1    3    3    0  503 -0.91878502574E+02 -0.45312607613E+01  0.26972681214E+03  0.28502076196E+03  0.47000000000E+01 0.  1.
         11    1    4    4    0    0 -0.15247274133E+03 -0.28007294328E+01  0.14182282164E+03  0.20825343616E+03  0.00000000000E+00 0. -1.
        -12    1    4    4    0    0 -0.14022616348E+01 -0.13286843446E+02 -0.35140825640E+01  0.13815039730E+02  0.00000000000E+00 0.  1.
</event>
<event>
12    1  0.8488291E-002  0.1723105E+03  0.7818608E-02  0.1175718E+00
         21   -1    0    0  501  502  0.00000000000E+00  0.00000000000E+00  0.23904124290E+03  0.23904124290E+03  0.00000000000E+00 0. -1.
         21   -1    0    0  502  503 -0.00000000000E+00 -0.00000000000E+00 -0.82701884162E+03  0.82701884162E+03  0.00000000000E+00 0. -1.
         -6    2    1    2    0  503  0.76178891872E+01 -0.86238480101E+00 -0.78574542708E+03  0.80441704647E+03  0.17213986330E+03 0.  0.
        -24    2    3    3    0    0  0.39798044461E+02  0.52731370195E+02 -0.59182474197E+03  0.60061524305E+03  0.78215492215E+02 0.  0.
          6    2    1    2  501    0 -0.76178891872E+01  0.86238480101E+00  0.19776782836E+03  0.26164303804E+03  0.17113208196E+03 0.  0.
         24    2    5    5    0    0  0.50268713226E+02  0.30818609390E+02  0.15266306407E+03  0.18224049467E+03  0.80180150624E+02 0.  0.
          5    1    5    5  501    0 -0.57886602413E+02 -0.29956224589E+02  0.45104764293E+02  0.79402543363E+02  0.47000000000E+01 0. -1.
        -13    1    6    6    0    0  0.36223309905E+02 -0.10572825947E+02  0.20303058685E+02  0.42850052753E+02  0.00000000000E+00 0.  1.
         14    1    6    6    0    0  0.14045403321E+02  0.41391435337E+02  0.13236000538E+03  0.13939044192E+03  0.00000000000E+00 0. -1.
         -5    1    3    3    0  503 -0.32180155274E+02 -0.53593754996E+02 -0.19392068511E+03  0.20380180343E+03  0.47000000000E+01 0.  1.
         11    1    4    4    0    0 -0.12639575173E+02  0.20588739639E+02 -0.35873112503E+03  0.35954370406E+03  0.00000000000E+00 0. -1.
        -12    1    4    4    0    0  0.52437619633E+02  0.32142630556E+02 -0.23309361694E+03  0.24107153899E+03  0.00000000000E+00 0.  1.
</event>
<event>
12    1  0.8488291E-002  0.1975641E+03  0.7818608E-02  0.1151911E+00
         21   -1    0    0  503  502  0.00000000000E+00  0.00000000000E+00  0.22055211065E+03  0.22055211065E+03  0.00000000000E+00 0. -1.
         21   -1    0    0  501  503 -0.00000000000E+00 -0.00000000000E+00 -0.25917793207E+03  0.25917793207E+03  0.00000000000E+00 0. -1.
          6    2    1    2  501    0  0.97765763692E+01  0.92277759120E+02  0.11613676935E+03  0.22876582896E+03  0.17388297511E+03 0.  0.
         24    2    3    3    0    0  0.23134371538E+02  0.10035999940E+03  0.14533760587E+03  0.19532136524E+03  0.80125447978E+02 0.  0.
         -6    2    1    2    0  502 -0.97765763692E+01 -0.92277759120E+02 -0.15476259077E+03  0.25096421377E+03  0.17441562664E+03 0.  0.
        -24    2    5    5    0    0 -0.55010822872E+02 -0.10967725252E+03 -0.98088046265E+02  0.17624491624E+03  0.79910670925E+02 0.  0.
          5    1    3    3  501    0 -0.13357795169E+02 -0.80822402765E+01 -0.29200836525E+02  0.33444463719E+02  0.47000000000E+01 0. -1.
        -13    1    4    4    0    0 -0.22149920283E+02  0.38865117273E+02  0.21034277753E+02  0.49432349224E+02  0.00000000000E+00 0.  1.
         14    1    4    4    0    0  0.45284291821E+02  0.61494882124E+02  0.12430332812E+03  0.14588901602E+03  0.00000000000E+00 0. -1.
         -5    1    5    5    0  502  0.45234246503E+02  0.17399493403E+02 -0.56674544504E+02  0.74719297521E+02  0.47000000000E+01 0.  1.
         13    1    6    6    0    0 -0.17920325527E+02 -0.47844706665E+02 -0.90261064063E+02  0.10371747060E+03  0.00000000000E+00 0. -1.
        -14    1    6    6    0    0 -0.37090497345E+02 -0.61832545859E+02 -0.78269822020E+01  0.72527445640E+02  0.00000000000E+00 0.  1.
</event>
<event>
12    1  0.8488291E-002  0.1882999E+03  0.7818608E-02  0.1160140E+00
         21   -1    0    0  501  502  0.00000000000E+00  0.00000000000E+00  0.18059940073E+03  0.18059940073E+03  0.00000000000E+00 0. -1.
         21   -1    0    0  502  503 -0.00000000000E+00 -0.00000000000E+00 -0.22364743924E+03  0.22364743924E+03  0.00000000000E+00 0. -1.
         -6    2    1    2    0  503 -0.62656259784E+02 -0.43539791711E+02 -0.92992443465E+02  0.21001060132E+03  0.17214917302E+03 0.  0.
        -24    2    3    3    0    0  0.21272359003E+02 -0.44378697821E+02 -0.81319283327E+02  0.12513970240E+03  0.81394945783E+02 0.  0.
          6    2    1    2  501    0  0.62656259784E+02  0.43539791711E+02  0.49944404953E+02  0.19423623865E+03  0.17149854946E+03 0.  0.
         24    2    5    5    0    0  0.93267464847E+02  0.70243009590E+02  0.20166821545E+02  0.14365064589E+03  0.81215189339E+02 0.  0.
          5    1    5    5  501    0 -0.30611205063E+02 -0.26703217879E+02  0.29777583408E+02  0.50585592753E+02  0.47000000000E+01 0. -1.
        -11    1    6    6    0    0  0.69735434932E+02  0.28283965338E+02 -0.23338566460E+02  0.78788972990E+02  0.00000000000E+00 0.  1.
         12    1    6    6    0    0  0.23532029915E+02  0.41959044252E+02  0.43505388005E+02  0.64861672904E+02  0.00000000000E+00 0. -1.
         -5    1    3    3    0  503 -0.83928618787E+02  0.83890611066E+00 -0.11673160138E+02  0.84870898915E+02  0.47000000000E+01 0.  1.
         11    1    4    4    0    0 -0.94121403417E+01 -0.15301975828E+02 -0.80893886291E+02  0.82864707140E+02  0.00000000000E+00 0. -1.
        -12    1    4    4    0    0  0.30684499345E+02 -0.29076721994E+02 -0.42539703563E+00  0.42274995264E+02  0.00000000000E+00 0.  1.
</event>
<event>
12    1  0.8488291E-002  0.1948623E+03  0.7818608E-02  0.1154596E+00
         21   -1    0    0  501  502  0.00000000000E+00  0.00000000000E+00  0.34363338659E+03  0.34363338659E+03  0.00000000000E+00 0.  1.
         21   -1    0    0  502  503 -0.00000000000E+00 -0.00000000000E+00 -0.19802572308E+03  0.19802572308E+03  0.00000000000E+00 0.  1.
         -6    2    1    2    0  503 -0.72536275914E+02 -0.51871213544E+02 -0.10822221663E+03  0.22289767634E+03  0.17326047393E+03 0.  0.
        -24    2    3    3    0    0 -0.11630208863E+03 -0.48682954398E+02 -0.87159129239E+02  0.17399619364E+03  0.82351416038E+02 0.  0.
          6    2    1    2  501    0  0.72536275914E+02  0.51871213544E+02  0.25382988013E+03  0.31876143333E+03  0.17095937885E+03 0.  0.
         24    2    5    5    0    0  0.44524352138E+01  0.23399790715E+02  0.22332021713E+03  0.23876792848E+03  0.81060655714E+02 0.  0.
          5    1    5    5  501    0  0.68083840700E+02  0.28471422828E+02  0.30509662994E+02  0.79993504851E+02  0.47000000000E+01 0. -1.
        -11    1    6    6    0    0  0.35224856410E+02  0.90403946122E+01  0.48169691434E+02  0.60355931081E+02  0.00000000000E+00 0.  1.
         12    1    6    6    0    0 -0.30772421196E+02  0.14359396103E+02  0.17515052570E+03  0.17841199740E+03  0.00000000000E+00 0. -1.
         -5    1    3    3    0  503  0.43765812720E+02 -0.31882591459E+01 -0.21063087388E+02  0.48901482695E+02  0.47000000000E+01 0.  1.
         13    1    4    4    0    0 -0.38655327635E+02 -0.34232936912E+02  0.58645920936E+01  0.51966544667E+02  0.00000000000E+00 0. -1.
        -14    1    4    4    0    0 -0.77646761000E+02 -0.14450017486E+02 -0.93023721333E+02  0.12202964898E+03  0.00000000000E+00 0.  1.
</event>
<event>
12    1  0.8488291E-002  0.2614582E+03  0.7818608E-02  0.1106787E+00
         21   -1    0    0  503  502  0.00000000000E+00  0.00000000000E+00  0.98918204926E+02  0.98918204926E+02  0.00000000000E+00 0.  1.
         21   -1    0    0  501  503 -0.00000000000E+00 -0.00000000000E+00 -0.94102610116E+03  0.94102610116E+03  0.00000000000E+00 0.  1.
          6    2    1    2  501    0 -0.13893459696E+02  0.19102928688E+03 -0.69586371005E+03  0.74336174722E+03  0.17797518816E+03 0.  0.
         24    2    3    3    0    0 -0.41468375004E+02  0.20708652695E+03 -0.56542138001E+03  0.60899098262E+03  0.81019899862E+02 0.  0.
         -6    2    1    2    0  502  0.13893459696E+02 -0.19102928688E+03 -0.14624418619E+03  0.29658255887E+03  0.17288330041E+03 0.  0.
        -24    2    5    5    0    0 -0.32005015561E+02 -0.37862671887E+02 -0.32102452073E+02  0.10007019934E+03  0.80781027620E+02 0.  0.
          5    1    3    3  501    0  0.27574915308E+02 -0.16057240070E+02 -0.13044233004E+03  0.13437076460E+03  0.47000000000E+01 0. -1.
        -11    1    4    4    0    0  0.17274847391E+02  0.92522875243E+02 -0.18858047355E+03  0.21076408091E+03  0.00000000000E+00 0.  1.
         12    1    4    4    0    0 -0.58743222395E+02  0.11456365171E+03 -0.37684090646E+03  0.39822690171E+03  0.00000000000E+00 0. -1.
         -5    1    5    5    0  502  0.45898475258E+02 -0.15316661499E+03 -0.11414173411E+03  0.19651235953E+03  0.47000000000E+01 0.  1.
         11    1    6    6    0    0 -0.61266328247E+01 -0.27885144132E+02  0.24122487617E+02  0.37376614371E+02  0.00000000000E+00 0. -1.
        -12    1    6    6    0    0 -0.25878382737E+02 -0.99775277551E+01 -0.56224939689E+02  0.62693584969E+02  0.00000000000E+00 0.  1.
</event>
<event>
12    1  0.8488291E-002  0.1920773E+03  0.7818608E-02  0.1156712E+00
         21   -1    0    0  503  502  0.00000000000E+00  0.00000000000E+00  0.32656992469E+03  0.32656992469E+03  0.00000000000E+00 0.  1.
         21   -1    0    0  501  503 -0.00000000000E+00 -0.00000000000E+00 -0.19176322482E+03  0.19176322482E+03  0.00000000000E+00 0. -1.
          6    2    1    2  501    0 -0.14022819916E+02 -0.83980537208E+02 -0.98978326840E+02  0.21607957942E+03  0.17217521700E+03 0.  0.
         24    2    3    3    0    0 -0.72172659452E+02 -0.68196556856E+02 -0.45484549037E+02  0.13536891013E+03  0.79976462092E+02 0.  0.
         -6    2    1    2    0  502  0.14022819916E+02  0.83980537208E+02  0.23378502672E+03  0.30225357009E+03  0.17161704988E+03 0.  0.
        -24    2    5    5    0    0 -0.16984062911E+02  0.10161775821E+03  0.10271064888E+03  0.16633050041E+03  0.80633310709E+02 0.  0.
          5    1    3    3  501    0  0.58149839536E+02 -0.15783980352E+02 -0.53493777803E+02  0.80710669291E+02  0.47000000000E+01 0. -1.
        -11    1    4    4    0    0  0.79350113970E+01 -0.32409987960E+02  0.56133464902E+01  0.33836095878E+02  0.00000000000E+00 0.  1.
         12    1    4    4    0    0 -0.80107670849E+02 -0.35786568896E+02 -0.51097895527E+02  0.10153281425E+03  0.00000000000E+00 0. -1.
         -5    1    5    5    0  502  0.31006882827E+02 -0.17637221002E+02  0.13107437784E+03  0.13592306968E+03  0.47000000000E+01 0.  1.
         11    1    6    6    0    0 -0.34439027793E+01  0.12566199710E+02 -0.13853985525E+02  0.19018484599E+02  0.00000000000E+00 0. -1.
        -12    1    6    6    0    0 -0.13540160132E+02  0.89051558499E+02  0.11656463440E+03  0.14731201581E+03  0.00000000000E+00 0.  1.
</event>
<event>
12    1  0.8488291E-002  0.1755075E+03  0.7818608E-02  0.1172352E+00
         21   -1    0    0  503  502  0.00000000000E+00  0.00000000000E+00  0.93348212895E+02  0.93348212895E+02  0.00000000000E+00 0. -1.
         21   -1    0    0  501  503 -0.00000000000E+00 -0.00000000000E+00 -0.34511850959E+03  0.34511850959E+03  0.00000000000E+00 0. -1.
          6    2    1    2  501    0 -0.31844233367E+02  0.69688780025E+01 -0.17307030805E+03  0.24612180276E+03  0.17193018875E+03 0.  0.
         24    2    3    3    0    0 -0.85301332120E+02  0.99108427825E+01 -0.89780529576E+02  0.14699766966E+03  0.78569900904E+02 0.  0.
         -6    2    1    2    0  502  0.31844233367E+02 -0.69688780025E+01 -0.78699988641E+02  0.19234491973E+03  0.17245364442E+03 0.  0.
        -24    2    5    5    0    0  0.66241599655E+02 -0.27043907348E+02 -0.51581629005E+01  0.10857931972E+03  0.81507911134E+02 0.  0.
          5    1    3    3  501    0  0.53457098753E+02 -0.29419647800E+01 -0.83289778476E+02  0.99124133098E+02  0.47000000000E+01 0. -1.
        -13    1    4    4    0    0 -0.40546616200E+02  0.16351406328E+02  0.29622104361E+01  0.43819758840E+02  0.00000000000E+00 0.  1.
         14    1    4    4    0    0 -0.44754715920E+02 -0.64405635451E+01 -0.92742740013E+02  0.10317791082E+03  0.00000000000E+00 0. -1.
         -5    1    5    5    0  502 -0.34397366288E+02  0.20075029346E+02 -0.73541825740E+02  0.83765600004E+02  0.47000000000E+01 0.  1.
         13    1    6    6    0    0  0.72786513787E+02 -0.21300578486E+01 -0.23993098288E+02  0.76668653967E+02  0.00000000000E+00 0. -1.
        -14    1    6    6    0    0 -0.65449141324E+01 -0.24913849500E+02  0.18834935388E+02  0.31910665755E+02  0.00000000000E+00 0.  1.
</event>
<event>
12    1  0.8488291E-002  0.1959526E+03  0.7818608E-02  0.1153699E+00
         21   -1    0    0  503  502  0.00000000000E+00  0.00000000000E+00  0.91178996417E+02  0.91178996417E+02  0.00000000000E+00 0.  1.
         21   -1    0    0  501  503 -0.00000000000E+00 -0.00000000000E+00 -0.56022151305E+03  0.56022151305E+03  0.00000000000E+00 0.  1.
          6    2    1    2  501    0 -0.77089428015E+02  0.46215120535E+02 -0.70413846292E+02  0.20821990457E+03  0.17412294976E+03 0.  0.
         24    2    3    3    0    0 -0.93995994849E+02  0.62861188537E+02 -0.10005998946E+03  0.16995886190E+03  0.78020748355E+02 0.  0.
         -6    2    1    2    0  502  0.77089428015E+02 -0.46215120535E+02 -0.39862867034E+03  0.44318060489E+03  0.17153895901E+03 0.  0.
        -24    2    5    5    0    0  0.33931251287E+02 -0.19939725802E+02 -0.75838383117E+02  0.11642582817E+03  0.79085969878E+02 0.  0.
          5    1    3    3  501    0  0.16906566834E+02 -0.16646068002E+02  0.29646143169E+02  0.38261042678E+02  0.47000000000E+01 0. -1.
        -11    1    4    4    0    0 -0.51640099751E+02 -0.94415749355E+01 -0.28315289692E+02  0.59645610651E+02  0.00000000000E+00 0.  1.
         12    1    4    4    0    0 -0.42355895098E+02  0.72302763472E+02 -0.71744699768E+02  0.11031325124E+03  0.00000000000E+00 0. -1.
         -5    1    5    5    0  502  0.43158176728E+02 -0.26275394733E+02 -0.32279028722E+03  0.32675477672E+03  0.47000000000E+01 0.  1.
         13    1    6    6    0    0 -0.19538223334E+02 -0.42956262187E+00 -0.50449082794E+02  0.54102094690E+02  0.00000000000E+00 0. -1.
        -14    1    6    6    0    0  0.53469474621E+02 -0.19510163180E+02 -0.25389300323E+02  0.62323733476E+02  0.00000000000E+00 0.  1.
</event>
<event>
12    1  0.8488291E-002  0.2417633E+03  0.7818608E-02  0.1118663E+00
         21   -1    0    0  503  502  0.00000000000E+00  0.00000000000E+00  0.92488257318E+02  0.92488257318E+02  0.00000000000E+00 0. -1.
         21   -1    0    0  501  503 -0.00000000000E+00 -0.00000000000E+00 -0.10680241831E+04  0.10680241831E+04  0.00000000000E+00 0.  1.
          6    2    1    2  501    0 -0.16864306784E+03 -0.15372629693E+02 -0.11687714376E+03  0.26853256727E+03  0.17254759018E+03 0.  0.
         24    2    3    3    0    0 -0.52837744229E+01 -0.34448930505E+02 -0.43457975439E+02  0.88358683826E+02  0.68585816997E+02 0.  0.
         -6    2    1    2    0  502  0.16864306784E+03  0.15372629693E+02 -0.85865878207E+03  0.89197987320E+03  0.17221030193E+03 0.  0.
        -24    2    5    5    0    0  0.63479917523E+02 -0.52697181862E+02 -0.46590735729E+03  0.47970744010E+03  0.79011832034E+02 0.  0.
          5    1    3    3  501    0 -0.16335929341E+03  0.19076300812E+02 -0.73419168320E+02  0.18017388344E+03  0.47000000000E+01 0. -1.
        -13    1    4    4    0    0  0.15306794429E+02  0.13276437694E+02  0.52504114449E+00  0.20269124839E+02  0.00000000000E+00 0.  1.
         14    1    4    4    0    0 -0.20590568852E+02 -0.47725368198E+02 -0.43983016583E+02  0.68089558987E+02  0.00000000000E+00 0. -1.
         -5    1    5    5    0  502  0.10516315031E+03  0.68069811554E+02 -0.39275142478E+03  0.41227243310E+03  0.47000000000E+01 0.  1.
         11    1    6    6    0    0  0.71126422011E+01 -0.25101470670E+00  0.35993772282E+00  0.71261660539E+01  0.00000000000E+00 0. -1.
        -12    1    6    6    0    0  0.56367275322E+02 -0.52446167155E+02 -0.46626729502E+03  0.47258127404E+03  0.00000000000E+00 0.  1.
</event>
<event>
12    1  0.8488291E-002  0.1950518E+03  0.7818608E-02  0.1155838E+00
         21   -1    0    0  501  502  0.00000000000E+00  0.00000000000E+00  0.15786719899E+03  0.15786719899E+03  0.00000000000E+00 0.  1.
         21   -1    0    0  502  503 -0.00000000000E+00 -0.00000000000E+00 -0.26841205022E+03  0.26841205022E+03  0.00000000000E+00 0.  1.
         -6    2    1    2    0  503 -0.87183658218E+02 -0.32287316938E+02  0.23435433630E+02  0.19645465959E+03  0.17146939269E+03 0.  0.
        -24    2    3    3    0    0 -0.10375773829E+03 -0.52373073366E+02 -0.22944646193E+02  0.14305672381E+03  0.80188293221E+02 0.  0.
          6    2    1    2  501    0  0.87183658218E+02  0.32287316938E+02 -0.13398028486E+03  0.22982458962E+03  0.16194185427E+03 0.  0.
         24    2    5    5    0    0  0.18787917315E+02  0.53079020813E+02 -0.27477973215E+02  0.10146920520E+03  0.79815990275E+02 0.  0.
          5    1    5    5  501    0  0.68395740903E+02 -0.20791703875E+02 -0.10650231165E+03  0.12835538442E+03  0.47000000000E+01 0. -1.
        -11    1    6    6    0    0  0.41019139276E+02  0.61163791408E+02 -0.24570057756E+02  0.77635474523E+02  0.00000000000E+00 0.  1.
         12    1    6    6    0    0 -0.22231221961E+02 -0.80847705945E+01 -0.29079154591E+01  0.23833730672E+02  0.00000000000E+00 0. -1.
         -5    1    3    3    0  503  0.16574080068E+02  0.20085756429E+02  0.46380079823E+02  0.53397935782E+02  0.47000000000E+01 0.  1.
         11    1    4    4    0    0 -0.23939841184E+02  0.19760971557E+02  0.60684916664E+01  0.31629710462E+02  0.00000000000E+00 0. -1.
        -12    1    4    4    0    0 -0.79817897102E+02 -0.72134044923E+02 -0.29013137860E+02  0.11142701335E+03  0.00000000000E+00 0.  1.
</event>
<event>
12    1  0.8488291E-002  0.2093251E+03  0.7818608E-02  0.1143510E+00
         21   -1    0    0  503  502  0.00000000000E+00  0.00000000000E+00  0.29975987027E+03  0.29975987027E+03  0.00000000000E+00 0.  1.
         21   -1    0    0  501  503 -0.00000000000E+00 -0.00000000000E+00 -0.22697612769E+03  0.22697612769E+03  0.00000000000E+00 0. -1.
          6    2    1    2  501    0 -0.82999833392E+02 -0.70860789048E+02 -0.12573226564E+03  0.23824751307E+03  0.17042021914E+03 0.  0.
         24    2    3    3    0    0 -0.76051876566E+02  0.17551824730E+02 -0.57217967440E+02  0.12608083603E+03  0.80811675738E+02 0.  0.
         -6    2    1    2    0  502  0.82999833392E+02  0.70860789048E+02  0.19851600823E+03  0.28848848489E+03  0.17862468089E+03 0.  0.
        -24    2    5    5    0    0  0.64687338025E+02  0.11127485855E+03  0.10690216232E+03  0.18658739921E+03  0.82584740669E+02 0.  0.
          5    1    3    3  501    0 -0.69479568256E+01 -0.88412613778E+02 -0.68514298204E+02  0.11216667704E+03  0.47000000000E+01 0. -1.
        -13    1    4    4    0    0 -0.79937102767E+02 -0.69346148969E+01 -0.61274547819E+02  0.10095840477E+03  0.00000000000E+00 0.  1.
         14    1    4    4    0    0  0.38852262012E+01  0.24486439627E+02  0.40565803788E+01  0.25122431264E+02  0.00000000000E+00 0. -1.
         -5    1    5    5    0  502  0.18312495367E+02 -0.40414069498E+02  0.91613845904E+02  0.10190108567E+03  0.47000000000E+01 0.  1.
         11    1    6    6    0    0 -0.58624345828E+01  0.70596693672E+02  0.58339371976E+02  0.91770058403E+02  0.00000000000E+00 0. -1.
        -12    1    6    6    0    0  0.70549772607E+02  0.40678164874E+02  0.48562790345E+02  0.94817340811E+02  0.00000000000E+00 0.  1.
</event>
<event>
12    1  0.8488291E-002  0.1841759E+03  0.7818608E-02  0.1164269E+00
         21   -1    0    0  503  502  0.00000000000E+00  0.00000000000E+00  0.50449388944E+02  0.50449388944E+02  0.00000000000E+00 0. -1.
         21   -1    0    0  501  503 -0.00000000000E+00 -0.00000000000E+00 -0.70606219156E+03  0.70606219156E+03  0.00000000000E+00 0. -1.
          6    2    1    2  501    0  0.14139204659E+02  0.64549222011E+02 -0.23552960099E+03  0.29782795078E+03  0.16988459658E+03 0.  0.
         24    2    3    3    0    0 -0.25543638304E+02  0.96050855154E+02 -0.18656995511E+03  0.22721479449E+03  0.83306485062E+02 0.  0.
         -6    2    1    2    0  502 -0.14139204659E+02 -0.64549222011E+02 -0.42008320162E+03  0.45868362972E+03  0.17191351522E+03 0.  0.
        -24    2    5    5    0    0 -0.51469577280E+02  0.11925181473E+02 -0.14302893076E+03  0.16881633230E+03  0.72459310503E+02 0.  0.
          5    1    3    3  501    0  0.39682842963E+02 -0.31501633144E+02 -0.48959645880E+02  0.70613156288E+02  0.47000000000E+01 0. -1.
        -13    1    4    4    0    0 -0.42889282122E+02  0.17434333248E+02 -0.92191143431E+02  0.10316323678E+03  0.00000000000E+00 0.  1.
         14    1    4    4    0    0  0.17345643818E+02  0.78616521907E+02 -0.94378811677E+02  0.12405155771E+03  0.00000000000E+00 0. -1.
         -5    1    5    5    0  502  0.37330372621E+02 -0.76474403484E+02 -0.27705427086E+03  0.28986729742E+03  0.47000000000E+01 0.  1.
         11    1    6    6    0    0 -0.23344511192E+02  0.35078278349E+02 -0.11611381098E+03  0.12352274655E+03  0.00000000000E+00 0. -1.
        -12    1    6    6    0    0 -0.28125066088E+02 -0.23153096877E+02 -0.26915119780E+02  0.45293585751E+02  0.00000000000E+00 0.  1.
</event>
<event>
12    1  0.8488291E-002  0.1835146E+03  0.7818608E-02  0.1165021E+00
         21   -1    0    0  503  502  0.00000000000E+00  0.00000000000E+00  0.24377008812E+03  0.24377008812E+03  0.00000000000E+00 0. -1.
         21   -1    0    0  501  503 -0.00000000000E+00 -0.00000000000E+00 -0.21216258878E+03  0.21216258878E+03  0.00000000000E+00 0.  1.
          6    2    1    2  501    0 -0.42107803613E+02 -0.44706640281E+02 -0.12041567688E+03  0.21949382052E+03  0.17293308300E+03 0.  0.
         24    2    3    3    0    0 -0.49455716705E+02 -0.41056949043E+01 -0.14560973519E+03  0.17092161482E+03  0.74493481492E+02 0.  0.
         -6    2    1    2    0  502  0.42107803613E+02  0.44706640281E+02  0.15202317621E+03  0.23643885638E+03  0.17035414844E+03 0.  0.
        -24    2    5    5    0    0 -0.31357815997E+02  0.51796840580E+02  0.12892174348E+03  0.15895831431E+03  0.70574105945E+02 0.  0.
          5    1    3    3  501    0  0.73479130922E+01 -0.40600945377E+02  0.25194058310E+02  0.48572205699E+02  0.47000000000E+01 0. -1.
        -11    1    4    4    0    0 -0.36529153263E+02 -0.23159258032E+02 -0.14094116019E+03  0.14742842638E+03  0.00000000000E+00 0.  1.
         12    1    4    4    0    0 -0.12926563443E+02  0.19053563128E+02 -0.46685750010E+01  0.23493188435E+02  0.00000000000E+00 0. -1.
         -5    1    5    5    0  502  0.73465619610E+02 -0.70902002986E+01  0.23101432737E+02  0.77480542070E+02  0.47000000000E+01 0.  1.
         13    1    6    6    0    0 -0.21508258785E+02  0.35195323993E+02  0.13298245206E+03  0.13923235465E+03  0.00000000000E+00 0. -1.
        -14    1    6    6    0    0 -0.98495572125E+01  0.16601516587E+02 -0.40607085826E+01  0.19725959659E+02  0.00000000000E+00 0.  1.
</event>
<event>
12    1  0.8488291E-002  0.2753838E+03  0.7818608E-02  0.1099179E+00
         21   -1    0    0  503  502  0.00000000000E+00  0.00000000000E+00  0.36555268244E+03  0.36555268244E+03  0.00000000000E+00 0.  1.
         21   -1    0    0  501  503 -0.00000000000E+00 -0.00000000000E+00 -0.24305756047E+03  0.24305756047E+03  0.00000000000E+00 0. -1.
          6    2    1    2  501    0 -0.33477275626E+02  0.21166417633E+03  0.18497059934E+03  0.32622851250E+03  0.16213718952E+03 0.  0.
         24    2    3    3    0    0 -0.29145594969E+02  0.23228176659E+03  0.16741559986E+03  0.29840556348E+03  0.78826470463E+02 0.  0.
         -6    2    1    2    0  502  0.33477275626E+02 -0.21166417633E+03 -0.62475477370E+02  0.28238173041E+03  0.17295607787E+03 0.  0.
        -24    2    5    5    0    0 -0.13816941267E+02 -0.89830621400E+02  0.26395380640E+02  0.12426696999E+03  0.80530213613E+02 0.  0.
          5    1    3    3  501    0 -0.43316806569E+01 -0.20617590259E+02  0.17554999486E+02  0.27822949023E+02  0.47000000000E+01 0. -1.
        -13    1    4    4    0    0  0.18431708337E+02  0.15393084501E+03  0.97784663740E+02  0.18329286233E+03  0.00000000000E+00 0.  1.
         14    1    4    4    0    0 -0.47577303307E+02  0.78350921573E+02  0.69630936117E+02  0.11511270115E+03  0.00000000000E+00 0. -1.
         -5    1    5    5    0  502  0.47294216893E+02 -0.12183355493E+03 -0.88870858010E+02  0.15811476042E+03  0.47000000000E+01 0.  1.
         11    1    6    6    0    0 -0.10311631664E+02 -0.94741838816E+02 -0.19151485287E+01  0.95320583106E+02  0.00000000000E+00 0. -1.
        -12    1    6    6    0    0 -0.35053096024E+01  0.49112174153E+01  0.28310529169E+02  0.28946386885E+02  0.00000000000E+00 0.  1.
</event>
<event>
12    1  0.8488291E-002  0.1892091E+03  0.7818608E-02  0.1159252E+00
         21   -1    0    0  501  502  0.00000000000E+00  0.00000000000E+00  0.98510218510E+03  0.98510218510E+03  0.00000000000E+00 0. -1.
         21   -1    0    0  502  503 -0.00000000000E+00 -0.00000000000E+00 -0.36956706296E+02  0.36956706296E+02  0.00000000000E+00 0. -1.
         -6    2    1    2    0  503 -0.20723813988E+02 -0.78701087593E+02  0.54377124964E+03  0.57574929582E+03  0.17081200793E+03 0.  0.
        -24    2    3    3    0    0 -0.62570263386E+02 -0.50392368092E+02  0.48465672103E+03  0.49784469763E+03  0.80639798476E+02 0.  0.
          6    2    1    2  501    0  0.20723813988E+02  0.78701087593E+02  0.40437422916E+03  0.44630959557E+03  0.17044177960E+03 0.  0.
         24    2    5    5    0    0  0.13589490292E+02  0.10975051012E+03  0.38566209228E+03  0.40906447132E+03  0.79803781600E+02 0.  0.
          5    1    5    5  501    0  0.71343236967E+01 -0.31049422523E+02  0.18712136879E+02  0.37245124247E+02  0.47000000000E+01 0. -1.
        -13    1    6    6    0    0  0.32864561223E+02  0.10468201979E+02  0.11778866364E+03  0.12273480321E+03  0.00000000000E+00 0.  1.
         14    1    6    6    0    0 -0.19275070931E+02  0.99282308137E+02  0.26787342864E+03  0.28632966811E+03  0.00000000000E+00 0. -1.
         -5    1    3    3    0  503  0.41846449398E+02 -0.28308719501E+02  0.59114528614E+02  0.77904598197E+02  0.47000000000E+01 0.  1.
         13    1    4    4    0    0 -0.11615336043E+02 -0.40687931953E+02  0.36479304551E+03  0.36723887307E+03  0.00000000000E+00 0. -1.
        -14    1    4    4    0    0 -0.50954927343E+02 -0.97044361386E+01  0.11986367551E+03  0.13060582456E+03  0.00000000000E+00 0.  1.
</event>
<event>
12    1  0.8488291E-002  0.2344095E+03  0.7818608E-02  0.1123705E+00
         21   -1    0    0  503  502  0.00000000000E+00  0.00000000000E+00  0.60720936019E+03  0.60720936019E+03  0.00000000000E+00 0. -1.
         21   -1    0    0  501  503 -0.00000000000E+00 -0.00000000000E+00 -0.98072189401E+02  0.98072189401E+02  0.00000000000E+00 0. -1.
          6    2    1    2  501    0 -0.15474140337E+03  0.35610872926E+02  0.15502828963E+03  0.28103663574E+03  0.17243776806E+03 0.  0.
         24    2    3    3    0    0 -0.80237055438E+02  0.33602025375E+02  0.16783675690E+03  0.20526671979E+03  0.79988549873E+02 0.  0.
         -6    2    1    2    0  502  0.15474140337E+03 -0.35610872926E+02  0.35410888115E+03  0.42424491385E+03  0.17139898199E+03 0.  0.
        -24    2    5    5    0    0  0.15415824354E+03 -0.60971169706E+02  0.21612160830E+03  0.28386663135E+03  0.79934143103E+02 0.  0.
          5    1    3    3  501    0 -0.74504347933E+02  0.20088475505E+01 -0.12808467269E+02  0.75769915951E+02  0.47000000000E+01 0. -1.
        -11    1    4    4    0    0 -0.74465676694E+01  0.15138462430E+02  0.10782757389E+03  0.10913940675E+03  0.00000000000E+00 0.  1.
         12    1    4    4    0    0 -0.72790487768E+02  0.18463562945E+02  0.60009183012E+02  0.96127313039E+02  0.00000000000E+00 0. -1.
         -5    1    5    5    0  502  0.58315983420E+00  0.25360296780E+02  0.13798727285E+03  0.14037828249E+03  0.47000000000E+01 0.  1.
         11    1    6    6    0    0  0.13289099673E+03 -0.20146663630E+02  0.18344472176E+03  0.22741563493E+03  0.00000000000E+00 0. -1.
        -12    1    6    6    0    0  0.21267246803E+02 -0.40824506075E+02  0.32676886539E+02  0.56450996420E+02  0.00000000000E+00 0.  1.
</event>
<event>
12    1  0.8488291E-002  0.1737556E+03  0.7818608E-02  0.1175019E+00
         21   -1    0    0  503  502  0.00000000000E+00  0.00000000000E+00  0.47383619474E+03  0.47383619474E+03  0.00000000000E+00 0.  1.
         21   -1    0    0  501  503 -0.00000000000E+00 -0.00000000000E+00 -0.67660579765E+02  0.67660579765E+02  0.00000000000E+00 0.  1.
          6    2    1    2  501    0  0.22654353127E+02  0.45180597276E+01  0.12871400480E+03  0.21623669552E+03  0.17221318439E+03 0.  0.
         24    2    3    3    0    0 -0.26011778377E+02 -0.35164497359E+02  0.22890012734E+02  0.93094887067E+02  0.78927503611E+02 0.  0.
         -6    2    1    2    0  502 -0.22654353127E+02 -0.45180597276E+01  0.27746161018E+03  0.32526007899E+03  0.16815332670E+03 0.  0.
        -24    2    5    5    0    0  0.23041044630E+02  0.31008833612E+02  0.84521913362E+02  0.12377051069E+03  0.81748076293E+02 0.  0.
          5    1    3    3  501    0  0.48666131504E+02  0.39682557087E+02  0.10582399206E+03  0.12314180845E+03  0.47000000000E+01 0. -1.
        -13    1    4    4    0    0  0.95279041676E+01 -0.13163421660E+02 -0.24819130136E+02  0.29665566712E+02  0.00000000000E+00 0.  1.
         14    1    4    4    0    0 -0.35539682545E+02 -0.22001075699E+02  0.47709142871E+02  0.63429320355E+02  0.00000000000E+00 0. -1.
         -5    1    5    5    0  502 -0.45695397757E+02 -0.35526893340E+02  0.19293969682E+03  0.20148956830E+03  0.47000000000E+01 0.  1.
         11    1    6    6    0    0 -0.12978113699E+02 -0.11292307220E+02 -0.54336169496E+01  0.18040837860E+02  0.00000000000E+00 0. -1.
        -12    1    6    6    0    0  0.36019158329E+02  0.42301140832E+02  0.89955530312E+02  0.10572967283E+03  0.00000000000E+00 0.  1.
</event>
<event>
12    1  0.8488291E-002  0.2142041E+03  0.7818608E-02  0.1138354E+00
         21   -1    0    0  501  502  0.00000000000E+00  0.00000000000E+00  0.61488894081E+03  0.61488894081E+03  0.00000000000E+00 0. -1.
         21   -1    0    0  502  503 -0.00000000000E+00 -0.00000000000E+00 -0.14614212424E+03  0.14614212424E+03  0.00000000000E+00 0. -1.
         -6    2    1    2    0  503 -0.77338888324E+02  0.10031573183E+03 -0.32182866162E+02  0.21622471009E+03  0.17225805839E+03 0.  0.
        -24    2    3    3    0    0 -0.49532337939E+02  0.13677698527E+03 -0.34481602979E+02  0.17007277147E+03  0.81082491638E+02 0.  0.
          6    2    1    2  501    0  0.77338888324E+02 -0.10031573183E+03  0.50092968273E+03  0.54480635496E+03  0.17273930551E+03 0.  0.
         24    2    5    5    0    0  0.66865729655E+02  0.66503498838E+01  0.20945910157E+03  0.23411580253E+03  0.80136388788E+02 0.  0.
          5    1    5    5  501    0  0.10473158669E+02 -0.10696608171E+03  0.29147058116E+03  0.31069055244E+03  0.47000000000E+01 0. -1.
        -11    1    6    6    0    0 -0.14254027926E+02 -0.95801777393E+01  0.15044323339E+02  0.22831749437E+02  0.00000000000E+00 0.  1.
         12    1    6    6    0    0  0.81119757581E+02  0.16230527623E+02  0.19441477823E+03  0.21128405309E+03  0.00000000000E+00 0. -1.
         -5    1    3    3    0  503 -0.27806550385E+02 -0.36461253445E+02  0.22987368168E+01  0.46151938617E+02  0.47000000000E+01 0.  1.
         13    1    4    4    0    0  0.53314902758E+01  0.10068461084E+03 -0.22784753667E+02  0.10336808331E+03  0.00000000000E+00 0. -1.
        -14    1    4    4    0    0 -0.54863828214E+02  0.36092374436E+02 -0.11696849311E+02  0.66704688161E+02  0.00000000000E+00 0.  1.
</event>
<event>
12    1  0.8488291E-002  0.1869305E+03  0.7818608E-02  0.1161362E+00
         21   -1    0    0  503  502  0.00000000000E+00  0.00000000000E+00  0.15407676957E+04  0.15407676957E+04  0.00000000000E+00 0. -1.
         21   -1    0    0  501  503 -0.00000000000E+00 -0.00000000000E+00 -0.42669888858E+02  0.42669888858E+02  0.00000000000E+00 0. -1.
          6    2    1    2  501    0  0.27010841625E+02  0.66951735019E+02  0.20593602131E+03  0.27782466895E+03  0.17194412296E+03 0.  0.
         24    2    3    3    0    0  0.52724044469E+02  0.65788006096E+02  0.66661199050E+02  0.13611338083E+03  0.83517964368E+02 0.  0.
         -6    2    1    2    0  502 -0.27010841625E+02 -0.66951735019E+02  0.12921617855E+04  0.13056129156E+04  0.17242646262E+03 0.  0.
        -24    2    5    5    0    0 -0.59257246386E+02 -0.52319705324E+02  0.12196667673E+04  0.12247949437E+04  0.79289709610E+02 0.  0.
          5    1    3    3  501    0 -0.25713202844E+02  0.11637289222E+01  0.13927482226E+03  0.14171128812E+03  0.47000000000E+01 0. -1.
        -11    1    4    4    0    0  0.23717492213E+02 -0.18119462171E+02  0.18425955309E+02  0.35076347805E+02  0.00000000000E+00 0.  1.
         12    1    4    4    0    0  0.29006552255E+02  0.83907468267E+02  0.48235243741E+02  0.10103703303E+03  0.00000000000E+00 0. -1.
         -5    1    5    5    0  502  0.32246404762E+02 -0.14632029695E+02  0.72495018205E+02  0.80817971873E+02  0.47000000000E+01 0.  1.
         11    1    6    6    0    0 -0.34212352778E+02 -0.60260340998E+02  0.51530173590E+03  0.51994006655E+03  0.00000000000E+00 0. -1.
        -12    1    6    6    0    0 -0.25044893608E+02  0.79406356749E+01  0.70436503142E+03  0.70485487717E+03  0.00000000000E+00 0.  1.
</event>
<event>
12    1  0.8488291E-002  0.1719834E+03  0.7818608E-02  0.1176001E+00
         21   -1    0    0  501  502  0.00000000000E+00  0.00000000000E+00  0.37103067385E+02  0.37103067385E+02  0.00000000000E+00 0. -1.
         21   -1    0    0  502  503 -0.00000000000E+00 -0.00000000000E+00 -0.93138823008E+03  0.93138823008E+03  0.00000000000E+00 0. -1.
         -6    2    1    2    0  503 -0.41754713578E+01  0.34570044954E+01 -0.63258234391E+03  0.65533531162E+03  0.17109811041E+03 0.  0.
        -24    2    3    3    0    0 -0.34724587930E+02 -0.56558278486E+02 -0.35426410199E+03  0.36894708473E+03  0.78830587339E+02 0.  0.
          6    2    1    2  501    0  0.41754713578E+01 -0.34570044954E+01 -0.26170281879E+03  0.31315598585E+03  0.17189799496E+03 0.  0.
         24    2    5    5    0    0 -0.77913017017E+01 -0.65693716120E+02 -0.12259094179E+03  0.16021542140E+03  0.79145900250E+02 0.  0.
          5    1    5    5  501    0  0.11966773059E+02  0.62236711624E+02 -0.13911187700E+03  0.15294056445E+03  0.47000000000E+01 0. -1.
        -13    1    6    6    0    0 -0.28681232546E+01  0.90340356281E+01  0.61344110991E+01  0.11290302488E+02  0.00000000000E+00 0.  1.
         14    1    6    6    0    0 -0.49231784471E+01 -0.74727751748E+02 -0.12872535289E+03  0.14892511892E+03  0.00000000000E+00 0. -1.
         -5    1    3    3    0  503  0.30549116573E+02  0.60015282981E+02 -0.27831824192E+03  0.28638822689E+03  0.47000000000E+01 0.  1.
         11    1    4    4    0    0  0.64555819086E+01 -0.26451711614E+02 -0.29279317517E+02  0.39983071660E+02  0.00000000000E+00 0. -1.
        -12    1    4    4    0    0 -0.41180169839E+02 -0.30106566872E+02 -0.32498478447E+03  0.32896401307E+03  0.00000000000E+00 0.  1.
</event>
<event>
12    1  0.8488291E-002  0.1957089E+03  0.7818608E-02  0.1155647E+00
         21   -1    0    0  503  502  0.00000000000E+00  0.00000000000E+00  0.13924610482E+03  0.13924610482E+03  0.00000000000E+00 0. -1.
         21   -1    0    0  501  503 -0.00000000000E+00 -0.00000000000E+00 -0.34910147608E+03  0.34910147608E+03  0.00000000000E+00 0. -1.
          6    2    1    2  501    0 -0.92679590122E+02 -0.15619365637E+01 -0.22951096623E+03  0.30162436068E+03  0.17236596318E+03 0.  0.
         24    2    3    3    0    0 -0.13207366190E+03 -0.22618022995E+01 -0.19699643180E+03  0.25032457849E+03  0.80038943893E+02 0.  0.
         -6    2    1    2    0  502  0.92679590122E+02  0.15619365637E+01  0.19655594976E+02  0.18672322022E+03  0.16089522207E+03 0.  0.
        -24    2    5    5    0    0  0.65715432293E+02  0.51502879010E+02  0.46190943808E+02  0.12389505554E+03  0.79027317487E+02 0.  0.
          5    1    3    3  501    0  0.39394071776E+02  0.69986573584E+00 -0.32514534432E+02  0.51299782188E+02  0.47000000000E+01 0. -1.
        -13    1    4    4    0    0  0.15002452105E+01 -0.18231693338E+02 -0.13207549739E+02  0.22562906457E+02  0.00000000000E+00 0.  1.
         14    1    4    4    0    0 -0.13357390711E+03  0.15969891038E+02 -0.18378888206E+03  0.22776167203E+03  0.00000000000E+00 0. -1.
         -5    1    5    5    0  502  0.26964157828E+02 -0.49940942447E+02 -0.26535348832E+02  0.62828164683E+02  0.47000000000E+01 0.  1.
         11    1    6    6    0    0  0.80570247392E+02  0.27794157942E+02  0.43772001635E+02  0.95812671958E+02  0.00000000000E+00 0. -1.
        -12    1    6    6    0    0 -0.14854815099E+02  0.23708721069E+02  0.24189421736E+01  0.28082383581E+02  0.00000000000E+00 0.  1.
</event>
<event>
12    1  0.8488291E-002  0.2236853E+03  0.7818608E-02  0.1131354E+00
         21   -1    0    0  501  502  0.00000000000E+00  0.00000000000E+00  0.82181119755E+02  0.82181119755E+02  0.00000000000E+00 0. -1.
         21   -1    0    0  502  503 -0.00000000000E+00 -0.00000000000E+00 -0.90743356435E+03  0.90743356435E+03  0.00000000000E+00 0. -1.
         -6    2    1    2    0  503  0.64142600907E+02  0.12796018238E+03 -0.69715743775E+03  0.73184844758E+03  0.17054493745E+03 0.  0.
        -24    2    3    3    0    0  0.64354864344E+02  0.21512136408E+02 -0.44455866980E+03  0.45769619223E+03  0.85141487562E+02 0.  0.
          6    2    1    2  501    0 -0.64142600907E+02 -0.12796018238E+03 -0.12809500685E+03  0.25776623653E+03  0.17189246752E+03 0.  0.
         24    2    5    5    0    0 -0.37915882476E+02 -0.60706294342E+01 -0.89627100098E+02  0.12720294258E+03  0.81689074206E+02 0.  0.
          5    1    5    5  501    0 -0.26226718431E+02 -0.12188955294E+03 -0.38467906753E+02  0.13056329395E+03  0.47000000000E+01 0. -1.
        -13    1    6    6    0    0 -0.27785668311E+02  0.36362403979E+02 -0.54697608062E+02  0.71316871176E+02  0.00000000000E+00 0.  1.
         14    1    6    6    0    0 -0.10130214165E+02 -0.42433033413E+02 -0.34929492036E+02  0.55886071409E+02  0.00000000000E+00 0. -1.
         -5    1    3    3    0  503 -0.21226343668E+00  0.10644804597E+03 -0.25259876794E+03  0.27415225535E+03  0.47000000000E+01 0.  1.
         13    1    4    4    0    0 -0.28856509163E+01  0.38381529258E+02 -0.19047813872E+03  0.19432804764E+03  0.00000000000E+00 0. -1.
        -14    1    4    4    0    0  0.67240515260E+02 -0.16869392850E+02 -0.25408053108E+03  0.26336814459E+03  0.00000000000E+00 0.  1.
</event>
<event>
12    1  0.8488291E-002  0.2402527E+03  0.7818608E-02  0.1121180E+00
         21   -1    0    0  503  502  0.00000000000E+00  0.00000000000E+00  0.29129314062E+02  0.29129314062E+02  0.00000000000E+00 0. -1.
         21   -1    0    0  501  503 -0.00000000000E+00 -0.00000000000E+00 -0.29254033461E+04  0.29254033461E+04  0.00000000000E+00 0.  1.
          6    2    1    2  501    0  0.16182803796E+03 -0.35991494604E+02 -0.23014185098E+04  0.23129919802E+04  0.16100012875E+03 0.  0.
         24    2    3    3    0    0  0.79367871797E+02  0.32396283368E+02 -0.93201704873E+03  0.93939851090E+03  0.80405254315E+02 0.  0.
         -6    2    1    2    0  502 -0.16182803796E+03  0.35991494604E+02 -0.59485552219E+03  0.64154067996E+03  0.17388976453E+03 0.  0.
        -24    2    5    5    0    0 -0.18067784496E+03  0.62472624054E+02 -0.47054152439E+03  0.51296142234E+03  0.71922056554E+02 0.  0.
          5    1    3    3  501    0  0.82460166163E+02 -0.68387777973E+02 -0.13694014611E+04  0.13735934693E+04  0.47000000000E+01 0. -1.
        -13    1    4    4    0    0  0.39641843821E+02  0.20320999542E+02 -0.79455067770E+03  0.79579846585E+03  0.00000000000E+00 0.  1.
         14    1    4    4    0    0  0.39726027977E+02  0.12075283827E+02 -0.13746637102E+03  0.14360004506E+03  0.00000000000E+00 0. -1.
         -5    1    5    5    0  502  0.18849806998E+02 -0.26481129450E+02 -0.12431399780E+03  0.12857925762E+03  0.47000000000E+01 0.  1.
         11    1    6    6    0    0 -0.75357980808E+02  0.11424654510E+02 -0.27213006254E+03  0.28260240435E+03  0.00000000000E+00 0. -1.
        -12    1    6    6    0    0 -0.10531986415E+03  0.51047969544E+02 -0.19841146184E+03  0.23035901799E+03  0.00000000000E+00 0.  1.
</event>
<event>
12    1  0.8488291E-002  0.1911519E+03  0.7818608E-02  0.1157581E+00
         21   -1    0    0  501  502  0.00000000000E+00  0.00000000000E+00  0.85651991909E+02  0.85651991909E+02  0.00000000000E+00 0. -1.
         21   -1    0    0  502  503 -0.00000000000E+00 -0.00000000000E+00 -0.45691754058E+03  0.45691754058E+03  0.00000000000E+00 0.  1.
         -6    2    1    2    0  503  0.80434226445E+02  0.23392567023E+02 -0.25758126001E+03  0.32076025222E+03  0.17182012956E+03 0.  0.
        -24    2    3    3    0    0  0.62456810563E+02 -0.26572811468E+01 -0.26841713216E+03  0.28697729502E+03  0.80001854321E+02 0.  0.
          6    2    1    2  501    0 -0.80434226445E+02 -0.23392567023E+02 -0.11368428866E+03  0.22180928027E+03  0.17105075957E+03 0.  0.
         24    2    5    5    0    0 -0.64389606553E+02 -0.62053921274E+02 -0.13027001918E+03  0.17654001258E+03  0.78736189696E+02 0.  0.
          5    1    5    5  501    0 -0.16044619892E+02  0.38661354251E+02  0.16585730518E+02  0.45269267686E+02  0.47000000000E+01 0. -1.
        -11    1    6    6    0    0  0.12876107229E+02 -0.18695616021E+02 -0.57728608240E+02  0.62031543630E+02  0.00000000000E+00 0.  1.
         12    1    6    6    0    0 -0.77265713782E+02 -0.43358305253E+02 -0.72541410941E+02  0.11450846895E+03  0.00000000000E+00 0. -1.
         -5    1    3    3    0  503  0.17977415882E+02  0.26049848170E+02  0.10835872151E+02  0.33782957193E+02  0.47000000000E+01 0.  1.
         11    1    4    4    0    0  0.41990838099E+02  0.54206920232E+01 -0.42497476837E+02  0.59988748310E+02  0.00000000000E+00 0. -1.
        -12    1    4    4    0    0  0.20465972464E+02 -0.80779731700E+01 -0.22591965532E+03  0.22698854671E+03  0.00000000000E+00 0.  1.
</event>
<event>
12    1  0.8488291E-002  0.1888865E+03  0.7818608E-02  0.1159754E+00
         21   -1    0    0  503  502  0.00000000000E+00  0.00000000000E+00  0.19893458256E+03  0.19893458256E+03  0.00000000000E+00 0.  1.
         21   -1    0    0  501  503 -0.00000000000E+00 -0.00000000000E+00 -0.20326208559E+03  0.20326208559E+03  0.00000000000E+00 0.  1.
          6    2    1    2  501    0  0.47203466436E+02 -0.53387960062E+02 -0.72836986808E+02  0.20244340331E+03  0.17492759466E+03 0.  0.
         24    2    3    3    0    0  0.86800358704E+02 -0.42990291698E+02 -0.92039636325E+02  0.15698070285E+03  0.82396474196E+02 0.  0.
         -6    2    1    2    0  502 -0.47203466436E+02  0.53387960062E+02  0.68509483783E+02  0.19975326484E+03  0.17357815509E+03 0.  0.
        -24    2    5    5    0    0  0.12824444177E+02  0.68611403224E+02  0.84100121843E+02  0.13571998233E+03  0.80467956904E+02 0.  0.
          5    1    3    3  501    0 -0.39596892268E+02 -0.10397668364E+02  0.19202649517E+02  0.45462700461E+02  0.47000000000E+01 0. -1.
        -11    1    4    4    0    0  0.90710756722E+02 -0.50864844972E+02 -0.52544235286E+02  0.11651854145E+03  0.00000000000E+00 0.  1.
         12    1    4    4    0    0 -0.39103980177E+01  0.78745532739E+01 -0.39495401039E+02  0.40462161400E+02  0.00000000000E+00 0. -1.
         -5    1    5    5    0  502 -0.60027910613E+02 -0.15223443162E+02 -0.15590638061E+02  0.64033282513E+02  0.47000000000E+01 0.  1.
         11    1    6    6    0    0  0.23872030756E+02  0.50382627425E+01 -0.57829309363E+01  0.25073895471E+02  0.00000000000E+00 0. -1.
        -12    1    6    6    0    0 -0.11047586578E+02  0.63573140482E+02  0.89883052780E+02  0.11064608686E+03  0.00000000000E+00 0.  1.
</event>
<event>
12    1  0.8488291E-002  0.2662142E+03  0.7818608E-02  0.1104428E+00
         21   -1    0    0  501  502  0.00000000000E+00  0.00000000000E+00  0.24978201868E+03  0.24978201868E+03  0.00000000000E+00 0.  1.
         21   -1    0    0  502  503 -0.00000000000E+00 -0.00000000000E+00 -0.30138182853E+03  0.30138182853E+03  0.00000000000E+00 0.  1.
         -6    2    1    2    0  503 -0.83944046336E+02  0.17561901644E+03 -0.10416627723E+03  0.27980944859E+03  0.17191297902E+03 0.  0.
        -24    2    3    3    0    0 -0.57092449985E+02  0.19743149351E+02 -0.50812604142E+02  0.11281544091E+03  0.80598158649E+02 0.  0.
          6    2    1    2  501    0  0.83944046336E+02 -0.17561901644E+03  0.52566467384E+02  0.27135439862E+03  0.18160763835E+03 0.  0.
         24    2    5    5    0    0  0.53890248435E+02 -0.20158588503E+03  0.38772605013E+02  0.22904754726E+03  0.86130343571E+02 0.  0.
          5    1    5    5  501    0  0.30053797901E+02  0.25966868598E+02  0.13793862371E+02  0.42306851362E+02  0.47000000000E+01 0. -1.
        -13    1    6    6    0    0  0.65284425269E+02 -0.14270902563E+03  0.56045346920E+02  0.16664034053E+03  0.00000000000E+00 0.  1.
         14    1    6    6    0    0 -0.11394176835E+02 -0.58876859405E+02 -0.17272741907E+02  0.62407206732E+02  0.00000000000E+00 0. -1.
         -5    1    3    3    0  503 -0.26851596351E+02  0.15587586709E+03 -0.53353673087E+02  0.16699400767E+03  0.47000000000E+01 0.  1.
         13    1    4    4    0    0  0.18903586450E+02  0.13844492762E+02 -0.52518852328E+01  0.24012452165E+02  0.00000000000E+00 0. -1.
        -14    1    4    4    0    0 -0.75996036435E+02  0.58986565891E+01 -0.45560718909E+02  0.88802988750E+02  0.00000000000E+00 0.  1.
</event>
<event>
12    1  0.8488291E-002  0.4094557E+03  0.7818608E-02  0.1040564E+00
         21   -1    0    0  503  502  0.00000000000E+00  0.00000000000E+00  0.73448039706E+03  0.73448039706E+03  0.00000000000E+00 0.  1.
         21   -1    0    0  501  503 -0.00000000000E+00 -0.00000000000E+00 -0.29798823240E+03  0.29798823240E+03  0.00000000000E+00 0.  1.
          6    2    1    2  501    0  0.35694971286E+03 -0.10016388402E+03  0.46810291396E+03  0.62191184152E+03  0.17380477381E+03 0.  0.
         24    2    3    3    0    0  0.24555266039E+03  0.26748543129E+00  0.31981703191E+03  0.41094607159E+03  0.79357162764E+02 0.  0.
         -6    2    1    2    0  502 -0.35694971286E+03  0.10016388402E+03 -0.31610749296E+02  0.41055678794E+03  0.17352733351E+03 0.  0.
        -24    2    5    5    0    0 -0.12920003934E+03  0.40031355849E+02  0.43358681580E+02  0.16331532640E+03  0.80602487271E+02 0.  0.
          5    1    3    3  501    0  0.11139705247E+03 -0.10043136945E+03  0.14828588205E+03  0.21096576994E+03  0.47000000000E+01 0. -1.
        -11    1    4    4    0    0  0.19879353261E+03 -0.89753784562E+01  0.20062488963E+03  0.28257702024E+03  0.00000000000E+00 0.  1.
         12    1    4    4    0    0  0.46759127773E+02  0.92428638875E+01  0.11919214228E+03  0.12836905135E+03  0.00000000000E+00 0. -1.
         -5    1    5    5    0  502 -0.22774967352E+03  0.60132528174E+02 -0.74969430876E+02  0.24724146153E+03  0.47000000000E+01 0.  1.
         11    1    6    6    0    0 -0.59959702033E+01 -0.17520436165E+02  0.16291567128E+02  0.24664397450E+02  0.00000000000E+00 0. -1.
        -12    1    6    6    0    0 -0.12320406913E+03  0.57551792014E+02  0.27067114452E+02  0.13865092895E+03  0.00000000000E+00 0.  1.
</event>
<event>
12    1  0.8488291E-002  0.2670157E+03  0.7818608E-02  0.1103504E+00
         21   -1    0    0  503  502  0.00000000000E+00  0.00000000000E+00  0.50617928502E+03  0.50617928502E+03  0.00000000000E+00 0.  1.
         21   -1    0    0  501  503 -0.00000000000E+00 -0.00000000000E+00 -0.22665297150E+03  0.22665297150E+03  0.00000000000E+00 0.  1.
          6    2    1    2  501    0 -0.10644687610E+01 -0.20440529269E+03 -0.87488491907E+02  0.28098330868E+03  0.17179850630E+03 0.  0.
         24    2    3    3    0    0 -0.74324494731E+00 -0.12934457343E+03  0.17112859472E+02  0.15215106322E+03  0.78272121410E+02 0.  0.
         -6    2    1    2    0  502  0.10644687610E+01  0.20440529269E+03  0.36701480544E+03  0.45184894784E+03  0.16638794272E+03 0.  0.
        -24    2    5    5    0    0 -0.60153916329E+02  0.14390608566E+03  0.26225398329E+03  0.31618478684E+03  0.82874679701E+02 0.  0.
          5    1    3    3  501    0 -0.32122381365E+00 -0.75060719255E+02 -0.10460135138E+03  0.12883224546E+03  0.47000000000E+01 0. -1.
        -11    1    4    4    0    0 -0.32179824060E+02 -0.73461245486E+02 -0.13112834654E+02  0.81265257629E+02  0.00000000000E+00 0.  1.
         12    1    4    4    0    0  0.31436579113E+02 -0.55883327946E+02  0.30225694127E+02  0.70885805590E+02  0.00000000000E+00 0. -1.
         -5    1    5    5    0  502  0.61218385090E+02  0.60499207023E+02  0.10476082214E+03  0.13566416100E+03  0.47000000000E+01 0.  1.
         13    1    6    6    0    0 -0.51659306322E+02  0.27275255372E+02  0.10581479694E+03  0.12086932918E+03  0.00000000000E+00 0. -1.
        -14    1    6    6    0    0 -0.84946100068E+01  0.11663083029E+03  0.15643918635E+03  0.19531545766E+03  0.00000000000E+00 0.  1.
</event>
<event>
12    1  0.8488291E-002  0.1780716E+03  0.7818608E-02  0.1169714E+00
         21   -1    0    0  501  502  0.00000000000E+00  0.00000000000E+00  0.58532454135E+02  0.58532454135E+02  0.00000000000E+00 0. -1.
         21   -1    0    0  502  503 -0.00000000000E+00 -0.00000000000E+00 -0.64302681847E+03  0.64302681847E+03  0.00000000000E+00 0. -1.
         -6    2    1    2    0  503 -0.44470170086E+02 -0.90207390085E+01 -0.43181788297E+03  0.46709332319E+03  0.17219325991E+03 0.  0.
        -24    2    3    3    0    0 -0.82622069267E+02  0.41956111612E+01 -0.39728023462E+03  0.41375310875E+03  0.80721996371E+02 0.  0.
          6    2    1    2  501    0  0.44470170086E+02  0.90207390085E+01 -0.15267648136E+03  0.23446594941E+03  0.17206162766E+03 0.  0.
         24    2    5    5    0    0  0.33186124549E+02  0.40377518436E+02 -0.17088043576E+03  0.19620302669E+03  0.81017538221E+02 0.  0.
          5    1    5    5  501    0  0.11284045537E+02 -0.31356779427E+02  0.18203954394E+02  0.38262922723E+02  0.47000000000E+01 0. -1.
        -11    1    6    6    0    0  0.54490007170E+02  0.44969689177E+01 -0.98271353194E+02  0.11245729176E+03  0.00000000000E+00 0.  1.
         12    1    6    6    0    0 -0.21303882621E+02  0.35880549518E+02 -0.72609082563E+02  0.83745734931E+02  0.00000000000E+00 0. -1.
         -5    1    3    3    0  503  0.38151899182E+02 -0.13216350170E+02 -0.34537648346E+02  0.53340214438E+02  0.47000000000E+01 0.  1.
         13    1    4    4    0    0 -0.46018058945E+02  0.45068328379E+01 -0.35426925898E+03  0.35727395812E+03  0.00000000000E+00 0. -1.
        -14    1    4    4    0    0 -0.36604010323E+02 -0.31122167667E+00 -0.43010975640E+02  0.56479150633E+02  0.00000000000E+00 0.  1.
</event>
<event>
12    1  0.8488291E-002  0.1865313E+03  0.7818608E-02  0.1163606E+00
         21   -1    0    0  503  502  0.00000000000E+00  0.00000000000E+00  0.12312860716E+03  0.12312860716E+03  0.00000000000E+00 0. -1.
         21   -1    0    0  501  503 -0.00000000000E+00 -0.00000000000E+00 -0.30763382763E+03  0.30763382763E+03  0.00000000000E+00 0. -1.
          6    2    1    2  501    0  0.15813988525E+02  0.76464077620E+02 -0.16564850606E+03  0.24328043244E+03  0.16015337601E+03 0.  0.
         24    2    3    3    0    0  0.66488431557E+01 -0.22597094891E+02 -0.78270838039E+02  0.11078868682E+03  0.74786183392E+02 0.  0.
         -6    2    1    2    0  502 -0.15813988525E+02 -0.76464077620E+02 -0.18856714407E+02  0.18748200235E+03  0.16940214912E+03 0.  0.
        -24    2    5    5    0    0  0.37784424796E+02 -0.73008097085E+02  0.24579142251E+02  0.11824691475E+03  0.81365555466E+02 0.  0.
          5    1    3    3  501    0  0.91651453689E+01  0.99061172511E+02 -0.87377668019E+02  0.13249174562E+03  0.47000000000E+01 0. -1.
        -11    1    4    4    0    0 -0.32354064646E+02  0.12861706920E+01 -0.27772757120E+02  0.42658712735E+02  0.00000000000E+00 0.  1.
         12    1    4    4    0    0  0.39002907801E+02 -0.23883265583E+02 -0.50498080920E+02  0.68129974082E+02  0.00000000000E+00 0. -1.
         -5    1    5    5    0  502 -0.53598413320E+02 -0.34559805354E+01 -0.43435856658E+02  0.69235087604E+02  0.47000000000E+01 0.  1.
         11    1    6    6    0    0 -0.23190438233E+02 -0.57973732976E+01  0.11618088238E+02  0.26577921982E+02  0.00000000000E+00 0. -1.
        -12    1    6    6    0    0  0.60974863029E+02 -0.67210723787E+02  0.12961054014E+02  0.91668992765E+02  0.00000000000E+00 0.  1.
</event>
<event>
12    1  0.8488291E-002  0.2054017E+03  0.7818608E-02  0.1145339E+00
         21   -1    0    0  501  502  0.00000000000E+00  0.00000000000E+00  0.41778139969E+03  0.41778139969E+03  0.00000000000E+00 0. -1.
         21   -1    0    0  502  503 -0.00000000000E+00 -0.00000000000E+00 -0.86094451231E+03  0.86094451231E+03  0.00000000000E+00 0. -1.
         -6    2    1    2    0  503  0.10657626424E+03 -0.37893953767E+02 -0.82237719092E+03  0.84764032278E+03  0.17145092837E+03 0.  0.
        -24    2    3    3    0    0  0.81421534822E+02 -0.55973103393E+02 -0.79791389866E+03  0.80788911235E+03  0.79093448132E+02 0.  0.
          6    2    1    2  501    0 -0.10657626424E+03  0.37893953767E+02  0.37921407830E+03  0.43108558922E+03  0.17098835113E+03 0.  0.
         24    2    5    5    0    0 -0.68529196929E+02 -0.39951129869E+02  0.26837200031E+03  0.29031807652E+03  0.77257435871E+02 0.  0.
          5    1    5    5  501    0 -0.38047067307E+02  0.77845083636E+02  0.11084207799E+03  0.14076751270E+03  0.47000000000E+01 0. -1.
        -13    1    6    6    0    0 -0.10526469541E+02 -0.50053823516E+02  0.14119518723E+03  0.15017414127E+03  0.00000000000E+00 0.  1.
         14    1    6    6    0    0 -0.58002727387E+02  0.10102693647E+02  0.12717681308E+03  0.14014393525E+03  0.00000000000E+00 0. -1.
         -5    1    3    3    0  503  0.25154729414E+02  0.18079149626E+02 -0.24463292255E+02  0.39751210435E+02  0.47000000000E+01 0.  1.
         11    1    4    4    0    0  0.28032102884E+02  0.29403837266E+00 -0.47358485550E+03  0.47441384951E+03  0.00000000000E+00 0. -1.
        -12    1    4    4    0    0  0.53389431937E+02 -0.56267141765E+02 -0.32432904316E+03  0.33347526284E+03  0.00000000000E+00 0.  1.
</event>
<event>
12    1  0.8488291E-002  0.1859072E+03  0.7818608E-02  0.1162358E+00
         21   -1    0    0  503  502  0.00000000000E+00  0.00000000000E+00  0.74178903174E+03  0.74178903174E+03  0.00000000000E+00 0.  1.
         21   -1    0    0  501  503 -0.00000000000E+00 -0.00000000000E+00 -0.14841873259E+03  0.14841873259E+03  0.00000000000E+00 0.  1.
          6    2    1    2  501    0  0.66294687617E+02 -0.14594691955E+02 -0.72126141627E+02  0.19940831652E+03  0.17307081138E+03 0.  0.
         24    2    3    3    0    0  0.68592860052E+02 -0.21299766481E+02  0.18266275010E+02  0.10861669463E+03  0.79405724270E+02 0.  0.
         -6    2    1    2    0  502 -0.66294687617E+02  0.14594691955E+02  0.66549644078E+03  0.69079944781E+03  0.17236697412E+03 0.  0.
        -24    2    5    5    0    0 -0.27751428101E+02  0.74436655243E+02  0.37242922598E+03  0.38917530121E+03  0.80267859695E+02 0.  0.
          5    1    3    3  501    0 -0.22981724352E+01  0.67050745259E+01 -0.90392416637E+02  0.90791621896E+02  0.47000000000E+01 0. -1.
        -11    1    4    4    0    0  0.39393034517E+02 -0.31265195368E+02 -0.24451876397E+02  0.55921533144E+02  0.00000000000E+00 0.  1.
         12    1    4    4    0    0  0.29199825535E+02  0.99654288872E+01  0.42718151407E+02  0.52695161484E+02  0.00000000000E+00 0. -1.
         -5    1    5    5    0  502 -0.38543259516E+02 -0.59841963289E+02  0.29306721480E+03  0.30162414660E+03  0.47000000000E+01 0.  1.
         11    1    6    6    0    0 -0.21088488395E+02  0.12080381400E+02  0.20774057421E+02  0.31972197599E+02  0.00000000000E+00 0. -1.
        -12    1    6    6    0    0 -0.66629397065E+01  0.62356273843E+02  0.35165516856E+03  0.35720310361E+03  0.00000000000E+00 0.  1.
</event>
<event>
12    1  0.8488291E-002  0.2154861E+03  0.7818608E-02  0.1137302E+00
         21   -1    0    0  503  502  0.00000000000E+00  0.00000000000E+00  0.13001512260E+03  0.13001512260E+03  0.00000000000E+00 0.  1.
         21   -1    0    0  501  503 -0.00000000000E+00 -0.00000000000E+00 -0.53592138837E+03  0.53592138837E+03  0.00000000000E+00 0.  1.
          6    2    1    2  501    0 -0.43565030511E+01  0.12953534250E+03 -0.39529089142E+03  0.45018909427E+03  0.17209575151E+03 0.  0.
         24    2    3    3    0    0 -0.64622848179E+02  0.10053696802E+03 -0.22322608182E+03  0.26552364873E+03  0.79932033513E+02 0.  0.
         -6    2    1    2    0  502  0.43565030511E+01 -0.12953534250E+03 -0.10615374347E+02  0.21574741670E+03  0.17215074082E+03 0.  0.
        -24    2    5    5    0    0 -0.33302228883E+02 -0.12440494517E+02  0.20144449737E+02  0.88870940185E+02  0.78920471373E+02 0.  0.
          5    1    3    3  501    0  0.60266345128E+02  0.28998374484E+02 -0.17206480960E+03  0.18466544555E+03  0.47000000000E+01 0. -1.
        -13    1    4    4    0    0 -0.61822586337E+02  0.73361919046E+02 -0.21734755961E+03  0.23757938677E+03  0.00000000000E+00 0.  1.
         14    1    4    4    0    0 -0.28002618418E+01  0.27175048972E+02 -0.58785222111E+01  0.27944261958E+02  0.00000000000E+00 0. -1.
         -5    1    5    5    0  502  0.37658731934E+02 -0.11709484798E+03 -0.30759824085E+02  0.12687647652E+03  0.47000000000E+01 0.  1.
         11    1    6    6    0    0  0.24205190371E+02 -0.23364881726E+01 -0.57657634217E+01  0.24991887598E+02  0.00000000000E+00 0. -1.
        -12    1    6    6    0    0 -0.57507419254E+02 -0.10104006345E+02  0.25910213159E+02  0.63879052587E+02  0.00000000000E+00 0.  1.
</event>
<event>
12    1  0.8488291E-002  0.1895291E+03  0.7818608E-02  0.1159969E+00
         21   -1    0    0  503  502  0.00000000000E+00  0.00000000000E+00  0.52769871502E+03  0.52769871502E+03  0.00000000000E+00 0. -1.
         21   -1    0    0  501  503 -0.00000000000E+00 -0.00000000000E+00 -0.12286354524E+03  0.12286354524E+03  0.00000000000E+00 0. -1.
          6    2    1    2  501    0  0.67864285552E+02 -0.38644567530E+02 -0.16730407740E+02  0.19026614242E+03  0.17269144320E+03 0.  0.
         24    2    3    3    0    0  0.69949581827E+02  0.22624368613E+02 -0.51173049154E+02  0.11979191632E+03  0.79540028941E+02 0.  0.
         -6    2    1    2    0  502 -0.67864285552E+02  0.38644567530E+02  0.42156557752E+03  0.46029611784E+03  0.16749930179E+03 0.  0.
        -24    2    5    5    0    0 -0.60588516654E+02 -0.26408751659E+02  0.34124242192E+03  0.35657162471E+03  0.79552137079E+02 0.  0.
          5    1    3    3  501    0 -0.20852962750E+01 -0.61268936144E+02  0.34442641414E+02  0.70474226099E+02  0.47000000000E+01 0. -1.
        -13    1    4    4    0    0  0.44756480119E+02  0.47434677703E+02 -0.10766955588E+02  0.66099307819E+02  0.00000000000E+00 0.  1.
         14    1    4    4    0    0  0.25193101707E+02 -0.24810309090E+02 -0.40406093566E+02  0.53692608505E+02  0.00000000000E+00 0. -1.
         -5    1    5    5    0  502 -0.72757688984E+01  0.65053319189E+02  0.80323155595E+02  0.10372449313E+03  0.47000000000E+01 0.  1.
         13    1    6    6    0    0  0.32767161523E+01  0.14721173264E+02  0.13830338781E+02  0.20462846376E+02  0.00000000000E+00 0. -1.
        -14    1    6    6    0    0 -0.63865232806E+02 -0.41129924923E+02  0.32741208314E+03  0.33610877833E+03  0.00000000000E+00 0.  1.
</event>
<event>
12    1  0.8488291E-002  0.2325022E+03  0.7818608E-02  0.1125118E+00
         21   -1    0    0  501  502  0.00000000000E+00  0.00000000000E+00  0.25538814402E+03  0.25538814402E+03  0.00000000000E+00 0. -1.
         21   -1    0    0  502  503 -0.00000000000E+00 -0.00000000000E+00 -0.48774024358E+03  0.48774024358E+03  0.00000000000E+00 0. -1.
         -6    2    1    2    0  503  0.10133349501E+03  0.11678311042E+03 -0.39646131043E+03  0.45960728013E+03  0.17363901980E+03 0.  0.
        -24    2    3    3    0    0  0.66498175936E+02  0.13167957313E+03 -0.38516298469E+03  0.41979338532E+03  0.78194911599E+02 0.  0.
          6    2    1    2  501    0 -0.10133349501E+03 -0.11678311042E+03  0.16410921087E+03  0.28352110747E+03  0.17188837425E+03 0.  0.
         24    2    5    5    0    0 -0.39113264307E+02 -0.31748547316E+02  0.80356434867E+01  0.95151039614E+02  0.80320178485E+02 0.  0.
          5    1    5    5  501    0 -0.62220230701E+02 -0.85034563103E+02  0.15607356738E+03  0.18837006786E+03  0.47000000000E+01 0. -1.
        -13    1    6    6    0    0 -0.18235314875E+02 -0.57690190796E+02 -0.14696949243E+01  0.60521441042E+02  0.00000000000E+00 0.  1.
         14    1    6    6    0    0 -0.20877949432E+02  0.25941643480E+02  0.95053384109E+01  0.34629598572E+02  0.00000000000E+00 0. -1.
         -5    1    3    3    0  503  0.34835319071E+02 -0.14896462707E+02 -0.11298325736E+02  0.39813894816E+02  0.47000000000E+01 0.  1.
         13    1    4    4    0    0  0.83311257986E+02  0.94467551725E+02 -0.29883741762E+03  0.32429721893E+03  0.00000000000E+00 0. -1.
        -14    1    4    4    0    0 -0.16813082050E+02  0.37212021401E+02 -0.86325567071E+02  0.95496166389E+02  0.00000000000E+00 0.  1.
</event>
<event>
12    1  0.8488291E-002  0.2508901E+03  0.7818608E-02  0.1112984E+00
         21   -1    0    0  501  502  0.00000000000E+00  0.00000000000E+00  0.19519767622E+03  0.19519767622E+03  0.00000000000E+00 0.  1.
         21   -1    0    0  502  503 -0.00000000000E+00 -0.00000000000E+00 -0.35298886741E+03  0.35298886741E+03  0.00000000000E+00 0. -1.
         -6    2    1    2    0  503  0.17767906692E+03  0.27846917771E+02  0.40158131100E+01  0.25092218910E+03  0.17493003338E+03 0.  0.
        -24    2    3    3    0    0  0.14819455192E+03 -0.33304194258E+02  0.36520219370E+02  0.17550719355E+03  0.79989086713E+02 0.  0.
          6    2    1    2  501    0 -0.17767906692E+03 -0.27846917771E+02 -0.16180700430E+03  0.29726435452E+03  0.17274052268E+03 0.  0.
         24    2    5    5    0    0 -0.17144267556E+03 -0.54531847394E+02 -0.17697600078E+03  0.26559155072E+03  0.82777131997E+02 0.  0.
          5    1    5    5  501    0 -0.62363913595E+01  0.26684929624E+02  0.15168996476E+02  0.31672803796E+02  0.47000000000E+01 0. -1.
        -13    1    6    6    0    0 -0.24074063933E+02 -0.67610291420E+01  0.61270695374E+01  0.25745155863E+02  0.00000000000E+00 0.  1.
         14    1    6    6    0    0 -0.14736861163E+03 -0.47770818252E+02 -0.18310307031E+03  0.23984639486E+03  0.00000000000E+00 0. -1.
         -5    1    3    3    0  503  0.29484515004E+02  0.61151112028E+02 -0.32504406260E+02  0.75414995549E+02  0.47000000000E+01 0.  1.
         11    1    4    4    0    0  0.39808066296E+01  0.91362548361E+01 -0.13762368578E+02  0.16991785155E+02  0.00000000000E+00 0. -1.
        -12    1    4    4    0    0  0.14421374529E+03 -0.42440449094E+02  0.50282587948E+02  0.15851540840E+03  0.00000000000E+00 0.  1.
</event>
<event>
12    1  0.8488291E-002  0.1959918E+03  0.7818608E-02  0.1153364E+00
         21   -1    0    0  501  502  0.00000000000E+00  0.00000000000E+00  0.45206470962E+02  0.45206470962E+02  0.00000000000E+00 0. -1.
         21   -1    0    0  502  503 -0.00000000000E+00 -0.00000000000E+00 -0.15735513924E+04  0.15735513924E+04  0.00000000000E+00 0.  1.
         -6    2    1    2    0  503  0.60089674715E+02 -0.69403963820E+02 -0.13136589413E+04  0.13280641145E+04  0.17212437011E+03 0.  0.
        -24    2    3    3    0    0  0.31271487800E+02 -0.10029240898E+03 -0.66509074180E+03  0.67810459004E+03  0.80272454567E+02 0.  0.
          6    2    1    2  501    0 -0.60089674715E+02  0.69403963820E+02 -0.21468598011E+03  0.29069374890E+03  0.17316208128E+03 0.  0.
         24    2    5    5    0    0  0.37992121447E+02  0.30133124914E+02 -0.97767519078E+02  0.13304142872E+03  0.76092887059E+02 0.  0.
          5    1    5    5  501    0 -0.98081796162E+02  0.39270838906E+02 -0.11691846103E+03  0.15765232017E+03  0.47000000000E+01 0. -1.
        -11    1    6    6    0    0 -0.42742035193E+01 -0.14741069363E+02 -0.57252813257E+02  0.59274383738E+02  0.00000000000E+00 0.  1.
         12    1    6    6    0    0  0.42266324966E+02  0.44874194277E+02 -0.40514705822E+02  0.73767044986E+02  0.00000000000E+00 0. -1.
         -5    1    3    3    0  503  0.28818186915E+02  0.30888445161E+02 -0.64856819953E+03  0.64995952442E+03  0.47000000000E+01 0.  1.
         11    1    4    4    0    0  0.31061515482E+02 -0.50046342289E+01 -0.94173926822E+02  0.99290445668E+02  0.00000000000E+00 0. -1.
        -12    1    4    4    0    0  0.20997231800E+00 -0.95287774752E+02 -0.57091681498E+03  0.57881414438E+03  0.00000000000E+00 0.  1.
</event>
<event>
12    1  0.8488291E-002  0.2415271E+03  0.7818608E-02  0.1120069E+00
         21   -1    0    0  503  502  0.00000000000E+00  0.00000000000E+00  0.37618815598E+03  0.37618815598E+03  0.00000000000E+00 0.  1.
         21   -1    0    0  501  503 -0.00000000000E+00 -0.00000000000E+00 -0.12059273764E+04  0.12059273764E+04  0.00000000000E+00 0.  1.
          6    2    1    2  501    0 -0.41067779048E+02  0.16506703121E+03 -0.11541862916E+04  0.11776390524E+04  0.16048069907E+03 0.  0.
         24    2    3    3    0    0 -0.64718621169E+02  0.14204937045E+03 -0.11004454451E+04  0.11143986885E+04  0.80856266381E+02 0.  0.
         -6    2    1    2    0  502  0.41067779048E+02 -0.16506703121E+03  0.32444707116E+03  0.40447647998E+03  0.17146904562E+03 0.  0.
        -24    2    5    5    0    0  0.69715469017E+02 -0.16190147376E+03  0.32144889242E+03  0.37512022051E+03  0.79457256264E+02 0.  0.
          5    1    3    3  501    0  0.23650842121E+02  0.23017660759E+02 -0.53740846523E+02  0.63240363889E+02  0.47000000000E+01 0. -1.
        -11    1    4    4    0    0 -0.58781992983E+02  0.10947910295E+03 -0.59326754320E+03  0.60614138161E+03  0.00000000000E+00 0.  1.
         12    1    4    4    0    0 -0.59366281862E+01  0.32570267509E+02 -0.50717790185E+03  0.50825730689E+03  0.00000000000E+00 0. -1.
         -5    1    5    5    0  502 -0.28647689969E+02 -0.31655574529E+01  0.29981787461E+01  0.29356259475E+02  0.47000000000E+01 0.  1.
         11    1    6    6    0    0  0.24353473733E+01 -0.38319039676E+02  0.21982939776E+02  0.44243975406E+02  0.00000000000E+00 0. -1.
        -12    1    6    6    0    0  0.67280121644E+02 -0.12358243408E+03  0.29946595264E+03  0.33087624510E+03  0.00000000000E+00 0.  1.
</event>
<event>
12    1  0.8488291E-002  0.1769972E+03  0.7818608E-02  0.1171752E+00
         21   -1    0    0  503  502  0.00000000000E+00  0.00000000000E+00  0.49377654882E+02  0.49377654882E+02  0.00000000000E+00 0.  1.
         21   -1    0    0  501  503 -0.00000000000E+00 -0.00000000000E+00 -0.13496640439E+04  0.13496640439E+04  0.00000000000E+00 0.  1.
          6    2    1    2  501    0  0.41223454296E+02  0.17633784556E+02 -0.11678890525E+04  0.11812251448E+04  0.17122406385E+03 0.  0.
         24    2    3    3    0    0  0.69236813936E+02  0.58577067074E+02 -0.66354303982E+03  0.67442331836E+03  0.79576613797E+02 0.  0.
         -6    2    1    2    0  502 -0.41223454296E+02 -0.17633784556E+02 -0.13239733650E+03  0.21781655404E+03  0.16704691844E+03 0.  0.
        -24    2    5    5    0    0  0.96799748506E-01  0.31481604869E+02 -0.21189402336E+02  0.89329280374E+02  0.80867971073E+02 0.  0.
          5    1    3    3  501    0 -0.28013359640E+02 -0.40943282519E+02 -0.50434601271E+03  0.50680182640E+03  0.47000000000E+01 0. -1.
        -11    1    4    4    0    0  0.65162070155E+02  0.29211762330E+02 -0.60079683535E+03  0.60502583400E+03  0.00000000000E+00 0.  1.
         12    1    4    4    0    0  0.40747437809E+01  0.29365304744E+02 -0.62746204469E+02  0.69397484355E+02  0.00000000000E+00 0. -1.
         -5    1    5    5    0  502 -0.41320254044E+02 -0.49115389425E+02 -0.11120793417E+03  0.12848727367E+03  0.47000000000E+01 0.  1.
         11    1    6    6    0    0  0.28456075982E+01 -0.85712036327E+01 -0.42795141817E+02  0.43737708873E+02  0.00000000000E+00 0. -1.
        -12    1    6    6    0    0 -0.27488078496E+01  0.40052808502E+02  0.21605739481E+02  0.45591571501E+02  0.00000000000E+00 0.  1.
</event>
<event>
12    1  0.8488291E-002  0.1943642E+03  0.7818608E-02  0.1154769E+00
         21   -1    0    0  501  502  0.00000000000E+00  0.00000000000E+00  0.86427662928E+02  0.86427662928E+02  0.00000000000E+00 0. -1.
         21   -1    0    0  502  503 -0.00000000000E+00 -0.00000000000E+00 -0.10853175965E+04  0.10853175965E+04  0.00000000000E+00 0. -1.
         -6    2    1    2    0  503  0.90627884221E+02 -0.41717026594E+01 -0.95332288829E+03  0.97293471148E+03  0.17189126498E+03 0.  0.
        -24    2    3    3    0    0  0.94046920739E+02  0.32996291599E+02 -0.46466008610E+03  0.48282597473E+03  0.85313232817E+02 0.  0.
          6    2    1    2  501    0 -0.90627884221E+02  0.41717026594E+01 -0.45567045308E+02  0.19881054797E+03  0.17093408631E+03 0.  0.
         24    2    5    5    0    0 -0.18383582250E+02 -0.26146017165E+02 -0.72635995558E+02  0.11578512192E+03  0.84312729155E+02 0.  0.
          5    1    5    5  501    0 -0.72244301971E+02  0.30317719824E+02  0.27068950250E+02  0.83025426047E+02  0.47000000000E+01 0. -1.
        -11    1    6    6    0    0 -0.40312420979E+02 -0.45471205606E+02 -0.52334313297E+02  0.80197270357E+02  0.00000000000E+00 0.  1.
         12    1    6    6    0    0  0.21928838729E+02  0.19325188441E+02 -0.20301682262E+02  0.35587851564E+02  0.00000000000E+00 0. -1.
         -5    1    3    3    0  503 -0.34190365175E+01 -0.37167994258E+02 -0.48866280218E+03  0.49010873676E+03  0.47000000000E+01 0.  1.
         11    1    4    4    0    0  0.34140583453E+02  0.30030039697E+02 -0.35442467807E+03  0.35732930910E+03  0.00000000000E+00 0. -1.
        -12    1    4    4    0    0  0.59906337285E+02  0.29662519015E+01 -0.11023540804E+03  0.12549666562E+03  0.00000000000E+00 0.  1.
</event>
<event>
12    1  0.8488291E-002  0.1718816E+03  0.7818608E-02  0.1178348E+00
         21   -1    0    0  503  502  0.00000000000E+00  0.00000000000E+00  0.20459669668E+03  0.20459669668E+03  0.00000000000E+00 0.  1.
         21   -1    0    0  501  503 -0.00000000000E+00 -0.00000000000E+00 -0.24797256881E+03  0.24797256881E+03  0.00000000000E+00 0.  1.
          6    2    1    2  501    0  0.23159947700E+02 -0.58543999803E+01 -0.17288512507E+03  0.23735791538E+03  0.16086906585E+03 0.  0.
         24    2    3    3    0    0 -0.28130528983E+02  0.80793866249E+01 -0.16182065426E+03  0.18286593504E+03  0.79983891518E+02 0.  0.
         -6    2    1    2    0  502 -0.23159947700E+02  0.58543999803E+01  0.12950925293E+03  0.21521135010E+03  0.17021345846E+03 0.  0.
        -24    2    5    5    0    0  0.50864295116E+02 -0.87156234141E+01  0.58467541450E+02  0.11147664580E+03  0.79658336329E+02 0.  0.
          5    1    3    3  501    0  0.51290476683E+02 -0.13933786605E+02 -0.11064470802E+02  0.54491980343E+02  0.47000000000E+01 0. -1.
        -13    1    4    4    0    0 -0.13167445097E+02  0.40784186734E+02 -0.12149384283E+03  0.12883122814E+03  0.00000000000E+00 0.  1.
         14    1    4    4    0    0 -0.14963083886E+02 -0.32704800109E+02 -0.40326811434E+02  0.54034706902E+02  0.00000000000E+00 0. -1.
         -5    1    5    5    0  502 -0.74024242816E+02  0.14570023394E+02  0.71041711482E+02  0.10373470430E+03  0.47000000000E+01 0.  1.
         11    1    6    6    0    0  0.23568079909E+02 -0.88665201039E+01 -0.17558973916E+02  0.30698324618E+02  0.00000000000E+00 0. -1.
        -12    1    6    6    0    0  0.27296215207E+02  0.15089668972E+00  0.76026515366E+02  0.80778321183E+02  0.00000000000E+00 0.  1.
</event>
<event>
12    1  0.8488291E-002  0.1931057E+03  0.7818608E-02  0.1155953E+00
         21   -1    0    0  503  502  0.00000000000E+00  0.00000000000E+00  0.43735917709E+03  0.43735917709E+03  0.00000000000E+00 0. -1.
         21   -1    0    0  501  503 -0.00000000000E+00 -0.00000000000E+00 -0.12536417915E+03  0.12536417915E+03  0.00000000000E+00 0. -1.
          6    2    1    2  501    0 -0.68032795593E+02  0.50191531448E+02 -0.38489342095E+01  0.19314408092E+03  0.17361500682E+03 0.  0.
         24    2    3    3    0    0 -0.24942703014E+02 -0.41498972416E+01 -0.60881190283E+02  0.10323014883E+03  0.79439185650E+02 0.  0.
         -6    2    1    2    0  502  0.68032795593E+02 -0.50191531448E+02  0.31584393215E+03  0.36957927533E+03  0.17228987252E+03 0.  0.
        -24    2    5    5    0    0  0.91049935750E+02 -0.15816131877E+02  0.12805256587E+03  0.17722765957E+03  0.80448386330E+02 0.  0.
          5    1    3    3  501    0 -0.43090092578E+02  0.54341428689E+02  0.57032256073E+02  0.89913932086E+02  0.47000000000E+01 0. -1.
        -13    1    4    4    0    0 -0.31571140472E+02  0.22163943278E+02 -0.65196526861E+02  0.75753312846E+02  0.00000000000E+00 0.  1.
         14    1    4    4    0    0  0.66284374574E+01 -0.26313840519E+02  0.43153365786E+01  0.27476835986E+02  0.00000000000E+00 0. -1.
         -5    1    5    5    0  502 -0.23017140157E+02 -0.34375399571E+02  0.18779136628E+03  0.19235161576E+03  0.47000000000E+01 0.  1.
         11    1    6    6    0    0  0.64318678947E+02  0.11397195396E+02  0.29736730475E+02  0.71770897052E+02  0.00000000000E+00 0. -1.
        -12    1    6    6    0    0  0.26731256804E+02 -0.27213327273E+02  0.98315835390E+02  0.10545676251E+03  0.00000000000E+00 0.  1.
</event>
<event>
12    1  0.8488291E-002  0.2384829E+03  0.7818608E-02  0.1121036E+00
         21   -1    0    0  503  502  0.00000000000E+00  0.00000000000E+00  0.10688368546E+03  0.10688368546E+03  0.00000000000E+00 0. -1.
         21   -1    0    0  501  503 -0.00000000000E+00 -0.00000000000E+00 -0.53585010236E+03  0.53585010236E+03  0.00000000000E+00 0. -1.
          6    2    1    2  501    0 -0.16445105806E+03 -0.14656119261E+02 -0.25116240891E+03  0.34634755551E+03  0.17209044491E+03 0.  0.
         24    2    3    3    0    0 -0.16577474202E+03  0.32530245841E+02 -0.16547802124E+03  0.24840772969E+03  0.76052236441E+02 0.  0.
         -6    2    1    2    0  502  0.16445105806E+03  0.14656119261E+02 -0.17780400800E+03  0.29638623231E+03  0.17021040249E+03 0.  0.
        -24    2    5    5    0    0  0.11319948030E+03  0.57503177574E+02 -0.10836029582E+03  0.19991284847E+03  0.11001116081E+03 0.  0.
          5    1    3    3  501    0  0.13236839668E+01 -0.47186365102E+02 -0.85684387672E+02  0.97939825820E+02  0.47000000000E+01 0. -1.
        -13    1    4    4    0    0 -0.15631924083E+03  0.43809870896E+02 -0.16783356988E+03  0.23350185657E+03  0.00000000000E+00 0.  1.
         14    1    4    4    0    0 -0.94555011917E+01 -0.11279625054E+02  0.23555486366E+01  0.14905873122E+02  0.00000000000E+00 0. -1.
         -5    1    5    5    0  502  0.51251577754E+02 -0.42847058313E+02 -0.69443712180E+02  0.96473383840E+02  0.47000000000E+01 0.  1.
         13    1    6    6    0    0  0.43421029428E+02  0.72388869297E+02 -0.95422270474E+02  0.12740072173E+03  0.00000000000E+00 0. -1.
        -14    1    6    6    0    0  0.69778450876E+02 -0.14885691724E+02 -0.12938025342E+02  0.72512126741E+02  0.00000000000E+00 0.  1.
</event>
<event>
12    1  0.8488291E-002  0.1878057E+03  0.7818608E-02  0.1160627E+00
         21   -1    0    0  503  502  0.00000000000E+00  0.00000000000E+00  0.24271951655E+03  0.24271951655E+03  0.00000000000E+00 0. -1.
         21   -1    0    0  501  503 -0.00000000000E+00 -0.00000000000E+00 -0.25975928323E+03  0.25975928323E+03  0.00000000000E+00 0. -1.
          6    2    1    2  501    0 -0.10639747610E+02  0.75975457466E+02 -0.17569278121E+03  0.25662970865E+03  0.17060298832E+03 0.  0.
         24    2    3    3    0    0 -0.10759663008E+02  0.45954789950E+02 -0.18398740432E+02  0.96427461091E+02  0.82049549271E+02 0.  0.
         -6    2    1    2    0  502  0.10639747610E+02 -0.75975457466E+02  0.15865301453E+03  0.24584909114E+03  0.17142205876E+03 0.  0.
        -24    2    5    5    0    0  0.64988127735E+02 -0.51676648433E+02  0.56330079529E+02  0.12737440368E+03  0.78468006941E+02 0.  0.
          5    1    3    3  501    0  0.11991539814E+00  0.30020667516E+02 -0.15729404078E+03  0.16020224755E+03  0.47000000000E+01 0. -1.
        -11    1    4    4    0    0 -0.22476638044E+01  0.67240814446E+02 -0.39729226722E+00  0.67279543407E+02  0.00000000000E+00 0.  1.
         12    1    4    4    0    0 -0.85119992036E+01 -0.21286024496E+02 -0.18001448165E+02  0.29147917684E+02  0.00000000000E+00 0. -1.
         -5    1    5    5    0  502 -0.54348380125E+02 -0.24298809033E+02  0.10232293500E+03  0.11847468746E+03  0.47000000000E+01 0.  1.
         13    1    6    6    0    0  0.66246931228E+00 -0.25494491049E+01  0.45658021902E+02  0.45733942759E+02  0.00000000000E+00 0. -1.
        -14    1    6    6    0    0  0.64325658423E+02 -0.49127199328E+02  0.10672057627E+02  0.81640460921E+02  0.00000000000E+00 0.  1.
</event>
<event>
12    1  0.8488291E-002  0.2129842E+03  0.7818608E-02  0.1139357E+00
         21   -1    0    0  503  502  0.00000000000E+00  0.00000000000E+00  0.29975446281E+02  0.29975446281E+02  0.00000000000E+00 0. -1.
         21   -1    0    0  501  503 -0.00000000000E+00 -0.00000000000E+00 -0.16700942281E+04  0.16700942281E+04  0.00000000000E+00 0.  1.
          6    2    1    2  501    0 -0.98590867059E+02  0.76619134679E+02 -0.10856794738E+04  0.11063734424E+04  0.17254455458E+03 0.  0.
         24    2    3    3    0    0 -0.12218191122E+03  0.22280909210E+02 -0.64812736192E+03  0.66480451150E+03  0.80443165635E+02 0.  0.
         -6    2    1    2    0  502  0.98590867059E+02 -0.76619134679E+02 -0.55443930805E+03  0.59369623202E+03  0.17170212214E+03 0.  0.
        -24    2    5    5    0    0  0.11599621026E+03 -0.23535123924E+02 -0.48032155081E+03  0.50076405187E+03  0.77761305446E+02 0.  0.
          5    1    3    3  501    0  0.23591044157E+02  0.54338225468E+02 -0.43755211190E+03  0.44156893091E+03  0.47000000000E+01 0. -1.
        -13    1    4    4    0    0 -0.14595966165E+02  0.34131931231E+02 -0.22562422246E+03  0.22865764959E+03  0.00000000000E+00 0.  1.
         14    1    4    4    0    0 -0.10758594505E+03 -0.11851022020E+02 -0.42250313946E+03  0.43614686190E+03  0.00000000000E+00 0. -1.
         -5    1    5    5    0  502 -0.17405343200E+02 -0.53084010754E+02 -0.74117757238E+02  0.92932180151E+02  0.47000000000E+01 0.  1.
         13    1    6    6    0    0  0.11414995350E+03 -0.39488231259E+02 -0.45516018428E+03  0.47091435065E+03  0.00000000000E+00 0. -1.
        -14    1    6    6    0    0  0.18462567581E+01  0.15953107335E+02 -0.25161366527E+02  0.29849701224E+02  0.00000000000E+00 0.  1.
</event>
<event>
12    1  0.8488291E-002  0.2023838E+03  0.7818608E-02  0.1148664E+00
         21   -1    0    0  501  502  0.00000000000E+00  0.00000000000E+00  0.51324850999E+03  0.51324850999E+03  0.00000000000E+00 0.  1.
         21   -1    0    0  502  503 -0.00000000000E+00 -0.00000000000E+00 -0.78829513853E+02  0.78829513853E+02  0.00000000000E+00 0. -1.
         -6    2    1    2    0  503 -0.77439702405E+02  0.66008510634E+02  0.24360253611E+03  0.31392313394E+03  0.16985731494E+03 0.  0.
        -24    2    3    3    0    0 -0.65354878790E+02  0.62355723593E+00  0.22009766265E+03  0.24324213105E+03  0.80324991196E+02 0.  0.
          6    2    1    2  501    0  0.77439702405E+02 -0.66008510634E+02  0.19081646003E+03  0.27815488990E+03  0.17494339192E+03 0.  0.
         24    2    5    5    0    0  0.11133509167E+03 -0.19401784102E+02  0.16201737122E+03  0.21355951943E+03  0.81154839023E+02 0.  0.
          5    1    5    5  501    0 -0.33895389262E+02 -0.46606726532E+02  0.28799088804E+02  0.64595370478E+02  0.47000000000E+01 0. -1.
        -11    1    6    6    0    0  0.80906022144E+02 -0.50174497212E+02  0.10149653622E+03  0.13915750592E+03  0.00000000000E+00 0.  1.
         12    1    6    6    0    0  0.30429069523E+02  0.30772713110E+02  0.60520835002E+02  0.74402013505E+02  0.00000000000E+00 0. -1.
         -5    1    3    3    0  503 -0.12084823615E+02  0.65384953398E+02  0.23504873467E+02  0.70681002889E+02  0.47000000000E+01 0.  1.
         13    1    4    4    0    0 -0.32517639395E+02  0.26476544322E+02  0.38598682134E+02  0.56993530629E+02  0.00000000000E+00 0. -1.
        -14    1    4    4    0    0 -0.32837239395E+02 -0.25852987086E+02  0.18149898051E+03  0.18624860042E+03  0.00000000000E+00 0.  1.
</event>
<event>
12    1  0.8488291E-002  0.2426965E+03  0.7818608E-02  0.1118962E+00
         21   -1    0    0  501  502  0.00000000000E+00  0.00000000000E+00  0.11031911512E+03  0.11031911512E+03  0.00000000000E+00 0.  1.
         21   -1    0    0  502  503 -0.00000000000E+00 -0.00000000000E+00 -0.69940102691E+03  0.69940102691E+03  0.00000000000E+00 0. -1.
         -6    2    1    2    0  503 -0.22461779674E+02 -0.16995839071E+03 -0.49615697609E+03  0.54984206702E+03  0.16359757829E+03 0.  0.
        -24    2    3    3    0    0  0.14782704200E+01 -0.97360058451E+02 -0.15894288903E+03  0.20403999305E+03  0.82995846452E+02 0.  0.
          6    2    1    2  501    0  0.22461779674E+02  0.16995839071E+03 -0.92924935704E+02  0.25987807500E+03  0.17178819538E+03 0.  0.
         24    2    5    5    0    0  0.19839125208E+02  0.14067410323E+03 -0.23966582077E+01  0.16457903599E+03  0.83052518986E+02 0.  0.
          5    1    5    5  501    0  0.26226544660E+01  0.29284287488E+02 -0.90528277497E+02  0.95299039012E+02  0.47000000000E+01 0. -1.
        -11    1    6    6    0    0 -0.23808055241E+02  0.76976349613E+02  0.22134251905E+02  0.83559003114E+02  0.00000000000E+00 0.  1.
         12    1    6    6    0    0  0.43647180449E+02  0.63697753614E+02 -0.24530910113E+02  0.81020032878E+02  0.00000000000E+00 0. -1.
         -5    1    3    3    0  503 -0.23940050094E+02 -0.72598332264E+02 -0.33721408706E+03  0.34580207396E+03  0.47000000000E+01 0.  1.
         11    1    4    4    0    0 -0.25931894444E+02 -0.95029000038E+02 -0.13759205246E+03  0.16921745447E+03  0.00000000000E+00 0. -1.
        -12    1    4    4    0    0  0.27410164864E+02 -0.23310584136E+01 -0.21350836564E+02  0.34822538580E+02  0.00000000000E+00 0.  1.
</event>
<event>
12    1  0.8488291E-002  0.1753426E+03  0.7818608E-02  0.1172920E+00
         21   -1    0    0  503  502  0.00000000000E+00  0.00000000000E+00  0.13612704216E+03  0.13612704216E+03  0.00000000000E+00 0.  1.
         21   -1    0    0  501  503 -0.00000000000E+00 -0.00000000000E+00 -0.48190014852E+03  0.48190014852E+03  0.00000000000E+00 0.  1.
          6    2    1    2  501    0  0.27451264437E+02 -0.11852141464E+02 -0.39980528668E+03  0.43656534074E+03  0.17277437396E+03 0.  0.
         24    2    3    3    0    0  0.59585295597E+02  0.92877371622E+01 -0.37934769500E+03  0.39274646941E+03  0.81905103753E+02 0.  0.
         -6    2    1    2    0  502 -0.27451264437E+02  0.11852141464E+02  0.54032180314E+02  0.18146184994E+03  0.17063083337E+03 0.  0.
        -24    2    5    5    0    0 -0.11014704617E+01  0.73148838509E+02  0.31225227205E+02  0.11079471599E+03  0.77126444649E+02 0.  0.
          5    1    3    3  501    0 -0.32134031161E+02 -0.21139878626E+02 -0.20457591684E+02  0.43818871328E+02  0.47000000000E+01 0. -1.
        -13    1    4    4    0    0  0.50365071990E+01 -0.17571177701E+02 -0.15835272775E+02  0.24184055789E+02  0.00000000000E+00 0.  1.
         14    1    4    4    0    0  0.54548788398E+02  0.26858914863E+02 -0.36351242222E+03  0.36856241362E+03  0.00000000000E+00 0. -1.
         -5    1    5    5    0  502 -0.26349793975E+02 -0.61296697045E+02  0.22806953109E+02  0.70667133954E+02  0.47000000000E+01 0.  1.
         11    1    6    6    0    0 -0.23160435009E+02  0.46962774751E+02 -0.13874864571E+02  0.54170285480E+02  0.00000000000E+00 0. -1.
        -12    1    6    6    0    0  0.22058964547E+02  0.26186063758E+02  0.45100091776E+02  0.56624430507E+02  0.00000000000E+00 0.  1.
</event>
<event>
12    1  0.8488291E-002  0.2497885E+03  0.7818608E-02  0.1113864E+00
         21   -1    0    0  501  502  0.00000000000E+00  0.00000000000E+00  0.26135066159E+03  0.26135066159E+03  0.00000000000E+00 0.  1.
         21   -1    0    0  502  503 -0.00000000000E+00 -0.00000000000E+00 -0.32031062452E+03  0.32031062452E+03  0.00000000000E+00 0.  1.
         -6    2    1    2    0  503  0.13451581296E+03 -0.12074942273E+03 -0.17840184239E+03  0.30478463641E+03  0.16849786407E+03 0.  0.
        -24    2    3    3    0    0  0.14668504129E+03 -0.14055510867E+03 -0.17727254044E+03  0.28104183463E+03  0.79288834700E+02 0.  0.
          6    2    1    2  501    0 -0.13451581296E+03  0.12074942273E+03  0.11944187946E+03  0.27687664971E+03  0.17239312503E+03 0.  0.
         24    2    5    5    0    0 -0.16537969824E+03  0.11806428401E+03  0.10776720862E+03  0.24343749117E+03  0.79739708467E+02 0.  0.
          5    1    5    5  501    0  0.30863885278E+02  0.26851387234E+01  0.11674670834E+02  0.33439158535E+02  0.47000000000E+01 0. -1.
        -11    1    6    6    0    0 -0.11079785994E+03  0.57639120857E+02  0.10297200132E+03  0.16186929009E+03  0.00000000000E+00 0.  1.
         12    1    6    6    0    0 -0.54581838301E+02  0.60425163153E+02  0.47952073054E+01  0.81568201081E+02  0.00000000000E+00 0. -1.
         -5    1    3    3    0  503 -0.12169228330E+02  0.19805685931E+02 -0.11293019492E+01  0.23742801778E+02  0.47000000000E+01 0.  1.
         13    1    4    4    0    0  0.19290946100E+02  0.36539430359E+01 -0.33444918803E+00  0.19636796007E+02  0.00000000000E+00 0. -1.
        -14    1    4    4    0    0  0.12739409519E+03 -0.14420905170E+03 -0.17693809125E+03  0.26140503862E+03  0.00000000000E+00 0.  1.
</event>
<event>
12    1  0.8488291E-002  0.2275854E+03  0.7818608E-02  0.1128709E+00
         21   -1    0    0  503  502  0.00000000000E+00  0.00000000000E+00  0.44902962771E+03  0.44902962771E+03  0.00000000000E+00 0.  1.
         21   -1    0    0  501  503 -0.00000000000E+00 -0.00000000000E+00 -0.12125547756E+03  0.12125547756E+03  0.00000000000E+00 0.  1.
          6    2    1    2  501    0  0.42350925703E+02  0.13998108174E+03  0.95108550048E+02  0.24481870901E+03  0.17176221888E+03 0.  0.
         24    2    3    3    0    0  0.43604642901E+02  0.16686785825E+03  0.10336173177E+03  0.21627618693E+03  0.79658611827E+02 0.  0.
         -6    2    1    2    0  502 -0.42350925703E+02 -0.13998108174E+03  0.23266560009E+03  0.32546639626E+03  0.17437542681E+03 0.  0.
        -24    2    5    5    0    0 -0.31241303176E+02 -0.14848940956E+03  0.11892355487E+03  0.21077045820E+03  0.85183627360E+02 0.  0.
          5    1    3    3  501    0 -0.12537171978E+01 -0.26886776514E+02 -0.82531817184E+01  0.28542522079E+02  0.47000000000E+01 0. -1.
        -13    1    4    4    0    0 -0.12246150812E+02  0.49888659411E+02  0.14605151461E+01  0.51390462656E+02  0.00000000000E+00 0.  1.
         14    1    4    4    0    0  0.55850793713E+02  0.11697919884E+03  0.10190121662E+03  0.16488572427E+03  0.00000000000E+00 0. -1.
         -5    1    5    5    0  502 -0.11109622527E+02  0.85083278262E+01  0.11374204523E+03  0.11469593806E+03  0.47000000000E+01 0.  1.
         11    1    6    6    0    0  0.22890715016E+02 -0.29736862699E+02  0.56292565796E+01  0.37946730647E+02  0.00000000000E+00 0. -1.
        -12    1    6    6    0    0 -0.54132018192E+02 -0.11875254687E+03  0.11329429829E+03  0.17282372755E+03  0.00000000000E+00 0.  1.
</event>
<event>
12    1  0.8488291E-002  0.1980552E+03  0.7818608E-02  0.1151430E+00
         21   -1    0    0  503  502  0.00000000000E+00  0.00000000000E+00  0.10771222137E+03  0.10771222137E+03  0.00000000000E+00 0.  1.
         21   -1    0    0  501  503 -0.00000000000E+00 -0.00000000000E+00 -0.46090230964E+03  0.46090230964E+03  0.00000000000E+00 0.  1.
          6    2    1    2  501    0 -0.75597315227E+02  0.61589471790E+02 -0.46184552233E+02  0.20336877447E+03  0.17238801716E+03 0.  0.
         24    2    3    3    0    0 -0.24568995449E+02 -0.81808299853E+01 -0.74315610317E+02  0.11234553097E+03  0.80175724975E+02 0.  0.
         -6    2    1    2    0  502  0.75597315227E+02 -0.61589471790E+02 -0.30700553604E+03  0.36524575653E+03  0.17217388421E+03 0.  0.
        -24    2    5    5    0    0  0.56698771758E+01  0.27972725155E+02 -0.12787225551E+03  0.15306174228E+03  0.79132561943E+02 0.  0.
          5    1    3    3  501    0 -0.51028319777E+02  0.69770301776E+02  0.28131058083E+02  0.91023243504E+02  0.47000000000E+01 0. -1.
        -11    1    4    4    0    0 -0.37366534557E+01 -0.35183039925E+01  0.17419189935E+02  0.18159549004E+02  0.00000000000E+00 0.  1.
         12    1    4    4    0    0 -0.20832341993E+02 -0.46625259927E+01 -0.91734800252E+02  0.94185981965E+02  0.00000000000E+00 0. -1.
         -5    1    5    5    0  502  0.69927438051E+02 -0.89562196946E+02 -0.17913328053E+03  0.21218401426E+03  0.47000000000E+01 0.  1.
         11    1    6    6    0    0 -0.23123240202E+02 -0.69242152431E+01 -0.88128754423E+01  0.25696220884E+02  0.00000000000E+00 0. -1.
        -12    1    6    6    0    0  0.28793117378E+02  0.34896940399E+02 -0.11905938007E+03  0.12736552139E+03  0.00000000000E+00 0.  1.
</event>
<event>
12    1  0.8488291E-002  0.2151535E+03  0.7818608E-02  0.1137605E+00
         21   -1    0    0  503  502  0.00000000000E+00  0.00000000000E+00  0.68717117218E+03  0.68717117218E+03  0.00000000000E+00 0.  1.
         21   -1    0    0  501  503 -0.00000000000E+00 -0.00000000000E+00 -0.91879197349E+02  0.91879197349E+02  0.00000000000E+00 0. -1.
          6    2    1    2  501    0  0.84427400364E+02  0.98136303426E+02  0.95917093862E+02  0.23529832907E+03  0.17148322013E+03 0.  0.
         24    2    3    3    0    0  0.39064495075E+02  0.89757129906E+02  0.12735812801E+03  0.17927483085E+03  0.79605245188E+02 0.  0.
         -6    2    1    2    0  502 -0.84427400364E+02 -0.98136303426E+02  0.49937488097E+03  0.54375204046E+03  0.17184961384E+03 0.  0.
        -24    2    5    5    0    0 -0.44393241822E+02 -0.10164646937E+03  0.47994792356E+03  0.49886828182E+03  0.78846614557E+02 0.  0.
          5    1    3    3  501    0  0.45362905289E+02  0.83791735194E+01 -0.31441034146E+02  0.56023498224E+02  0.47000000000E+01 0. -1.
        -13    1    4    4    0    0  0.83619742515E+01 -0.11856508440E+02  0.37461022611E+02  0.40172473421E+02  0.00000000000E+00 0.  1.
         14    1    4    4    0    0  0.30702520823E+02  0.10161363835E+03  0.89897105397E+02  0.13910235743E+03  0.00000000000E+00 0. -1.
         -5    1    5    5    0  502 -0.40034158542E+02  0.35101659413E+01  0.19426957415E+02  0.44883758638E+02  0.47000000000E+01 0.  1.
         13    1    6    6    0    0  0.80876385510E+01  0.65819372169E+01  0.94890781146E+02  0.95461993177E+02  0.00000000000E+00 0. -1.
        -14    1    6    6    0    0 -0.52480880373E+02 -0.10822840658E+03  0.38505714241E+03  0.40340628865E+03  0.00000000000E+00 0.  1.
</event>
<event>
12    1  0.8488291E-002  0.3348982E+03  0.7818608E-02  0.1069221E+00
         21   -1    0    0  501  502  0.00000000000E+00  0.00000000000E+00  0.29986481748E+03  0.29986481748E+03  0.00000000000E+00 0. -1.
         21   -1    0    0  502  503 -0.00000000000E+00 -0.00000000000E+00 -0.46029641408E+03  0.46029641408E+03  0.00000000000E+00 0.  1.
         -6    2    1    2    0  503 -0.24460918890E+03 -0.14257073120E+03 -0.24680157123E+03  0.41430498423E+03  0.17486433515E+03 0.  0.
        -24    2    3    3    0    0 -0.46517518663E+02 -0.27365541943E+02 -0.39895781550E+02  0.10552570829E+03  0.81432483052E+02 0.  0.
          6    2    1    2  501    0  0.24460918890E+03  0.14257073120E+03  0.86369974637E+02  0.34585624733E+03  0.17887622147E+03 0.  0.
         24    2    5    5    0    0  0.93945075531E+02  0.36134417024E+02 -0.24105969531E+02  0.13078558854E+03  0.79952480213E+02 0.  0.
          5    1    5    5  501    0  0.15066411337E+03  0.10643631417E+03  0.11047594417E+03  0.21507065879E+03  0.47000000000E+01 0. -1.
        -11    1    6    6    0    0  0.30143777090E+02  0.15774966482E+02  0.29478229131E+02  0.45016251037E+02  0.00000000000E+00 0.  1.
         12    1    6    6    0    0  0.63801298441E+02  0.20359450542E+02 -0.53584198662E+02  0.85769337502E+02  0.00000000000E+00 0. -1.
         -5    1    3    3    0  503 -0.19809167024E+03 -0.11520518925E+03 -0.20690578968E+03  0.30877927594E+03  0.47000000000E+01 0.  1.
         13    1    4    4    0    0 -0.98380380346E+01 -0.52375679802E+02 -0.22395458733E+02  0.57806188241E+02  0.00000000000E+00 0. -1.
        -14    1    4    4    0    0 -0.36679480628E+02  0.25010137859E+02 -0.17500322817E+02  0.47719520048E+02  0.00000000000E+00 0.  1.
</event>
<event>
12    1  0.8488291E-002  0.1759318E+03  0.7818608E-02  0.1172138E+00
         21   -1    0    0  503  502  0.00000000000E+00  0.00000000000E+00  0.44263420280E+02  0.44263420280E+02  0.00000000000E+00 0. -1.
         21   -1    0    0  501  503 -0.00000000000E+00 -0.00000000000E+00 -0.13234460018E+04  0.13234460018E+04  0.00000000000E+00 0.  1.
          6    2    1    2  501    0 -0.30518055824E+02 -0.72960341441E+00 -0.11099503998E+04  0.11235956598E+04  0.17188784911E+03 0.  0.
         24    2    3    3    0    0 -0.46245337865E+02  0.42846024859E+02 -0.98741073050E+03  0.99250697482E+03  0.78203140884E+02 0.  0.
         -6    2    1    2    0  502  0.30518055824E+02  0.72960341441E+00 -0.16923218168E+03  0.24411376223E+03  0.17326313382E+03 0.  0.
        -24    2    5    5    0    0  0.62857945910E+02  0.14238791162E+02 -0.40463302995E+02  0.11057769683E+03  0.80226452059E+02 0.  0.
          5    1    3    3  501    0  0.15727282041E+02 -0.43575628273E+02 -0.12253966934E+03  0.13108868503E+03  0.47000000000E+01 0. -1.
        -13    1    4    4    0    0 -0.36693444631E+01 -0.22144460555E+02 -0.19053816729E+03  0.19185576461E+03  0.00000000000E+00 0.  1.
         14    1    4    4    0    0 -0.42575993402E+02  0.64990485414E+02 -0.79687256321E+03  0.80065121020E+03  0.00000000000E+00 0. -1.
         -5    1    5    5    0  502 -0.32339890086E+02 -0.13509187747E+02 -0.12876887868E+03  0.13353606539E+03  0.47000000000E+01 0.  1.
         11    1    6    6    0    0  0.87576365364E+01  0.14023332066E+02  0.22271307664E+02  0.27737360816E+02  0.00000000000E+00 0. -1.
        -12    1    6    6    0    0  0.54100309374E+02  0.21545909556E+00 -0.62734610659E+02  0.82840336018E+02  0.00000000000E+00 0.  1.
</event>
<event>
12    1  0.8488291E-002  0.1764749E+03  0.7818608E-02  0.1171875E+00
         21   -1    0    0  503  502  0.00000000000E+00  0.00000000000E+00  0.46200203591E+03  0.46200203591E+03  0.00000000000E+00 0.  1.
         21   -1    0    0  501  503 -0.00000000000E+00 -0.00000000000E+00 -0.23725847845E+03  0.23725847845E+03  0.00000000000E+00 0.  1.
          6    2    1    2  501    0 -0.27547895678E+02  0.65871402651E+01 -0.18448378605E+03  0.25360325358E+03  0.17169177597E+03 0.  0.
         24    2    3    3    0    0 -0.39651316109E+02 -0.21129651941E+02 -0.20086807828E+03  0.21888656612E+03  0.74462439478E+02 0.  0.
         -6    2    1    2    0  502  0.27547895678E+02 -0.65871402651E+01  0.40922734351E+03  0.44565726079E+03  0.17418696405E+03 0.  0.
        -24    2    5    5    0    0 -0.21223365043E+02 -0.40270590404E+00  0.88031380117E+02  0.12068676982E+03  0.79782072726E+02 0.  0.
          5    1    3    3  501    0  0.12103420431E+02  0.27716792206E+02  0.16384292232E+02  0.34716687461E+02  0.47000000000E+01 0. -1.
        -13    1    4    4    0    0 -0.16600964921E+02  0.21609179637E+02 -0.13098302202E+03  0.13378752086E+03  0.00000000000E+00 0.  1.
         14    1    4    4    0    0 -0.23050351187E+02 -0.42738831578E+02 -0.69885056266E+02  0.85099045258E+02  0.00000000000E+00 0. -1.
         -5    1    5    5    0  502  0.48771260720E+02 -0.61844343610E+01  0.32119596339E+03  0.32497049097E+03  0.47000000000E+01 0.  1.
         11    1    6    6    0    0 -0.15888251600E+02 -0.39450514512E+02  0.38305725417E+02  0.57237297577E+02  0.00000000000E+00 0. -1.
        -12    1    6    6    0    0 -0.53351134430E+01  0.39047808608E+02  0.49725654699E+02  0.63449472242E+02  0.00000000000E+00 0.  1.
</event>
<event>
12    1  0.8488291E-002  0.2258181E+03  0.7818608E-02  0.1129669E+00
         21   -1    0    0  501  502  0.00000000000E+00  0.00000000000E+00  0.12960923104E+04  0.12960923104E+04  0.00000000000E+00 0. -1.
         21   -1    0    0  502  503 -0.00000000000E+00 -0.00000000000E+00 -0.48666453086E+02  0.48666453086E+02  0.00000000000E+00 0.  1.
         -6    2    1    2    0  503 -0.13872292517E+03 -0.62386836625E+02  0.32898040257E+03  0.39902622875E+03  0.16690613710E+03 0.  0.
        -24    2    3    3    0    0 -0.10136480511E+03  0.23633672293E+02  0.20507274328E+03  0.24355804834E+03  0.80201737475E+02 0.  0.
          6    2    1    2  501    0  0.13872292517E+03  0.62386836625E+02  0.91844545477E+03  0.94573253476E+03  0.16652869592E+03 0.  0.
         24    2    5    5    0    0  0.95983396183E+02  0.34541310618E+02  0.85358198172E+03  0.86308024626E+03  0.76807535448E+02 0.  0.
          5    1    5    5  501    0  0.42739528991E+02  0.27845526008E+02  0.64863473053E+02  0.82652288496E+02  0.47000000000E+01 0. -1.
        -11    1    6    6    0    0 -0.66148172352E+01  0.22860126094E+02  0.19611644545E+03  0.19755505903E+03  0.00000000000E+00 0.  1.
         12    1    6    6    0    0  0.10259821342E+03  0.11681184523E+02  0.65746553627E+03  0.66552518724E+03  0.00000000000E+00 0. -1.
         -5    1    3    3    0  503 -0.37358120064E+02 -0.86020508918E+02  0.12390765929E+03  0.15546818041E+03  0.47000000000E+01 0.  1.
         11    1    4    4    0    0 -0.30820153877E+02  0.94876661417E+00  0.14477681983E+03  0.14802401698E+03  0.00000000000E+00 0. -1.
        -12    1    4    4    0    0 -0.70544651234E+02  0.22684905679E+02  0.60295923453E+02  0.95534031363E+02  0.00000000000E+00 0.  1.
</event>
<event>
12    1  0.8488291E-002  0.2202356E+03  0.7818608E-02  0.1133893E+00
         21   -1    0    0  501  502  0.00000000000E+00  0.00000000000E+00  0.59095144680E+03  0.59095144680E+03  0.00000000000E+00 0. -1.
         21   -1    0    0  502  503 -0.00000000000E+00 -0.00000000000E+00 -0.78095161945E+03  0.78095161945E+03  0.00000000000E+00 0. -1.
         -6    2    1    2    0  503 -0.12746372073E+03 -0.51495618486E+02 -0.74409832350E+03  0.77600645487E+03  0.17206075709E+03 0.  0.
        -24    2    3    3    0    0 -0.51020889527E+00  0.64358843678E+01 -0.25173336942E+03  0.26422662799E+03  0.80027125019E+02 0.  0.
          6    2    1    2  501    0  0.12746372073E+03  0.51495618486E+02  0.55409815085E+03  0.59589661139E+03  0.17078996420E+03 0.  0.
         24    2    5    5    0    0  0.54763632377E+02  0.10060908505E+02  0.11681086617E+03  0.15065016573E+03  0.77138943906E+02 0.  0.
          5    1    5    5  501    0  0.72700088352E+02  0.41434709981E+02  0.43728728468E+03  0.44524644567E+03  0.47000000000E+01 0. -1.
        -13    1    6    6    0    0  0.27240924656E+02 -0.32714361093E+02  0.67524051364E+02  0.79823523541E+02  0.00000000000E+00 0.  1.
         14    1    6    6    0    0  0.27522707721E+02  0.42775269599E+02  0.49286814805E+02  0.70826642185E+02  0.00000000000E+00 0. -1.
         -5    1    3    3    0  503 -0.12695351183E+03 -0.57931502854E+02 -0.49236495408E+03  0.51177982688E+03  0.47000000000E+01 0.  1.
         13    1    4    4    0    0 -0.14011037805E+02 -0.64708593713E+01 -0.24320466279E+03  0.24369384318E+03  0.00000000000E+00 0. -1.
        -14    1    4    4    0    0  0.13500828910E+02  0.12906743739E+02 -0.85287066277E+01  0.20532784807E+02  0.00000000000E+00 0.  1.
</event>
<event>
12    1  0.8488291E-002  0.2226402E+03  0.7818608E-02  0.1132400E+00
         21   -1    0    0  501  502  0.00000000000E+00  0.00000000000E+00  0.14771820997E+04  0.14771820997E+04  0.00000000000E+00 0. -1.
         21   -1    0    0  502  503 -0.00000000000E+00 -0.00000000000E+00 -0.61425073391E+02  0.61425073391E+02  0.00000000000E+00 0.  1.
         -6    2    1    2    0  503 -0.12842879599E+02 -0.13681461039E+03  0.18835215024E+03  0.29162505121E+03  0.17517266003E+03 0.  0.
        -24    2    3    3    0    0  0.56210100865E+02 -0.87403275046E+02  0.14522163744E+03  0.19627241461E+03  0.81453230934E+02 0.  0.
          6    2    1    2  501    0  0.12842879599E+02  0.13681461039E+03  0.12274048761E+04  0.12469821219E+04  0.17192587158E+03 0.  0.
         24    2    5    5    0    0 -0.51150048785E+02  0.11018005590E+03  0.69614056770E+03  0.71119452429E+03  0.80187213347E+02 0.  0.
          5    1    5    5  501    0  0.63992928385E+02  0.26634554485E+02  0.53126430840E+03  0.53578759761E+03  0.47000000000E+01 0. -1.
        -11    1    6    6    0    0 -0.19933022099E+02  0.13297974782E+02  0.35952641991E+02  0.43205948311E+02  0.00000000000E+00 0.  1.
         12    1    6    6    0    0 -0.31217026686E+02  0.96882081120E+02  0.66018792570E+03  0.66798857598E+03  0.00000000000E+00 0. -1.
         -5    1    3    3    0  503 -0.69052980465E+02 -0.49411335341E+02  0.43130512797E+02  0.95352636594E+02  0.47000000000E+01 0.  1.
         11    1    4    4    0    0 -0.83363653779E+01 -0.25517010787E+02  0.83263330717E+02  0.87483684589E+02  0.00000000000E+00 0. -1.
        -12    1    4    4    0    0  0.64546466243E+02 -0.61886264259E+02  0.61958306722E+02  0.10878873002E+03  0.00000000000E+00 0.  1.
</event>
<event>
12    1  0.8488291E-002  0.2375480E+03  0.7818608E-02  0.1121482E+00
         21   -1    0    0  503  502  0.00000000000E+00  0.00000000000E+00  0.89167628982E+02  0.89167628982E+02  0.00000000000E+00 0. -1.
         21   -1    0    0  501  503 -0.00000000000E+00 -0.00000000000E+00 -0.63331141376E+03  0.63331141376E+03  0.00000000000E+00 0.  1.
          6    2    1    2  501    0  0.11030907831E+03  0.12243326219E+03 -0.25661322503E+03  0.34968469514E+03  0.17108782045E+03 0.  0.
         24    2    3    3    0    0  0.90628764515E+02  0.11517495921E+03 -0.27489837375E+03  0.32146352619E+03  0.79314806906E+02 0.  0.
         -6    2    1    2    0  502 -0.11030907831E+03 -0.12243326219E+03 -0.28753055974E+03  0.37279434760E+03  0.17071557154E+03 0.  0.
        -24    2    5    5    0    0  0.64111710297E+01 -0.45856835104E+02 -0.88502302857E+02  0.12964438805E+03  0.82650210532E+02 0.  0.
          5    1    3    3  501    0  0.19680313797E+02  0.72583029827E+01  0.18285148718E+02  0.28221168951E+02  0.47000000000E+01 0. -1.
        -11    1    4    4    0    0 -0.21469739425E+01  0.57174844214E+02 -0.96346525972E+02  0.11205456427E+03  0.00000000000E+00 0.  1.
         12    1    4    4    0    0  0.92775738458E+02  0.58000114992E+02 -0.17855184778E+03  0.20940896192E+03  0.00000000000E+00 0. -1.
         -5    1    5    5    0  502 -0.11672024934E+03 -0.76576427085E+02 -0.19902825688E+03  0.24314995955E+03  0.47000000000E+01 0.  1.
         11    1    6    6    0    0 -0.14270802219E+02  0.17635188987E+02 -0.59259383639E+01  0.23447226532E+02  0.00000000000E+00 0. -1.
        -12    1    6    6    0    0  0.20681973249E+02 -0.63492024090E+02 -0.82576364494E+02  0.10619716151E+03  0.00000000000E+00 0.  1.
</event>
<event>
12    1  0.8488291E-002  0.2040159E+03  0.7818608E-02  0.1146822E+00
         21   -1    0    0  503  502  0.00000000000E+00  0.00000000000E+00  0.37435190207E+03  0.37435190207E+03  0.00000000000E+00 0.  1.
         21   -1    0    0  501  503 -0.00000000000E+00 -0.00000000000E+00 -0.13021721503E+03  0.13021721503E+03  0.00000000000E+00 0.  1.
          6    2    1    2  501    0 -0.34153440001E+02 -0.10160497149E+03  0.22079819388E+03  0.29922286320E+03  0.17115037758E+03 0.  0.
         24    2    3    3    0    0 -0.47617684015E+02 -0.12796961889E+03  0.21698450730E+03  0.26900673002E+03  0.81478078019E+02 0.  0.
         -6    2    1    2    0  502  0.34153440001E+02  0.10160497149E+03  0.23336493163E+02  0.20534625389E+03  0.17358705130E+03 0.  0.
        -24    2    5    5    0    0  0.25975941550E+02  0.14305619447E+03  0.25856168075E+02  0.16276087930E+03  0.68430534775E+02 0.  0.
          5    1    3    3  501    0  0.13464244014E+02  0.26364647397E+02  0.38136865782E+01  0.30216133183E+02  0.47000000000E+01 0. -1.
        -11    1    4    4    0    0 -0.28394441922E+02 -0.81950946592E+02  0.63136950284E+02  0.10727756741E+03  0.00000000000E+00 0.  1.
         12    1    4    4    0    0 -0.19223242093E+02 -0.46018672297E+02  0.15384755702E+03  0.16172916261E+03  0.00000000000E+00 0. -1.
         -5    1    5    5    0  502  0.81774984514E+01 -0.41451222975E+02 -0.25196749121E+01  0.42585374587E+02  0.47000000000E+01 0.  1.
         13    1    6    6    0    0 -0.15871393866E+02  0.58166593520E+02 -0.10825566305E+02  0.61257216969E+02  0.00000000000E+00 0. -1.
        -14    1    6    6    0    0  0.41847335416E+02  0.84889600946E+02  0.36681734379E+02  0.10150366233E+03  0.00000000000E+00 0.  1.
</event>
<event>
12    1  0.8488291E-002  0.1824781E+03  0.7818608E-02  0.1166194E+00
         21   -1    0    0  503  502  0.00000000000E+00  0.00000000000E+00  0.35844242288E+03  0.35844242288E+03  0.00000000000E+00 0. -1.
         21   -1    0    0  501  503 -0.00000000000E+00 -0.00000000000E+00 -0.11553104279E+03  0.11553104279E+03  0.00000000000E+00 0. -1.
          6    2    1    2  501    0 -0.45056064298E+02  0.22302858428E+02  0.13720427327E+02  0.18299315753E+03  0.17541601738E+03 0.  0.
         24    2    3    3    0    0 -0.87654959075E+02 -0.19662407686E+02  0.23097169850E+02  0.12228267494E+03  0.79684196726E+02 0.  0.
         -6    2    1    2    0  502  0.45056064298E+02 -0.22302858428E+02  0.22919095276E+03  0.29098030814E+03  0.17208596827E+03 0.  0.
        -24    2    5    5    0    0  0.88548177981E+02 -0.47430345384E+02  0.17296602240E+03  0.21544033629E+03  0.80042964146E+02 0.  0.
          5    1    3    3  501    0  0.42598894777E+02  0.41965266114E+02 -0.93767425230E+01  0.60710482592E+02  0.47000000000E+01 0. -1.
        -13    1    4    4    0    0  0.43476279132E+01 -0.21966874399E+02  0.20275010573E+02  0.30207970688E+02  0.00000000000E+00 0.  1.
         14    1    4    4    0    0 -0.92002586988E+02  0.23044667136E+01  0.28221592773E+01  0.92074704248E+02  0.00000000000E+00 0. -1.
         -5    1    5    5    0  502 -0.43492113683E+02  0.25127486956E+02  0.56224930365E+02  0.75539971855E+02  0.47000000000E+01 0.  1.
         11    1    6    6    0    0  0.94706001561E+02 -0.25075017972E+02  0.16305454943E+03  0.19022294643E+03  0.00000000000E+00 0. -1.
        -12    1    6    6    0    0 -0.61578235797E+01 -0.22355327412E+02  0.99114729650E+01  0.25217389859E+02  0.00000000000E+00 0.  1.
</event>
<event>
12    1  0.8488291E-002  0.1892319E+03  0.7818608E-02  0.1159240E+00
         21   -1    0    0  501  502  0.00000000000E+00  0.00000000000E+00  0.20009663735E+03  0.20009663735E+03  0.00000000000E+00 0.  1.
         21   -1    0    0  502  503 -0.00000000000E+00 -0.00000000000E+00 -0.20121345756E+03  0.20121345756E+03  0.00000000000E+00 0.  1.
         -6    2    1    2    0  503  0.60256414685E+02 -0.50469415277E+02 -0.67816621942E+02  0.20101689142E+03  0.17213569947E+03 0.  0.
        -24    2    3    3    0    0 -0.30349592256E+02 -0.49904881315E+02 -0.35604612313E+02  0.10473880068E+03  0.79315402160E+02 0.  0.
          6    2    1    2  501    0 -0.60256414685E+02  0.50469415277E+02  0.66699801731E+02  0.20029320350E+03  0.17172800129E+03 0.  0.
         24    2    5    5    0    0  0.13345731189E+02  0.30230983646E+02  0.86240153177E+02  0.12135787980E+03  0.78729600897E+02 0.  0.
          5    1    5    5  501    0 -0.73602145874E+02  0.20238431631E+02 -0.19540351446E+02  0.78935323694E+02  0.47000000000E+01 0. -1.
        -11    1    6    6    0    0 -0.22506462558E+02  0.20592189154E+02  0.77400047689E+02  0.83194630195E+02  0.00000000000E+00 0.  1.
         12    1    6    6    0    0  0.35852193747E+02  0.96387944917E+01  0.88401054885E+01  0.38163249609E+02  0.00000000000E+00 0. -1.
         -5    1    3    3    0  503  0.90606006941E+02 -0.56453396174E+00 -0.32212009629E+02  0.96278090741E+02  0.47000000000E+01 0.  1.
         11    1    4    4    0    0 -0.37884353424E+02 -0.40885730602E+02 -0.57379111398E+02  0.79995185017E+02  0.00000000000E+00 0. -1.
        -12    1    4    4    0    0  0.75347611681E+01 -0.90191507135E+01  0.21774499084E+02  0.24743615658E+02  0.00000000000E+00 0.  1.
</event>
<event>
12    1  0.8488291E-002  0.2005993E+03  0.7818608E-02  0.1149491E+00
         21   -1    0    0  501  502  0.00000000000E+00  0.00000000000E+00  0.18579514705E+03  0.18579514705E+03  0.00000000000E+00 0.  1.
         21   -1    0    0  502  503 -0.00000000000E+00 -0.00000000000E+00 -0.30995382973E+03  0.30995382973E+03  0.00000000000E+00 0.  1.
         -6    2    1    2    0  503 -0.98008005021E+02  0.19339698943E+02 -0.19920934500E+03  0.28270912865E+03  0.17395544051E+03 0.  0.
        -24    2    3    3    0    0 -0.12378882925E+03 -0.14970678286E+02 -0.11174530720E+03  0.18516990171E+03  0.79076440002E+02 0.  0.
          6    2    1    2  501    0  0.98008005021E+02 -0.19339698943E+02  0.75050662320E+02  0.21303984814E+03  0.17255080984E+03 0.  0.
         24    2    5    5    0    0  0.55708080368E+02 -0.47140537064E+02  0.10729918868E+03  0.15283828937E+03  0.80751509923E+02 0.  0.
          5    1    5    5  501    0  0.42299924653E+02  0.27800838121E+02 -0.32248526357E+02  0.60201558768E+02  0.47000000000E+01 0. -1.
        -11    1    6    6    0    0  0.71692794436E+02 -0.19637067001E+02  0.89651916046E+02  0.11646002415E+03  0.00000000000E+00 0.  1.
         12    1    6    6    0    0 -0.15984714068E+02 -0.27503470062E+02  0.17647272631E+02  0.36378265223E+02  0.00000000000E+00 0. -1.
         -5    1    3    3    0  503  0.25780824226E+02  0.34310377229E+02 -0.87464037802E+02  0.97539226939E+02  0.47000000000E+01 0.  1.
         11    1    4    4    0    0 -0.11211896588E+01 -0.21553929274E+02 -0.43872948707E+01  0.22024470248E+02  0.00000000000E+00 0. -1.
        -12    1    4    4    0    0 -0.12266763959E+03  0.65832509886E+01 -0.10735801233E+03  0.16314543146E+03  0.00000000000E+00 0.  1.
</event>
<event>
12    1  0.8488291E-002  0.2749994E+03  0.7818608E-02  0.1098500E+00
         21   -1    0    0  503  502  0.00000000000E+00  0.00000000000E+00  0.13592902351E+03  0.13592902351E+03  0.00000000000E+00 0.  1.
         21   -1    0    0  501  503 -0.00000000000E+00 -0.00000000000E+00 -0.57132461917E+03  0.57132461917E+03  0.00000000000E+00 0.  1.
          6    2    1    2  501    0  0.27868887061E+02  0.21225427111E+03 -0.27638967722E+03  0.38989219332E+03  0.17261552151E+03 0.  0.
         24    2    3    3    0    0 -0.19156904096E+02  0.13352585849E+03 -0.24936466039E+03  0.29417370230E+03  0.78481153250E+02 0.  0.
         -6    2    1    2    0  502 -0.27868887061E+02 -0.21225427111E+03 -0.15900591844E+03  0.31736144937E+03  0.17206643187E+03 0.  0.
        -24    2    5    5    0    0 -0.64822056669E+02 -0.21399731412E+03 -0.13503031903E+03  0.27302755364E+03  0.79461364895E+02 0.  0.
          5    1    3    3  501    0  0.47025791157E+02  0.78728412623E+02 -0.27025016834E+02  0.95718491019E+02  0.47000000000E+01 0. -1.
        -13    1    4    4    0    0 -0.15201491106E+02  0.82251434749E+02 -0.74868532443E+02  0.11225720912E+03  0.00000000000E+00 0.  1.
         14    1    4    4    0    0 -0.39554129901E+01  0.51274423737E+02 -0.17449612795E+03  0.18191649318E+03  0.00000000000E+00 0. -1.
         -5    1    5    5    0  502  0.36953169609E+02  0.17430430065E+01 -0.23975599405E+02  0.44333895722E+02  0.47000000000E+01 0.  1.
         11    1    6    6    0    0  0.32058905550E+00 -0.15107717296E+01 -0.24975494781E+02  0.25023200198E+02  0.00000000000E+00 0. -1.
        -12    1    6    6    0    0 -0.65142645725E+02 -0.21248654239E+03 -0.11005482425E+03  0.24800435345E+03  0.00000000000E+00 0.  1.
</event>
<event>
12    1  0.8488291E-002  0.2363873E+03  0.7818608E-02  0.1122306E+00
         21   -1    0    0  503  502  0.00000000000E+00  0.00000000000E+00  0.40124853359E+03  0.40124853359E+03  0.00000000000E+00 0. -1.
         21   -1    0    0  501  503 -0.00000000000E+00 -0.00000000000E+00 -0.14220950697E+03  0.14220950697E+03  0.00000000000E+00 0. -1.
          6    2    1    2  501    0 -0.97193274155E+02 -0.12909738791E+03  0.88665748040E+02  0.25246893841E+03  0.17252907547E+03 0.  0.
         24    2    3    3    0    0  0.21870817402E+00 -0.28270322105E+02 -0.25592938211E+01  0.85139055361E+02  0.80267364586E+02 0.  0.
         -6    2    1    2    0  502  0.97193274155E+02  0.12909738791E+03  0.17037327858E+03  0.29098910215E+03  0.17185731120E+03 0.  0.
        -24    2    5    5    0    0  0.79773008951E+02  0.74403173245E+02  0.18741566761E+03  0.23092700278E+03  0.79391958033E+02 0.  0.
          5    1    3    3  501    0 -0.97411982329E+02 -0.10082706580E+03  0.91225041861E+02  0.16732988305E+03  0.47000000000E+01 0. -1.
        -11    1    4    4    0    0  0.25134451764E+02 -0.10642254215E+02  0.29967706234E+02  0.40534696955E+02  0.00000000000E+00 0.  1.
         12    1    4    4    0    0 -0.24915743590E+02 -0.17628067891E+02 -0.32527000055E+02  0.44604358406E+02  0.00000000000E+00 0. -1.
         -5    1    5    5    0  502  0.17420265204E+02  0.54694214660E+02 -0.17042389031E+02  0.60062099372E+02  0.47000000000E+01 0.  1.
         11    1    6    6    0    0  0.40911188452E+02  0.36775021789E+02  0.16214352383E+03  0.17122105563E+03  0.00000000000E+00 0. -1.
        -12    1    6    6    0    0  0.38861820498E+02  0.37628151456E+02  0.25272143778E+02  0.59705947155E+02  0.00000000000E+00 0.  1.
</event>
<event>
12    1  0.8488291E-002  0.1871872E+03  0.7818608E-02  0.1161493E+00
         21   -1    0    0  503  502  0.00000000000E+00  0.00000000000E+00  0.10610472458E+04  0.10610472458E+04  0.00000000000E+00 0.  1.
         21   -1    0    0  501  503 -0.00000000000E+00 -0.00000000000E+00 -0.36723930889E+03  0.36723930889E+03  0.00000000000E+00 0.  1.
          6    2    1    2  501    0  0.17220692019E+02 -0.68539087450E+02 -0.33490634724E+03  0.38268045037E+03  0.17113709981E+03 0.  0.
         24    2    3    3    0    0 -0.28396466628E+01 -0.10960527788E+03 -0.21763101722E+03  0.25672632294E+03  0.80769825452E+02 0.  0.
         -6    2    1    2    0  502 -0.17220692019E+02  0.68539087450E+02  0.10287142842E+04  0.10456061043E+04  0.17333461350E+03 0.  0.
        -24    2    5    5    0    0 -0.19901524324E+02  0.19006422453E+02  0.29307881991E+03  0.30828507654E+03  0.91581542742E+02 0.  0.
          5    1    3    3  501    0  0.20060338681E+02  0.41066190431E+02 -0.11727533002E+03  0.12595412742E+03  0.47000000000E+01 0. -1.
        -13    1    4    4    0    0  0.17305556076E+02 -0.12186421272E+02 -0.10208526910E+03  0.10425638254E+03  0.00000000000E+00 0.  1.
         14    1    4    4    0    0 -0.20145202739E+02 -0.97418856609E+02 -0.11554574812E+03  0.15246994040E+03  0.00000000000E+00 0. -1.
         -5    1    5    5    0  502  0.26808323056E+01  0.49532664996E+02  0.73563546426E+03  0.73732102780E+03  0.47000000000E+01 0.  1.
         13    1    6    6    0    0  0.25720816716E+02 -0.21553800059E+02  0.83323210031E+02  0.89826967217E+02  0.00000000000E+00 0. -1.
        -14    1    6    6    0    0 -0.45622341040E+02  0.40560222512E+02  0.20975560988E+03  0.21845810932E+03  0.00000000000E+00 0.  1.
</event>
<event>
12    1  0.8488291E-002  0.2611681E+03  0.7818608E-02  0.1106566E+00
         21   -1    0    0  503  502  0.00000000000E+00  0.00000000000E+00  0.13148934203E+03  0.13148934203E+03  0.00000000000E+00 0. -1.
         21   -1    0    0  501  503 -0.00000000000E+00 -0.00000000000E+00 -0.64920603571E+03  0.64920603571E+03  0.00000000000E+00 0.  1.
          6    2    1    2  501    0  0.16795451772E+03  0.10126639663E+03 -0.83106372338E+02  0.27407199479E+03  0.17246792773E+03 0.  0.
         24    2    3    3    0    0  0.52104056162E+02 -0.17108322174E+02 -0.26960698233E+02  0.99119629229E+02  0.78040337603E+02 0.  0.
         -6    2    1    2    0  502 -0.16795451772E+03 -0.10126639663E+03 -0.43461032134E+03  0.50662338295E+03  0.17122358959E+03 0.  0.
        -24    2    5    5    0    0 -0.95522936830E+02 -0.11351848430E+03 -0.20410931574E+03  0.26465385771E+03  0.79812116200E+02 0.  0.
          5    1    3    3  501    0  0.11585046156E+03  0.11837471880E+03 -0.56145674105E+02  0.17495236556E+03  0.47000000000E+01 0. -1.
        -13    1    4    4    0    0 -0.38023408179E+01 -0.29074041155E+02 -0.29891552089E+02  0.41871978113E+02  0.00000000000E+00 0.  1.
         14    1    4    4    0    0  0.55906396980E+02  0.11965718981E+02  0.29308538565E+01  0.57247651116E+02  0.00000000000E+00 0. -1.
         -5    1    5    5    0  502 -0.72431580893E+02  0.12252087672E+02 -0.23050100560E+03  0.24196952524E+03  0.47000000000E+01 0.  1.
         13    1    6    6    0    0 -0.47740612959E+02 -0.40542282967E+02 -0.28997719761E+02  0.69019639127E+02  0.00000000000E+00 0. -1.
        -14    1    6    6    0    0 -0.47782323871E+02 -0.72976201333E+02 -0.17511159598E+03  0.19563421859E+03  0.00000000000E+00 0.  1.
</event>
<event>
12    1  0.8488291E-002  0.2101986E+03  0.7818608E-02  0.1141610E+00
         21   -1    0    0  501  502  0.00000000000E+00  0.00000000000E+00  0.19121708040E+03  0.19121708040E+03  0.00000000000E+00 0. -1.
         21   -1    0    0  502  503 -0.00000000000E+00 -0.00000000000E+00 -0.97156420805E+03  0.97156420805E+03  0.00000000000E+00 0.  1.
         -6    2    1    2    0  503  0.40274685141E+02  0.11207882363E+03 -0.89789989359E+03  0.92194501063E+03  0.17197287796E+03 0.  0.
        -24    2    3    3    0    0  0.71441313543E+01 -0.67647526492E+01 -0.46215444637E+03  0.46904588942E+03  0.79501657820E+02 0.  0.
          6    2    1    2  501    0 -0.40274685141E+02 -0.11207882363E+03  0.11755276593E+03  0.24083627781E+03  0.17320435030E+03 0.  0.
         24    2    5    5    0    0 -0.29517754015E+02  0.71659787393E+01  0.26919263839E+02  0.90597946612E+02  0.80998099430E+02 0.  0.
          5    1    5    5  501    0 -0.10756931126E+02 -0.11924480237E+03  0.90633502095E+02  0.15023833120E+03  0.47000000000E+01 0. -1.
        -13    1    6    6    0    0 -0.44626868314E+02  0.26451180429E+02 -0.29570437882E+01  0.51961201194E+02  0.00000000000E+00 0.  1.
         14    1    6    6    0    0  0.15109114298E+02 -0.19285201689E+02  0.29876307627E+02  0.38636745418E+02  0.00000000000E+00 0. -1.
         -5    1    3    3    0  503  0.33130553787E+02  0.11884357628E+03 -0.43574544722E+03  0.45289912121E+03  0.47000000000E+01 0.  1.
         13    1    4    4    0    0  0.19806423795E+02 -0.42333920076E+00 -0.26127442630E+02  0.32788975251E+02  0.00000000000E+00 0. -1.
        -14    1    4    4    0    0 -0.12662292441E+02 -0.63414134484E+01 -0.43602700374E+03  0.43625691417E+03  0.00000000000E+00 0.  1.
</event>
<event>
12    1  0.8488291E-002  0.3696465E+03  0.7818608E-02  0.1054842E+00
         21   -1    0    0  501  502  0.00000000000E+00  0.00000000000E+00  0.62689856715E+03  0.62689856715E+03  0.00000000000E+00 0. -1.
         21   -1    0    0  502  503 -0.00000000000E+00 -0.00000000000E+00 -0.22129866367E+03  0.22129866367E+03  0.00000000000E+00 0. -1.
         -6    2    1    2    0  503  0.32642717863E+03  0.73778718961E+01  0.25553368237E+03  0.44925058235E+03  0.17297250351E+03 0.  0.
        -24    2    3    3    0    0  0.41606586003E+02 -0.20078283721E+02  0.33022729204E+02  0.86745651695E+02  0.65574857743E+02 0.  0.
          6    2    1    2  501    0 -0.32642717863E+03 -0.73778718961E+01  0.15006622110E+03  0.39894664847E+03  0.17328999298E+03 0.  0.
         24    2    5    5    0    0 -0.14422868526E+03  0.54117442708E+02  0.44696437950E+02  0.17962303847E+03  0.80845860282E+02 0.  0.
          5    1    5    5  501    0 -0.18219849337E+03 -0.61495314604E+02  0.10536978315E+03  0.21932361000E+03  0.47000000000E+01 0. -1.
        -11    1    6    6    0    0 -0.27828788961E+02  0.17554535762E+02 -0.22951181821E+02  0.40116828985E+02  0.00000000000E+00 0.  1.
         12    1    6    6    0    0 -0.11639989630E+03  0.36562906946E+02  0.67647619770E+02  0.13950620948E+03  0.00000000000E+00 0. -1.
         -5    1    3    3    0  503  0.28482059263E+03  0.27456155617E+02  0.22251095317E+03  0.36250493065E+03  0.47000000000E+01 0.  1.
         13    1    4    4    0    0  0.55084425170E+02 -0.11209219112E+02  0.40178325940E+02  0.69095863586E+02  0.00000000000E+00 0. -1.
        -14    1    4    4    0    0 -0.13477839167E+02 -0.88690646088E+01 -0.71555967363E+01  0.17649788109E+02  0.00000000000E+00 0.  1.
</event>
<event>
12    1  0.8488291E-002  0.2627676E+03  0.7818608E-02  0.1106232E+00
         21   -1    0    0  501  502  0.00000000000E+00  0.00000000000E+00  0.18549557943E+03  0.18549557943E+03  0.00000000000E+00 0.  1.
         21   -1    0    0  502  503 -0.00000000000E+00 -0.00000000000E+00 -0.14645836742E+04  0.14645836742E+04  0.00000000000E+00 0. -1.
         -6    2    1    2    0  503  0.49131338948E+02 -0.18606209064E+03 -0.13528149242E+04  0.13771645102E+04  0.17158344622E+03 0.  0.
        -24    2    3    3    0    0  0.33926354224E+02 -0.49577403834E+02 -0.85178635456E+03  0.85763493561E+03  0.79929797217E+02 0.  0.
          6    2    1    2  501    0 -0.49131338948E+02  0.18606209064E+03  0.73726829456E+02  0.27291474340E+03  0.17892406697E+03 0.  0.
         24    2    5    5    0    0 -0.88627993586E+02  0.10263459782E+03  0.86227897214E+02  0.17964899952E+03  0.80310216374E+02 0.  0.
          5    1    5    5  501    0  0.39496654638E+02  0.83427492824E+02 -0.12501067758E+02  0.93265743880E+02  0.47000000000E+01 0. -1.
        -11    1    6    6    0    0  0.53527040309E+01  0.43261815026E+02  0.96094044840E+01  0.44638287762E+02  0.00000000000E+00 0.  1.
         12    1    6    6    0    0 -0.93980697617E+02  0.59372782791E+02  0.76618492730E+02  0.13501071176E+03  0.00000000000E+00 0. -1.
         -5    1    3    3    0  503  0.15204984723E+02 -0.13648468681E+03 -0.50102856967E+03  0.51952957464E+03  0.47000000000E+01 0. -1.
         13    1    4    4    0    0  0.18114017353E+02 -0.24449829058E+02 -0.85144901760E+02  0.90418836873E+02  0.00000000000E+00 0. -1.
        -14    1    4    4    0    0  0.15812336871E+02 -0.25127574776E+02 -0.76664145280E+03  0.76721609874E+03  0.00000000000E+00 0.  1.
</event>
<event>
12    1  0.8488291E-002  0.2084231E+03  0.7818608E-02  0.1142920E+00
         21   -1    0    0  501  502  0.00000000000E+00  0.00000000000E+00  0.22574628673E+03  0.22574628673E+03  0.00000000000E+00 0.  1.
         21   -1    0    0  502  503 -0.00000000000E+00 -0.00000000000E+00 -0.19205079442E+03  0.19205079442E+03  0.00000000000E+00 0. -1.
         -6    2    1    2    0  503 -0.11792466887E+03  0.63276022056E+01  0.21047563698E+02  0.20899055880E+03  0.17113675132E+03 0.  0.
        -24    2    3    3    0    0 -0.80511194076E+02 -0.53150034809E+02  0.48860110262E+02  0.13327408010E+03  0.77895388046E+02 0.  0.
          6    2    1    2  501    0  0.11792466887E+03 -0.63276022056E+01  0.12647928619E+02  0.20880652235E+03  0.17173796203E+03 0.  0.
         24    2    5    5    0    0  0.96776385635E+02 -0.67018589419E+02  0.21605021971E+02  0.14374527940E+03  0.79616381682E+02 0.  0.
          5    1    5    5  501    0  0.21148283235E+02  0.60690987213E+02 -0.89570933519E+01  0.65061242948E+02  0.47000000000E+01 0. -1.
        -13    1    6    6    0    0  0.19261122862E+02 -0.46194156985E+02  0.36715057108E+02  0.62071623242E+02  0.00000000000E+00 0.  1.
         14    1    6    6    0    0  0.77515262773E+02 -0.20824432434E+02 -0.15110035136E+02  0.81673656161E+02  0.00000000000E+00 0. -1.
         -5    1    3    3    0  503 -0.37413474794E+02  0.59477637014E+02 -0.27812546564E+02  0.75716478704E+02  0.47000000000E+01 0.  1.
         11    1    4    4    0    0 -0.57223748561E+02  0.75525532585E+01  0.13553815544E+02  0.59290002327E+02  0.00000000000E+00 0. -1.
        -12    1    4    4    0    0 -0.23287445515E+02 -0.60702588067E+02  0.35306294718E+02  0.73984077770E+02  0.00000000000E+00 0.  1.
</event>
<event>
12    1  0.8488291E-002  0.3389331E+03  0.7818608E-02  0.1067275E+00
         21   -1    0    0  501  502  0.00000000000E+00  0.00000000000E+00  0.34053471650E+03  0.34053471650E+03  0.00000000000E+00 0. -1.
         21   -1    0    0  502  503 -0.00000000000E+00 -0.00000000000E+00 -0.41041113468E+03  0.41041113468E+03  0.00000000000E+00 0.  1.
         -6    2    1    2    0  503 -0.13834966255E+03 -0.25688303623E+03 -0.19362258277E+03  0.39034002918E+03  0.17247060732E+03 0.  0.
        -24    2    3    3    0    0 -0.62705661601E+02 -0.83967886051E+02 -0.18801037463E+02  0.13303412807E+03  0.79762110910E+02 0.  0.
          6    2    1    2  501    0  0.13834966255E+03  0.25688303623E+03  0.12374616459E+03  0.36060582200E+03  0.17202884112E+03 0.  0.
         24    2    5    5    0    0  0.12706813433E+02  0.86620654815E+02  0.12037011312E+01  0.11603650787E+03  0.76147365777E+02 0.  0.
          5    1    5    5  501    0  0.12564284912E+03  0.17026238142E+03  0.12254246346E+03  0.24456931413E+03  0.47000000000E+01 0. -1.
        -11    1    6    6    0    0  0.43625596464E+01  0.57850939213E+02  0.37420568580E+02  0.69036671757E+02  0.00000000000E+00 0.  1.
         12    1    6    6    0    0  0.83442537862E+01  0.28769715602E+02 -0.36216867449E+02  0.46999836116E+02  0.00000000000E+00 0. -1.
         -5    1    3    3    0  503 -0.75644000951E+02 -0.17291515018E+03 -0.17482154530E+03  0.25730590111E+03  0.47000000000E+01 0.  1.
         11    1    4    4    0    0 -0.36346093873E+02 -0.48677002838E+02  0.29611051104E+02  0.67581828124E+02  0.00000000000E+00 0. -1.
        -12    1    4    4    0    0 -0.26359567728E+02 -0.35290883213E+02 -0.48412088566E+02  0.65452299946E+02  0.00000000000E+00 0.  1.
</event>
<event>
12    1  0.8488291E-002  0.1739689E+03  0.7818608E-02  0.1173995E+00
         21   -1    0    0  501  502  0.00000000000E+00  0.00000000000E+00  0.10445726399E+04  0.10445726399E+04  0.00000000000E+00 0.  1.
         21   -1    0    0  502  503 -0.00000000000E+00 -0.00000000000E+00 -0.31227225374E+02  0.31227225374E+02  0.00000000000E+00 0.  1.
         -6    2    1    2    0  503  0.65006281136E+01  0.16659697086E+02  0.65698364255E+03  0.67962686448E+03  0.17304729029E+03 0.  0.
        -24    2    3    3    0    0  0.89993982076E+01  0.63032004643E+02  0.58439737538E+03  0.59332801778E+03  0.80397895222E+02 0.  0.
          6    2    1    2  501    0 -0.65006281136E+01 -0.16659697086E+02  0.35636177201E+03  0.39617300082E+03  0.17216134978E+03 0.  0.
         24    2    5    5    0    0 -0.24898350778E+02  0.18518110066E+02  0.34386717537E+03  0.35429031633E+03  0.79461598746E+02 0.  0.
          5    1    5    5  501    0  0.18397722665E+02 -0.35177807152E+02  0.12494596638E+02  0.41882684494E+02  0.47000000000E+01 0. -1.
        -13    1    6    6    0    0  0.26761170039E+02  0.19250268048E+02  0.11284460853E+03  0.11756121264E+03  0.00000000000E+00 0.  1.
         14    1    6    6    0    0 -0.51659520818E+02 -0.73215798187E+00  0.23102256683E+03  0.23672910369E+03  0.00000000000E+00 0. -1.
         -5    1    3    3    0  503 -0.24987700940E+01 -0.46372307557E+02  0.72586267164E+02  0.86298846695E+02  0.47000000000E+01 0.  1.
         11    1    4    4    0    0  0.16706222267E+02 -0.15527674299E+02  0.16472202041E+03  0.16629356734E+03  0.00000000000E+00 0. -1.
        -12    1    4    4    0    0 -0.77068240594E+01  0.78559678942E+02  0.41967535497E+03  0.42703445044E+03  0.00000000000E+00 0.  1.
</event>
<event>
12    1  0.8488291E-002  0.1822023E+03  0.7818608E-02  0.1165788E+00
         21   -1    0    0  501  502  0.00000000000E+00  0.00000000000E+00  0.78132366512E+03  0.78132366512E+03  0.00000000000E+00 0. -1.
         21   -1    0    0  502  503 -0.00000000000E+00 -0.00000000000E+00 -0.96859523820E+02  0.96859523820E+02  0.00000000000E+00 0. -1.
         -6    2    1    2    0  503 -0.43379816073E+02 -0.39476249551E+02  0.13133103938E+02  0.18267503473E+03  0.17250364395E+03 0.  0.
        -24    2    3    3    0    0 -0.36222262106E+02  0.43317055110E+02 -0.43734329864E+00  0.98341121544E+02  0.80513137946E+02 0.  0.
          6    2    1    2  501    0  0.43379816073E+02  0.39476249551E+02  0.67133103736E+03  0.69550815421E+03  0.17206408144E+03 0.  0.
         24    2    5    5    0    0 -0.22390965532E+02  0.58507974763E+01  0.17655446155E+03  0.19522581721E+03  0.80037832577E+02 0.  0.
          5    1    5    5  501    0  0.65770781604E+02  0.33625452075E+02  0.49477657581E+03  0.50028233700E+03  0.47000000000E+01 0. -1.
        -11    1    6    6    0    0 -0.62270987485E+01 -0.53914820974E+01 -0.68833951046E+01  0.10734335853E+02  0.00000000000E+00 0.  1.
         12    1    6    6    0    0 -0.16163866783E+02  0.11242279574E+02  0.18343785666E+03  0.18449148136E+03  0.00000000000E+00 0. -1.
         -5    1    3    3    0  503 -0.71575539669E+01 -0.82793304661E+02  0.13570447237E+02  0.84333913189E+02  0.47000000000E+01 0.  1.
         13    1    4    4    0    0 -0.36152460683E+02  0.52682903090E+02 -0.27606243538E+02  0.69603113248E+02  0.00000000000E+00 0. -1.
        -14    1    4    4    0    0 -0.69801422568E-01 -0.93658479803E+01  0.27168900239E+02  0.28738008296E+02  0.00000000000E+00 0.  1.
</event>
<event>
12    1  0.8488291E-002  0.3160238E+03  0.7818608E-02  0.1077544E+00
         21   -1    0    0  501  502  0.00000000000E+00  0.00000000000E+00  0.45282673346E+03  0.45282673346E+03  0.00000000000E+00 0. -1.
         21   -1    0    0  502  503 -0.00000000000E+00 -0.00000000000E+00 -0.37242514426E+03  0.37242514426E+03  0.00000000000E+00 0.  1.
         -6    2    1    2    0  503 -0.17815940494E+03 -0.19513451175E+03 -0.22357205432E+03  0.38676465814E+03  0.17258095512E+03 0.  0.
        -24    2    3    3    0    0 -0.19075993645E+03 -0.16935202743E+03 -0.14728165207E+03  0.30512015209E+03  0.79605022644E+02 0.  0.
          6    2    1    2  501    0  0.17815940494E+03  0.19513451175E+03  0.30397364352E+03  0.43848721958E+03  0.17335747615E+03 0.  0.
         24    2    5    5    0    0  0.11455611758E+03  0.20270923275E+03  0.26901554301E+03  0.36536462833E+03  0.83113248848E+02 0.  0.
          5    1    5    5  501    0  0.63603287354E+02 -0.75747209955E+01  0.34958100504E+02  0.73122591251E+02  0.47000000000E+01 0. -1.
        -13    1    6    6    0    0  0.40402110934E+02  0.95484885215E+02  0.17926822839E+03  0.20709126390E+03  0.00000000000E+00 0.  1.
         14    1    6    6    0    0  0.74154006650E+02  0.10722434753E+03  0.89747314619E+02  0.15827336443E+03  0.00000000000E+00 0. -1.
         -5    1    3    3    0  503  0.12600531508E+02 -0.25782484324E+02 -0.76290402252E+02  0.81644506049E+02  0.47000000000E+01 0.  1.
         11    1    4    4    0    0 -0.11019462668E+03 -0.45033732668E+02 -0.63096740008E+02  0.13472969764E+03  0.00000000000E+00 0. -1.
        -12    1    4    4    0    0 -0.80565309770E+02 -0.12431829476E+03 -0.84184912064E+02  0.17039045446E+03  0.00000000000E+00 0.  1.
</event>
<event>
12    1  0.8488291E-002  0.1794332E+03  0.7818608E-02  0.1168672E+00
         21   -1    0    0  501  502  0.00000000000E+00  0.00000000000E+00  0.15813034474E+03  0.15813034474E+03  0.00000000000E+00 0.  1.
         21   -1    0    0  502  503 -0.00000000000E+00 -0.00000000000E+00 -0.28001009976E+03  0.28001009976E+03  0.00000000000E+00 0.  1.
         -6    2    1    2    0  503  0.26050268638E+02 -0.44223329877E+02 -0.17663879949E+03  0.25178870551E+03  0.17193593963E+03 0.  0.
        -24    2    3    3    0    0  0.28148882651E+02  0.33963057547E+02 -0.52816148956E+02  0.10525661297E+03  0.79646469549E+02 0.  0.
          6    2    1    2  501    0 -0.26050268638E+02  0.44223329877E+02  0.54759044464E+02  0.18635173899E+03  0.17056992194E+03 0.  0.
         24    2    5    5    0    0 -0.25150871505E+02  0.84780045810E+02  0.12283522585E+01  0.11902209373E+03  0.79652541967E+02 0.  0.
          5    1    5    5  501    0 -0.89939713298E+00 -0.40556715933E+02  0.53530692205E+02  0.67329645257E+02  0.47000000000E+01 0. -1.
        -11    1    6    6    0    0 -0.40525698303E+02  0.54715396018E+02  0.30240900401E+02  0.74502475405E+02  0.00000000000E+00 0.  1.
         12    1    6    6    0    0  0.15374826798E+02  0.30064649791E+02 -0.29012548142E+02  0.44519618326E+02  0.00000000000E+00 0. -1.
         -5    1    3    3    0  503 -0.20986140132E+01 -0.78186387424E+02 -0.12382265053E+03  0.14653209254E+03  0.47000000000E+01 0.  1.
         13    1    4    4    0    0 -0.21162306577E+02  0.35304001072E+02 -0.29836744259E+02  0.50837456853E+02  0.00000000000E+00 0. -1.
        -14    1    4    4    0    0  0.49311189228E+02 -0.13409435251E+01 -0.22979404697E+02  0.54419156120E+02  0.00000000000E+00 0.  1.
</event>
<event>
12    1  0.8488291E-002  0.2071078E+03  0.7818608E-02  0.1144008E+00
         21   -1    0    0  503  502  0.00000000000E+00  0.00000000000E+00  0.19956347413E+04  0.19956347413E+04  0.00000000000E+00 0.  1.
         21   -1    0    0  501  503 -0.00000000000E+00 -0.00000000000E+00 -0.43407160348E+02  0.43407160348E+02  0.00000000000E+00 0. -1.
          6    2    1    2  501    0 -0.80435231547E+02 -0.84429535670E+02  0.24985485327E+03  0.32411725274E+03  0.17037127942E+03 0.  0.
         24    2    3    3    0    0 -0.52600706311E+02 -0.53909484122E+02  0.54842648091E+02  0.12472295866E+03  0.82915822282E+02 0.  0.
         -6    2    1    2    0  502  0.80435231547E+02  0.84429535670E+02  0.17023727276E+04  0.17149246489E+04  0.17115920809E+03 0.  0.
        -24    2    5    5    0    0 -0.16497947272E+02  0.41093168261E+02  0.54167710940E+03  0.54937306696E+03  0.80223719102E+02 0.  0.
          5    1    3    3  501    0 -0.27834525236E+02 -0.30520051549E+02  0.19501220518E+03  0.19939429408E+03  0.47000000000E+01 0. -1.
        -13    1    4    4    0    0 -0.48216595168E+01  0.21445116932E+02  0.17075967031E+02  0.27833973679E+02  0.00000000000E+00 0.  1.
         14    1    4    4    0    0 -0.47779046794E+02 -0.75354601053E+02  0.37766681059E+02  0.96888984981E+02  0.00000000000E+00 0. -1.
         -5    1    5    5    0  502  0.96933178819E+02  0.43336367409E+02  0.11606956182E+04  0.11655515819E+04  0.47000000000E+01 0.  1.
         11    1    6    6    0    0  0.90899453858E+01  0.59180752585E+02  0.32974163391E+03  0.33513360577E+03  0.00000000000E+00 0. -1.
        -12    1    6    6    0    0 -0.25587892658E+02 -0.18087584324E+02  0.21193547549E+03  0.21423946119E+03  0.00000000000E+00 0.  1.
</event>
<event>
12    1  0.8488291E-002  0.2111308E+03  0.7818608E-02  0.1140749E+00
         21   -1    0    0  501  502  0.00000000000E+00  0.00000000000E+00  0.86571316388E+03  0.86571316388E+03  0.00000000000E+00 0. -1.
         21   -1    0    0  502  503 -0.00000000000E+00 -0.00000000000E+00 -0.51404138056E+02  0.51404138056E+02  0.00000000000E+00 0.  1.
         -6    2    1    2    0  503 -0.41579471948E+02  0.11349143362E+03  0.41205565427E+03  0.46282225366E+03  0.17264245791E+03 0.  0.
        -24    2    3    3    0    0 -0.69698221926E+02  0.89511734371E+02  0.40036074916E+03  0.42377675607E+03  0.80173666398E+02 0.  0.
          6    2    1    2  501    0  0.41579471948E+02 -0.11349143362E+03  0.40225337156E+03  0.45429504828E+03  0.17310995919E+03 0.  0.
         24    2    5    5    0    0 -0.19915774901E+02 -0.10328878908E+02  0.10757425905E+03  0.13604664306E+03  0.80206882791E+02 0.  0.
          5    1    5    5  501    0  0.61495246849E+02 -0.10316255471E+03  0.29467911251E+03  0.31824840522E+03  0.47000000000E+01 0. -1.
        -13    1    6    6    0    0  0.13818374770E+02  0.13480217461E+01 -0.73473991147E+01  0.15708243621E+02  0.00000000000E+00 0.  1.
         14    1    6    6    0    0 -0.33734149671E+02 -0.11676900654E+02  0.11492165817E+03  0.12033839943E+03  0.00000000000E+00 0. -1.
         -5    1    3    3    0  503  0.28118749978E+02  0.23979699251E+02  0.11694905103E+02  0.39045497588E+02  0.47000000000E+01 0.  1.
         11    1    4    4    0    0 -0.74595124221E+02  0.38198691358E+02  0.19908872586E+03  0.21600901218E+03  0.00000000000E+00 0. -1.
        -12    1    4    4    0    0  0.48969022942E+01  0.51313043013E+02  0.20127202331E+03  0.20776774389E+03  0.00000000000E+00 0.  1.
</event>
<event>
12    1  0.8488291E-002  0.2095825E+03  0.7818608E-02  0.1143128E+00
         21   -1    0    0  503  502  0.00000000000E+00  0.00000000000E+00  0.58079247581E+03  0.58079247581E+03  0.00000000000E+00 0.  1.
         21   -1    0    0  501  503 -0.00000000000E+00 -0.00000000000E+00 -0.85704201928E+02  0.85704201928E+02  0.00000000000E+00 0. -1.
          6    2    1    2  501    0  0.10719079868E+03 -0.64447846031E+01  0.37045064036E+03  0.42265379843E+03  0.17283273365E+03 0.  0.
         24    2    3    3    0    0  0.23741685173E+02 -0.46512683567E+02  0.27007199729E+03  0.28602600823E+03  0.78389389053E+02 0.  0.
         -6    2    1    2    0  502 -0.10719079868E+03  0.64447846031E+01  0.12463763353E+03  0.24384287931E+03  0.17998168664E+03 0.  0.
        -24    2    5    5    0    0 -0.10916746415E+03  0.62396651915E+02  0.66443226953E+02  0.16295284519E+03  0.79549041157E+02 0.  0.
          5    1    3    3  501    0  0.83449113507E+02  0.40067898964E+02  0.10037864306E+03  0.13662779020E+03  0.47000000000E+01 0. -1.
        -13    1    4    4    0    0  0.45632167757E+02 -0.51768677622E+02  0.22920550277E+03  0.23936886435E+03  0.00000000000E+00 0.  1.
         14    1    4    4    0    0 -0.21890482584E+02  0.52559940551E+01  0.40866494522E+02  0.46657143888E+02  0.00000000000E+00 0. -1.
         -5    1    5    5    0  502  0.19766654715E+01 -0.55951867312E+02  0.58194406577E+02  0.80890034114E+02  0.47000000000E+01 0.  1.
         13    1    6    6    0    0  0.37082330013E+01 -0.12530483442E+02  0.85817831731E+01  0.15633649916E+02  0.00000000000E+00 0. -1.
        -14    1    6    6    0    0 -0.11287569715E+03  0.74927135357E+02  0.57861443780E+02  0.14731919528E+03  0.00000000000E+00 0.  1.
</event>
<event>
12    1  0.8488291E-002  0.1969394E+03  0.7818608E-02  0.1152654E+00
         21   -1    0    0  503  502  0.00000000000E+00  0.00000000000E+00  0.24307542851E+03  0.24307542851E+03  0.00000000000E+00 0.  1.
         21   -1    0    0  501  503 -0.00000000000E+00 -0.00000000000E+00 -0.18725207860E+03  0.18725207860E+03  0.00000000000E+00 0. -1.
          6    2    1    2  501    0  0.65256661384E+02 -0.68908204689E+02 -0.56446692698E+02  0.20486914256E+03  0.17256408644E+03 0.  0.
         24    2    3    3    0    0  0.26906353630E+02 -0.75088584159E+02 -0.95767095451E+02  0.14939728241E+03  0.82376963312E+02 0.  0.
         -6    2    1    2    0  502 -0.65256661384E+02  0.68908204689E+02  0.11227004261E+03  0.22545836456E+03  0.17093899249E+03 0.  0.
        -24    2    5    5    0    0 -0.10185680869E+03  0.84144526643E+02  0.99471513449E+02  0.18353452124E+03  0.79594143361E+02 0.  0.
          5    1    3    3  501    0  0.38350307754E+02  0.61803794708E+01  0.39320402753E+02  0.55471860144E+02  0.47000000000E+01 0. -1.
        -13    1    4    4    0    0  0.91411434635E+00 -0.42752243236E+02  0.23938459911E+01  0.42828966896E+02  0.00000000000E+00 0.  1.
         14    1    4    4    0    0  0.25992239284E+02 -0.32336340923E+02 -0.98160941442E+02  0.10656831552E+03  0.00000000000E+00 0. -1.
         -5    1    5    5    0  502  0.36600147310E+02 -0.15236321954E+02  0.12798529157E+02  0.41923843316E+02  0.47000000000E+01 0.  1.
         13    1    6    6    0    0 -0.94650186712E+01 -0.14955526627E+02  0.50995231247E+01  0.18418998106E+02  0.00000000000E+00 0. -1.
        -14    1    6    6    0    0 -0.92391790023E+02  0.99100053270E+02  0.94371990325E+02  0.16511552313E+03  0.00000000000E+00 0.  1.
</event>
<event>
12    1  0.8488291E-002  0.2340180E+03  0.7818608E-02  0.1123879E+00
         21   -1    0    0  503  502  0.00000000000E+00  0.00000000000E+00  0.58141715987E+02  0.58141715987E+02  0.00000000000E+00 0.  1.
         21   -1    0    0  501  503 -0.00000000000E+00 -0.00000000000E+00 -0.20695733596E+04  0.20695733596E+04  0.00000000000E+00 0.  1.
          6    2    1    2  501    0  0.38993501368E+02 -0.15385619156E+03 -0.17914982273E+04  0.18067181039E+04  0.17196565833E+03 0.  0.
         24    2    3    3    0    0  0.23883156503E+02 -0.12417113428E+03 -0.17314179649E+04  0.17378613463E+04  0.79781035912E+02 0.  0.
         -6    2    1    2    0  502 -0.38993501368E+02  0.15385619156E+03 -0.21993341630E+03  0.32099697169E+03  0.17168613048E+03 0.  0.
        -24    2    5    5    0    0  0.37569136455E+02  0.63795828360E+02 -0.14564036114E+03  0.18130354101E+03  0.78603507943E+02 0.  0.
          5    1    3    3  501    0  0.15110344866E+02 -0.29685057275E+02 -0.60080262360E+02  0.68856757639E+02  0.47000000000E+01 0. -1.
        -11    1    4    4    0    0  0.43422560997E+02 -0.11122904376E+03 -0.11997815772E+04  0.12057086098E+04  0.00000000000E+00 0.  1.
         12    1    4    4    0    0 -0.19539404495E+02 -0.12942090522E+02 -0.53163638779E+03  0.53215273640E+03  0.00000000000E+00 0. -1.
         -5    1    5    5    0  502 -0.76562637823E+02  0.90060363198E+02 -0.74293055159E+02  0.13969343068E+03  0.47000000000E+01 0.  1.
         11    1    6    6    0    0  0.37476294417E+02  0.81791264609E+02 -0.12015335181E+03  0.15010366937E+03  0.00000000000E+00 0. -1.
        -12    1    6    6    0    0  0.92842037859E-01 -0.17995436250E+02 -0.25487009332E+02  0.31199871637E+02  0.00000000000E+00 0.  1.
</event>
<event>
12    1  0.8488291E-002  0.1845350E+03  0.7818608E-02  0.1163988E+00
         21   -1    0    0  503  502  0.00000000000E+00  0.00000000000E+00  0.14948132198E+03  0.14948132198E+03  0.00000000000E+00 0. -1.
         21   -1    0    0  501  503 -0.00000000000E+00 -0.00000000000E+00 -0.24624629796E+03  0.24624629796E+03  0.00000000000E+00 0. -1.
          6    2    1    2  501    0  0.17203293278E+01 -0.65869712010E+02 -0.10650727186E+03  0.21306566277E+03  0.17236994866E+03 0.  0.
         24    2    3    3    0    0  0.67111974380E+02 -0.27810252652E+02 -0.70117521781E+02  0.12897705712E+03  0.80257006832E+02 0.  0.
         -6    2    1    2    0  502 -0.17203293278E+01  0.65869712010E+02  0.97422958739E+01  0.18266195716E+03  0.17008439015E+03 0.  0.
        -24    2    5    5    0    0 -0.15481588904E+02  0.73043789929E+02 -0.49931285299E+02  0.12082454172E+03  0.80810653924E+02 0.  0.
          5    1    3    3  501    0 -0.65391645053E+02 -0.38059459358E+02 -0.36389750077E+02  0.84088605649E+02  0.47000000000E+01 0. -1.
        -11    1    4    4    0    0 -0.14870167925E+02 -0.46219795373E+01  0.39713279306E+01  0.16070346434E+02  0.00000000000E+00 0.  1.
         12    1    4    4    0    0  0.81982142306E+02 -0.23188273114E+02 -0.74088849711E+02  0.11290671069E+03  0.00000000000E+00 0. -1.
         -5    1    5    5    0  502  0.13761259576E+02 -0.71740779192E+01  0.59673581173E+02  0.61837415446E+02  0.47000000000E+01 0.  1.
         13    1    6    6    0    0 -0.19172937775E+02 -0.13450981367E+02 -0.11803982697E+02  0.26227170075E+02  0.00000000000E+00 0. -1.
        -14    1    6    6    0    0  0.36913488706E+01  0.86494771296E+02 -0.38127302601E+02  0.94597371643E+02  0.00000000000E+00 0.  1.
</event>
<event>
12    1  0.8488291E-002  0.1764490E+03  0.7818608E-02  0.1171310E+00
         21   -1    0    0  503  502  0.00000000000E+00  0.00000000000E+00  0.88882855901E+02  0.88882855901E+02  0.00000000000E+00 0.  1.
         21   -1    0    0  501  503 -0.00000000000E+00 -0.00000000000E+00 -0.37827379272E+03  0.37827379272E+03  0.00000000000E+00 0.  1.
          6    2    1    2  501    0 -0.22366567927E+02 -0.30434682252E+02 -0.80890748370E+02  0.19401462465E+03  0.17225512522E+03 0.  0.
         24    2    3    3    0    0 -0.27243831726E+02 -0.22050072908E+02 -0.12310410223E+03  0.15044690013E+03  0.79064642482E+02 0.  0.
         -6    2    1    2    0  502  0.22366567927E+02  0.30434682252E+02 -0.20850018845E+03  0.27314202397E+03  0.17235922786E+03 0.  0.
        -24    2    5    5    0    0  0.73596147325E+02  0.16376901077E+02 -0.84367752582E+02  0.13803820222E+03  0.79069790726E+02 0.  0.
          5    1    3    3  501    0  0.48772637991E+01 -0.83846093440E+01  0.42213353860E+02  0.43567724524E+02  0.47000000000E+01 0. -1.
        -13    1    4    4    0    0 -0.36804913643E+02  0.11919379486E+02 -0.24682740748E+02  0.45890205561E+02  0.00000000000E+00 0.  1.
         14    1    4    4    0    0  0.95610819174E+01 -0.33969452394E+02 -0.98421361482E+02  0.10455669457E+03  0.00000000000E+00 0. -1.
         -5    1    5    5    0  502 -0.51229579399E+02  0.14057781175E+02 -0.12413243587E+03  0.13510382175E+03  0.47000000000E+01 0.  1.
         11    1    6    6    0    0 -0.50134527988E+01 -0.20693029428E+02 -0.24728957811E+02  0.32632154852E+02  0.00000000000E+00 0. -1.
        -12    1    6    6    0    0  0.78609600124E+02  0.37069930504E+02 -0.59638794771E+02  0.10540604736E+03  0.00000000000E+00 0.  1.
</event>
<event>
12    1  0.8488291E-002  0.1844641E+03  0.7818608E-02  0.1163571E+00
         21   -1    0    0  503  502  0.00000000000E+00  0.00000000000E+00  0.10564521551E+03  0.10564521551E+03  0.00000000000E+00 0. -1.
         21   -1    0    0  501  503 -0.00000000000E+00 -0.00000000000E+00 -0.46406971201E+03  0.46406971201E+03  0.00000000000E+00 0. -1.
          6    2    1    2  501    0  0.63953860146E+02  0.83656918438E+01 -0.33682911882E+03  0.38399101273E+03  0.17272857767E+03 0.  0.
         24    2    3    3    0    0  0.29749611042E+02 -0.43252623303E+02 -0.98047226792E+02  0.13726593683E+03  0.80454023846E+02 0.  0.
         -6    2    1    2    0  502 -0.63953860146E+02 -0.83656918438E+01 -0.21595377681E+02  0.18572391478E+03  0.17282051718E+03 0.  0.
        -24    2    5    5    0    0 -0.10265463225E+02  0.36198392047E+01  0.49647992140E+02  0.95591763685E+02  0.80959120485E+02 0.  0.
          5    1    3    3  501    0  0.34204249104E+02  0.51618315146E+02 -0.23878189203E+03  0.24672507590E+03  0.47000000000E+01 0. -1.
        -11    1    4    4    0    0  0.35259041823E+02 -0.20080271819E+02 -0.46058099782E+01  0.40836635906E+02  0.00000000000E+00 0.  1.
         12    1    4    4    0    0 -0.55094307811E+01 -0.23172351484E+02 -0.93441416814E+02  0.96429300926E+02  0.00000000000E+00 0. -1.
         -5    1    5    5    0  502 -0.53688396921E+02 -0.11985531048E+02 -0.71243369821E+02  0.90132151100E+02  0.47000000000E+01 0.  1.
         13    1    6    6    0    0 -0.10708356662E+02  0.40987329215E+02  0.15931913679E+02  0.45259871101E+02  0.00000000000E+00 0. -1.
        -14    1    6    6    0    0  0.44289343624E+00 -0.37367490010E+02  0.33716078462E+02  0.50331892584E+02  0.00000000000E+00 0.  1.
</event>
<event>
12    1  0.8488291E-002  0.2253286E+03  0.7818608E-02  0.1132879E+00
         21   -1    0    0  501  502  0.00000000000E+00  0.00000000000E+00  0.35615050915E+03  0.35615050915E+03  0.00000000000E+00 0. -1.
         21   -1    0    0  502  503 -0.00000000000E+00 -0.00000000000E+00 -0.13390394862E+03  0.13390394862E+03  0.00000000000E+00 0.  1.
         -6    2    1    2    0  503 -0.85671584719E+02  0.82364975713E+02  0.13593691670E+03  0.26315739524E+03  0.19144022487E+03 0.  0.
        -24    2    3    3    0    0  0.91513508333E+01 -0.12651334908E+02  0.18100734633E+02  0.84476270908E+02  0.81023454970E+02 0.  0.
          6    2    1    2  501    0  0.85671584719E+02 -0.82364975713E+02  0.86309643834E+02  0.22689706253E+03  0.17294309097E+03 0.  0.
         24    2    5    5    0    0  0.41861506252E+02  0.24883751232E+02  0.44675028431E+02  0.10370151226E+03  0.79915947711E+02 0.  0.
          5    1    5    5  501    0  0.43810078467E+02 -0.10724872695E+03  0.41634615403E+02  0.12319555027E+03  0.47000000000E+01 0. -1.
        -11    1    6    6    0    0 -0.21399914442E+02  0.20446236323E+02  0.89832575790E+01  0.30930629392E+02  0.00000000000E+00 0.  1.
         12    1    6    6    0    0  0.63261420694E+02  0.44375149097E+01  0.35691770852E+02  0.72770882868E+02  0.00000000000E+00 0. -1.
         -5    1    3    3    0  503 -0.94822935553E+02  0.95016310621E+02  0.11783618206E+03  0.17868112434E+03  0.47000000000E+01 0.  1.
         11    1    4    4    0    0 -0.21599989487E+02  0.12147210197E+02  0.33846958549E+02  0.41949146171E+02  0.00000000000E+00 0. -1.
        -12    1    4    4    0    0  0.30751340320E+02 -0.24798545105E+02 -0.15746223917E+02  0.42527124738E+02  0.00000000000E+00 0.  1.
</event>
<event>
12    1  0.8488291E-002  0.5081727E+03  0.7818608E-02  0.1011669E+00
         21   -1    0    0  503  502  0.00000000000E+00  0.00000000000E+00  0.71473586360E+03  0.71473586360E+03  0.00000000000E+00 0. -1.
         21   -1    0    0  501  503 -0.00000000000E+00 -0.00000000000E+00 -0.39429449334E+03  0.39429449334E+03  0.00000000000E+00 0.  1.
          6    2    1    2  501    0 -0.47133682405E+03 -0.80311612411E+02 -0.22156324545E+00  0.50814417315E+03  0.17205259320E+03 0.  0.
         24    2    3    3    0    0 -0.19316914968E+03 -0.94174044968E+02  0.10928417038E+02  0.22936857493E+03  0.79419404024E+02 0.  0.
         -6    2    1    2    0  502  0.47133682405E+03  0.80311612411E+02  0.32066293351E+03  0.60088618379E+03  0.17213695752E+03 0.  0.
        -24    2    5    5    0    0  0.35625444218E+03  0.72529085819E+02  0.31101924541E+03  0.48504313023E+03  0.79725600073E+02 0.  0.
          5    1    3    3  501    0 -0.27816767437E+03  0.13862432557E+02 -0.11149980284E+02  0.27877559822E+03  0.47000000000E+01 0. -1.
        -13    1    4    4    0    0 -0.18007280818E+03 -0.69864141113E+02 -0.11934209324E+02  0.19351909418E+03  0.00000000000E+00 0.  1.
         14    1    4    4    0    0 -0.13096341492E+02 -0.24309903855E+02  0.22862626362E+02  0.35849480751E+02  0.00000000000E+00 0. -1.
         -5    1    5    5    0  502  0.11508238187E+03  0.77825265924E+01  0.96436881044E+01  0.11584305356E+03  0.47000000000E+01 0.  1.
         13    1    6    6    0    0  0.82335483901E+02  0.48305919816E+01  0.11482532168E+03  0.14137652220E+03  0.00000000000E+00 0. -1.
        -14    1    6    6    0    0  0.27391895828E+03  0.67698493837E+02  0.19619392372E+03  0.34366660803E+03  0.00000000000E+00 0.  1.
</event>
<event>
12    1  0.8488291E-002  0.1889991E+03  0.7818608E-02  0.1159755E+00
         21   -1    0    0  501  502  0.00000000000E+00  0.00000000000E+00  0.43860681363E+03  0.43860681363E+03  0.00000000000E+00 0. -1.
         21   -1    0    0  502  503 -0.00000000000E+00 -0.00000000000E+00 -0.13703080793E+03  0.13703080793E+03  0.00000000000E+00 0.  1.
         -6    2    1    2    0  503  0.48713306915E+01  0.76739106688E+02 -0.34132918528E+02  0.19038296289E+03  0.17078640483E+03 0.  0.
        -24    2    3    3    0    0  0.62459660395E+02  0.79664923549E+02 -0.32390103382E+02  0.13250288405E+03  0.79121338864E+02 0.  0.
          6    2    1    2  501    0 -0.48713306915E+01 -0.76739106688E+02  0.33570892423E+03  0.38525465867E+03  0.17265007925E+03 0.  0.
         24    2    5    5    0    0 -0.51717325051E+02 -0.98169494434E+02  0.22146546522E+03  0.25984546191E+03  0.78490639199E+02 0.  0.
          5    1    5    5  501    0  0.46845994360E+02  0.21430387745E+02  0.11424345901E+03  0.12540919677E+03  0.47000000000E+01 0. -1.
        -13    1    6    6    0    0 -0.45927157108E+02 -0.96760312942E+01  0.84953993216E+02  0.97057252717E+02  0.00000000000E+00 0.  1.
         14    1    6    6    0    0 -0.57901679428E+01 -0.88493463139E+02  0.13651147200E+03  0.16278820919E+03  0.00000000000E+00 0. -1.
         -5    1    3    3    0  503 -0.57588329704E+02 -0.29258168609E+01 -0.17428151461E+01  0.57880078844E+02  0.47000000000E+01 0.  1.
         11    1    4    4    0    0  0.49144450146E+02  0.63324649941E+01  0.37088589286E+01  0.49689362318E+02  0.00000000000E+00 0. -1.
        -12    1    4    4    0    0  0.13315210249E+02  0.73332458555E+02 -0.36098962311E+02  0.82813521732E+02  0.00000000000E+00 0.  1.
</event>
<event>
12    1  0.8488291E-002  0.1910753E+03  0.7818608E-02  0.1157901E+00
         21   -1    0    0  501  502  0.00000000000E+00  0.00000000000E+00  0.31614695397E+03  0.31614695397E+03  0.00000000000E+00 0. -1.
         21   -1    0    0  502  503 -0.00000000000E+00 -0.00000000000E+00 -0.13033115686E+03  0.13033115686E+03  0.00000000000E+00 0. -1.
         -6    2    1    2    0  503 -0.17295013659E+02  0.80076880885E+02  0.14463558375E+02  0.18982392293E+03  0.17062386365E+03 0.  0.
        -24    2    3    3    0    0  0.23476883639E+02  0.10356167692E+03  0.35500904597E+02  0.13806927879E+03  0.80787539417E+02 0.  0.
          6    2    1    2  501    0  0.17295013659E+02 -0.80076880885E+02  0.17135223873E+03  0.25665418791E+03  0.17262200932E+03 0.  0.
         24    2    5    5    0    0  0.40280236377E+02 -0.95140582546E+02  0.18152762482E+03  0.22697483392E+03  0.88831687864E+02 0.  0.
          5    1    5    5  501    0 -0.22985222719E+02  0.15063701661E+02 -0.10175386087E+02  0.29679353988E+02  0.47000000000E+01 0. -1.
        -11    1    6    6    0    0 -0.59083312312E+01 -0.20568300813E+02  0.11475733028E+03  0.11673563393E+03  0.00000000000E+00 0.  1.
         12    1    6    6    0    0  0.46188567609E+02 -0.74572281733E+02  0.66770294542E+02  0.11023919999E+03  0.00000000000E+00 0. -1.
         -5    1    3    3    0  503 -0.40771897297E+02 -0.23484796039E+02 -0.21037346221E+02  0.51754644142E+02  0.47000000000E+01 0.  1.
         11    1    4    4    0    0 -0.21290931693E+02  0.21668093524E+02 -0.12818772665E+02  0.32971669384E+02  0.00000000000E+00 0. -1.
        -12    1    4    4    0    0  0.44767815332E+02  0.81893583400E+02  0.48319677262E+02  0.10509760940E+03  0.00000000000E+00 0.  1.
</event>
<event>
12    1  0.8488291E-002  0.1738290E+03  0.7818608E-02  0.1174751E+00
         21   -1    0    0  503  502  0.00000000000E+00  0.00000000000E+00  0.14472490424E+03  0.14472490424E+03  0.00000000000E+00 0. -1.
         21   -1    0    0  501  503 -0.00000000000E+00 -0.00000000000E+00 -0.20541826533E+03  0.20541826533E+03  0.00000000000E+00 0. -1.
          6    2    1    2  501    0 -0.62751010441E+01 -0.23960253597E+02 -0.20986961093E+02  0.17183688305E+03  0.16874238115E+03 0.  0.
         24    2    3    3    0    0  0.20817832707E+02  0.19987850313E+02 -0.62196895283E+02  0.10561142290E+03  0.80326972711E+02 0.  0.
         -6    2    1    2    0  502  0.62751010441E+01  0.23960253597E+02 -0.39706399991E+02  0.17830628652E+03  0.17205540668E+03 0.  0.
        -24    2    5    5    0    0  0.39849564266E+02  0.74491729951E+02 -0.19141197082E+02  0.11407473466E+03  0.74227043990E+02 0.  0.
          5    1    3    3  501    0 -0.27092933751E+02 -0.43948103910E+02  0.41209934189E+02  0.66225460152E+02  0.47000000000E+01 0. -1.
        -13    1    4    4    0    0 -0.80864840152E+01  0.24222688088E+02  0.10234104378E+02  0.27511211067E+02  0.00000000000E+00 0.  1.
         14    1    4    4    0    0  0.28904316722E+02 -0.42348377745E+01 -0.72430999661E+02  0.78100211831E+02  0.00000000000E+00 0. -1.
         -5    1    5    5    0  502 -0.33574463222E+02 -0.50531476354E+02 -0.20565202909E+02  0.64231551856E+02  0.47000000000E+01 0.  1.
         11    1    6    6    0    0  0.48125143601E+02  0.33030378738E+02  0.14384819644E+02  0.60116207485E+02  0.00000000000E+00 0. -1.
        -12    1    6    6    0    0 -0.82755793351E+01  0.41461351213E+02 -0.33526016726E+02  0.53958527178E+02  0.00000000000E+00 0.  1.
</event>
<event>
12    1  0.8488291E-002  0.1888482E+03  0.7818608E-02  0.1159956E+00
         21   -1    0    0  503  502  0.00000000000E+00  0.00000000000E+00  0.18623081931E+03  0.18623081931E+03  0.00000000000E+00 0.  1.
         21   -1    0    0  501  503 -0.00000000000E+00 -0.00000000000E+00 -0.18952644294E+03  0.18952644294E+03  0.00000000000E+00 0. -1.
          6    2    1    2  501    0  0.62518636797E+02 -0.39270801833E+02 -0.37495387914E+01  0.18690853640E+03  0.17166818608E+03 0.  0.
         24    2    3    3    0    0  0.47239909912E+02  0.35401612701E+02  0.30832248471E+02  0.10307895332E+03  0.78675026548E+02 0.  0.
         -6    2    1    2    0  502 -0.62518636797E+02  0.39270801833E+02  0.45391516302E+00  0.18884872585E+03  0.17381846677E+03 0.  0.
        -24    2    5    5    0    0 -0.81957497989E+02 -0.21792881910E+02  0.27512632527E+02  0.11912852087E+03  0.79010748368E+02 0.  0.
          5    1    3    3  501    0  0.15278726886E+02 -0.74672414534E+02 -0.34581787263E+02  0.83829583071E+02  0.47000000000E+01 0. -1.
        -13    1    4    4    0    0  0.30115345766E+02 -0.19216224008E+02  0.28657920001E+02  0.45798184403E+02  0.00000000000E+00 0.  1.
         14    1    4    4    0    0  0.17124564145E+02  0.54617836709E+02  0.21743284697E+01  0.57280768922E+02  0.00000000000E+00 0. -1.
         -5    1    5    5    0  502  0.19438861191E+02  0.61063683743E+02 -0.27058717364E+02  0.69720204977E+02  0.47000000000E+01 0.  1.
         13    1    6    6    0    0 -0.56717024053E+02 -0.10067911737E+02 -0.22541789762E+02  0.61857222293E+02  0.00000000000E+00 0. -1.
        -14    1    6    6    0    0 -0.25240473936E+02 -0.11724970172E+02  0.50054422289E+02  0.57271298577E+02  0.00000000000E+00 0.  1.
</event>
<event>
12    1  0.8488291E-002  0.2126862E+03  0.7818608E-02  0.1139586E+00
         21   -1    0    0  501  502  0.00000000000E+00  0.00000000000E+00  0.14701085568E+03  0.14701085568E+03  0.00000000000E+00 0. -1.
         21   -1    0    0  502  503 -0.00000000000E+00 -0.00000000000E+00 -0.40337166583E+03  0.40337166583E+03  0.00000000000E+00 0.  1.
         -6    2    1    2    0  503 -0.86493483972E+01 -0.12083562060E+03 -0.26302784744E+03  0.33825885429E+03  0.17481231519E+03 0.  0.
        -24    2    3    3    0    0 -0.72780095429E+01 -0.10509910145E+02 -0.43654819398E+02  0.92657025327E+02  0.80722694774E+02 0.  0.
          6    2    1    2  501    0  0.86493483972E+01  0.12083562060E+03  0.66670372866E+01  0.21212366722E+03  0.17399983442E+03 0.  0.
         24    2    5    5    0    0 -0.47095185096E+02  0.25368818121E+02 -0.27240590470E+02  0.96394757224E+02  0.75421257342E+02 0.  0.
          5    1    5    5  501    0  0.55744533493E+02  0.95466802476E+02  0.33907627756E+02  0.11572891000E+03  0.47000000000E+01 0. -1.
        -11    1    6    6    0    0 -0.45112827227E+02  0.35390447538E+02  0.96246625689E+01  0.58140219186E+02  0.00000000000E+00 0.  1.
         12    1    6    6    0    0 -0.19823578687E+01 -0.10021629417E+02 -0.36865253038E+02  0.38254538038E+02  0.00000000000E+00 0. -1.
         -5    1    3    3    0  503 -0.13713388543E+01 -0.11032571045E+03 -0.21937302804E+03  0.24560182896E+03  0.47000000000E+01 0.  1.
         13    1    4    4    0    0  0.34445543636E+02 -0.88283163007E+00 -0.47127196663E+01  0.34777645043E+02  0.00000000000E+00 0. -1.
        -14    1    4    4    0    0 -0.41723553179E+02 -0.96270785147E+01 -0.38942099731E+02  0.57879380284E+02  0.00000000000E+00 0.  1.
</event>
<event>
12    1  0.8488291E-002  0.1812473E+03  0.7818608E-02  0.1167022E+00
         21   -1    0    0  501  502  0.00000000000E+00  0.00000000000E+00  0.21600857316E+02  0.21600857316E+02  0.00000000000E+00 0.  1.
         21   -1    0    0  502  503 -0.00000000000E+00 -0.00000000000E+00 -0.15352476166E+04  0.15352476166E+04  0.00000000000E+00 0.  1.
         -6    2    1    2    0  503  0.19855970105E+02  0.49433916843E+02 -0.86751084480E+03  0.88624243989E+03  0.17324152135E+03 0.  0.
        -24    2    3    3    0    0 -0.28818985604E+02  0.38499345496E+02 -0.22081950871E+03  0.23761266078E+03  0.73387925449E+02 0.  0.
          6    2    1    2  501    0 -0.19855970105E+02 -0.49433916843E+02 -0.64613591450E+03  0.67060603404E+03  0.17141429699E+03 0.  0.
         24    2    5    5    0    0  0.52988059042E+02 -0.12110165936E+02 -0.37786559086E+03  0.39008799272E+03  0.80198795436E+02 0.  0.
          5    1    5    5  501    0 -0.72844029148E+02 -0.37323750907E+02 -0.26827032364E+03  0.28051804133E+03  0.47000000000E+01 0. -1.
        -11    1    6    6    0    0 -0.18201190477E+02  0.90917295499E+01 -0.51431958470E+02  0.55309937923E+02  0.00000000000E+00 0.  1.
         12    1    6    6    0    0  0.71189249519E+02 -0.21201895486E+02 -0.32643363239E+03  0.33477805480E+03  0.00000000000E+00 0. -1.
         -5    1    3    3    0  503  0.48674955710E+02  0.10934571347E+02 -0.64669133609E+03  0.64862977910E+03  0.47000000000E+01 0.  1.
         11    1    4    4    0    0 -0.22058747356E+02  0.39162106546E+02 -0.22512652565E+03  0.22956962228E+03  0.00000000000E+00 0. -1.
        -12    1    4    4    0    0 -0.67602382484E+01 -0.66276104986E+00  0.43070169389E+01  0.80430384989E+01  0.00000000000E+00 0.  1.
</event>
<event>
12    1  0.8488291E-002  0.1947214E+03  0.7818608E-02  0.1154469E+00
         21   -1    0    0  503  502  0.00000000000E+00  0.00000000000E+00  0.61137782833E+02  0.61137782833E+02  0.00000000000E+00 0.  1.
         21   -1    0    0  501  503 -0.00000000000E+00 -0.00000000000E+00 -0.72730909342E+03  0.72730909342E+03  0.00000000000E+00 0. -1.
          6    2    1    2  501    0  0.63761742245E+02 -0.63217660767E+02 -0.48707120340E+03  0.52455196688E+03  0.17278419015E+03 0.  0.
         24    2    3    3    0    0  0.15855388070E+02  0.15828570558E+02 -0.34749778022E+03  0.35708210118E+03  0.79063156725E+02 0.  0.
         -6    2    1    2    0  502 -0.63761742245E+02  0.63217660767E+02 -0.17910010718E+03  0.26389490937E+03  0.17176042150E+03 0.  0.
        -24    2    5    5    0    0  0.29567827041E+02  0.51575006971E+02 -0.97725642775E+02  0.13943667000E+03  0.79737356015E+02 0.  0.
          5    1    3    3  501    0  0.47906354175E+02 -0.79046231325E+02 -0.13957342319E+03  0.16746986570E+03  0.47000000000E+01 0. -1.
        -13    1    4    4    0    0  0.45070007117E+02  0.75235740376E+01 -0.13736023868E+03  0.14476099225E+03  0.00000000000E+00 0.  1.
         14    1    4    4    0    0 -0.29214619046E+02  0.83049965204E+01 -0.21013754154E+03  0.21232110893E+03  0.00000000000E+00 0. -1.
         -5    1    5    5    0  502 -0.93329569286E+02  0.11642653797E+02 -0.81374464404E+02  0.12445823937E+03  0.47000000000E+01 0.  1.
         13    1    6    6    0    0  0.29835422739E+02  0.17569744754E+02 -0.99531931744E+02  0.10538241702E+03  0.00000000000E+00 0. -1.
        -14    1    6    6    0    0 -0.26759569843E+00  0.34005262217E+02  0.18062889686E+01  0.34054252976E+02  0.00000000000E+00 0.  1.
</event>
<event>
12    1  0.8488291E-002  0.2229608E+03  0.7818608E-02  0.1132107E+00
         21   -1    0    0  503  502  0.00000000000E+00  0.00000000000E+00  0.67917694691E+03  0.67917694691E+03  0.00000000000E+00 0.  1.
         21   -1    0    0  501  503 -0.00000000000E+00 -0.00000000000E+00 -0.13238044132E+03  0.13238044132E+03  0.00000000000E+00 0.  1.
          6    2    1    2  501    0 -0.50586612543E+02 -0.12713194846E+03 -0.35721003921E+00  0.22072011372E+03  0.17319267685E+03 0.  0.
         24    2    3    3    0    0 -0.83705734288E+02 -0.14171535487E+03  0.61249990562E+01  0.18365718072E+03  0.81256093057E+02 0.  0.
         -6    2    1    2    0  502  0.50586612543E+02  0.12713194846E+03  0.54715371564E+03  0.59083727452E+03  0.17603965103E+03 0.  0.
        -24    2    5    5    0    0  0.75313063245E+02  0.45768807755E+02  0.19397954666E+03  0.22753926783E+03  0.79869973232E+02 0.  0.
          5    1    3    3  501    0  0.33119121745E+02  0.14583406409E+02 -0.64822090954E+01  0.37062932998E+02  0.47000000000E+01 0. -1.
        -13    1    4    4    0    0 -0.20267582869E+02 -0.98373243045E+02 -0.20183197967E+02  0.10244721247E+03  0.00000000000E+00 0.  1.
         14    1    4    4    0    0 -0.63438151419E+02 -0.43342111821E+02  0.26308197023E+02  0.81209968250E+02  0.00000000000E+00 0. -1.
         -5    1    5    5    0  502 -0.24726450702E+02  0.81363140702E+02  0.35317416898E+03  0.36329800669E+03  0.47000000000E+01 0.  1.
         11    1    6    6    0    0  0.30070125036E+02 -0.19211000410E+01  0.93383440077E+01  0.31545327924E+02  0.00000000000E+00 0. -1.
        -12    1    6    6    0    0  0.45242938210E+02  0.47689907796E+02  0.18464120265E+03  0.19599393991E+03  0.00000000000E+00 0.  1.
</event>
<event>
12    1  0.8488291E-002  0.2622687E+03  0.7818608E-02  0.1106414E+00
         21   -1    0    0  503  502  0.00000000000E+00  0.00000000000E+00  0.12482296981E+03  0.12482296981E+03  0.00000000000E+00 0. -1.
         21   -1    0    0  501  503 -0.00000000000E+00 -0.00000000000E+00 -0.65905854832E+03  0.65905854832E+03  0.00000000000E+00 0. -1.
          6    2    1    2  501    0  0.18983745879E+03  0.32901472682E+02 -0.43384474893E+03  0.50695772502E+03  0.17794409549E+03 0.  0.
         24    2    3    3    0    0  0.85446257665E+02  0.79844343489E+02 -0.18275002170E+03  0.23096531926E+03  0.79191073581E+02 0.  0.
         -6    2    1    2    0  502 -0.18983745879E+03 -0.32901472682E+02 -0.10039082958E+03  0.27692379311E+03  0.17171983247E+03 0.  0.
        -24    2    5    5    0    0 -0.54495364391E+02 -0.58990333760E+02 -0.77445532388E+02  0.13711432329E+03  0.79705225352E+02 0.  0.
          5    1    3    3  501    0  0.10439120112E+03 -0.46942870808E+02 -0.25109472723E+03  0.27599240576E+03  0.47000000000E+01 0. -1.
        -11    1    4    4    0    0  0.86788464983E+01  0.29807198863E+02 -0.10901151485E+03  0.11334593884E+03  0.00000000000E+00 0.  1.
         12    1    4    4    0    0  0.76767411166E+02  0.50037144626E+02 -0.73738506845E+02  0.11761938042E+03  0.00000000000E+00 0. -1.
         -5    1    5    5    0  502 -0.13534209440E+03  0.26088861078E+02 -0.22945297195E+02  0.13980946982E+03  0.47000000000E+01 0.  1.
         11    1    6    6    0    0 -0.57814522412E+02 -0.79473739035E+01 -0.58322722630E+02  0.82505876934E+02  0.00000000000E+00 0. -1.
        -12    1    6    6    0    0  0.33191580208E+01 -0.51042959856E+02 -0.19122809758E+02  0.54608446360E+02  0.00000000000E+00 0.  1.
</event>
<event>
12    1  0.8488291E-002  0.2050400E+03  0.7818608E-02  0.1145567E+00
         21   -1    0    0  501  502  0.00000000000E+00  0.00000000000E+00  0.31500610964E+03  0.31500610964E+03  0.00000000000E+00 0. -1.
         21   -1    0    0  502  503 -0.00000000000E+00 -0.00000000000E+00 -0.24112634448E+03  0.24112634448E+03  0.00000000000E+00 0. -1.
         -6    2    1    2    0  503 -0.97821238411E+02 -0.52853901319E+02 -0.14889745818E+03  0.25340057553E+03  0.17227556141E+03 0.  0.
        -24    2    3    3    0    0 -0.12303013191E+03 -0.74180681255E+02 -0.94698863674E+02  0.18976177054E+03  0.80015423200E+02 0.  0.
          6    2    1    2  501    0  0.97821238411E+02  0.52853901319E+02  0.22277722335E+03  0.30273187859E+03  0.17220444100E+03 0.  0.
         24    2    5    5    0    0  0.31321100834E+01  0.37788259219E+01  0.16079499078E+03  0.17928844538E+03  0.79153192907E+02 0.  0.
          5    1    5    5  501    0  0.94689128327E+02  0.49075075397E+02  0.61982232571E+02  0.12344343321E+03  0.47000000000E+01 0. -1.
        -13    1    6    6    0    0  0.11229609277E+02  0.80821752343E+01  0.16741048155E+03  0.16798123411E+03  0.00000000000E+00 0.  1.
         14    1    6    6    0    0 -0.80974991935E+01 -0.43033493124E+01 -0.66154907702E+01  0.11307211266E+02  0.00000000000E+00 0. -1.
         -5    1    3    3    0  503  0.25208893498E+02  0.21326779936E+02 -0.54198594510E+02  0.63638804991E+02  0.47000000000E+01 0.  1.
         11    1    4    4    0    0 -0.93517230124E+02 -0.45861820008E+02 -0.22164100123E+02  0.10648955911E+03  0.00000000000E+00 0. -1.
        -12    1    4    4    0    0 -0.29512901784E+02 -0.28318861247E+02 -0.72534763551E+02  0.83272211436E+02  0.00000000000E+00 0.  1.
</event>
<event>
12    1  0.8488291E-002  0.2437124E+03  0.7818608E-02  0.1120075E+00
         21   -1    0    0  501  502  0.00000000000E+00  0.00000000000E+00  0.29875935028E+04  0.29875935028E+04  0.00000000000E+00 0.  1.
         21   -1    0    0  502  503 -0.00000000000E+00 -0.00000000000E+00 -0.21323887307E+02  0.21323887307E+02  0.00000000000E+00 0.  1.
         -6    2    1    2    0  503 -0.54194124306E+02  0.14852678742E+03  0.98867046660E+03  0.10182656909E+04  0.18546836944E+03 0.  0.
        -24    2    3    3    0    0  0.86172982756E+01  0.69280639664E+02  0.23560604226E+03  0.25842798195E+03  0.80004686398E+02 0.  0.
          6    2    1    2  501    0  0.54194124306E+02 -0.14852678742E+03  0.19775991489E+04  0.19906516992E+04  0.16370273097E+03 0.  0.
         24    2    5    5    0    0 -0.26701297802E+02 -0.58025659867E+02  0.10423780966E+04  0.10475742740E+04  0.82339702529E+02 0.  0.
          5    1    5    5  501    0  0.80895422108E+02 -0.90501127553E+02  0.93522105223E+03  0.94307742521E+03  0.47000000000E+01 0. -1.
        -13    1    6    6    0    0 -0.64409906474E+01 -0.71970433470E+02  0.57083235157E+03  0.57538752441E+03  0.00000000000E+00 0.  1.
         14    1    6    6    0    0 -0.20260307155E+02  0.13944773603E+02  0.47154574507E+03  0.47218674955E+03  0.00000000000E+00 0. -1.
         -5    1    3    3    0  503 -0.62811422581E+02  0.79246147755E+02  0.75306442434E+03  0.75983770895E+03  0.47000000000E+01 0.  1.
         11    1    4    4    0    0  0.25076159833E+02 -0.86130230911E+01  0.55313275807E+02  0.61339680788E+02  0.00000000000E+00 0. -1.
        -12    1    4    4    0    0 -0.16458861557E+02  0.77893662755E+02  0.18029276645E+03  0.19708830116E+03  0.00000000000E+00 0.  1.
</event>
<event>
12    1  0.8488291E-002  0.1831409E+03  0.7818608E-02  0.1165974E+00
         21   -1    0    0  503  502  0.00000000000E+00  0.00000000000E+00  0.25316398735E+02  0.25316398735E+02  0.00000000000E+00 0.  1.
         21   -1    0    0  501  503 -0.00000000000E+00 -0.00000000000E+00 -0.15187876155E+04  0.15187876155E+04  0.00000000000E+00 0.  1.
          6    2    1    2  501    0  0.43303486356E+02  0.93932563406E+00 -0.10551975136E+04  0.10709726414E+04  0.17794530501E+03 0.  0.
         24    2    3    3    0    0  0.33975573123E+02  0.26823887479E+02 -0.25866027905E+03  0.27394649591E+03  0.79168694288E+02 0.  0.
         -6    2    1    2    0  502 -0.43303486356E+02 -0.93932563406E+00 -0.43827370312E+03  0.47313137283E+03  0.17289702960E+03 0.  0.
        -24    2    5    5    0    0 -0.13580888920E+02  0.56911959371E+02 -0.35869465012E+03  0.37024736216E+03  0.70695441853E+02 0.  0.
          5    1    3    3  501    0  0.93279132325E+01 -0.25884561845E+02 -0.79653723459E+03  0.79702614549E+03  0.47000000000E+01 0. -1.
        -13    1    4    4    0    0  0.16904575307E+02  0.48787313630E+02 -0.22200970393E+03  0.22793480488E+03  0.00000000000E+00 0.  1.
         14    1    4    4    0    0  0.17070997816E+02 -0.21963426151E+02 -0.36650575123E+02  0.46011691031E+02  0.00000000000E+00 0. -1.
         -5    1    5    5    0  502 -0.29722597436E+02 -0.57851285005E+02 -0.79579053003E+02  0.10288401067E+03  0.47000000000E+01 0.  1.
         11    1    6    6    0    0 -0.33297948920E+02  0.23234010315E+02 -0.27402717619E+03  0.27701889092E+03  0.00000000000E+00 0. -1.
        -12    1    6    6    0    0  0.19717060000E+02  0.33677949056E+02 -0.84667473937E+02  0.93228471244E+02  0.00000000000E+00 0.  1.
</event>
<event>
12    1  0.8488291E-002  0.2083553E+03  0.7818608E-02  0.1144220E+00
         21   -1    0    0  501  502  0.00000000000E+00  0.00000000000E+00  0.27719011051E+03  0.27719011051E+03  0.00000000000E+00 0. -1.
         21   -1    0    0  502  503 -0.00000000000E+00 -0.00000000000E+00 -0.15455338596E+03  0.15455338596E+03  0.00000000000E+00 0. -1.
         -6    2    1    2    0  503  0.71332339815E+02 -0.78572759427E+02  0.89747726282E+02  0.22080839040E+03  0.17158003867E+03 0.  0.
        -24    2    3    3    0    0 -0.11254602888E+02 -0.78167420911E+02  0.78901672713E+02  0.13737881362E+03  0.80066551666E+02 0.  0.
          6    2    1    2  501    0 -0.71332339815E+02  0.78572759427E+02  0.32888998269E+02  0.21093510607E+03  0.17930407563E+03 0.  0.
         24    2    5    5    0    0 -0.64336378660E+02  0.71606694644E+02  0.85463365827E+02  0.15723572381E+03  0.90290628561E+02 0.  0.
          5    1    5    5  501    0 -0.69959611549E+01  0.69660647825E+01 -0.52574367558E+02  0.53699382260E+02  0.47000000000E+01 0. -1.
        -13    1    6    6    0    0 -0.73978576230E+02  0.28914005480E+02  0.80663463105E+02  0.11320531672E+03  0.00000000000E+00 0.  1.
         14    1    6    6    0    0  0.96421975698E+01  0.42692689164E+02  0.47999027219E+01  0.44030407086E+02  0.00000000000E+00 0. -1.
         -5    1    3    3    0  503  0.82586942703E+02 -0.40533851619E+00  0.10846053568E+02  0.83429576784E+02  0.47000000000E+01 0.  1.
         11    1    4    4    0    0  0.31581188629E+01 -0.28232495757E+02 -0.13430901253E+02  0.31423504577E+02  0.00000000000E+00 0. -1.
        -12    1    4    4    0    0 -0.14412721751E+02 -0.49934925154E+02  0.92332573967E+02  0.10595530904E+03  0.00000000000E+00 0.  1.
</event>
<event>
12    1  0.8488291E-002  0.2691654E+03  0.7818608E-02  0.1101827E+00
         21   -1    0    0  503  502  0.00000000000E+00  0.00000000000E+00  0.12919258110E+03  0.12919258110E+03  0.00000000000E+00 0.  1.
         21   -1    0    0  501  503 -0.00000000000E+00 -0.00000000000E+00 -0.16790190483E+04  0.16790190483E+04  0.00000000000E+00 0. -1.
          6    2    1    2  501    0 -0.18931930445E+03 -0.82298806798E+02 -0.15128431895E+04  0.15365173173E+04  0.17197691033E+03 0.  0.
         24    2    3    3    0    0 -0.53799833894E+02 -0.53724520212E+02 -0.44419052985E+03  0.45891692116E+03  0.86710827040E+02 0.  0.
         -6    2    1    2    0  502  0.18931930445E+03  0.82298806798E+02 -0.36983277704E+02  0.27169431210E+03  0.17272852620E+03 0.  0.
        -24    2    5    5    0    0  0.21279800382E+03  0.82843072009E+02 -0.45478117948E+02  0.24628175891E+03  0.80252604651E+02 0.  0.
          5    1    3    3  501    0 -0.13551947055E+03 -0.28574286586E+02 -0.10686526597E+04  0.10776003961E+04  0.47000000000E+01 0. -1.
        -13    1    4    4    0    0 -0.56212316427E+02 -0.40914313929E+02 -0.16030963989E+03  0.17473690579E+03  0.00000000000E+00 0.  1.
         14    1    4    4    0    0  0.24124825326E+01 -0.12810206283E+02 -0.28388088996E+03  0.28418001538E+03  0.00000000000E+00 0. -1.
         -5    1    5    5    0  502 -0.23478699370E+02 -0.54426521025E+00  0.84948402439E+01  0.25412553188E+02  0.47000000000E+01 0.  1.
         13    1    6    6    0    0  0.24895830502E+02  0.31583113974E+02 -0.31368540506E+02  0.51002752849E+02  0.00000000000E+00 0. -1.
        -14    1    6    6    0    0  0.18790217332E+03  0.51259958034E+02 -0.14109577442E+02  0.19527900607E+03  0.00000000000E+00 0.  1.
</event>
<event>
12    1  0.8488291E-002  0.3181483E+03  0.7818608E-02  0.1076552E+00
         21   -1    0    0  503  502  0.00000000000E+00  0.00000000000E+00  0.69068555076E+02  0.69068555076E+02  0.00000000000E+00 0. -1.
         21   -1    0    0  501  503 -0.00000000000E+00 -0.00000000000E+00 -0.16188969099E+04  0.16188969099E+04  0.00000000000E+00 0.  1.
          6    2    1    2  501    0  0.22509099089E+03  0.14533629517E+03 -0.51305129805E+03  0.60347248175E+03  0.17078878455E+03 0.  0.
         24    2    3    3    0    0  0.48317036450E+02  0.15359207423E+02 -0.17047542224E+03  0.19662681692E+03  0.83843868463E+02 0.  0.
         -6    2    1    2    0  502 -0.22509099089E+03 -0.14533629517E+03 -0.10367770568E+04  0.10844929832E+04  0.17155107791E+03 0.  0.
        -24    2    5    5    0    0 -0.29528716399E+02 -0.48864069631E+02 -0.37135773461E+03  0.38423841679E+03  0.80454654852E+02 0.  0.
          5    1    3    3  501    0  0.17677395444E+03  0.12997708775E+03 -0.34257587581E+03  0.40684566483E+03  0.47000000000E+01 0. -1.
        -11    1    4    4    0    0  0.14139252916E+02  0.44056732661E+02 -0.49868332273E+02  0.68027676202E+02  0.00000000000E+00 0.  1.
         12    1    4    4    0    0  0.34177783535E+02 -0.28697525238E+02 -0.12060708997E+03  0.12859914072E+03  0.00000000000E+00 0. -1.
         -5    1    5    5    0  502 -0.19556227449E+03 -0.96472225539E+02 -0.66541932215E+03  0.70025456642E+03  0.47000000000E+01 0.  1.
         11    1    6    6    0    0  0.62908964428E+01  0.14095121498E+02 -0.16140705493E+03  0.16214340939E+03  0.00000000000E+00 0. -1.
        -12    1    6    6    0    0 -0.35819612842E+02 -0.62959191129E+02 -0.20995067968E+03  0.22209500739E+03  0.00000000000E+00 0.  1.
</event>
<event>
12    1  0.8488291E-002  0.2038078E+03  0.7818608E-02  0.1147047E+00
         21   -1    0    0  501  502  0.00000000000E+00  0.00000000000E+00  0.10981502425E+03  0.10981502425E+03  0.00000000000E+00 0.  1.
         21   -1    0    0  502  503 -0.00000000000E+00 -0.00000000000E+00 -0.41331357537E+03  0.41331357537E+03  0.00000000000E+00 0. -1.
         -6    2    1    2    0  503  0.66694001282E+02 -0.85684657503E+02 -0.23168379562E+03  0.30703837422E+03  0.16972104097E+03 0.  0.
        -24    2    3    3    0    0  0.10840897056E+03 -0.42019270379E+02 -0.15409596592E+03  0.20860684466E+03  0.79076702907E+02 0.  0.
          6    2    1    2  501    0 -0.66694001282E+02  0.85684657503E+02 -0.71814755501E+02  0.21609022540E+03  0.17247514623E+03 0.  0.
         24    2    5    5    0    0  0.24295800955E+02  0.69202215432E+02 -0.20681081206E+02  0.11031897385E+03  0.79770522788E+02 0.  0.
          5    1    5    5  501    0 -0.90989802237E+02  0.16482442071E+02 -0.51133674295E+02  0.10577125155E+03  0.47000000000E+01 0. -1.
        -11    1    6    6    0    0  0.78184416785E+01  0.61197779160E+02 -0.47485018847E+02  0.77853215857E+02  0.00000000000E+00 0.  1.
         12    1    6    6    0    0  0.16477359276E+02  0.80044362723E+01  0.26803937641E+02  0.32465757989E+02  0.00000000000E+00 0. -1.
         -5    1    3    3    0  503 -0.41714969276E+02 -0.43665387124E+02 -0.77587829696E+02  0.98431529559E+02  0.47000000000E+01 0.  1.
         11    1    4    4    0    0  0.16243627787E+02  0.14547987479E+02 -0.64778547955E+02  0.68350271825E+02  0.00000000000E+00 0. -1.
        -12    1    4    4    0    0  0.92165342772E+02 -0.56567257858E+02 -0.89317417969E+02  0.14025657283E+03  0.00000000000E+00 0.  1.
</event>
<event>
12    1  0.8488291E-002  0.1906635E+03  0.7818608E-02  0.1158244E+00
         21   -1    0    0  503  502  0.00000000000E+00  0.00000000000E+00  0.33386875284E+04  0.33386875284E+04  0.00000000000E+00 0.  1.
         21   -1    0    0  501  503 -0.00000000000E+00 -0.00000000000E+00 -0.14276829534E+02  0.14276829534E+02  0.00000000000E+00 0. -1.
          6    2    1    2  501    0  0.46405761801E+02 -0.62292526637E+02  0.83955230528E+03  0.86093009760E+03  0.17412267529E+03 0.  0.
         24    2    3    3    0    0  0.64233658331E+02 -0.56907911658E+02  0.32001324857E+03  0.34103611858E+03  0.80825006311E+02 0.  0.
         -6    2    1    2    0  502 -0.46405761801E+02  0.62292526637E+02  0.24848583935E+04  0.24920342603E+04  0.17227787116E+03 0.  0.
        -24    2    5    5    0    0  0.78817595493E+01 -0.34612797288E+01  0.14460020721E+04  0.14496738406E+04  0.10275285340E+03 0.  0.
          5    1    3    3  501    0 -0.17827896530E+02 -0.53846149788E+01  0.51953905671E+03  0.51989397902E+03  0.47000000000E+01 0. -1.
        -11    1    4    4    0    0  0.52535379529E+02 -0.72923493508E+02  0.29867260854E+03  0.31190243523E+03  0.00000000000E+00 0.  1.
         12    1    4    4    0    0  0.11698278802E+02  0.16015581850E+02  0.21340640022E+02  0.29133683349E+02  0.00000000000E+00 0. -1.
         -5    1    5    5    0  502 -0.54287521350E+02  0.65753806366E+02  0.10388563214E+04  0.10423604197E+04  0.47000000000E+01 0.  1.
         13    1    6    6    0    0 -0.20709258244E+02  0.42638552727E+02  0.79717368603E+03  0.79858174613E+03  0.00000000000E+00 0. -1.
        -14    1    6    6    0    0  0.28591017794E+02 -0.46099832456E+02  0.64882838610E+03  0.65109209445E+03  0.00000000000E+00 0.  1.
</event>
<event>
12    1  0.8488291E-002  0.2296048E+03  0.7818608E-02  0.1129502E+00
         21   -1    0    0  501  502  0.00000000000E+00  0.00000000000E+00  0.29386581545E+03  0.29386581545E+03  0.00000000000E+00 0. -1.
         21   -1    0    0  502  503 -0.00000000000E+00 -0.00000000000E+00 -0.20319224307E+03  0.20319224307E+03  0.00000000000E+00 0. -1.
         -6    2    1    2    0  503 -0.76720331067E+02 -0.10743255971E+03 -0.58506876350E+02  0.22324579933E+03  0.17025823991E+03 0.  0.
        -24    2    3    3    0    0 -0.45599513032E+02 -0.13397565021E+03 -0.74780175317E+02  0.17897446292E+03  0.80068678775E+02 0.  0.
          6    2    1    2  501    0  0.76720331067E+02  0.10743255971E+03  0.14918044873E+03  0.27381225918E+03  0.18785787956E+03 0.  0.
         24    2    5    5    0    0  0.10010773501E+03  0.49854658586E+02  0.15952715084E+03  0.21063528865E+03  0.80070390161E+02 0.  0.
          5    1    5    5  501    0 -0.23387403946E+02  0.57577901120E+02 -0.10346702105E+02  0.63176970529E+02  0.47000000000E+01 0. -1.
        -13    1    6    6    0    0  0.47851208193E+02  0.23333999117E+02  0.13849403189E+03  0.14837388756E+03  0.00000000000E+00 0.  1.
         14    1    6    6    0    0  0.52256526820E+02  0.26520659469E+02  0.21033118949E+02  0.62261401098E+02  0.00000000000E+00 0. -1.
         -5    1    3    3    0  503 -0.31120818035E+02  0.26543090500E+02  0.16273298967E+02  0.44271336412E+02  0.47000000000E+01 0.  1.
         11    1    4    4    0    0 -0.38014300463E+02 -0.22363207617E+02 -0.45432475109E+02  0.63319111563E+02  0.00000000000E+00 0. -1.
        -12    1    4    4    0    0 -0.75852125693E+01 -0.11161244259E+03 -0.29347700208E+02  0.11565535136E+03  0.00000000000E+00 0.  1.
</event>
<event>
12    1  0.8488291E-002  0.2226981E+03  0.7818608E-02  0.1132359E+00
         21   -1    0    0  501  502  0.00000000000E+00  0.00000000000E+00  0.16738823603E+03  0.16738823603E+03  0.00000000000E+00 0. -1.
         21   -1    0    0  502  503 -0.00000000000E+00 -0.00000000000E+00 -0.30984440168E+03  0.30984440168E+03  0.00000000000E+00 0.  1.
         -6    2    1    2    0  503 -0.24352419460E+02  0.13294001186E+03 -0.15805451910E+02  0.22325823885E+03  0.17699814071E+03 0.  0.
        -24    2    3    3    0    0 -0.52752417012E+01  0.96726110030E+01  0.32766517323E+02  0.89317516807E+02  0.82356460417E+02 0.  0.
          6    2    1    2  501    0  0.24352419460E+02 -0.13294001186E+03 -0.12665071374E+03  0.25397439886E+03  0.17377141565E+03 0.  0.
         24    2    5    5    0    0  0.49983087283E+02 -0.15078155205E+03 -0.77797940014E+02  0.19580279763E+03  0.83981132622E+02 0.  0.
          5    1    5    5  501    0 -0.25630667823E+02  0.17841540185E+02 -0.48852773723E+02  0.58171601230E+02  0.47000000000E+01 0. -1.
        -11    1    6    6    0    0  0.13309166404E+02 -0.95347275570E+02 -0.85670363246E+02  0.12887066388E+03  0.00000000000E+00 0.  1.
         12    1    6    6    0    0  0.36673920879E+02 -0.55434276477E+02  0.78724232319E+01  0.66932133753E+02  0.00000000000E+00 0. -1.
         -5    1    3    3    0  503 -0.19077177759E+02  0.12326740086E+03 -0.48571969233E+02  0.13394072204E+03  0.47000000000E+01 0.  1.
         11    1    4    4    0    0  0.85422582926E+01  0.37311100223E+02 -0.70470737065E+01  0.38919784486E+02  0.00000000000E+00 0. -1.
        -12    1    4    4    0    0 -0.13817499994E+02 -0.27638489220E+02  0.39813591030E+02  0.50397732321E+02  0.00000000000E+00 0.  1.
</event>
<event>
12    1  0.8488291E-002  0.2271223E+03  0.7818608E-02  0.1128965E+00
         21   -1    0    0  503  502  0.00000000000E+00  0.00000000000E+00  0.22874298046E+03  0.22874298046E+03  0.00000000000E+00 0. -1.
         21   -1    0    0  501  503 -0.00000000000E+00 -0.00000000000E+00 -0.22552461895E+03  0.22552461895E+03  0.00000000000E+00 0.  1.
          6    2    1    2  501    0 -0.97594985292E+02 -0.10861806612E+03 -0.17372973211E+02  0.22778579967E+03  0.17395943461E+03 0.  0.
         24    2    3    3    0    0 -0.11975029429E+03 -0.33698781309E+02 -0.22406471975E+02  0.14935632139E+03  0.79558279948E+02 0.  0.
         -6    2    1    2    0  502  0.97594985292E+02  0.10861806612E+03  0.20591334723E+02  0.22648179973E+03  0.17189338877E+03 0.  0.
        -24    2    5    5    0    0  0.65696228679E+02  0.74780829844E+02  0.80790927846E+02  0.15026782303E+03  0.78390545613E+02 0.  0.
          5    1    3    3  501    0  0.22155308997E+02 -0.74919284815E+02  0.50334987639E+01  0.78429478283E+02  0.47000000000E+01 0. -1.
        -13    1    4    4    0    0 -0.14248576109E+02 -0.31638489464E+01 -0.35847778246E+02  0.38705233063E+02  0.00000000000E+00 0.  1.
         14    1    4    4    0    0 -0.10550171818E+03 -0.30534932363E+02  0.13441306271E+02  0.11065108833E+03  0.00000000000E+00 0. -1.
         -5    1    5    5    0  502  0.31898756612E+02  0.33837236280E+02 -0.60199593123E+02  0.76213976701E+02  0.47000000000E+01 0.  1.
         11    1    6    6    0    0  0.44729764404E+00  0.50153569570E+02  0.58484485611E+02  0.77045542849E+02  0.00000000000E+00 0. -1.
        -12    1    6    6    0    0  0.65248931035E+02  0.24627260274E+02  0.22306442235E+02  0.73222280182E+02  0.00000000000E+00 0.  1.
</event>
<event>
12    1  0.8488291E-002  0.2292086E+03  0.7818608E-02  0.1127428E+00
         21   -1    0    0  501  502  0.00000000000E+00  0.00000000000E+00  0.59686087187E+03  0.59686087187E+03  0.00000000000E+00 0. -1.
         21   -1    0    0  502  503 -0.00000000000E+00 -0.00000000000E+00 -0.10307271352E+03  0.10307271352E+03  0.00000000000E+00 0. -1.
         -6    2    1    2    0  503  0.94873395143E+02 -0.11692336116E+03  0.11156426466E+03  0.25491800316E+03  0.17281368491E+03 0.  0.
        -24    2    3    3    0    0  0.84826505346E+02 -0.26470950486E+02  0.11002559689E+03  0.16377505998E+03  0.82585659004E+02 0.  0.
          6    2    1    2  501    0 -0.94873395143E+02  0.11692336116E+03  0.38222389369E+03  0.44501558222E+03  0.17108983027E+03 0.  0.
         24    2    5    5    0    0 -0.11748423952E+02  0.47240281171E+01  0.19523402075E+03  0.21159374572E+03  0.80593104329E+02 0.  0.
          5    1    5    5  501    0 -0.83124971192E+02  0.11219933304E+03  0.18698987295E+03  0.23342183650E+03  0.47000000000E+01 0. -1.
        -13    1    6    6    0    0  0.10313384500E+02 -0.15129632227E+02  0.48933808226E+01  0.18953016832E+02  0.00000000000E+00 0.  1.
         14    1    6    6    0    0 -0.22061808452E+02  0.19853660344E+02  0.19034063992E+03  0.19264072889E+03  0.00000000000E+00 0. -1.
         -5    1    3    3    0  503  0.10046889798E+02 -0.90452410675E+02  0.15386677687E+01  0.91142943172E+02  0.47000000000E+01 0.  1.
         13    1    4    4    0    0  0.38089035870E+01 -0.34350021795E+02  0.12520447808E+02  0.36758582089E+02  0.00000000000E+00 0. -1.
        -14    1    4    4    0    0  0.81017601759E+02  0.78790713097E+01  0.97505149081E+02  0.12701647789E+03  0.00000000000E+00 0.  1.
</event>
<event>
12    1  0.8488291E-002  0.1751901E+03  0.7818608E-02  0.1172646E+00
         21   -1    0    0  501  502  0.00000000000E+00  0.00000000000E+00  0.12537994718E+03  0.12537994718E+03  0.00000000000E+00 0. -1.
         21   -1    0    0  502  503 -0.00000000000E+00 -0.00000000000E+00 -0.27081598199E+03  0.27081598199E+03  0.00000000000E+00 0. -1.
         -6    2    1    2    0  503 -0.51034120444E+01  0.34107071558E+02 -0.10697284849E+02  0.17551638817E+03  0.17176214213E+03 0.  0.
        -24    2    3    3    0    0  0.30562226219E+02  0.33716384405E+02  0.52079177364E+02  0.10316195087E+03  0.76546085101E+02 0.  0.
          6    2    1    2  501    0  0.51034120444E+01 -0.34107071558E+02 -0.13473874996E+03  0.22067954099E+03  0.17133473648E+03 0.  0.
         24    2    5    5    0    0  0.44072540836E+02 -0.58545897301E+01 -0.14447227345E+03  0.17134773373E+03  0.80691653730E+02 0.  0.
          5    1    5    5  501    0 -0.38969128792E+02 -0.28252481828E+02  0.97335234869E+01  0.49331807262E+02  0.47000000000E+01 0. -1.
        -13    1    6    6    0    0 -0.21758794554E+02 -0.11155108960E+02 -0.54533325109E+02  0.59764246367E+02  0.00000000000E+00 0.  1.
         14    1    6    6    0    0  0.65831335390E+02  0.53005192300E+01 -0.89938948338E+02  0.11158348736E+03  0.00000000000E+00 0. -1.
         -5    1    3    3    0  503 -0.35665638263E+02  0.39068715263E+00 -0.62776462213E+02  0.72354437301E+02  0.47000000000E+01 0.  1.
         11    1    4    4    0    0  0.55460845005E+02  0.28718646627E+02  0.29053865004E+02  0.68882458321E+02  0.00000000000E+00 0. -1.
        -12    1    4    4    0    0 -0.24898618786E+02  0.49977377784E+01  0.23025312360E+02  0.34279492552E+02  0.00000000000E+00 0.  1.
</event>
<event>
12    1  0.8488291E-002  0.2119042E+03  0.7818608E-02  0.1140597E+00
         21   -1    0    0  503  502  0.00000000000E+00  0.00000000000E+00  0.56406141904E+02  0.56406141904E+02  0.00000000000E+00 0. -1.
         21   -1    0    0  501  503 -0.00000000000E+00 -0.00000000000E+00 -0.90222342980E+03  0.90222342980E+03  0.00000000000E+00 0. -1.
          6    2    1    2  501    0  0.10817526189E+03  0.59358857343E+02 -0.59258410084E+03  0.62843202267E+03  0.16895422252E+03 0.  0.
         24    2    3    3    0    0  0.13820114090E+03  0.65966300878E+02 -0.54410729826E+03  0.57083599755E+03  0.79686108490E+02 0.  0.
         -6    2    1    2    0  502 -0.10817526189E+03 -0.59358857343E+02 -0.25323318705E+03  0.33019754903E+03  0.17227307722E+03 0.  0.
        -24    2    5    5    0    0 -0.10950840148E+03 -0.16659824320E+02 -0.25309239142E+03  0.28721971166E+03  0.78547848006E+02 0.  0.
          5    1    3    3  501    0 -0.30025879004E+02 -0.66074435353E+01 -0.48476802584E+02  0.57596025113E+02  0.47000000000E+01 0. -1.
        -11    1    4    4    0    0 -0.66609417024E+01  0.18516259903E+02 -0.77562735238E+02  0.80019984521E+02  0.00000000000E+00 0.  1.
         12    1    4    4    0    0  0.14486208260E+03  0.47450040975E+02 -0.46654456302E+03  0.49081601303E+03  0.00000000000E+00 0. -1.
         -5    1    5    5    0  502  0.13331395927E+01 -0.42699033023E+02 -0.14079562659E+00  0.42977837378E+02  0.47000000000E+01 0.  1.
         11    1    6    6    0    0 -0.60981314630E+02 -0.32543767081E+02 -0.75186606944E+02  0.10213150040E+03  0.00000000000E+00 0. -1.
        -12    1    6    6    0    0 -0.48527086855E+02  0.15883942761E+02 -0.17790578448E+03  0.18508821126E+03  0.00000000000E+00 0.  1.
</event>
<event>
12    1  0.8488291E-002  0.1808159E+03  0.7818608E-02  0.1167315E+00
         21   -1    0    0  501  502  0.00000000000E+00  0.00000000000E+00  0.47596434780E+03  0.47596434780E+03  0.00000000000E+00 0.  1.
         21   -1    0    0  502  503 -0.00000000000E+00 -0.00000000000E+00 -0.68319611640E+02  0.68319611640E+02  0.00000000000E+00 0.  1.
         -6    2    1    2    0  503  0.13449923324E+02 -0.49494991390E+02  0.21484504790E+03  0.28080740809E+03  0.17338901702E+03 0.  0.
        -24    2    3    3    0    0  0.18746502170E+02  0.38860078690E+02  0.10690808451E+03  0.14113940810E+03  0.81421477057E+02 0.  0.
          6    2    1    2  501    0 -0.13449923324E+02  0.49494991390E+02  0.19279968826E+03  0.26347655135E+03  0.17209741051E+03 0.  0.
         24    2    5    5    0    0  0.20991722309E+02  0.53901470599E+02  0.20379824011E+03  0.22675187087E+03  0.80849658835E+02 0.  0.
          5    1    5    5  501    0 -0.34441645633E+02 -0.44064792089E+01 -0.10998551851E+02  0.36724680472E+02  0.47000000000E+01 0. -1.
        -13    1    6    6    0    0 -0.21673107217E+01  0.70684462974E+02  0.14947432831E+03  0.16535889866E+03  0.00000000000E+00 0.  1.
         14    1    6    6    0    0  0.23159033031E+02 -0.16782992375E+02  0.54323911806E+02  0.61392972219E+02  0.00000000000E+00 0. -1.
         -5    1    3    3    0  503 -0.52965788463E+01 -0.88355070080E+02  0.10793696338E+03  0.13966799999E+03  0.47000000000E+01 0.  1.
         13    1    4    4    0    0 -0.12159189186E+02  0.39369776329E+02  0.14472009054E+02  0.43672236213E+02  0.00000000000E+00 0. -1.
        -14    1    4    4    0    0  0.30905691356E+02 -0.50969763860E+00  0.92436075459E+02  0.97467171890E+02  0.00000000000E+00 0.  1.
</event>
<event>
12    1  0.8488291E-002  0.1821809E+03  0.7818608E-02  0.1165753E+00
         21   -1    0    0  501  502  0.00000000000E+00  0.00000000000E+00  0.32270381750E+03  0.32270381750E+03  0.00000000000E+00 0.  1.
         21   -1    0    0  502  503 -0.00000000000E+00 -0.00000000000E+00 -0.11069319459E+03  0.11069319459E+03  0.00000000000E+00 0.  1.
         -6    2    1    2    0  503  0.15617190547E+02  0.61791239746E+02  0.47989787573E+02  0.18839557779E+03  0.17066874368E+03 0.  0.
        -24    2    3    3    0    0  0.11233462528E+02  0.10455162767E+03  0.11855738266E+02  0.13204464731E+03  0.78980990282E+02 0.  0.
          6    2    1    2  501    0 -0.15617190547E+02 -0.61791239746E+02  0.16402083535E+03  0.24500143430E+03  0.17047232746E+03 0.  0.
         24    2    5    5    0    0  0.35024202403E+02 -0.51631373857E+02  0.16398038713E+03  0.19313752401E+03  0.80746778858E+02 0.  0.
          5    1    5    5  501    0 -0.50641392950E+02 -0.10159865889E+02  0.40448217228E-01  0.51863910293E+02  0.47000000000E+01 0. -1.
        -13    1    6    6    0    0  0.27289495640E+02  0.91203999623E+01  0.10209467501E+03  0.10607177256E+03  0.00000000000E+00 0.  1.
         14    1    6    6    0    0  0.77347067629E+01 -0.60751773819E+02  0.61885712113E+02  0.87065751445E+02  0.00000000000E+00 0. -1.
         -5    1    3    3    0  503  0.43837280189E+01 -0.42760387920E+02  0.36134049307E+02  0.56350930478E+02  0.47000000000E+01 0.  1.
         11    1    4    4    0    0  0.28497669508E+02  0.12229496951E+02  0.21340759860E+02  0.37644465655E+02  0.00000000000E+00 0. -1.
        -12    1    4    4    0    0 -0.17264206979E+02  0.92322130714E+02 -0.94850215942E+01  0.94400181657E+02  0.00000000000E+00 0.  1.
</event>
<event>
12    1  0.8488291E-002  0.2182853E+03  0.7818608E-02  0.1135226E+00
         21   -1    0    0  503  502  0.00000000000E+00  0.00000000000E+00  0.25039502180E+03  0.25039502180E+03  0.00000000000E+00 0.  1.
         21   -1    0    0  501  503 -0.00000000000E+00 -0.00000000000E+00 -0.19019758567E+03  0.19019758567E+03  0.00000000000E+00 0.  1.
          6    2    1    2  501    0 -0.10260409793E+03  0.87412253737E+02  0.23459110308E+02  0.21923724561E+03  0.17130714227E+03 0.  0.
         24    2    3    3    0    0 -0.79820625059E+02  0.30592860342E+01  0.54622153183E+02  0.12635164373E+03  0.81243257188E+02 0.  0.
         -6    2    1    2    0  502  0.10260409793E+03 -0.87412253737E+02  0.36738325824E+02  0.22135536186E+03  0.17169737513E+03 0.  0.
        -24    2    5    5    0    0  0.86077799880E+02 -0.85883344777E+02  0.86177794748E+02  0.16899309322E+03  0.79666283371E+02 0.  0.
          5    1    3    3  501    0 -0.22783472867E+02  0.84352967702E+02 -0.31163042875E+02  0.92885601884E+02  0.47000000000E+01 0. -1.
        -13    1    4    4    0    0 -0.44426228740E+02  0.41577193071E+02  0.21996679718E+02  0.64700901866E+02  0.00000000000E+00 0.  1.
         14    1    4    4    0    0 -0.35394396319E+02 -0.38517907037E+02  0.32625473465E+02  0.61650741862E+02  0.00000000000E+00 0. -1.
         -5    1    5    5    0  502  0.16526298046E+02 -0.15289089592E+01 -0.49439468924E+02  0.52362268641E+02  0.47000000000E+01 0.  1.
         13    1    6    6    0    0 -0.13875168782E+02 -0.66812208976E+01  0.20221911390E+02  0.25418196664E+02  0.00000000000E+00 0. -1.
        -14    1    6    6    0    0  0.99952968662E+02 -0.79202123880E+02  0.65955883358E+02  0.14357489656E+03  0.00000000000E+00 0.  1.
</event>
<event>
12    1  0.8488291E-002  0.2612271E+03  0.7818608E-02  0.1106421E+00
         21   -1    0    0  503  502  0.00000000000E+00  0.00000000000E+00  0.23722120171E+03  0.23722120171E+03  0.00000000000E+00 0. -1.
         21   -1    0    0  501  503 -0.00000000000E+00 -0.00000000000E+00 -0.32293130226E+03  0.32293130226E+03  0.00000000000E+00 0.  1.
          6    2    1    2  501    0 -0.17918580559E+03  0.80600530580E+02 -0.13553179341E+03  0.29421683983E+03  0.17201942727E+03 0.  0.
         24    2    3    3    0    0 -0.11485251489E+03 -0.18451781213E+02 -0.11512323081E+03  0.17426379822E+03  0.59857703689E+02 0.  0.
         -6    2    1    2    0  502  0.17918580559E+03 -0.80600530580E+02  0.49821692864E+02  0.26593566414E+03  0.17214987053E+03 0.  0.
        -24    2    5    5    0    0  0.99910971872E+02 -0.83666527467E+02  0.90831768461E+02  0.17650515537E+03  0.76950435937E+02 0.  0.
          5    1    3    3  501    0 -0.64333290705E+02  0.99052311793E+02 -0.20408562600E+02  0.11995304161E+03  0.47000000000E+01 0. -1.
        -11    1    4    4    0    0 -0.10025987906E+03  0.78030183895E+01 -0.92811115652E+02  0.13684602162E+03  0.00000000000E+00 0.  1.
         12    1    4    4    0    0 -0.14592635831E+02 -0.26254799603E+02 -0.22312115159E+02  0.37417776598E+02  0.00000000000E+00 0. -1.
         -5    1    5    5    0  502  0.79274833722E+02  0.30659968872E+01 -0.41010075597E+02  0.89430508771E+02  0.47000000000E+01 0.  1.
         11    1    6    6    0    0  0.13081174578E+02 -0.59009927389E+02  0.44418328342E+02  0.75008509860E+02  0.00000000000E+00 0. -1.
        -12    1    6    6    0    0  0.86829797295E+02 -0.24656600078E+02  0.46413440119E+02  0.10149664551E+03  0.00000000000E+00 0.  1.
</event>
<event>
12    1  0.8488291E-002  0.1810807E+03  0.7818608E-02  0.1167056E+00
         21   -1    0    0  503  502  0.00000000000E+00  0.00000000000E+00  0.79639931788E+03  0.79639931788E+03  0.00000000000E+00 0.  1.
         21   -1    0    0  501  503 -0.00000000000E+00 -0.00000000000E+00 -0.45329694378E+02  0.45329694378E+02  0.00000000000E+00 0.  1.
          6    2    1    2  501    0 -0.50667085622E+02  0.20289775052E+02  0.50831790111E+03  0.53960849060E+03  0.17265979847E+03 0.  0.
         24    2    3    3    0    0  0.28608069280E+02 -0.21619027220E+02  0.20053709035E+03  0.21899655170E+03  0.80365173347E+02 0.  0.
         -6    2    1    2    0  502  0.50667085622E+02 -0.20289775052E+02  0.24275172240E+03  0.30212052166E+03  0.17137555935E+03 0.  0.
        -24    2    5    5    0    0 -0.28867127023E+01  0.43588417968E+02  0.91821101901E+02  0.12963697154E+03  0.80413595520E+02 0.  0.
          5    1    3    3  501    0 -0.79275154901E+02  0.41908802271E+02  0.30778081076E+03  0.32061193890E+03  0.47000000000E+01 0. -1.
        -11    1    4    4    0    0  0.39396129484E+02 -0.41980709500E+02  0.17670152941E+03  0.18584365872E+03  0.00000000000E+00 0.  1.
         12    1    4    4    0    0 -0.10788060205E+02  0.20361682281E+02  0.23835560935E+02  0.33152892986E+02  0.00000000000E+00 0. -1.
         -5    1    5    5    0  502  0.53553798324E+02 -0.63878193019E+02  0.15093062050E+03  0.17248355012E+03  0.47000000000E+01 0.  1.
         13    1    6    6    0    0  0.28545604114E+02 -0.43909404987E+01  0.53055354535E+02  0.60406974081E+02  0.00000000000E+00 0. -1.
        -14    1    6    6    0    0 -0.31432316817E+02  0.47979358466E+02  0.38765747366E+02  0.69229997459E+02  0.00000000000E+00 0.  1.
</event>
<event>
12    1  0.8488291E-002  0.2226407E+03  0.7818608E-02  0.1132084E+00
         21   -1    0    0  503  502  0.00000000000E+00  0.00000000000E+00  0.26391158884E+03  0.26391158884E+03  0.00000000000E+00 0.  1.
         21   -1    0    0  501  503 -0.00000000000E+00 -0.00000000000E+00 -0.23989953847E+03  0.23989953847E+03  0.00000000000E+00 0.  1.
          6    2    1    2  501    0 -0.12051857462E+02 -0.13879505937E+03 -0.10613856451E+03  0.24664607981E+03  0.17366513189E+03 0.  0.
         24    2    3    3    0    0  0.48793693531E+02 -0.12094627943E+03 -0.96894528894E+02  0.18239421435E+03  0.82887107931E+02 0.  0.
         -6    2    1    2    0  502  0.12051857462E+02  0.13879505937E+03  0.13015061488E+03  0.25716504750E+03  0.17258436583E+03 0.  0.
        -24    2    5    5    0    0  0.38017439857E+02  0.82953850655E+01  0.55242116568E+02  0.10439806946E+03  0.79580941918E+02 0.  0.
          5    1    3    3  501    0 -0.60845550993E+02 -0.17848779936E+02 -0.92440356168E+01  0.64251865462E+02  0.47000000000E+01 0. -1.
        -11    1    4    4    0    0 -0.12568525024E+02 -0.50035815500E+02 -0.65769714340E+02  0.83589508782E+02  0.00000000000E+00 0.  1.
         12    1    4    4    0    0  0.61362218555E+02 -0.70910463932E+02 -0.31124814554E+02  0.98804705566E+02  0.00000000000E+00 0. -1.
         -5    1    5    5    0  502 -0.25965582396E+02  0.13049967430E+03  0.74908498311E+02  0.15276697805E+03  0.47000000000E+01 0.  1.
         11    1    6    6    0    0  0.59964651782E+02  0.18865003393E+02  0.47656210489E+02  0.78884486527E+02  0.00000000000E+00 0. -1.
        -12    1    6    6    0    0 -0.21947211925E+02 -0.10569618327E+02  0.75859060786E+01  0.25513582929E+02  0.00000000000E+00 0.  1.
</event>
<event>
12    1  0.8488291E-002  0.2072567E+03  0.7818608E-02  0.1143841E+00
         21   -1    0    0  503  502  0.00000000000E+00  0.00000000000E+00  0.14390213521E+04  0.14390213521E+04  0.00000000000E+00 0. -1.
         21   -1    0    0  501  503 -0.00000000000E+00 -0.00000000000E+00 -0.33661855737E+02  0.33661855737E+02  0.00000000000E+00 0. -1.
          6    2    1    2  501    0 -0.85668136955E+02 -0.77170107121E+02  0.45359514715E+03  0.49870220237E+03  0.17222390659E+03 0.  0.
         24    2    3    3    0    0 -0.96924226820E+02 -0.41630714638E+02  0.18730754516E+03  0.22977670162E+03  0.81152904980E+02 0.  0.
         -6    2    1    2    0  502  0.85668136955E+02  0.77170107121E+02  0.95176434922E+03  0.97398100548E+03  0.17172468509E+03 0.  0.
        -24    2    5    5    0    0 -0.15575077153E+02  0.18647563101E+02  0.27584754769E+03  0.28800674273E+03  0.79156172570E+02 0.  0.
          5    1    3    3  501    0  0.11256089865E+02 -0.35539392483E+02  0.26628760199E+03  0.26892550075E+03  0.47000000000E+01 0. -1.
        -11    1    4    4    0    0 -0.65064433382E+01  0.21410374197E+02  0.39454007938E+02  0.45358093771E+02  0.00000000000E+00 0.  1.
         12    1    4    4    0    0 -0.90417783482E+02 -0.63041088835E+02  0.14785353722E+03  0.18441860785E+03  0.00000000000E+00 0. -1.
         -5    1    5    5    0  502  0.10124321411E+03  0.58522544020E+02  0.67591680153E+03  0.68597426275E+03  0.47000000000E+01 0.  1.
         11    1    6    6    0    0 -0.39012842461E+02  0.15610313501E+02  0.76651658089E+02  0.87413731486E+02  0.00000000000E+00 0. -1.
        -12    1    6    6    0    0  0.23437765309E+02  0.30372496005E+01  0.19919588960E+03  0.20059301125E+03  0.00000000000E+00 0.  1.
</event>
<event>
12    1  0.8488291E-002  0.3188882E+03  0.7818608E-02  0.1076178E+00
         21   -1    0    0  501  502  0.00000000000E+00  0.00000000000E+00  0.12657302816E+03  0.12657302816E+03  0.00000000000E+00 0.  1.
         21   -1    0    0  502  503 -0.00000000000E+00 -0.00000000000E+00 -0.11571937798E+04  0.11571937798E+04  0.00000000000E+00 0. -1.
         -6    2    1    2    0  503  0.26414251331E+03  0.48074300109E+02 -0.87032342981E+03  0.92685659321E+03  0.17180764315E+03 0.  0.
        -24    2    3    3    0    0  0.17354190617E+03  0.94193417805E+02 -0.65327970210E+03  0.68713693869E+03  0.79960053611E+02 0.  0.
          6    2    1    2  501    0 -0.26414251331E+03 -0.48074300109E+02 -0.16029732187E+03  0.35691021478E+03  0.17206761564E+03 0.  0.
         24    2    5    5    0    0 -0.25128738883E+03 -0.23049621094E+02 -0.86023339383E+02  0.27734764029E+03  0.76453004144E+02 0.  0.
          5    1    5    5  501    0 -0.12855124480E+02 -0.25024679015E+02 -0.74273982486E+02  0.79562574490E+02  0.47000000000E+01 0. -1.
        -13    1    6    6    0    0 -0.77901694877E+02 -0.40338408792E+02 -0.14145866206E+02  0.88859252863E+02  0.00000000000E+00 0.  1.
         14    1    6    6    0    0 -0.17338569395E+03  0.17288787698E+02 -0.71877473177E+02  0.18848838743E+03  0.00000000000E+00 0. -1.
         -5    1    3    3    0  503  0.90600607134E+02 -0.46119117696E+02 -0.21704372771E+03  0.23971965453E+03  0.47000000000E+01 0.  1.
         13    1    4    4    0    0  0.15655077615E+02  0.12776220244E+02 -0.18826216741E+03  0.18934348929E+03  0.00000000000E+00 0. -1.
        -14    1    4    4    0    0  0.15788682856E+03  0.81417197561E+02 -0.46501753470E+03  0.49779344940E+03  0.00000000000E+00 0.  1.
</event>
<event>
12    1  0.8488291E-002  0.1808749E+03  0.7818608E-02  0.1167279E+00
         21   -1    0    0  501  502  0.00000000000E+00  0.00000000000E+00  0.23576158933E+03  0.23576158933E+03  0.00000000000E+00 0. -1.
         21   -1    0    0  502  503 -0.00000000000E+00 -0.00000000000E+00 -0.14640099516E+03  0.14640099516E+03  0.00000000000E+00 0. -1.
         -6    2    1    2    0  503 -0.55319101066E+02  0.91727045145E+01 -0.16133186515E+01  0.18088207936E+03  0.17196331697E+03 0.  0.
        -24    2    3    3    0    0 -0.59285430930E+02 -0.55495240004E+02  0.12703268483E+02  0.11436343920E+03  0.79518169072E+02 0.  0.
          6    2    1    2  501    0  0.55319101066E+02 -0.91727045145E+01  0.90973912820E+02  0.20128050513E+03  0.17056742796E+03 0.  0.
         24    2    5    5    0    0 -0.35137002654E+02 -0.14639384316E+02  0.32410769278E+02  0.93280861286E+02  0.78752400525E+02 0.  0.
          5    1    5    5  501    0  0.90456103719E+02  0.54666798015E+01  0.58563143542E+02  0.10799964384E+03  0.47000000000E+01 0. -1.
        -11    1    6    6    0    0 -0.13048088771E+02  0.24203021071E+02  0.39408039769E+02  0.48052392739E+02  0.00000000000E+00 0.  1.
         12    1    6    6    0    0 -0.22088913883E+02 -0.38842405387E+02 -0.69972704915E+01  0.45228468547E+02  0.00000000000E+00 0. -1.
         -5    1    3    3    0  503  0.39663298643E+01  0.64667944518E+02 -0.14316587134E+02  0.66518640155E+02  0.47000000000E+01 0.  1.
         13    1    4    4    0    0 -0.21039512998E+01  0.12477990106E+02  0.21661425276E+02  0.25086733409E+02  0.00000000000E+00 0. -1.
        -14    1    4    4    0    0 -0.57181479630E+02 -0.67973230110E+02 -0.89581567938E+01  0.89276705794E+02  0.00000000000E+00 0.  1.
</event>
<event>
12    1  0.8488291E-002  0.2058399E+03  0.7818608E-02  0.1145692E+00
         21   -1    0    0  501  502  0.00000000000E+00  0.00000000000E+00  0.15270316959E+03  0.15270316959E+03  0.00000000000E+00 0.  1.
         21   -1    0    0  502  503 -0.00000000000E+00 -0.00000000000E+00 -0.31132822851E+03  0.31132822851E+03  0.00000000000E+00 0.  1.
         -6    2    1    2    0  503 -0.91981281699E+01  0.10667215722E+03 -0.16209862587E+03  0.26200384850E+03  0.17580243864E+03 0.  0.
        -24    2    3    3    0    0 -0.35703360834E+01  0.11973435292E+03 -0.18521568492E+03  0.23445786114E+03  0.79476890601E+02 0.  0.
          6    2    1    2  501    0  0.91981281699E+01 -0.10667215722E+03  0.34735669401E+01  0.20202754960E+03  0.17128780004E+03 0.  0.
         24    2    5    5    0    0  0.64026493054E+02 -0.85248566926E+02  0.29147637604E+02  0.13763525409E+03  0.82019317325E+02 0.  0.
          5    1    5    5  501    0 -0.54828364884E+02 -0.21423590294E+02 -0.25674070664E+02  0.64392295513E+02  0.47000000000E+01 0. -1.
        -13    1    6    6    0    0  0.78163865871E+01 -0.76995991082E+02  0.21405940827E+02  0.80297527014E+02  0.00000000000E+00 0.  1.
         14    1    6    6    0    0  0.56210106467E+02 -0.82525758443E+01  0.77416967771E+01  0.57337727074E+02  0.00000000000E+00 0. -1.
         -5    1    3    3    0  503 -0.56277920865E+01 -0.13062195695E+02  0.23117059058E+02  0.27545987360E+02  0.47000000000E+01 0.  1.
         13    1    4    4    0    0 -0.26280453690E+02  0.20729749997E+02 -0.86777119409E+02  0.93008887930E+02  0.00000000000E+00 0. -1.
        -14    1    4    4    0    0  0.22710117607E+02  0.99004602918E+02 -0.98438565515E+02  0.14144897321E+03  0.00000000000E+00 0.  1.
</event>
<event>
12    1  0.8488291E-002  0.1888629E+03  0.7818608E-02  0.1161158E+00
         21   -1    0    0  501  502  0.00000000000E+00  0.00000000000E+00  0.96457580104E+03  0.96457580104E+03  0.00000000000E+00 0.  1.
         21   -1    0    0  502  503 -0.00000000000E+00 -0.00000000000E+00 -0.36346164287E+02  0.36346164287E+02  0.00000000000E+00 0. -1.
         -6    2    1    2    0  503 -0.39942801901E+02 -0.67256640595E+02  0.38293845504E+03  0.42385034568E+03  0.16397674241E+03 0.  0.
        -24    2    3    3    0    0 -0.41087437119E+02 -0.66344068002E+02  0.13140393659E+03  0.17226766155E+03  0.79494904346E+02 0.  0.
          6    2    1    2  501    0  0.39942801901E+02  0.67256640595E+02  0.54529118171E+03  0.57707161965E+03  0.17190200181E+03 0.  0.
         24    2    5    5    0    0 -0.40424273921E+02  0.13927657985E+02  0.22166215895E+03  0.23934290954E+03  0.79516124504E+02 0.  0.
          5    1    5    5  501    0  0.80367075823E+02  0.53328982610E+02  0.32362902276E+03  0.33772871011E+03  0.47000000000E+01 0. -1.
        -11    1    6    6    0    0  0.14367854441E+02 -0.17548251351E+02  0.96560355633E+02  0.99188097304E+02  0.00000000000E+00 0.  1.
         12    1    6    6    0    0 -0.54792128362E+02  0.31475909336E+02  0.12510180332E+03  0.14015481224E+03  0.00000000000E+00 0. -1.
         -5    1    3    3    0  503  0.11446352176E+01 -0.91257259274E+00  0.25153451845E+03  0.25158268412E+03  0.47000000000E+01 0.  1.
         11    1    4    4    0    0 -0.16207495345E+02 -0.47469068578E+02  0.13181436766E+03  0.14103553771E+03  0.00000000000E+00 0. -1.
        -12    1    4    4    0    0 -0.24879941774E+02 -0.18874999424E+02 -0.41043106465E+00  0.31232123841E+02  0.00000000000E+00 0.  1.
</event>
<event>
12    1  0.8488291E-002  0.1738778E+03  0.7818608E-02  0.1174556E+00
         21   -1    0    0  501  502  0.00000000000E+00  0.00000000000E+00  0.55430772242E+02  0.55430772242E+02  0.00000000000E+00 0. -1.
         21   -1    0    0  502  503 -0.00000000000E+00 -0.00000000000E+00 -0.55669992898E+03  0.55669992898E+03  0.00000000000E+00 0. -1.
         -6    2    1    2    0  503 -0.75011671903E+01  0.48173160381E+01 -0.31018721304E+03  0.35559749611E+03  0.17364906582E+03 0.  0.
        -24    2    3    3    0    0 -0.53731012374E+02 -0.41724246241E+02 -0.22188456904E+03  0.24549407862E+03  0.80041528236E+02 0.  0.
          6    2    1    2  501    0  0.75011671903E+01 -0.48173160381E+01 -0.19108194370E+03  0.25653320512E+03  0.17093127882E+03 0.  0.
         24    2    5    5    0    0  0.26165990903E+02 -0.65614980626E+02 -0.11581151717E+03  0.15787998027E+03  0.80770018560E+02 0.  0.
          5    1    5    5  501    0 -0.18664823712E+02  0.60797664588E+02 -0.75270426528E+02  0.98653224850E+02  0.47000000000E+01 0. -1.
        -13    1    6    6    0    0 -0.22005839343E+02 -0.12295735544E+02 -0.65436496781E+02  0.70124012925E+02  0.00000000000E+00 0.  1.
         14    1    6    6    0    0  0.48171830246E+02 -0.53319245081E+02 -0.50375020388E+02  0.87755967343E+02  0.00000000000E+00 0. -1.
         -5    1    3    3    0  503  0.46229845183E+02  0.46541562279E+02 -0.88302644001E+02  0.11010341749E+03  0.47000000000E+01 0.  1.
         11    1    4    4    0    0 -0.42669356330E+02 -0.99277018762E+01 -0.20134816644E+03  0.20605901428E+03  0.00000000000E+00 0. -1.
        -12    1    4    4    0    0 -0.11061656044E+02 -0.31796544365E+02 -0.20536402599E+02  0.39435064342E+02  0.00000000000E+00 0.  1.
</event>
<event>
12    1  0.8488291E-002  0.2509983E+03  0.7818608E-02  0.1112687E+00
         21   -1    0    0  503  502  0.00000000000E+00  0.00000000000E+00  0.35995366538E+03  0.35995366538E+03  0.00000000000E+00 0.  1.
         21   -1    0    0  501  503 -0.00000000000E+00 -0.00000000000E+00 -0.41298209833E+03  0.41298209833E+03  0.00000000000E+00 0. -1.
          6    2    1    2  501    0 -0.13116333797E+03 -0.12735728563E+03 -0.31990699377E+03  0.40662100837E+03  0.17197808102E+03 0.  0.
         24    2    3    3    0    0 -0.38416890697E+02 -0.71776063160E+02 -0.67975131563E+02  0.13242595194E+03  0.79299139356E+02 0.  0.
         -6    2    1    2    0  502  0.13116333797E+03  0.12735728563E+03  0.26687856082E+03  0.36631475534E+03  0.17186807243E+03 0.  0.
        -24    2    5    5    0    0  0.85464995691E+02  0.15715632475E+03  0.21186647454E+03  0.28869555116E+03  0.80345145020E+02 0.  0.
          5    1    3    3  501    0 -0.92746447274E+02 -0.55581222466E+02 -0.25193186221E+03  0.27419505643E+03  0.47000000000E+01 0. -1.
        -11    1    4    4    0    0 -0.37236135205E+02 -0.50136353573E+02 -0.14591592324E+01  0.62468494942E+02  0.00000000000E+00 0.  1.
         12    1    4    4    0    0 -0.11807554918E+01 -0.21639709586E+02 -0.66515972331E+02  0.69957456998E+02  0.00000000000E+00 0. -1.
         -5    1    5    5    0  502  0.45698342279E+02 -0.29799039127E+02  0.55012086287E+02  0.77619204180E+02  0.47000000000E+01 0.  1.
         13    1    6    6    0    0  0.62594026893E+02  0.11535895299E+03  0.93632902917E+02  0.16122289151E+03  0.00000000000E+00 0. -1.
        -14    1    6    6    0    0  0.22870968798E+02  0.41797371757E+02  0.11823357162E+03  0.12747265965E+03  0.00000000000E+00 0.  1.
</event>
<event>
12    1  0.8488291E-002  0.1900757E+03  0.7818608E-02  0.1158485E+00
         21   -1    0    0  503  502  0.00000000000E+00  0.00000000000E+00  0.60762175238E+03  0.60762175238E+03  0.00000000000E+00 0. -1.
         21   -1    0    0  501  503 -0.00000000000E+00 -0.00000000000E+00 -0.94557322057E+02  0.94557322057E+02  0.00000000000E+00 0. -1.
          6    2    1    2  501    0 -0.50899631050E+02  0.62227300273E+02  0.42417477895E+02  0.19475111668E+03  0.17223746886E+03 0.  0.
         24    2    3    3    0    0 -0.69217319376E+02 -0.10431400272E+02  0.53175189661E+02  0.11890493792E+03  0.80068296181E+02 0.  0.
         -6    2    1    2    0  502  0.50899631050E+02 -0.62227300273E+02  0.47064695242E+03  0.50742795775E+03  0.17178931614E+03 0.  0.
        -24    2    5    5    0    0  0.32289171767E+02 -0.24672802733E+01  0.41454062996E+03  0.42323996214E+03  0.78990211883E+02 0.  0.
          5    1    3    3  501    0  0.18317688326E+02  0.72658700546E+02 -0.10757711765E+02  0.75846178764E+02  0.47000000000E+01 0. -1.
        -13    1    4    4    0    0 -0.25021748057E+02 -0.11806227424E+02  0.67073062565E+02  0.72555293423E+02  0.00000000000E+00 0.  1.
         14    1    4    4    0    0 -0.44195571319E+02  0.13748271519E+01 -0.13897872904E+02  0.46349644498E+02  0.00000000000E+00 0. -1.
         -5    1    5    5    0  502  0.18610459284E+02 -0.59760020000E+02  0.56106322461E+02  0.84187995612E+02  0.47000000000E+01 0.  1.
         11    1    6    6    0    0 -0.29261380869E+01 -0.27739851386E+02  0.29065342629E+03  0.29198882831E+03  0.00000000000E+00 0. -1.
        -12    1    6    6    0    0  0.35215309853E+02  0.25272571113E+02  0.12388720367E+03  0.13125113383E+03  0.00000000000E+00 0.  1.
</event>
<event>
12    1  0.8488291E-002  0.2142508E+03  0.7818608E-02  0.1138267E+00
         21   -1    0    0  503  502  0.00000000000E+00  0.00000000000E+00  0.12885559568E+03  0.12885559568E+03  0.00000000000E+00 0. -1.
         21   -1    0    0  501  503 -0.00000000000E+00 -0.00000000000E+00 -0.37253709643E+03  0.37253709643E+03  0.00000000000E+00 0.  1.
          6    2    1    2  501    0 -0.59425645230E+02  0.11124059917E+03 -0.69050427817E+02  0.22498821094E+03  0.17304870779E+03 0.  0.
         24    2    3    3    0    0  0.89089067521E+01  0.11930711704E+03 -0.61160993765E+02  0.15556910064E+03  0.78406129355E+02 0.  0.
         -6    2    1    2    0  502  0.59425645230E+02 -0.11124059917E+03 -0.17463107293E+03  0.27640448117E+03  0.17319800046E+03 0.  0.
        -24    2    5    5    0    0  0.81302698720E+02 -0.12966587499E+03 -0.10843540124E+03  0.20414070595E+03  0.80571853822E+02 0.  0.
          5    1    3    3  501    0 -0.68334551982E+02 -0.80665178705E+01 -0.78894340514E+01  0.69419110300E+02  0.47000000000E+01 0. -1.
        -13    1    4    4    0    0  0.34403791887E+02  0.27660760539E+02 -0.36546775221E+02  0.57309731712E+02  0.00000000000E+00 0.  1.
         14    1    4    4    0    0 -0.25494885135E+02  0.91646356504E+02 -0.24614218544E+02  0.98259368933E+02  0.00000000000E+00 0. -1.
         -5    1    5    5    0  502 -0.21877053490E+02  0.18425275816E+02 -0.66195671686E+02  0.72263775214E+02  0.47000000000E+01 0.  1.
         13    1    6    6    0    0  0.25790206670E+01 -0.13497247593E+02 -0.50474769094E+02  0.52311847179E+02  0.00000000000E+00 0. -1.
        -14    1    6    6    0    0  0.78723678053E+02 -0.11616862740E+03 -0.57960632147E+02  0.15182885877E+03  0.00000000000E+00 0.  1.
</event>
<event>
12    1  0.8488291E-002  0.2308270E+03  0.7818608E-02  0.1126273E+00
         21   -1    0    0  503  502  0.00000000000E+00  0.00000000000E+00  0.16965293943E+03  0.16965293943E+03  0.00000000000E+00 0. -1.
         21   -1    0    0  501  503 -0.00000000000E+00 -0.00000000000E+00 -0.34923139199E+03  0.34923139199E+03  0.00000000000E+00 0. -1.
          6    2    1    2  501    0  0.10761036428E+03  0.10746245652E+03 -0.17382268134E+03  0.28798553820E+03  0.17202667119E+03 0.  0.
         24    2    3    3    0    0  0.24107244756E+02 -0.10676736180E+02 -0.67483417277E+02  0.10837549142E+03  0.80598285270E+02 0.  0.
         -6    2    1    2    0  502 -0.10761036428E+03 -0.10746245652E+03 -0.57557712173E+01  0.23089879322E+03  0.17364605883E+03 0.  0.
        -24    2    5    5    0    0 -0.12641141749E+03 -0.12477422796E+03 -0.28534737027E+02  0.19634234207E+03  0.78661487649E+02 0.  0.
          5    1    3    3  501    0  0.83503119524E+02  0.11813919270E+03 -0.10633926407E+03  0.17961004678E+03  0.47000000000E+01 0. -1.
        -13    1    4    4    0    0  0.33710290307E+02 -0.37088243268E+02 -0.62031297156E+02  0.79748374831E+02  0.00000000000E+00 0.  1.
         14    1    4    4    0    0 -0.96030455515E+01  0.26411507088E+02 -0.54521201203E+01  0.28627116591E+02  0.00000000000E+00 0. -1.
         -5    1    5    5    0  502  0.18801053214E+02  0.17311771441E+02  0.22778965809E+02  0.34556451145E+02  0.47000000000E+01 0.  1.
         11    1    6    6    0    0 -0.18701859549E+02 -0.54931755885E+02  0.16453534176E+02  0.60315637624E+02  0.00000000000E+00 0. -1.
        -12    1    6    6    0    0 -0.10770955794E+03 -0.69842472072E+02 -0.44988271202E+02  0.13602670445E+03  0.00000000000E+00 0.  1.
</event>
<event>
12    1  0.8488291E-002  0.1863605E+03  0.7818608E-02  0.1163026E+00
         21   -1    0    0  501  502  0.00000000000E+00  0.00000000000E+00  0.50468339853E+03  0.50468339853E+03  0.00000000000E+00 0. -1.
         21   -1    0    0  502  503 -0.00000000000E+00 -0.00000000000E+00 -0.67304859537E+02  0.67304859537E+02  0.00000000000E+00 0.  1.
         -6    2    1    2    0  503 -0.29579094467E+02 -0.62899492589E+02  0.19907636208E+03  0.27269326731E+03  0.17291313165E+03 0.  0.
        -24    2    3    3    0    0 -0.37862983648E+02 -0.11103706806E+01  0.31090662399E+02  0.93450962856E+02  0.79571444103E+02 0.  0.
          6    2    1    2  501    0  0.29579094467E+02  0.62899492589E+02  0.23830217691E+03  0.29929499076E+03  0.16720734128E+03 0.  0.
         24    2    5    5    0    0  0.40135119431E+02 -0.18703605367E+02  0.16253869047E+03  0.18734548814E+03  0.81968612053E+02 0.  0.
          5    1    5    5  501    0 -0.10556024964E+02  0.81603097956E+02  0.75763486442E+02  0.11194950262E+03  0.47000000000E+01 0. -1.
        -11    1    6    6    0    0 -0.28561834130E+01  0.28859917171E+02  0.53482825325E+02  0.60839668043E+02  0.00000000000E+00 0.  1.
         12    1    6    6    0    0  0.42991302844E+02 -0.47563522538E+02  0.10905586514E+03  0.12650582010E+03  0.00000000000E+00 0. -1.
         -5    1    3    3    0  503  0.82838891809E+01 -0.61789121908E+02  0.16798569968E+03  0.17924230445E+03  0.47000000000E+01 0.  1.
         11    1    4    4    0    0  0.58852923845E+01  0.32195467950E+02  0.16020508580E+02  0.36439559796E+02  0.00000000000E+00 0. -1.
        -12    1    4    4    0    0 -0.43748276032E+02 -0.33305838631E+02  0.15070153819E+02  0.57011403060E+02  0.00000000000E+00 0.  1.
</event>
<event>
12    1  0.8488291E-002  0.3369158E+03  0.7818608E-02  0.1068129E+00
         21   -1    0    0  501  502  0.00000000000E+00  0.00000000000E+00  0.77352051457E+03  0.77352051457E+03  0.00000000000E+00 0.  1.
         21   -1    0    0  502  503 -0.00000000000E+00 -0.00000000000E+00 -0.33062410912E+03  0.33062410912E+03  0.00000000000E+00 0. -1.
         -6    2    1    2    0  503  0.64027177198E+01  0.28985926646E+03  0.63322581720E+03  0.71727763570E+03  0.17161841965E+03 0.  0.
        -24    2    3    3    0    0  0.27686028774E+02  0.64878749499E+02  0.15360161606E+03  0.18706006087E+03  0.80138889380E+02 0.  0.
          6    2    1    2  501    0 -0.64027177198E+01 -0.28985926646E+03 -0.19032941176E+03  0.38686698799E+03  0.17141001217E+03 0.  0.
         24    2    5    5    0    0  0.49325614992E+02 -0.16818469985E+03 -0.64425070481E+02  0.20306181838E+03  0.79777207375E+02 0.  0.
          5    1    5    5  501    0 -0.55728332712E+02 -0.12167456660E+03 -0.12590434128E+03  0.18380516961E+03  0.47000000000E+01 0. -1.
        -13    1    6    6    0    0  0.32410304611E+01 -0.74905734780E+02  0.92945243369E+01  0.75549729080E+02  0.00000000000E+00 0.  1.
         14    1    6    6    0    0  0.46084584531E+02 -0.93278965074E+02 -0.73719594818E+02  0.12751208930E+03  0.00000000000E+00 0. -1.
         -5    1    3    3    0  503 -0.21283311054E+02  0.22498051696E+03  0.47962420114E+03  0.53021757483E+03  0.47000000000E+01 0.  1.
         13    1    4    4    0    0 -0.20422889513E+02 -0.55235231980E-01  0.60094952918E+02  0.63470472136E+02  0.00000000000E+00 0. -1.
        -14    1    4    4    0    0  0.48108918287E+02  0.64933984731E+02  0.93506663142E+02  0.12358958874E+03  0.00000000000E+00 0.  1.
</event>
<event>
12    1  0.8488291E-002  0.2279735E+03  0.7818608E-02  0.1128503E+00
         21   -1    0    0  503  502  0.00000000000E+00  0.00000000000E+00  0.13419470817E+03  0.13419470817E+03  0.00000000000E+00 0. -1.
         21   -1    0    0  501  503 -0.00000000000E+00 -0.00000000000E+00 -0.42535440185E+03  0.42535440185E+03  0.00000000000E+00 0. -1.
          6    2    1    2  501    0  0.14234821368E+03 -0.38409409828E+02 -0.23293044898E+03  0.32425659572E+03  0.17072624023E+03 0.  0.
         24    2    3    3    0    0  0.23797743737E+02 -0.63776140780E+02 -0.85561528424E+02  0.13337083483E+03  0.76375884269E+02 0.  0.
         -6    2    1    2    0  502 -0.14234821368E+03  0.38409409828E+02 -0.58229244706E+02  0.23529251430E+03  0.17387819198E+03 0.  0.
        -24    2    5    5    0    0 -0.15412163181E+03 -0.26561713880E+01 -0.15309508611E+02  0.17455381921E+03  0.80461929564E+02 0.  0.
          5    1    3    3  501    0  0.11855046994E+03  0.25366730952E+02 -0.14736892055E+03  0.19088576088E+03  0.47000000000E+01 0. -1.
        -13    1    4    4    0    0 -0.26534321484E+02 -0.95670048693E+01 -0.26666579337E+02  0.38816288492E+02  0.00000000000E+00 0.  1.
         14    1    4    4    0    0  0.50332065221E+02 -0.54209135910E+02 -0.58894949087E+02  0.94554546339E+02  0.00000000000E+00 0. -1.
         -5    1    5    5    0  502  0.11773418127E+02  0.41065581216E+02 -0.42919736095E+02  0.60738695092E+02  0.47000000000E+01 0.  1.
         13    1    6    6    0    0 -0.94751861530E+02  0.20290980385E+02  0.23889496448E+02  0.99801539010E+02  0.00000000000E+00 0. -1.
        -14    1    6    6    0    0 -0.59369770278E+02 -0.22947151773E+02 -0.39199005059E+02  0.74752280199E+02  0.00000000000E+00 0.  1.
</event>
<event>
12    1  0.8488291E-002  0.2270271E+03  0.7818608E-02  0.1129037E+00
         21   -1    0    0  503  502  0.00000000000E+00  0.00000000000E+00  0.15009317572E+03  0.15009317572E+03  0.00000000000E+00 0. -1.
         21   -1    0    0  501  503 -0.00000000000E+00 -0.00000000000E+00 -0.41628789019E+03  0.41628789019E+03  0.00000000000E+00 0. -1.
          6    2    1    2  501    0  0.14320888698E+03 -0.38742172420E+02 -0.25315807398E+03  0.33898001065E+03  0.16973124629E+03 0.  0.
         24    2    3    3    0    0  0.61292690034E+02  0.30174454476E+02 -0.18158267265E+03  0.21012003680E+03  0.80689970293E+02 0.  0.
         -6    2    1    2    0  502 -0.14320888698E+03  0.38742172420E+02 -0.13036640495E+02  0.22740105525E+03  0.17184744601E+03 0.  0.
        -24    2    5    5    0    0 -0.13657926743E+03 -0.17410714976E+02  0.24998187340E+02  0.15909412481E+03  0.75690170373E+02 0.  0.
          5    1    3    3  501    0  0.81916196946E+02 -0.68916626896E+02 -0.71575401326E+02  0.12885997385E+03  0.47000000000E+01 0. -1.
        -13    1    4    4    0    0  0.57436973025E+02 -0.96457153951E+01 -0.14357295822E+03  0.15493624505E+03  0.00000000000E+00 0.  1.
         14    1    4    4    0    0  0.38557170094E+01  0.39820169871E+02 -0.38009714425E+02  0.55183791759E+02  0.00000000000E+00 0. -1.
         -5    1    5    5    0  502 -0.66296195500E+01  0.56152887396E+02 -0.38034827835E+02  0.68306930445E+02  0.47000000000E+01 0.  1.
         13    1    6    6    0    0 -0.93825533701E+02  0.29924667677E+00 -0.18444053207E+02  0.95621668159E+02  0.00000000000E+00 0. -1.
        -14    1    6    6    0    0 -0.42753733728E+02 -0.17709961653E+02  0.43442240547E+02  0.63472456650E+02  0.00000000000E+00 0.  1.
</event>
<event>
12    1  0.8488291E-002  0.1865589E+03  0.7818608E-02  0.1163538E+00
         21   -1    0    0  501  502  0.00000000000E+00  0.00000000000E+00  0.10903096576E+04  0.10903096576E+04  0.00000000000E+00 0.  1.
         21   -1    0    0  502  503 -0.00000000000E+00 -0.00000000000E+00 -0.32400918815E+02  0.32400918815E+02  0.00000000000E+00 0.  1.
         -6    2    1    2    0  503 -0.47555301077E+02 -0.42565751559E+02  0.67476595953E+03  0.70008094657E+03  0.17530225822E+03 0.  0.
        -24    2    3    3    0    0  0.12969276466E+00 -0.40763176540E+02  0.16608778396E+03  0.18914779613E+03  0.80808931545E+02 0.  0.
          6    2    1    2  501    0  0.47555301077E+02  0.42565751559E+02  0.38314277928E+03  0.42262962988E+03  0.16656549723E+03 0.  0.
         24    2    5    5    0    0  0.60517862972E+02  0.92131490709E+01  0.11952896045E+03  0.15655678349E+03  0.80470865642E+02 0.  0.
          5    1    5    5  501    0 -0.12962561894E+02  0.33352602488E+02  0.26361381883E+03  0.26607284638E+03  0.47000000000E+01 0. -1.
        -13    1    6    6    0    0  0.35420263930E+02  0.16087028355E+02  0.12417252812E+03  0.13012380381E+03  0.00000000000E+00 0.  1.
         14    1    6    6    0    0  0.25097599041E+02 -0.68738792840E+01 -0.46435676733E+01  0.26432979680E+02  0.00000000000E+00 0. -1.
         -5    1    3    3    0  503 -0.47684993842E+02 -0.18025750183E+01  0.50867817558E+03  0.51093315044E+03  0.47000000000E+01 0.  1.
         13    1    4    4    0    0  0.28407465068E+02 -0.17615676834E+01  0.11683665361E+03  0.12025344411E+03  0.00000000000E+00 0. -1.
        -14    1    4    4    0    0 -0.28277772303E+02 -0.39001608857E+02  0.49251130348E+02  0.68894352021E+02  0.00000000000E+00 0.  1.
</event>
<event>
12    1  0.8488291E-002  0.1963773E+03  0.7818608E-02  0.1153409E+00
         21   -1    0    0  501  502  0.00000000000E+00  0.00000000000E+00  0.11850717507E+04  0.11850717507E+04  0.00000000000E+00 0. -1.
         21   -1    0    0  502  503 -0.00000000000E+00 -0.00000000000E+00 -0.15195247142E+03  0.15195247142E+03  0.00000000000E+00 0. -1.
         -6    2    1    2    0  503 -0.75571697619E+02  0.57326051579E+02 -0.76402733535E+02  0.21071643993E+03  0.17194965163E+03 0.  0.
        -24    2    3    3    0    0 -0.99785376011E+02  0.62150749291E+02 -0.13525639458E+02  0.14300234326E+03  0.80292529859E+02 0.  0.
          6    2    1    2  501    0  0.75571697619E+02 -0.57326051579E+02  0.11095220128E+04  0.11263077821E+04  0.16891644570E+03 0.  0.
         24    2    5    5    0    0  0.25864086821E+02 -0.94948033862E+02  0.78406331642E+03  0.79489910219E+03  0.86169706849E+02 0.  0.
          5    1    5    5  501    0  0.49707610797E+02  0.37621982283E+02  0.32545869634E+03  0.33140867995E+03  0.47000000000E+01 0. -1.
        -11    1    6    6    0    0 -0.28857881333E+02 -0.20493922025E+02  0.14884211538E+03  0.15299265821E+03  0.00000000000E+00 0.  1.
         12    1    6    6    0    0  0.54721968154E+02 -0.74454111836E+02  0.63522120104E+03  0.64190644398E+03  0.00000000000E+00 0. -1.
         -5    1    3    3    0  503  0.24213678392E+02 -0.48246977126E+01 -0.62877094077E+02  0.67714096677E+02  0.47000000000E+01 0.  1.
         13    1    4    4    0    0 -0.58711424257E+02  0.72995801649E+02 -0.28567593639E+02  0.97936335458E+02  0.00000000000E+00 0. -1.
        -14    1    4    4    0    0 -0.41073951754E+02 -0.10845052358E+02  0.15041954181E+02  0.45066007799E+02  0.00000000000E+00 0.  1.
</event>
<event>
12    1  0.8488291E-002  0.1740587E+03  0.7818608E-02  0.1174928E+00
         21   -1    0    0  501  502  0.00000000000E+00  0.00000000000E+00  0.15149705506E+03  0.15149705506E+03  0.00000000000E+00 0.  1.
         21   -1    0    0  502  503 -0.00000000000E+00 -0.00000000000E+00 -0.19948334105E+03  0.19948334105E+03  0.00000000000E+00 0.  1.
         -6    2    1    2    0  503 -0.16104037904E+02  0.86168093797E+01 -0.51577662909E+02  0.17688464996E+03  0.16820919903E+03 0.  0.
        -24    2    3    3    0    0  0.39426551256E+01 -0.44660115304E+02  0.11243575232E+02  0.91979417102E+02  0.79521850821E+02 0.  0.
          6    2    1    2  501    0  0.16104037904E+02 -0.86168093797E+01  0.35913769226E+01  0.17409574615E+03  0.17309777987E+03 0.  0.
         24    2    5    5    0    0 -0.16193362071E+02 -0.63836976477E+02 -0.21962902106E+02  0.10504866021E+03  0.78838235663E+02 0.  0.
          5    1    5    5  501    0  0.32297399975E+02  0.55220167097E+02  0.25554279029E+02  0.69047085935E+02  0.47000000000E+01 0. -1.
        -11    1    6    6    0    0 -0.11403385721E+02 -0.62162241624E+02  0.17247927995E+02  0.65510857953E+02  0.00000000000E+00 0.  1.
         12    1    6    6    0    0 -0.47899763498E+01 -0.16747348532E+01 -0.39210830101E+02  0.39537802259E+02  0.00000000000E+00 0. -1.
         -5    1    3    3    0  503 -0.20046693030E+02  0.53276924684E+02 -0.62821238141E+02  0.84905232859E+02  0.47000000000E+01 0.  1.
         11    1    4    4    0    0  0.36288934356E+01 -0.21804089010E+01 -0.31460670157E+02  0.31744240695E+02  0.00000000000E+00 0. -1.
        -12    1    4    4    0    0  0.31376169003E+00 -0.42479706403E+02  0.42704245390E+02  0.60235176407E+02  0.00000000000E+00 0.  1.
</event>
<event>
12    1  0.8488291E-002  0.2259577E+03  0.7818608E-02  0.1129586E+00
         21   -1    0    0  501  502  0.00000000000E+00  0.00000000000E+00  0.52442665602E+03  0.52442665602E+03  0.00000000000E+00 0.  1.
         21   -1    0    0  502  503 -0.00000000000E+00 -0.00000000000E+00 -0.18312923077E+03  0.18312923077E+03  0.00000000000E+00 0.  1.
         -6    2    1    2    0  503  0.57808991719E+02 -0.13452779480E+03 -0.71775174710E+02  0.23672061323E+03  0.17159652073E+03 0.  0.
        -24    2    3    3    0    0  0.70516788762E+00 -0.13775033194E+03 -0.21167292127E+02  0.16020604454E+03  0.79008045417E+02 0.  0.
          6    2    1    2  501    0 -0.57808991719E+02  0.13452779480E+03  0.41307259996E+03  0.47083527356E+03  0.17209670217E+03 0.  0.
         24    2    5    5    0    0 -0.53231218570E+02  0.52248097761E+02  0.35146876898E+03  0.36783999919E+03  0.78819687182E+02 0.  0.
          5    1    5    5  501    0 -0.45777731491E+01  0.82279697036E+02  0.61603830981E+02  0.10299527437E+03  0.47000000000E+01 0. -1.
        -13    1    6    6    0    0 -0.38796547362E+02  0.65891745800E+02  0.32935942165E+03  0.33811909570E+03  0.00000000000E+00 0.  1.
         14    1    6    6    0    0 -0.14434671208E+02 -0.13643648039E+02  0.22109347333E+02  0.29720903489E+02  0.00000000000E+00 0. -1.
         -5    1    3    3    0  503  0.57103823831E+02  0.32225371419E+01 -0.50607882583E+02  0.76514568687E+02  0.47000000000E+01 0.  1.
         11    1    4    4    0    0 -0.27931973502E+02 -0.38740603233E+02  0.16411394728E+02  0.50501122358E+02  0.00000000000E+00 0. -1.
        -12    1    4    4    0    0  0.28637141389E+02 -0.99009728706E+02 -0.37578686855E+02  0.10970492218E+03  0.00000000000E+00 0.  1.
</event>
<event>
12    1  0.8488291E-002  0.1962128E+03  0.7818608E-02  0.1153049E+00
         21   -1    0    0  503  502  0.00000000000E+00  0.00000000000E+00  0.12332043717E+03  0.12332043717E+03  0.00000000000E+00 0. -1.
         21   -1    0    0  501  503 -0.00000000000E+00 -0.00000000000E+00 -0.31847612501E+03  0.31847612501E+03  0.00000000000E+00 0.  1.
          6    2    1    2  501    0  0.37882308748E+02 -0.88990644890E+02 -0.12985861573E+03  0.23500394723E+03  0.17032084705E+03 0.  0.
         24    2    3    3    0    0 -0.11418667271E+02  0.12972566361E+02 -0.45298630955E+02  0.93584133517E+02  0.80045928313E+02 0.  0.
         -6    2    1    2    0  502 -0.37882308748E+02  0.88990644890E+02 -0.65297072111E+02  0.20679261496E+03  0.17071928356E+03 0.  0.
        -24    2    5    5    0    0 -0.91489217194E+02  0.65445880984E+02 -0.47699721255E+02  0.14547529850E+03  0.78957956308E+02 0.  0.
          5    1    3    3  501    0  0.49300976019E+02 -0.10196321125E+03 -0.84559984774E+02  0.14141981371E+03  0.47000000000E+01 0. -1.
        -11    1    4    4    0    0 -0.87050709546E+01 -0.15283098605E+02 -0.59356901663E+02  0.61907940834E+02  0.00000000000E+00 0.  1.
         12    1    4    4    0    0 -0.27135963162E+01  0.28255664966E+02  0.14058270707E+02  0.31676192683E+02  0.00000000000E+00 0. -1.
         -5    1    5    5    0  502  0.53606908446E+02  0.23544763906E+02 -0.17597350856E+02  0.61317316459E+02  0.47000000000E+01 0.  1.
         13    1    6    6    0    0 -0.34197846734E+02  0.71707736569E+02 -0.32786946722E+02  0.85944610537E+02  0.00000000000E+00 0. -1.
        -14    1    6    6    0    0 -0.57291370461E+02 -0.62618555854E+01 -0.14912774533E+02  0.59530687959E+02  0.00000000000E+00 0.  1.
</event>
<event>
12    1  0.8488291E-002  0.2096244E+03  0.7818608E-02  0.1141902E+00
         21   -1    0    0  501  502  0.00000000000E+00  0.00000000000E+00  0.30778272838E+02  0.30778272838E+02  0.00000000000E+00 0. -1.
         21   -1    0    0  502  503 -0.00000000000E+00 -0.00000000000E+00 -0.14633943963E+04  0.14633943963E+04  0.00000000000E+00 0. -1.
         -6    2    1    2    0  503  0.87654157555E+02  0.81570690310E+02 -0.59722308429E+03  0.63288067086E+03  0.17182986438E+03 0.  0.
        -24    2    3    3    0    0 -0.10896684502E+02  0.17329432769E+02 -0.17060011421E+03  0.19031038691E+03  0.81820519580E+02 0.  0.
          6    2    1    2  501    0 -0.87654157555E+02 -0.81570690310E+02 -0.83539303914E+03  0.86129199824E+03  0.17206204560E+03 0.  0.
         24    2    5    5    0    0  0.19239917701E+02 -0.31353027465E+02 -0.42183262238E+03  0.43117286905E+03  0.81327086108E+02 0.  0.
          5    1    5    5  501    0 -0.10689407526E+03 -0.50217662845E+02 -0.41356041676E+03  0.43011912919E+03  0.47000000000E+01 0. -1.
        -11    1    6    6    0    0 -0.25590351065E+02  0.50303667753E+01 -0.71361899668E+02  0.75978229657E+02  0.00000000000E+00 0.  1.
         12    1    6    6    0    0  0.44830268767E+02 -0.36383394241E+02 -0.35047072271E+03  0.35519463939E+03  0.00000000000E+00 0. -1.
         -5    1    3    3    0  503  0.98550842057E+02  0.64241257541E+02 -0.42662297007E+03  0.44257028395E+03  0.47000000000E+01 0.  1.
         11    1    4    4    0    0  0.20735107902E+02  0.39755168523E+02 -0.78919102029E+02  0.90766969703E+02  0.00000000000E+00 0. -1.
        -12    1    4    4    0    0 -0.31631792404E+02 -0.22425735754E+02 -0.91681012183E+02  0.99543417209E+02  0.00000000000E+00 0.  1.
</event>
<event>
12    1  0.8488291E-002  0.1888891E+03  0.7818608E-02  0.1159671E+00
         21   -1    0    0  503  502  0.00000000000E+00  0.00000000000E+00  0.21326862842E+03  0.21326862842E+03  0.00000000000E+00 0. -1.
         21   -1    0    0  501  503 -0.00000000000E+00 -0.00000000000E+00 -0.16708300951E+03  0.16708300951E+03  0.00000000000E+00 0. -1.
          6    2    1    2  501    0 -0.35836686694E+02 -0.66586397380E+02  0.11944426385E+02  0.18926637290E+03  0.17309267506E+03 0.  0.
         24    2    3    3    0    0  0.12799882991E+02 -0.20765578388E+01 -0.38726471415E+02  0.93785143375E+02  0.84426088578E+02 0.  0.
         -6    2    1    2    0  502  0.35836686694E+02  0.66586397380E+02  0.34241192517E+02  0.19108526503E+03  0.17211363344E+03 0.  0.
        -24    2    5    5    0    0  0.38532275208E+02  0.12024581650E+01  0.73366989647E+02  0.11469649815E+03  0.79286754118E+02 0.  0.
          5    1    3    3  501    0 -0.48636569685E+02 -0.64509839541E+02  0.50670897800E+02  0.95481229528E+02  0.47000000000E+01 0. -1.
        -11    1    4    4    0    0 -0.14425492351E+02  0.34340068244E+02 -0.29202244762E+02  0.47329760360E+02  0.00000000000E+00 0.  1.
         12    1    4    4    0    0  0.27225375342E+02 -0.36416626083E+02 -0.95242266526E+01  0.46455383015E+02  0.00000000000E+00 0. -1.
         -5    1    5    5    0  502 -0.26955885141E+01  0.65383939215E+02 -0.39125797130E+02  0.76388766882E+02  0.47000000000E+01 0.  1.
         11    1    6    6    0    0  0.46757970450E+02 -0.72095257427E+01  0.76383425641E+01  0.47923160781E+02  0.00000000000E+00 0. -1.
        -12    1    6    6    0    0 -0.82256952425E+01  0.84119839077E+01  0.65728647083E+02  0.66773337365E+02  0.00000000000E+00 0.  1.
</event>
<event>
12    1  0.8488291E-002  0.1849074E+03  0.7818608E-02  0.1163513E+00
         21   -1    0    0  503  502  0.00000000000E+00  0.00000000000E+00  0.32731288514E+03  0.32731288514E+03  0.00000000000E+00 0. -1.
         21   -1    0    0  501  503 -0.00000000000E+00 -0.00000000000E+00 -0.22247219331E+03  0.22247219331E+03  0.00000000000E+00 0. -1.
          6    2    1    2  501    0 -0.61978968417E+02  0.49995478871E+01 -0.14866246028E+03  0.23601032414E+03  0.17243537339E+03 0.  0.
         24    2    3    3    0    0  0.47442214519E+01  0.60146165665E+02 -0.97091122445E+02  0.13513997961E+03  0.72083695453E+02 0.  0.
         -6    2    1    2    0  502  0.61978968417E+02 -0.49995478871E+01  0.25350315211E+03  0.31377475431E+03  0.17413891095E+03 0.  0.
        -24    2    5    5    0    0  0.60666752927E+02 -0.46466483724E+01  0.27438146740E+03  0.29233086248E+03  0.80436914727E+02 0.  0.
          5    1    3    3  501    0 -0.66723189869E+02 -0.55146617778E+02 -0.51571337838E+02  0.10087034453E+03  0.47000000000E+01 0. -1.
        -13    1    4    4    0    0  0.14422694117E+02  0.73100065929E+02 -0.91568611390E+02  0.11805271846E+03  0.00000000000E+00 0.  1.
         14    1    4    4    0    0 -0.96784726655E+01 -0.12953900264E+02 -0.55225110551E+01  0.17087261148E+02  0.00000000000E+00 0. -1.
         -5    1    5    5    0  502  0.13122154900E+01 -0.35289951469E+00 -0.20878315292E+02  0.21443891835E+02  0.47000000000E+01 0.  1.
         13    1    6    6    0    0  0.31208212342E+02  0.88660806970E+01  0.25279110335E+02  0.41128983987E+02  0.00000000000E+00 0. -1.
        -14    1    6    6    0    0  0.29458540586E+02 -0.13512729069E+02  0.24910235707E+03  0.25120187849E+03  0.00000000000E+00 0.  1.
</event>
<event>
12    1  0.8488291E-002  0.2302487E+03  0.7818608E-02  0.1126490E+00
         21   -1    0    0  501  502  0.00000000000E+00  0.00000000000E+00  0.12683812367E+04  0.12683812367E+04  0.00000000000E+00 0. -1.
         21   -1    0    0  502  503 -0.00000000000E+00 -0.00000000000E+00 -0.50195094694E+02  0.50195094694E+02  0.00000000000E+00 0. -1.
         -6    2    1    2    0  503 -0.11456711708E+03  0.10083342517E+03  0.87932919733E+03  0.90897432011E+03  0.17239916878E+03 0.  0.
        -24    2    3    3    0    0 -0.12613447115E+03  0.12699636042E+03  0.67490676501E+03  0.70250658971E+03  0.77320028196E+02 0.  0.
          6    2    1    2  501    0  0.11456711708E+03 -0.10083342517E+03  0.33885694472E+03  0.40960201133E+03  0.17221142457E+03 0.  0.
         24    2    5    5    0    0  0.80191087590E+02 -0.13684512238E+03  0.24115142207E+03  0.29984312606E+03  0.81207720271E+02 0.  0.
          5    1    5    5  501    0  0.34376029489E+02  0.36011697205E+02  0.97705522651E+02  0.10975888527E+03  0.47000000000E+01 0. -1.
        -11    1    6    6    0    0  0.26888059883E+02  0.88837676309E+00  0.62539431823E+02  0.68080375368E+02  0.00000000000E+00 0.  1.
         12    1    6    6    0    0  0.53303027707E+02 -0.13773349914E+03  0.17861199025E+03  0.23176275069E+03  0.00000000000E+00 0. -1.
         -5    1    3    3    0  503  0.11567354067E+02 -0.26162935245E+02  0.20442243232E+03  0.20646773040E+03  0.47000000000E+01 0.  1.
         13    1    4    4    0    0 -0.32280032988E+02  0.84412624441E+02  0.35963858113E+03  0.37081990337E+03  0.00000000000E+00 0. -1.
        -14    1    4    4    0    0 -0.93854438158E+02  0.42583735976E+02  0.31526818387E+03  0.33168668634E+03  0.00000000000E+00 0.  1.
</event>
<event>
12    1  0.8488291E-002  0.1966672E+03  0.7818608E-02  0.1152733E+00
         21   -1    0    0  501  502  0.00000000000E+00  0.00000000000E+00  0.98732690186E+03  0.98732690186E+03  0.00000000000E+00 0.  1.
         21   -1    0    0  502  503 -0.00000000000E+00 -0.00000000000E+00 -0.31664832584E+03  0.31664832584E+03  0.00000000000E+00 0.  1.
         -6    2    1    2    0  503  0.78134677811E+02 -0.56019165603E+02 -0.27521328425E+03  0.33785442972E+03  0.17076325443E+03 0.  0.
        -24    2    3    3    0    0  0.21157293359E+02 -0.95705266990E+02 -0.17071409145E+03  0.21230133228E+03  0.79507392573E+02 0.  0.
          6    2    1    2  501    0 -0.78134677811E+02  0.56019165603E+02  0.94589186026E+03  0.96612079798E+03  0.17156576054E+03 0.  0.
         24    2    5    5    0    0 -0.10188522332E+03 -0.28869434874E+01  0.53604906797E+03  0.55135915259E+03  0.79116235317E+02 0.  0.
          5    1    5    5  501    0  0.23750545513E+02  0.58906109090E+02  0.40984279229E+03  0.41476164540E+03  0.47000000000E+01 0. -1.
        -11    1    6    6    0    0 -0.68511014429E+02  0.31296004773E+02  0.40335239860E+03  0.41032469639E+03  0.00000000000E+00 0.  1.
         12    1    6    6    0    0 -0.33374208894E+02 -0.34182948260E+02  0.13269666937E+03  0.14103445619E+03  0.00000000000E+00 0. -1.
         -5    1    3    3    0  503  0.56977384451E+02  0.39686101387E+02 -0.10449919280E+03  0.12555309744E+03  0.47000000000E+01 0.  1.
         13    1    4    4    0    0  0.66801060665E+01 -0.33904399722E+01  0.77968257085E+01  0.10812464631E+02  0.00000000000E+00 0. -1.
        -14    1    4    4    0    0  0.14477187293E+02 -0.92314827018E+02 -0.17851091716E+03  0.20148886765E+03  0.00000000000E+00 0.  1.
</event>
<event>
12    1  0.8488291E-002  0.1995721E+03  0.7818608E-02  0.1153840E+00
         21   -1    0    0  501  502  0.00000000000E+00  0.00000000000E+00  0.59437953035E+03  0.59437953035E+03  0.00000000000E+00 0. -1.
         21   -1    0    0  502  503 -0.00000000000E+00 -0.00000000000E+00 -0.13260840484E+03  0.13260840484E+03  0.00000000000E+00 0.  1.
         -6    2    1    2    0  503 -0.91036115118E+01 -0.57310746812E+02 -0.30513422631E+02  0.20189124299E+03  0.19094922779E+03 0.  0.
        -24    2    3    3    0    0 -0.30066078666E+02 -0.41424893883E+02  0.55801044748E+02  0.11153604042E+03  0.81893472261E+02 0.  0.
          6    2    1    2  501    0  0.91036115118E+01  0.57310746812E+02  0.49228454814E+03  0.52509669220E+03  0.17324855662E+03 0.  0.
         24    2    5    5    0    0  0.67833536489E+02  0.43128675980E+02  0.24103569438E+03  0.26664280513E+03  0.80862279209E+02 0.  0.
          5    1    5    5  501    0 -0.58729924977E+02  0.14182070832E+02  0.25124885376E+03  0.25845388706E+03  0.47000000000E+01 0. -1.
        -11    1    6    6    0    0  0.57128088043E+02  0.59448589978E+02  0.13025692866E+03  0.15415777878E+03  0.00000000000E+00 0.  1.
         12    1    6    6    0    0  0.10705448446E+02 -0.16319913997E+02  0.11077876572E+03  0.11248502636E+03  0.00000000000E+00 0. -1.
         -5    1    3    3    0  503  0.20962467154E+02 -0.15885852929E+02 -0.86314467378E+02  0.90355202569E+02  0.47000000000E+01 0.  1.
         13    1    4    4    0    0 -0.26684853846E+02  0.19936720585E+02  0.96437748301E+01  0.34677898515E+02  0.00000000000E+00 0. -1.
        -14    1    4    4    0    0 -0.33812248196E+01 -0.61361614468E+02  0.46157269918E+02  0.76858141908E+02  0.00000000000E+00 0.  1.
</event>
<event>
12    1  0.8488291E-002  0.1820304E+03  0.7818608E-02  0.1166417E+00
         21   -1    0    0  501  502  0.00000000000E+00  0.00000000000E+00  0.11931710652E+03  0.11931710652E+03  0.00000000000E+00 0. -1.
         21   -1    0    0  502  503 -0.00000000000E+00 -0.00000000000E+00 -0.57950585946E+03  0.57950585946E+03  0.00000000000E+00 0. -1.
         -6    2    1    2    0  503  0.12454417077E+02  0.55315549914E+02 -0.48444555237E+03  0.51751574692E+03  0.17297436957E+03 0.  0.
        -24    2    3    3    0    0  0.58435937917E+02 -0.12808783127E+02 -0.24573198582E+03  0.26500538700E+03  0.79150631819E+02 0.  0.
          6    2    1    2  501    0 -0.12454417077E+02 -0.55315549914E+02  0.24256799434E+02  0.18130721906E+03  0.17049631315E+03 0.  0.
         24    2    5    5    0    0 -0.72026817213E+02 -0.33966071314E+02  0.32514575056E+02  0.11731540746E+03  0.79775628093E+02 0.  0.
          5    1    5    5  501    0  0.59572400136E+02 -0.21349478600E+02 -0.82577756224E+01  0.63991811607E+02  0.47000000000E+01 0. -1.
        -13    1    6    6    0    0 -0.36360625701E+02 -0.28534979418E+01 -0.23954009770E+02  0.43635216694E+02  0.00000000000E+00 0.  1.
         14    1    6    6    0    0 -0.35666191513E+02 -0.31112573372E+02  0.56468584826E+02  0.73680190764E+02  0.00000000000E+00 0. -1.
         -5    1    3    3    0  503 -0.45981520840E+02  0.68124333041E+02 -0.23871356655E+03  0.25251035992E+03  0.47000000000E+01 0.  1.
         11    1    4    4    0    0 -0.17392338295E+02  0.80314646811E+01 -0.68121914521E+02  0.70764349035E+02  0.00000000000E+00 0. -1.
        -12    1    4    4    0    0  0.75828276213E+02 -0.20840247808E+02 -0.17761007130E+03  0.19424103797E+03  0.00000000000E+00 0.  1.
</event>
<event>
12    1  0.8488291E-002  0.1862991E+03  0.7818608E-02  0.1162256E+00
         21   -1    0    0  503  502  0.00000000000E+00  0.00000000000E+00  0.94450630092E+03  0.94450630092E+03  0.00000000000E+00 0.  1.
         21   -1    0    0  501  503 -0.00000000000E+00 -0.00000000000E+00 -0.36527415805E+02  0.36527415805E+02  0.00000000000E+00 0.  1.
          6    2    1    2  501    0  0.70215816576E+02 -0.14900847863E+02  0.42683308617E+03  0.46571861544E+03  0.17191581996E+03 0.  0.
         24    2    3    3    0    0  0.53809484857E+02 -0.34372839952E+01  0.43323826752E+03  0.44418498209E+03  0.81839026660E+02 0.  0.
         -6    2    1    2    0  502 -0.70215816576E+02  0.14900847863E+02  0.48114579895E+03  0.51531510129E+03  0.16998846315E+03 0.  0.
        -24    2    5    5    0    0 -0.94375869043E+02 -0.81914916372E+01  0.22237549054E+03  0.25435317534E+03  0.79188217691E+02 0.  0.
          5    1    3    3  501    0  0.16406331719E+02 -0.11463563867E+02 -0.64051813565E+01  0.21533633349E+02  0.47000000000E+01 0. -1.
        -11    1    4    4    0    0 -0.26379514726E+01  0.23879170695E+02  0.45938993027E+02  0.51841727029E+02  0.00000000000E+00 0.  1.
         12    1    4    4    0    0  0.56447436330E+02 -0.27316454691E+02  0.38729927450E+03  0.39234325506E+03  0.00000000000E+00 0. -1.
         -5    1    5    5    0  502  0.24160052468E+02  0.23092339500E+02  0.25877030841E+03  0.26096192595E+03  0.47000000000E+01 0.  1.
         11    1    6    6    0    0 -0.42070010437E+02 -0.17112591071E+02  0.29132381315E+02  0.53957596244E+02  0.00000000000E+00 0. -1.
        -12    1    6    6    0    0 -0.52305858606E+02  0.89210994334E+01  0.19324310922E+03  0.20039557910E+03  0.00000000000E+00 0.  1.
</event>
<event>
12    1  0.8488291E-002  0.2612676E+03  0.7818608E-02  0.1106499E+00
         21   -1    0    0  501  502  0.00000000000E+00  0.00000000000E+00  0.34253352025E+04  0.34253352025E+04  0.00000000000E+00 0. -1.
         21   -1    0    0  502  503 -0.00000000000E+00 -0.00000000000E+00 -0.15256288865E+03  0.15256288865E+03  0.00000000000E+00 0.  1.
         -6    2    1    2    0  503 -0.28178978290E+02 -0.19370225951E+03 -0.32319128279E+02  0.26249612441E+03  0.17188679159E+03 0.  0.
        -24    2    3    3    0    0 -0.76724437862E+01 -0.98200972599E+02  0.48607416453E+02  0.13556224635E+03  0.79449004317E+02 0.  0.
          6    2    1    2  501    0  0.28178978290E+02  0.19370225951E+03  0.33050914421E+04  0.33154019668E+04  0.17304953069E+03 0.  0.
         24    2    5    5    0    0  0.59070725276E+02  0.12699523772E+03  0.14848770215E+04  0.14936976126E+04  0.81582154618E+02 0.  0.
          5    1    5    5  501    0 -0.30891746985E+02  0.66707021793E+02  0.18202144206E+04  0.18217043541E+04  0.47000000000E+01 0. -1.
        -11    1    6    6    0    0  0.36112477556E+02  0.71781247998E+01  0.23311665326E+03  0.23600637817E+03  0.00000000000E+00 0.  1.
         12    1    6    6    0    0  0.22958247720E+02  0.11981711292E+03  0.12517603683E+04  0.12576912345E+04  0.00000000000E+00 0. -1.
         -5    1    3    3    0  503 -0.20506534504E+02 -0.95501286912E+02 -0.80926544732E+02  0.12693387807E+03  0.47000000000E+01 0.  1.
         13    1    4    4    0    0 -0.93008873491E+01 -0.61884919299E+02 -0.13106237707E+02  0.63937650949E+02  0.00000000000E+00 0. -1.
        -14    1    4    4    0    0  0.16284435629E+01 -0.36316053301E+02  0.61713654161E+02  0.71624595396E+02  0.00000000000E+00 0.  1.
</event>
<event>
12    1  0.8488291E-002  0.2116583E+03  0.7818608E-02  0.1140617E+00
         21   -1    0    0  501  502  0.00000000000E+00  0.00000000000E+00  0.31958438181E+03  0.31958438181E+03  0.00000000000E+00 0. -1.
         21   -1    0    0  502  503 -0.00000000000E+00 -0.00000000000E+00 -0.14025317174E+03  0.14025317174E+03  0.00000000000E+00 0. -1.
         -6    2    1    2    0  503 -0.12008134179E+03 -0.26461942726E+02  0.67368020250E+02  0.22039032601E+03  0.17004023814E+03 0.  0.
        -24    2    3    3    0    0 -0.13522880096E+03  0.13131182638E+02  0.78653765439E+02  0.17627095226E+03  0.80160945759E+02 0.  0.
          6    2    1    2  501    0  0.12008134179E+03  0.26461942726E+02  0.11196318982E+03  0.23944722754E+03  0.17227726444E+03 0.  0.
         24    2    5    5    0    0 -0.31846506595E+00  0.28413139284E+02  0.70322007105E+02  0.11194821281E+03  0.82339600221E+02 0.  0.
          5    1    5    5  501    0  0.12039980685E+03 -0.19511965583E+01  0.41641182719E+02  0.12749901473E+03  0.47000000000E+01 0. -1.
        -13    1    6    6    0    0  0.84063326879E+01  0.56726763070E+02  0.49242219397E+02  0.75586958192E+02  0.00000000000E+00 0.  1.
         14    1    6    6    0    0 -0.87247977538E+01 -0.28313623785E+02  0.21079787708E+02  0.36361254620E+02  0.00000000000E+00 0. -1.
         -5    1    3    3    0  503  0.15147459177E+02 -0.39593125364E+02 -0.11285745189E+02  0.44119373750E+02  0.47000000000E+01 0.  1.
         11    1    4    4    0    0 -0.11098880877E+03 -0.22371143428E+02  0.67667588912E+02  0.13190104746E+03  0.00000000000E+00 0. -1.
        -12    1    4    4    0    0 -0.24239992192E+02  0.35502326065E+02  0.10986176527E+02  0.44369904802E+02  0.00000000000E+00 0.  1.
</event>
<event>
12    1  0.8488291E-002  0.1739019E+03  0.7818608E-02  0.1174401E+00
         21   -1    0    0  503  502  0.00000000000E+00  0.00000000000E+00  0.20311266161E+03  0.20311266161E+03  0.00000000000E+00 0. -1.
         21   -1    0    0  501  503 -0.00000000000E+00 -0.00000000000E+00 -0.17025993955E+03  0.17025993955E+03  0.00000000000E+00 0. -1.
          6    2    1    2  501    0 -0.10775132279E+02  0.28898228963E+02 -0.52653073994E+02  0.17958638755E+03  0.16890148987E+03 0.  0.
         24    2    3    3    0    0 -0.14628222334E+02 -0.45416387412E+02 -0.24034797515E+02  0.99720222886E+02  0.84201058346E+02 0.  0.
         -6    2    1    2    0  502  0.10775132279E+02 -0.28898228963E+02  0.85505796057E+02  0.19378621360E+03  0.17114509724E+03 0.  0.
        -24    2    5    5    0    0 -0.87729262256E+01 -0.73362340831E+02  0.94075505799E+02  0.14424114563E+03  0.80599689913E+02 0.  0.
          5    1    3    3  501    0  0.38530900551E+01  0.74314616375E+02 -0.28618276479E+02  0.79866164667E+02  0.47000000000E+01 0. -1.
        -13    1    4    4    0    0 -0.22995417567E+02 -0.46759913954E+02 -0.50115726601E+02  0.72297059655E+02  0.00000000000E+00 0.  1.
         14    1    4    4    0    0  0.83671952326E+01  0.13435265421E+01  0.26080929085E+02  0.27423163231E+02  0.00000000000E+00 0. -1.
         -5    1    5    5    0  502  0.19548058505E+02  0.44464111867E+02 -0.85697097416E+01  0.49545067974E+02  0.47000000000E+01 0.  1.
         11    1    6    6    0    0 -0.85162551865E+01 -0.17065363234E+02 -0.13128405073E+02  0.23154011412E+02  0.00000000000E+00 0. -1.
        -12    1    6    6    0    0 -0.25667103911E+00 -0.56296977597E+02  0.10720391087E+03  0.12108713422E+03  0.00000000000E+00 0.  1.
</event>
<event>
12    1  0.8488291E-002  0.1748560E+03  0.7818608E-02  0.1173037E+00
         21   -1    0    0  503  502  0.00000000000E+00  0.00000000000E+00  0.18781341290E+03  0.18781341290E+03  0.00000000000E+00 0. -1.
         21   -1    0    0  501  503 -0.00000000000E+00 -0.00000000000E+00 -0.18265272726E+03  0.18265272726E+03  0.00000000000E+00 0. -1.
          6    2    1    2  501    0  0.10472238976E+02 -0.19564003652E+02 -0.59401415058E+02  0.18467036385E+03  0.17344220117E+03 0.  0.
         24    2    3    3    0    0  0.54889510312E+01 -0.74033949866E+02 -0.65120535135E+01  0.10843924971E+03  0.78775057728E+02 0.  0.
         -6    2    1    2    0  502 -0.10472238976E+02  0.19564003652E+02  0.64562100697E+02  0.18579577630E+03  0.17279869102E+03 0.  0.
        -24    2    5    5    0    0 -0.59619985788E+02 -0.80319545589E+01 -0.11042724147E+00  0.99879166753E+02  0.79729422158E+02 0.  0.
          5    1    3    3  501    0  0.49832879452E+01  0.54469946214E+02 -0.52889361545E+02  0.76231114146E+02  0.47000000000E+01 0. -1.
        -11    1    4    4    0    0 -0.16848046451E+02 -0.12381867105E+02  0.27518798262E+02  0.34560838532E+02  0.00000000000E+00 0.  1.
         12    1    4    4    0    0  0.22336997482E+02 -0.61652082761E+02 -0.34030851776E+02  0.73878411176E+02  0.00000000000E+00 0. -1.
         -5    1    5    5    0  502  0.49147746812E+02  0.27595958211E+02  0.64672527938E+02  0.85916609548E+02  0.47000000000E+01 0.  1.
         11    1    6    6    0    0  0.54498570839E+01 -0.12226158277E+02  0.26314373250E+02  0.29523314990E+02  0.00000000000E+00 0. -1.
        -12    1    6    6    0    0 -0.65069842872E+02  0.41942037185E+01 -0.26424800492E+02  0.70355851763E+02  0.00000000000E+00 0.  1.
</event>
<event>
12    1  0.8488291E-002  0.3512399E+03  0.7818608E-02  0.1062144E+00
         21   -1    0    0  503  502  0.00000000000E+00  0.00000000000E+00  0.33073857869E+03  0.33073857869E+03  0.00000000000E+00 0. -1.
         21   -1    0    0  501  503 -0.00000000000E+00 -0.00000000000E+00 -0.44016345080E+03  0.44016345080E+03  0.00000000000E+00 0. -1.
          6    2    1    2  501    0  0.27939254434E+03 -0.12392293099E+03 -0.20572130429E+03  0.40705126176E+03  0.17306758218E+03 0.  0.
         24    2    3    3    0    0  0.12799974664E+03 -0.10899189576E+03 -0.58631734399E+02  0.19539081061E+03  0.80478072242E+02 0.  0.
         -6    2    1    2    0  502 -0.27939254434E+03  0.12392293099E+03  0.96296432193E+02  0.36385076773E+03  0.17232902153E+03 0.  0.
        -24    2    5    5    0    0 -0.28895216693E+03  0.12933779112E+03  0.11092415937E+03  0.34496247779E+03  0.80456963439E+02 0.  0.
          5    1    3    3  501    0  0.15139279770E+03 -0.14931035233E+02 -0.14708956990E+03  0.21166045115E+03  0.47000000000E+01 0. -1.
        -11    1    4    4    0    0  0.12778905608E+03 -0.11394226851E+03 -0.39607234025E+02  0.17573166019E+03  0.00000000000E+00 0.  1.
         12    1    4    4    0    0  0.21069056178E+00  0.49503727471E+01 -0.19024500374E+02  0.19659150422E+02  0.00000000000E+00 0. -1.
         -5    1    5    5    0  502  0.95596225874E+01 -0.54148601242E+01 -0.14627727180E+02  0.18888289934E+02  0.47000000000E+01 0.  1.
         11    1    6    6    0    0 -0.90392060467E+02  0.30627366851E+02  0.72640452089E+02  0.11993913238E+03  0.00000000000E+00 0. -1.
        -12    1    6    6    0    0 -0.19856010646E+03  0.98710424267E+02  0.38283707284E+02  0.22502334541E+03  0.00000000000E+00 0.  1.
</event>
<event>
12    1  0.8488291E-002  0.1933786E+03  0.7818608E-02  0.1157424E+00
         21   -1    0    0  501  502  0.00000000000E+00  0.00000000000E+00  0.46756316732E+02  0.46756316732E+02  0.00000000000E+00 0. -1.
         21   -1    0    0  502  503 -0.00000000000E+00 -0.00000000000E+00 -0.16314867291E+04  0.16314867291E+04  0.00000000000E+00 0. -1.
         -6    2    1    2    0  503  0.41643657098E+02  0.57464500598E+02 -0.14127393185E+04  0.14259129282E+04  0.17988589111E+03 0.  0.
        -24    2    3    3    0    0  0.85203214229E+02  0.81591380750E+02 -0.98695641476E+03  0.99720240527E+03  0.80080780011E+02 0.  0.
          6    2    1    2  501    0 -0.41643657098E+02 -0.57464500598E+02 -0.17199109390E+03  0.25233011764E+03  0.17044996006E+03 0.  0.
         24    2    5    5    0    0  0.33209036575E+02 -0.37879164599E+02 -0.47002849059E+02  0.10525645418E+03  0.79573752619E+02 0.  0.
          5    1    5    5  501    0 -0.74852693673E+02 -0.19585335999E+02 -0.12498824484E+03  0.14707366346E+03  0.47000000000E+01 0. -1.
        -11    1    6    6    0    0  0.23571114806E+02  0.94065812241E+01 -0.50864388761E+02  0.56844236890E+02  0.00000000000E+00 0.  1.
         12    1    6    6    0    0  0.96379217687E+01 -0.47285745823E+02  0.38615397023E+01  0.48412217290E+02  0.00000000000E+00 0. -1.
         -5    1    3    3    0  503 -0.43559557131E+02 -0.24126880152E+02 -0.42578290372E+03  0.42871052292E+03  0.47000000000E+01 0.  1.
         13    1    4    4    0    0  0.78048285120E+01  0.19635746306E+02 -0.41571915698E+02  0.46633700860E+02  0.00000000000E+00 0. -1.
        -14    1    4    4    0    0  0.77398385717E+02  0.61955634444E+02 -0.94538449906E+03  0.95056870441E+03  0.00000000000E+00 0.  1.
</event>
<event>
12    1  0.8488291E-002  0.2620207E+03  0.7818608E-02  0.1106597E+00
         21   -1    0    0  503  502  0.00000000000E+00  0.00000000000E+00  0.39805402566E+03  0.39805402566E+03  0.00000000000E+00 0.  1.
         21   -1    0    0  501  503 -0.00000000000E+00 -0.00000000000E+00 -0.30303421140E+03  0.30303421140E+03  0.00000000000E+00 0.  1.
          6    2    1    2  501    0 -0.84411187921E+02  0.17023496022E+03 -0.18533543471E+03  0.31735143753E+03  0.17394689195E+03 0.  0.
         24    2    3    3    0    0 -0.11683605326E+03  0.17245406473E+03 -0.15437431302E+03  0.27221855182E+03  0.82948439699E+02 0.  0.
         -6    2    1    2    0  502  0.84411187921E+02 -0.17023496022E+03  0.28035524897E+03  0.38373679952E+03  0.18041528581E+03 0.  0.
        -24    2    5    5    0    0  0.40456432584E+02 -0.19302201525E+03  0.23640677666E+03  0.31736791666E+03  0.77071454913E+02 0.  0.
          5    1    3    3  501    0  0.32424865337E+02 -0.22191045142E+01 -0.30961121689E+02  0.45132885718E+02  0.47000000000E+01 0. -1.
        -13    1    4    4    0    0 -0.48939509179E+02  0.71125856125E+02 -0.16081000876E+02  0.87821190822E+02  0.00000000000E+00 0.  1.
         14    1    4    4    0    0 -0.67896544079E+02  0.10132820861E+03 -0.13829331215E+03  0.18439736099E+03  0.00000000000E+00 0. -1.
         -5    1    5    5    0  502  0.43954755338E+02  0.22787055035E+02  0.43948472312E+02  0.66368882864E+02  0.47000000000E+01 0.  1.
         11    1    6    6    0    0  0.21793473160E+02 -0.11051382426E+02  0.10264412174E+02  0.26503710744E+02  0.00000000000E+00 0. -1.
        -12    1    6    6    0    0  0.18662959423E+02 -0.18197063283E+03  0.22614236449E+03  0.29086420591E+03  0.00000000000E+00 0.  1.
</event>
<event>
12    1  0.8488291E-002  0.2416230E+03  0.7818608E-02  0.1118811E+00
         21   -1    0    0  503  502  0.00000000000E+00  0.00000000000E+00  0.66390832219E+02  0.66390832219E+02  0.00000000000E+00 0. -1.
         21   -1    0    0  501  503 -0.00000000000E+00 -0.00000000000E+00 -0.93288497487E+03  0.93288497487E+03  0.00000000000E+00 0.  1.
          6    2    1    2  501    0 -0.29645193042E+02  0.16564303965E+03 -0.55475316372E+03  0.60485966543E+03  0.17259110104E+03 0.  0.
         24    2    3    3    0    0 -0.84515521004E+02  0.14542050817E+03 -0.45052501163E+03  0.48525489396E+03  0.64880879511E+02 0.  0.
         -6    2    1    2    0  502  0.29645193042E+02 -0.16564303965E+03 -0.31174097893E+03  0.39441614166E+03  0.17339319709E+03 0.  0.
        -24    2    5    5    0    0  0.39035967202E+02 -0.58840665325E+02 -0.58310922215E+02  0.11920019472E+03  0.76305256307E+02 0.  0.
          5    1    3    3  501    0  0.54870327962E+02  0.20222531484E+02 -0.10422815209E+03  0.11960477147E+03  0.47000000000E+01 0. -1.
        -11    1    4    4    0    0 -0.72286555324E+02  0.69882973263E+02 -0.20955614675E+03  0.23242795588E+03  0.00000000000E+00 0.  1.
         12    1    4    4    0    0 -0.12228965681E+02  0.75537534905E+02 -0.24096886488E+03  0.25282693809E+03  0.00000000000E+00 0. -1.
         -5    1    5    5    0  502 -0.93907741600E+01 -0.10680237433E+03 -0.25343005672E+03  0.27521594694E+03  0.47000000000E+01 0.  1.
         11    1    6    6    0    0  0.15616287875E+02 -0.67315041135E+02 -0.17326661566E+02  0.71241816450E+02  0.00000000000E+00 0. -1.
        -12    1    6    6    0    0  0.23419679328E+02  0.84743758104E+01 -0.40984260650E+02  0.47958378269E+02  0.00000000000E+00 0.  1.
</event>
<event>
12    1  0.8488291E-002  0.1750267E+03  0.7818608E-02  0.1172851E+00
         21   -1    0    0  501  502  0.00000000000E+00  0.00000000000E+00  0.71692643163E+03  0.71692643163E+03  0.00000000000E+00 0. -1.
         21   -1    0    0  502  503 -0.00000000000E+00 -0.00000000000E+00 -0.15258873591E+03  0.15258873591E+03  0.00000000000E+00 0. -1.
         -6    2    1    2    0  503  0.16080888835E+02  0.34500281779E+02 -0.86833486785E+02  0.19538273563E+03  0.17083762620E+03 0.  0.
        -24    2    3    3    0    0  0.44803662767E+02  0.21278083382E+02 -0.11739169665E+03  0.15115922985E+03  0.81290696261E+02 0.  0.
          6    2    1    2  501    0 -0.16080888835E+02 -0.34500281779E+02  0.65117118250E+03  0.67413243191E+03  0.17024030782E+03 0.  0.
         24    2    5    5    0    0  0.40598857757E+02  0.14080912260E+02  0.24364124817E+03  0.25979505312E+03  0.79283494342E+02 0.  0.
          5    1    5    5  501    0 -0.56679746592E+02 -0.48581194039E+02  0.40752993433E+03  0.41433737879E+03  0.47000000000E+01 0. -1.
        -13    1    6    6    0    0 -0.12743751041E+02  0.14366227839E+02  0.13305180165E+02  0.23362780488E+02  0.00000000000E+00 0.  1.
         14    1    6    6    0    0  0.53342608798E+02 -0.28531557910E+00  0.23033606800E+03  0.23643227263E+03  0.00000000000E+00 0. -1.
         -5    1    3    3    0  503 -0.28722773932E+02  0.13222198397E+02  0.30558209862E+02  0.44223505772E+02  0.47000000000E+01 0.  1.
         11    1    4    4    0    0 -0.18180040732E+02 -0.98894819391E+01 -0.10423074198E+02  0.23172315589E+02  0.00000000000E+00 0. -1.
        -12    1    4    4    0    0  0.62983703498E+02  0.31167565321E+02 -0.10696862245E+03  0.12798691427E+03  0.00000000000E+00 0.  1.
</event>
<event>
12    1  0.8488291E-002  0.2328123E+03  0.7818608E-02  0.1125086E+00
         21   -1    0    0  503  502  0.00000000000E+00  0.00000000000E+00  0.10332561267E+03  0.10332561267E+03  0.00000000000E+00 0. -1.
         21   -1    0    0  501  503 -0.00000000000E+00 -0.00000000000E+00 -0.78994332678E+03  0.78994332678E+03  0.00000000000E+00 0.  1.
          6    2    1    2  501    0 -0.14533232721E+03  0.59345973231E+02 -0.60589105986E+03  0.64908052043E+03  0.17192473851E+03 0.  0.
         24    2    3    3    0    0 -0.98060903439E+02  0.10637069021E+03 -0.44836209775E+03  0.47795666056E+03  0.80519153972E+02 0.  0.
         -6    2    1    2    0  502  0.14533232721E+03 -0.59345973231E+02 -0.80726654244E+02  0.24418841902E+03  0.16872392068E+03 0.  0.
        -24    2    5    5    0    0  0.62907476232E+02 -0.85612118728E+02 -0.12977625085E+02  0.13420756883E+03  0.80972015775E+02 0.  0.
          5    1    3    3  501    0 -0.47271423768E+02 -0.47024716981E+02 -0.15752896211E+03  0.17112385987E+03  0.47000000000E+01 0. -1.
        -13    1    4    4    0    0 -0.49611563824E+02  0.55304763300E+02 -0.34494887584E+03  0.35285925105E+03  0.00000000000E+00 0.  1.
         14    1    4    4    0    0 -0.48449339615E+02  0.51065926913E+02 -0.10341322191E+03  0.12509740951E+03  0.00000000000E+00 0. -1.
         -5    1    5    5    0  502  0.82424850974E+02  0.26266145497E+02 -0.67749029159E+02  0.10998085019E+03  0.47000000000E+01 0.  1.
         11    1    6    6    0    0  0.75654935688E+02 -0.67854675486E+02 -0.30595908934E+02  0.10613216253E+03  0.00000000000E+00 0. -1.
        -12    1    6    6    0    0 -0.12747459457E+02 -0.17757443242E+02  0.17618283849E+02  0.28075406299E+02  0.00000000000E+00 0.  1.
</event>
<event>
12    1  0.8488291E-002  0.2019572E+03  0.7818608E-02  0.1148113E+00
         21   -1    0    0  503  502  0.00000000000E+00  0.00000000000E+00  0.26344964187E+03  0.26344964187E+03  0.00000000000E+00 0.  1.
         21   -1    0    0  501  503 -0.00000000000E+00 -0.00000000000E+00 -0.19780936464E+03  0.19780936464E+03  0.00000000000E+00 0.  1.
          6    2    1    2  501    0  0.84057568942E+02 -0.63926689207E+02  0.14040417821E+03  0.24590731993E+03  0.17206039709E+03 0.  0.
         24    2    3    3    0    0  0.41326629817E+02 -0.40040351862E+01  0.14592255053E+03  0.17195327977E+03  0.80935882274E+02 0.  0.
         -6    2    1    2    0  502 -0.84057568942E+02  0.63926689207E+02 -0.74763900985E+02  0.21535168659E+03  0.17214648279E+03 0.  0.
        -24    2    5    5    0    0 -0.90644800319E+02  0.20321056126E+02 -0.10736888538E+03  0.16030608857E+03  0.74434799249E+02 0.  0.
          5    1    3    3  501    0  0.42730939124E+02 -0.59922654021E+02 -0.55183723190E+01  0.73954040163E+02  0.47000000000E+01 0. -1.
        -11    1    4    4    0    0  0.39288653533E+00 -0.33225951262E+02  0.26938115975E+02  0.42775931192E+02  0.00000000000E+00 0.  1.
         12    1    4    4    0    0  0.40933743282E+02  0.29221916076E+02  0.11898443456E+03  0.12917734858E+03  0.00000000000E+00 0. -1.
         -5    1    5    5    0  502  0.65872313775E+01  0.43605633081E+02  0.32604984392E+02  0.55045598015E+02  0.47000000000E+01 0.  1.
         11    1    6    6    0    0 -0.93100334942E+01 -0.67295540705E+01 -0.62520240703E+02  0.63566847643E+02  0.00000000000E+00 0. -1.
        -12    1    6    6    0    0 -0.81334766825E+02  0.27050610197E+02 -0.44848644673E+02  0.96739240929E+02  0.00000000000E+00 0.  1.
</event>
<event>
12    1  0.8488291E-002  0.2944541E+03  0.7818608E-02  0.1088466E+00
         21   -1    0    0  501  502  0.00000000000E+00  0.00000000000E+00  0.80811325393E+02  0.80811325393E+02  0.00000000000E+00 0. -1.
         21   -1    0    0  502  503 -0.00000000000E+00 -0.00000000000E+00 -0.10647976229E+04  0.10647976229E+04  0.00000000000E+00 0.  1.
         -6    2    1    2    0  503  0.95993410280E+02 -0.21481354758E+03 -0.45529225774E+03  0.54044732760E+03  0.17155954917E+03 0.  0.
        -24    2    3    3    0    0  0.97283179867E+02 -0.13983100854E+03 -0.41403641599E+03  0.45472580670E+03  0.79578121867E+02 0.  0.
          6    2    1    2  501    0 -0.95993410280E+02  0.21481354758E+03 -0.52869403975E+03  0.60516162067E+03  0.17704125064E+03 0.  0.
         24    2    5    5    0    0 -0.91719240281E+02  0.13089568278E+03 -0.21050438805E+03  0.27603061179E+03  0.79590843993E+02 0.  0.
          5    1    5    5  501    0 -0.42741699997E+01  0.83917864800E+02 -0.31818965169E+03  0.32913100888E+03  0.47000000000E+01 0. -1.
        -11    1    6    6    0    0 -0.63589525022E+02  0.11173382211E+03 -0.20437324125E+03  0.24144667410E+03  0.00000000000E+00 0.  1.
         12    1    6    6    0    0 -0.28129715258E+02  0.19161860670E+02 -0.61311468022E+01  0.34583937688E+02  0.00000000000E+00 0. -1.
         -5    1    3    3    0  503 -0.12897695867E+01 -0.74982539044E+02 -0.41255841752E+02  0.85721520902E+02  0.47000000000E+01 0.  1.
         11    1    4    4    0    0  0.12070988024E+02 -0.86531420362E+02 -0.20120384349E+03  0.21935446678E+03  0.00000000000E+00 0. -1.
        -12    1    4    4    0    0  0.85212191843E+02 -0.53299588176E+02 -0.21283257250E+03  0.23537133992E+03  0.00000000000E+00 0.  1.
</event>
<event>
12    1  0.8488291E-002  0.2174444E+03  0.7818608E-02  0.1136092E+00
         21   -1    0    0  503  502  0.00000000000E+00  0.00000000000E+00  0.87903944565E+02  0.87903944565E+02  0.00000000000E+00 0.  1.
         21   -1    0    0  501  503 -0.00000000000E+00 -0.00000000000E+00 -0.55332591010E+03  0.55332591010E+03  0.00000000000E+00 0.  1.
          6    2    1    2  501    0  0.13209885160E+03  0.77512026184E+01 -0.29164880588E+03  0.36287899821E+03  0.17062225421E+03 0.  0.
         24    2    3    3    0    0  0.11870946912E+02  0.29419671921E+02 -0.71869306182E+02  0.11138468393E+03  0.78961472668E+02 0.  0.
         -6    2    1    2    0  502 -0.13209885160E+03 -0.77512026184E+01 -0.17377315965E+03  0.27835085646E+03  0.17254535792E+03 0.  0.
        -24    2    5    5    0    0 -0.11941835871E+03  0.46988836135E+02 -0.91534797930E+02  0.17863874645E+03  0.84050504959E+02 0.  0.
          5    1    3    3  501    0  0.12022790469E+03 -0.21668469303E+02 -0.21977949970E+03  0.25149431428E+03  0.47000000000E+01 0. -1.
        -13    1    4    4    0    0  0.43555322707E+02  0.14060394892E+02 -0.23197074565E+02  0.51311452026E+02  0.00000000000E+00 0.  1.
         14    1    4    4    0    0 -0.31684375795E+02  0.15359277029E+02 -0.48672231618E+02  0.60073231901E+02  0.00000000000E+00 0. -1.
         -5    1    5    5    0  502 -0.12680492893E+02 -0.54740038753E+02 -0.82238361725E+02  0.99712110006E+02  0.47000000000E+01 0.  1.
         13    1    6    6    0    0 -0.67613496494E+02 -0.15040178369E+02 -0.23959747149E+02  0.73292983000E+02  0.00000000000E+00 0. -1.
        -14    1    6    6    0    0 -0.51804862215E+02  0.62029014504E+02 -0.67575050780E+02  0.10534576345E+03  0.00000000000E+00 0.  1.
</event>
<event>
12    1  0.8488291E-002  0.1745261E+03  0.7818608E-02  0.1173479E+00
         21   -1    0    0  501  502  0.00000000000E+00  0.00000000000E+00  0.70964872530E+02  0.70964872530E+02  0.00000000000E+00 0. -1.
         21   -1    0    0  502  503 -0.00000000000E+00 -0.00000000000E+00 -0.49431071208E+03  0.49431071208E+03  0.00000000000E+00 0. -1.
         -6    2    1    2    0  503  0.22018915628E+02  0.48964560313E+00 -0.31684952045E+03  0.36173605704E+03  0.17313082901E+03 0.  0.
        -24    2    3    3    0    0  0.51004508228E+02 -0.34664104455E+02 -0.29312632144E+03  0.31015281467E+03  0.80428030761E+02 0.  0.
          6    2    1    2  501    0 -0.22018915628E+02 -0.48964560313E+00 -0.10649631910E+03  0.20353952757E+03  0.17205173903E+03 0.  0.
         24    2    5    5    0    0 -0.70916676927E+02  0.20761651357E+02 -0.36008166831E+02  0.11503371820E+03  0.80473268923E+02 0.  0.
          5    1    5    5  501    0  0.48897761298E+02 -0.21251296960E+02 -0.70488152268E+02  0.88505809372E+02  0.47000000000E+01 0. -1.
        -13    1    6    6    0    0 -0.77735380591E+02  0.88927695308E+01 -0.52028609537E+02  0.93961944190E+02  0.00000000000E+00 0.  1.
         14    1    6    6    0    0  0.68187036649E+01  0.11868881826E+02  0.16020442706E+02  0.21071774011E+02  0.00000000000E+00 0. -1.
         -5    1    3    3    0  503 -0.28985592600E+02  0.35153750058E+02 -0.23723199012E+02  0.51583242365E+02  0.47000000000E+01 0.  1.
         11    1    4    4    0    0 -0.16837799933E+02 -0.26870166298E+02 -0.11790760319E+03  0.12209717537E+03  0.00000000000E+00 0. -1.
        -12    1    4    4    0    0  0.67842308161E+02 -0.77939381563E+01 -0.17521871824E+03  0.18805563930E+03  0.00000000000E+00 0.  1.
</event>
<event>
12    1  0.8488291E-002  0.3637970E+03  0.7818608E-02  0.1057330E+00
         21   -1    0    0  503  502  0.00000000000E+00  0.00000000000E+00  0.34524274978E+03  0.34524274978E+03  0.00000000000E+00 0.  1.
         21   -1    0    0  501  503 -0.00000000000E+00 -0.00000000000E+00 -0.58633999509E+03  0.58633999509E+03  0.00000000000E+00 0. -1.
          6    2    1    2  501    0  0.11009207637E+02  0.32021659981E+03 -0.39660639984E+03  0.53818665858E+03  0.17230313297E+03 0.  0.
         24    2    3    3    0    0 -0.29127984760E+02  0.73957968401E+02 -0.15232339704E+03  0.18897242174E+03  0.78676160969E+02 0.  0.
         -6    2    1    2    0  502 -0.11009207637E+02 -0.32021659981E+03  0.15550915454E+03  0.39339608629E+03  0.16708533782E+03 0.  0.
        -24    2    5    5    0    0  0.41002521644E+02 -0.27988278434E+03  0.11333409333E+03  0.31508349189E+03  0.80108741104E+02 0.  0.
          5    1    3    3  501    0  0.40137192397E+02  0.24625863141E+03 -0.24428300280E+03  0.34921423684E+03  0.47000000000E+01 0. -1.
        -13    1    4    4    0    0 -0.87945358868E+01  0.69170895923E+02 -0.53289762947E+02  0.87759646417E+02  0.00000000000E+00 0.  1.
         14    1    4    4    0    0 -0.20333448873E+02  0.47870724772E+01 -0.99033634097E+02  0.10121277532E+03  0.00000000000E+00 0. -1.
         -5    1    5    5    0  502 -0.52011729281E+02 -0.40333815469E+02  0.42175061203E+02  0.78312594393E+02  0.47000000000E+01 0.  1.
         13    1    6    6    0    0  0.48346837444E+02 -0.76649738911E+02  0.34023841147E+02  0.96799901510E+02  0.00000000000E+00 0. -1.
        -14    1    6    6    0    0 -0.73443158004E+01 -0.20323304543E+03  0.79310252185E+02  0.21828359038E+03  0.00000000000E+00 0.  1.
</event>
<event>
12    1  0.8488291E-002  0.2377006E+03  0.7818608E-02  0.1121473E+00
         21   -1    0    0  503  502  0.00000000000E+00  0.00000000000E+00  0.70881950308E+02  0.70881950308E+02  0.00000000000E+00 0. -1.
         21   -1    0    0  501  503 -0.00000000000E+00 -0.00000000000E+00 -0.13873112353E+04  0.13873112353E+04  0.00000000000E+00 0. -1.
          6    2    1    2  501    0 -0.42687684877E+02  0.15838490603E+03 -0.11355271988E+04  0.11601394722E+04  0.17202778514E+03 0.  0.
         24    2    3    3    0    0 -0.23337183436E+02  0.88813271666E+02 -0.33496787796E+03  0.35631612694E+03  0.79531639600E+02 0.  0.
         -6    2    1    2    0  502  0.42687684877E+02 -0.15838490603E+03 -0.18090208619E+03  0.29805371340E+03  0.17088719783E+03 0.  0.
        -24    2    5    5    0    0 -0.28523633031E+02 -0.12103165818E+03 -0.76355150946E+02  0.16607466736E+03  0.79299597358E+02 0.  0.
          5    1    3    3  501    0 -0.19350501441E+02  0.69571634368E+02 -0.80055932086E+03  0.80382334529E+03  0.47000000000E+01 0. -1.
        -13    1    4    4    0    0 -0.18122333697E+02  0.91767925856E+02 -0.19556356771E+03  0.21678302565E+03  0.00000000000E+00 0.  1.
         14    1    4    4    0    0 -0.52148497388E+01 -0.29546541907E+01 -0.13940431025E+03  0.13953310129E+03  0.00000000000E+00 0. -1.
         -5    1    5    5    0  502  0.71211317908E+02 -0.37353247858E+02 -0.10454693524E+03  0.13197904604E+03  0.47000000000E+01 0.  1.
         13    1    6    6    0    0 -0.18074906646E+02 -0.10834923069E+03 -0.92076569163E+02  0.14333301305E+03  0.00000000000E+00 0. -1.
        -14    1    6    6    0    0 -0.10448726385E+02 -0.12682427487E+02  0.15721418218E+02  0.22741654312E+02  0.00000000000E+00 0.  1.
</event>
<event>
12    1  0.8488291E-002  0.1732744E+03  0.7818608E-02  0.1174574E+00
         21   -1    0    0  503  502  0.00000000000E+00  0.00000000000E+00  0.28675049828E+03  0.28675049828E+03  0.00000000000E+00 0.  1.
         21   -1    0    0  501  503 -0.00000000000E+00 -0.00000000000E+00 -0.12884630223E+03  0.12884630223E+03  0.00000000000E+00 0.  1.
          6    2    1    2  501    0 -0.28422114766E+02 -0.27969981153E+01 -0.11357590937E+02  0.17364626864E+03  0.17090462819E+03 0.  0.
         24    2    3    3    0    0  0.15061654525E+02  0.21315805904E+01  0.51920748364E+02  0.96566003305E+02  0.79986447670E+02 0.  0.
         -6    2    1    2    0  502  0.28422114766E+02  0.27969981153E+01  0.16926178698E+03  0.24195053187E+03  0.17051354061E+03 0.  0.
        -24    2    5    5    0    0  0.36197448819E+02 -0.46328852410E+02  0.16550686953E+03  0.19185068741E+03  0.77185131539E+02 0.  0.
          5    1    3    3  501    0 -0.43483769291E+02 -0.49285787057E+01 -0.63278339301E+02  0.77080265338E+02  0.47000000000E+01 0. -1.
        -13    1    4    4    0    0  0.25193626445E+02  0.53968132517E+01 -0.14318729150E+02  0.29476607864E+02  0.00000000000E+00 0.  1.
         14    1    4    4    0    0 -0.10131971920E+02 -0.32652326613E+01  0.66239477514E+02  0.67089395441E+02  0.00000000000E+00 0. -1.
         -5    1    5    5    0  502 -0.77753340528E+01  0.49125850526E+02  0.37549174506E+01  0.50099844456E+02  0.47000000000E+01 0.  1.
         13    1    6    6    0    0  0.42644342064E+02 -0.31620457079E+02  0.43062494936E+02  0.68357674668E+02  0.00000000000E+00 0. -1.
        -14    1    6    6    0    0 -0.64468932452E+01 -0.14708395332E+02  0.12244437460E+03  0.12349301274E+03  0.00000000000E+00 0.  1.
</event>
<event>
12    1  0.8488291E-002  0.2234854E+03  0.7818608E-02  0.1131376E+00
         21   -1    0    0  503  502  0.00000000000E+00  0.00000000000E+00  0.76910693281E+03  0.76910693281E+03  0.00000000000E+00 0. -1.
         21   -1    0    0  501  503 -0.00000000000E+00 -0.00000000000E+00 -0.10501146510E+03  0.10501146510E+03  0.00000000000E+00 0.  1.
          6    2    1    2  501    0 -0.28082446825E+02  0.13962716141E+03  0.61550042060E+02  0.23146240743E+03  0.17176166729E+03 0.  0.
         24    2    3    3    0    0  0.51336218990E+02  0.76661212181E+02  0.28504901718E+02  0.12475670682E+03  0.78989604640E+02 0.  0.
         -6    2    1    2    0  502  0.28082446825E+02 -0.13962716141E+03  0.60254542565E+03  0.64265599048E+03  0.17222474882E+03 0.  0.
        -24    2    5    5    0    0 -0.32802014987E+02 -0.44152011333E+02  0.38092721037E+03  0.39374005022E+03  0.83068136211E+02 0.  0.
          5    1    3    3  501    0 -0.79418665815E+02  0.62965949232E+02  0.33045140342E+02  0.10670570061E+03  0.47000000000E+01 0. -1.
        -11    1    4    4    0    0  0.37796240871E+02  0.68629850549E+02 -0.13856039181E+02  0.79565080482E+02  0.00000000000E+00 0.  1.
         12    1    4    4    0    0  0.13539978120E+02  0.80313616312E+01  0.42360940898E+02  0.45191626336E+02  0.00000000000E+00 0. -1.
         -5    1    5    5    0  502  0.60884461813E+02 -0.95475150080E+02  0.22161821529E+03  0.24891594027E+03  0.47000000000E+01 0.  1.
         13    1    6    6    0    0 -0.48700041841E+02 -0.38088859450E+02  0.36575307126E+03  0.37094172646E+03  0.00000000000E+00 0. -1.
        -14    1    6    6    0    0  0.15898026854E+02 -0.60631518828E+01  0.15174139105E+02  0.22798323758E+02  0.00000000000E+00 0.  1.
</event>
<event>
12    1  0.8488291E-002  0.2361295E+03  0.7818608E-02  0.1122569E+00
         21   -1    0    0  501  502  0.00000000000E+00  0.00000000000E+00  0.12435046529E+03  0.12435046529E+03  0.00000000000E+00 0. -1.
         21   -1    0    0  502  503 -0.00000000000E+00 -0.00000000000E+00 -0.44656948604E+03  0.44656948604E+03  0.00000000000E+00 0.  1.
         -6    2    1    2    0  503  0.15755355201E+03  0.36070682093E+02 -0.16533638874E+03  0.28825900494E+03  0.17214214077E+03 0.  0.
        -24    2    3    3    0    0  0.67524557829E+01  0.33216138658E+02 -0.90313217481E+02  0.11973694327E+03  0.70933425166E+02 0.  0.
          6    2    1    2  501    0 -0.15755355201E+03 -0.36070682093E+02 -0.15688263201E+03  0.28266094639E+03  0.17076543716E+03 0.  0.
         24    2    5    5    0    0 -0.71630197920E+01 -0.22416698663E+02 -0.48471987835E+02  0.96707454313E+02  0.80305547028E+02 0.  0.
          5    1    5    5  501    0 -0.15039053222E+03 -0.13653983430E+02 -0.10841064418E+03  0.18595349208E+03  0.47000000000E+01 0. -1.
        -13    1    6    6    0    0 -0.25205943744E+02 -0.42414303157E+02 -0.49316789245E+02  0.69760005832E+02  0.00000000000E+00 0.  1.
         14    1    6    6    0    0  0.18042923952E+02  0.19997604494E+02  0.84480140916E+00  0.26947448481E+02  0.00000000000E+00 0. -1.
         -5    1    3    3    0  503  0.15080109623E+03  0.28545434355E+01 -0.75023171262E+02  0.16852206167E+03  0.47000000000E+01 0.  1.
         13    1    4    4    0    0 -0.22267387237E+00  0.18260446456E+02  0.80799911094E+01  0.19969470317E+02  0.00000000000E+00 0. -1.
        -14    1    4    4    0    0  0.69751296553E+01  0.14955692202E+02 -0.98393208590E+02  0.99767472954E+02  0.00000000000E+00 0.  1.
</event>
<event>
12    1  0.8488291E-002  0.1993910E+03  0.7818608E-02  0.1150352E+00
         21   -1    0    0  501  502  0.00000000000E+00  0.00000000000E+00  0.24416201472E+03  0.24416201472E+03  0.00000000000E+00 0. -1.
         21   -1    0    0  502  503 -0.00000000000E+00 -0.00000000000E+00 -0.17260029160E+03  0.17260029160E+03  0.00000000000E+00 0. -1.
         -6    2    1    2    0  503  0.52521009908E+02 -0.87078666370E+02  0.86344596383E+02  0.21728355588E+03  0.17150977731E+03 0.  0.
        -24    2    3    3    0    0  0.90343967476E+02 -0.79709421033E+02  0.99143526813E+02  0.17640832480E+03  0.82309379101E+02 0.  0.
          6    2    1    2  501    0 -0.52521009908E+02  0.87078666370E+02 -0.14782873256E+02  0.19947875044E+03  0.17097393929E+03 0.  0.
         24    2    5    5    0    0 -0.12668682639E+02  0.11978160876E+03  0.27374790910E+01  0.14482764637E+03  0.80370542139E+02 0.  0.
          5    1    5    5  501    0 -0.39852327269E+02 -0.32702942391E+02 -0.17520352347E+02  0.54651104071E+02  0.47000000000E+01 0. -1.
        -11    1    6    6    0    0  0.22732584571E+02  0.72557643066E+02  0.27455733369E+02  0.80840579312E+02  0.00000000000E+00 0.  1.
         12    1    6    6    0    0 -0.35401267210E+02  0.47223965694E+02 -0.24718254278E+02  0.63987067057E+02  0.00000000000E+00 0. -1.
         -5    1    3    3    0  503 -0.37822957568E+02 -0.73692453365E+01 -0.12798930429E+02  0.40875231084E+02  0.47000000000E+01 0.  1.
         13    1    4    4    0    0  0.10540668607E+03 -0.68794520934E+02  0.77272572561E+02  0.14769666905E+03  0.00000000000E+00 0. -1.
        -14    1    4    4    0    0 -0.15062718596E+02 -0.10914900099E+02  0.21870954252E+02  0.28711655744E+02  0.00000000000E+00 0.  1.
</event>
<event>
12    1  0.8488291E-002  0.1783008E+03  0.7818608E-02  0.1169562E+00
         21   -1    0    0  503  502  0.00000000000E+00  0.00000000000E+00  0.19815588928E+03  0.19815588928E+03  0.00000000000E+00 0.  1.
         21   -1    0    0  501  503 -0.00000000000E+00 -0.00000000000E+00 -0.24850176922E+03  0.24850176922E+03  0.00000000000E+00 0.  1.
          6    2    1    2  501    0  0.49011584843E+02 -0.74009500416E+01 -0.15843001827E+03  0.23851886102E+03  0.17127249302E+03 0.  0.
         24    2    3    3    0    0  0.33694315948E+02  0.31699367232E+02 -0.17067468407E+03  0.19452482304E+03  0.81054933141E+02 0.  0.
         -6    2    1    2    0  502 -0.49011584843E+02  0.74009500416E+01  0.10808413833E+03  0.20813879748E+03  0.17082935505E+03 0.  0.
        -24    2    5    5    0    0 -0.68232904308E+02  0.32873595798E+02  0.20081305246E+02  0.11441098179E+03  0.83367927898E+02 0.  0.
          5    1    3    3  501    0  0.15317268895E+02 -0.39100317273E+02  0.12244665801E+02  0.43994037980E+02  0.47000000000E+01 0. -1.
        -13    1    4    4    0    0  0.91108863944E+00  0.30496857912E+02 -0.12479540633E+02  0.32964031298E+02  0.00000000000E+00 0.  1.
         14    1    4    4    0    0  0.32783227308E+02  0.12025093197E+01 -0.15819514344E+03  0.16156079174E+03  0.00000000000E+00 0. -1.
         -5    1    5    5    0  502  0.19221319465E+02 -0.25472645756E+02  0.88002833086E+02  0.93727815695E+02  0.47000000000E+01 0.  1.
         13    1    6    6    0    0 -0.15061999657E+02  0.51314724068E+02  0.22640912712E+02  0.58074742086E+02  0.00000000000E+00 0. -1.
        -14    1    6    6    0    0 -0.53170904650E+02 -0.18441128271E+02 -0.25596074664E+01  0.56336239701E+02  0.00000000000E+00 0.  1.
</event>
<event>
12    1  0.8488291E-002  0.1966363E+03  0.7818608E-02  0.1153698E+00
         21   -1    0    0  503  502  0.00000000000E+00  0.00000000000E+00  0.14267899137E+03  0.14267899137E+03  0.00000000000E+00 0. -1.
         21   -1    0    0  501  503 -0.00000000000E+00 -0.00000000000E+00 -0.39613612995E+03  0.39613612995E+03  0.00000000000E+00 0. -1.
          6    2    1    2  501    0  0.75534869355E+02 -0.60595548799E+02 -0.28112926345E+03  0.34024120451E+03  0.16538765813E+03 0.  0.
         24    2    3    3    0    0  0.62994347544E+02 -0.80285539681E+01 -0.26410877570E+03  0.28338752710E+03  0.80760755382E+02 0.  0.
         -6    2    1    2    0  502 -0.75534869355E+02  0.60595548799E+02  0.27672124871E+02  0.19857391681E+03  0.17113888196E+03 0.  0.
        -24    2    5    5    0    0 -0.40367888879E+02  0.87584531491E+02  0.68849681828E+02  0.13788781544E+03  0.70513504732E+02 0.  0.
          5    1    3    3  501    0  0.12540521811E+02 -0.52566994831E+02 -0.17020487743E+02  0.56853677417E+02  0.47000000000E+01 0. -1.
        -11    1    4    4    0    0  0.73594663275E+01  0.20152448714E+02 -0.13994003780E+02  0.25614743324E+02  0.00000000000E+00 0.  1.
         12    1    4    4    0    0  0.55634881217E+02 -0.28181002682E+02 -0.25011477192E+03  0.25777278377E+03  0.00000000000E+00 0. -1.
         -5    1    5    5    0  502 -0.35166980476E+02 -0.26988982692E+02 -0.41177556956E+02  0.60686101370E+02  0.47000000000E+01 0.  1.
         13    1    6    6    0    0 -0.54471312747E+02  0.36914340809E+02  0.29040325154E+02  0.71924494817E+02  0.00000000000E+00 0. -1.
        -14    1    6    6    0    0  0.14103423868E+02  0.50670190682E+02  0.39809356674E+02  0.65963320621E+02  0.00000000000E+00 0.  1.
</event>
<event>
12    1  0.8488291E-002  0.1783414E+03  0.7818608E-02  0.1169468E+00
         21   -1    0    0  501  502  0.00000000000E+00  0.00000000000E+00  0.78583981738E+03  0.78583981738E+03  0.00000000000E+00 0. -1.
         21   -1    0    0  502  503 -0.00000000000E+00 -0.00000000000E+00 -0.94702663016E+02  0.94702663016E+02  0.00000000000E+00 0. -1.
         -6    2    1    2    0  503  0.28949533756E+02  0.32843485220E+02  0.12180210228E+02  0.17855373946E+03  0.17267400015E+03 0.  0.
        -24    2    3    3    0    0 -0.20130534423E+02  0.66189096334E+02  0.39791222541E+02  0.11293940509E+03  0.79910781133E+02 0.  0.
          6    2    1    2  501    0 -0.28949533756E+02 -0.32843485220E+02  0.67895694414E+03  0.70198874094E+03  0.17288403741E+03 0.  0.
         24    2    5    5    0    0 -0.50165282021E+02 -0.10840767974E+02  0.19362931401E+03  0.21567687999E+03  0.79938273350E+02 0.  0.
          5    1    5    5  501    0  0.21215748265E+02 -0.22002717246E+02  0.48532763013E+03  0.48631186095E+03  0.47000000000E+01 0. -1.
        -13    1    6    6    0    0 -0.23948875543E+01 -0.39300218133E+02  0.82307275921E+02  0.91239960003E+02  0.00000000000E+00 0.  1.
         14    1    6    6    0    0 -0.47770394467E+02  0.28459450159E+02  0.11132203809E+03  0.12443691998E+03  0.00000000000E+00 0. -1.
         -5    1    3    3    0  503  0.49080068179E+02 -0.33345611114E+02 -0.27611012313E+02  0.65614334364E+02  0.47000000000E+01 0.  1.
         13    1    4    4    0    0 -0.29694634979E+02  0.48799993170E+02 -0.11209087143E+02  0.58213867030E+02  0.00000000000E+00 0. -1.
        -14    1    4    4    0    0  0.95641005563E+01  0.17389103164E+02  0.51000309684E+02  0.54725538062E+02  0.00000000000E+00 0.  1.
</event>
<event>
12    1  0.8488291E-002  0.2059785E+03  0.7818608E-02  0.1145115E+00
         21   -1    0    0  503  502  0.00000000000E+00  0.00000000000E+00  0.25484722741E+03  0.25484722741E+03  0.00000000000E+00 0.  1.
         21   -1    0    0  501  503 -0.00000000000E+00 -0.00000000000E+00 -0.26488694982E+03  0.26488694982E+03  0.00000000000E+00 0.  1.
          6    2    1    2  501    0  0.84068101495E+02  0.71996889794E+02 -0.16445368892E+03  0.26357574219E+03  0.17371286148E+03 0.  0.
         24    2    3    3    0    0  0.42881336355E+02  0.11120889763E+03 -0.87574314309E+02  0.16783411373E+03  0.79327178726E+02 0.  0.
         -6    2    1    2    0  502 -0.84068101495E+02 -0.71996889794E+02  0.15441396650E+03  0.25615843504E+03  0.17182104924E+03 0.  0.
        -24    2    5    5    0    0 -0.12212807539E+02  0.13116481393E+02  0.25047501498E+02  0.85380094809E+02  0.79631579830E+02 0.  0.
          5    1    3    3  501    0  0.41186765140E+02 -0.39212007834E+02 -0.76879374608E+02  0.95741628466E+02  0.47000000000E+01 0. -1.
        -13    1    4    4    0    0  0.22978911672E+02 -0.61774658539E+01 -0.10540765480E+02  0.26024972678E+02  0.00000000000E+00 0.  1.
         14    1    4    4    0    0  0.19902424683E+02  0.11738636348E+03 -0.77033548829E+02  0.14180914105E+03  0.00000000000E+00 0. -1.
         -5    1    5    5    0  502 -0.71855293956E+02 -0.85113371187E+02  0.12936646500E+03  0.17077834023E+03  0.47000000000E+01 0.  1.
         13    1    6    6    0    0  0.33671317204E+02  0.10574355199E+02  0.14954469452E+02  0.38330284981E+02  0.00000000000E+00 0. -1.
        -14    1    6    6    0    0 -0.45884124743E+02  0.25421261946E+01  0.10093032046E+02  0.47049809828E+02  0.00000000000E+00 0.  1.
</event>
<event>
12    1  0.8488291E-002  0.1811146E+03  0.7818608E-02  0.1166982E+00
         21   -1    0    0  503  502  0.00000000000E+00  0.00000000000E+00  0.76692176631E+02  0.76692176631E+02  0.00000000000E+00 0. -1.
         21   -1    0    0  501  503 -0.00000000000E+00 -0.00000000000E+00 -0.43938374271E+03  0.43938374271E+03  0.00000000000E+00 0. -1.
          6    2    1    2  501    0  0.49863215879E+02 -0.13434852154E+02 -0.22713296217E+03  0.28984898258E+03  0.17249989753E+03 0.  0.
         24    2    3    3    0    0  0.39802068757E+02 -0.77034033123E+01 -0.34330716760E+02  0.96642171045E+02  0.80731431370E+02 0.  0.
         -6    2    1    2    0  502 -0.49863215879E+02  0.13434852154E+02 -0.13555860390E+03  0.22622693676E+03  0.17359624498E+03 0.  0.
        -24    2    5    5    0    0  0.21803714332E+02 -0.45174177592E+02 -0.67551663103E+02  0.11125650034E+03  0.72791987194E+02 0.  0.
          5    1    3    3  501    0  0.10061147122E+02 -0.57314488422E+01 -0.19280224541E+03  0.19320681154E+03  0.47000000000E+01 0. -1.
        -13    1    4    4    0    0 -0.13794128587E+02  0.24253408324E+02 -0.11889417802E+02  0.30329260698E+02  0.00000000000E+00 0.  1.
         14    1    4    4    0    0  0.53596197344E+02 -0.31956811637E+02 -0.22441298958E+02  0.66312910346E+02  0.00000000000E+00 0. -1.
         -5    1    5    5    0  502 -0.71666930211E+02  0.58609029747E+02 -0.68006940801E+02  0.11497043642E+03  0.47000000000E+01 0.  1.
         11    1    6    6    0    0 -0.21692002560E+02 -0.25597396971E+02 -0.71735519365E+01  0.34310778979E+02  0.00000000000E+00 0. -1.
        -12    1    6    6    0    0  0.43495716892E+02 -0.19576780622E+02 -0.60378111167E+02  0.76945721359E+02  0.00000000000E+00 0.  1.
</event>
<event>
12    1  0.8488291E-002  0.1780508E+03  0.7818608E-02  0.1170298E+00
         21   -1    0    0  503  502  0.00000000000E+00  0.00000000000E+00  0.44399774374E+03  0.44399774374E+03  0.00000000000E+00 0. -1.
         21   -1    0    0  501  503 -0.00000000000E+00 -0.00000000000E+00 -0.11675078954E+03  0.11675078954E+03  0.00000000000E+00 0. -1.
          6    2    1    2  501    0 -0.31411889630E+02  0.10159271451E+02 -0.12286782264E+02  0.17847425886E+03  0.17496336316E+03 0.  0.
         24    2    3    3    0    0  0.22222610285E+02  0.39713536726E+02 -0.52043799450E+02  0.10531125870E+03  0.79441140097E+02 0.  0.
         -6    2    1    2    0  502  0.31411889630E+02 -0.10159271451E+02  0.33953373646E+03  0.38227427443E+03  0.17251244908E+03 0.  0.
        -24    2    5    5    0    0  0.27474279974E+02 -0.25144371655E+02  0.35156896864E+03  0.36210016202E+03  0.78286091611E+02 0.  0.
          5    1    3    3  501    0 -0.53634499915E+02 -0.29554265274E+02  0.39757017186E+02  0.73163000161E+02  0.47000000000E+01 0. -1.
        -13    1    4    4    0    0  0.16703365894E+02  0.23342665972E+02  0.17524303212E+02  0.33630100950E+02  0.00000000000E+00 0.  1.
         14    1    4    4    0    0  0.55192443905E+01  0.16370870754E+02 -0.69568102662E+02  0.71681157746E+02  0.00000000000E+00 0. -1.
         -5    1    5    5    0  502  0.39376096560E+01  0.14985100203E+02 -0.12035232178E+02  0.20174112409E+02  0.47000000000E+01 0.  1.
         13    1    6    6    0    0 -0.38548135989E+01  0.46910226377E+01  0.26735176599E+03  0.26742070237E+03  0.00000000000E+00 0. -1.
        -14    1    6    6    0    0  0.31329093573E+02 -0.29835394292E+02  0.84217202650E+02  0.94679459646E+02  0.00000000000E+00 0.  1.
</event>
<event>
12    1  0.8488291E-002  0.1809650E+03  0.7818608E-02  0.1167088E+00
         21   -1    0    0  501  502  0.00000000000E+00  0.00000000000E+00  0.41099494851E+03  0.41099494851E+03  0.00000000000E+00 0.  1.
         21   -1    0    0  502  503 -0.00000000000E+00 -0.00000000000E+00 -0.31635688495E+03  0.31635688495E+03  0.00000000000E+00 0.  1.
         -6    2    1    2    0  503  0.50033887512E+02 -0.25210177397E+02 -0.26753113174E+03  0.32248783612E+03  0.17113315006E+03 0.  0.
        -24    2    3    3    0    0  0.54693276692E+02 -0.54928625264E+02 -0.92166423598E+02  0.14449972721E+03  0.79856202861E+02 0.  0.
          6    2    1    2  501    0 -0.50033887512E+02  0.25210177397E+02  0.36216919529E+03  0.40486399734E+03  0.17207378470E+03 0.  0.
         24    2    5    5    0    0 -0.70127347105E+01  0.50797533468E+02  0.33382395522E+03  0.34714853136E+03  0.80275163592E+02 0.  0.
          5    1    5    5  501    0 -0.43021152801E+02 -0.25587356071E+02  0.28345240072E+02  0.57715465984E+02  0.47000000000E+01 0. -1.
        -13    1    6    6    0    0 -0.64393807024E+01  0.26806019990E+02  0.31613661535E+03  0.31733639548E+03  0.00000000000E+00 0.  1.
         14    1    6    6    0    0 -0.57335400805E+00  0.23991513478E+02  0.17687339868E+02  0.29812135874E+02  0.00000000000E+00 0. -1.
         -5    1    3    3    0  503 -0.46593891802E+01  0.29718447868E+02 -0.17536470814E+03  0.17798810891E+03  0.47000000000E+01 0.  1.
         13    1    4    4    0    0  0.57487035028E+02 -0.72397234417E+02 -0.69027259005E+02  0.11537279243E+03  0.00000000000E+00 0. -1.
        -14    1    4    4    0    0 -0.27937583358E+01  0.17468609153E+02 -0.23139164593E+02  0.29126934776E+02  0.00000000000E+00 0.  1.
</event>
<event>
12    1  0.8488291E-002  0.2195342E+03  0.7818608E-02  0.1134442E+00
         21   -1    0    0  503  502  0.00000000000E+00  0.00000000000E+00  0.27593185719E+03  0.27593185719E+03  0.00000000000E+00 0.  1.
         21   -1    0    0  501  503 -0.00000000000E+00 -0.00000000000E+00 -0.34035099919E+03  0.34035099919E+03  0.00000000000E+00 0. -1.
          6    2    1    2  501    0 -0.19244851105E+01  0.13282170140E+03 -0.24774329270E+03  0.33027058018E+03  0.17336841998E+03 0.  0.
         24    2    3    3    0    0 -0.52286451775E+02  0.34079985816E+02 -0.83337270202E+02  0.13193328082E+03  0.81030682527E+02 0.  0.
         -6    2    1    2    0  502  0.19244851105E+01 -0.13282170140E+03  0.18332415070E+03  0.28601227619E+03  0.17478549681E+03 0.  0.
        -24    2    5    5    0    0 -0.37340301366E+02 -0.33193596193E+02  0.14355060542E+03  0.17168158168E+03  0.79822780185E+02 0.  0.
          5    1    3    3  501    0  0.50361966664E+02  0.98741715583E+02 -0.16440602250E+03  0.19833729936E+03  0.47000000000E+01 0. -1.
        -11    1    4    4    0    0 -0.11939721580E+02  0.51092594447E+02 -0.67222379713E+02  0.85275192718E+02  0.00000000000E+00 0.  1.
         12    1    4    4    0    0 -0.40346730195E+02 -0.17012608631E+02 -0.16114890489E+02  0.46658088102E+02  0.00000000000E+00 0. -1.
         -5    1    5    5    0  502  0.39264786476E+02 -0.99628105206E+02  0.39773545282E+02  0.11433069451E+03  0.47000000000E+01 0.  1.
         11    1    6    6    0    0  0.17727494870E+02 -0.12296967606E+02  0.65354442737E+01  0.22543103569E+02  0.00000000000E+00 0. -1.
        -12    1    6    6    0    0 -0.55067796236E+02 -0.20896628587E+02  0.13701516115E+03  0.14913847811E+03  0.00000000000E+00 0.  1.
</event>
<event>
12    1  0.8488291E-002  0.1858113E+03  0.7818608E-02  0.1163121E+00
         21   -1    0    0  501  502  0.00000000000E+00  0.00000000000E+00  0.30176476650E+02  0.30176476650E+02  0.00000000000E+00 0.  1.
         21   -1    0    0  502  503 -0.00000000000E+00 -0.00000000000E+00 -0.11760702119E+04  0.11760702119E+04  0.00000000000E+00 0.  1.
         -6    2    1    2    0  503  0.36673465464E+02  0.60913908977E+02 -0.43904661373E+03  0.47538507988E+03  0.16784992631E+03 0.  0.
        -24    2    3    3    0    0  0.68294012563E+02  0.73869594839E+02 -0.22744431813E+03  0.26098981337E+03  0.79145281863E+02 0.  0.
          6    2    1    2  501    0 -0.36673465464E+02 -0.60913908977E+02 -0.70684712147E+03  0.73086160863E+03  0.17166942202E+03 0.  0.
         24    2    5    5    0    0 -0.66757401519E+02 -0.31998132701E+02 -0.22527580894E+03  0.24746303149E+03  0.70769560590E+02 0.  0.
          5    1    5    5  501    0  0.30083936055E+02 -0.28915776276E+02 -0.48157131253E+03  0.48339857714E+03  0.47000000000E+01 0. -1.
        -13    1    6    6    0    0 -0.65424769136E+02 -0.33431891206E+02 -0.23047768639E+03  0.24190505511E+03  0.00000000000E+00 0.  1.
         14    1    6    6    0    0 -0.13326323830E+01  0.14337585054E+01  0.52018774431E+01  0.55579763811E+01  0.00000000000E+00 0. -1.
         -5    1    3    3    0  503 -0.31620547099E+02 -0.12955685862E+02 -0.21160229560E+03  0.21439526650E+03  0.47000000000E+01 0.  1.
         13    1    4    4    0    0 -0.61178964948E+01 -0.10241124609E+02 -0.76616463148E+01  0.14177803604E+02  0.00000000000E+00 0. -1.
        -14    1    4    4    0    0  0.74411909058E+02  0.84110719448E+02 -0.21978267182E+03  0.24681200977E+03  0.00000000000E+00 0.  1.
</event>
<event>
12    1  0.8488291E-002  0.2219685E+03  0.7818608E-02  0.1132452E+00
         21   -1    0    0  503  502  0.00000000000E+00  0.00000000000E+00  0.56852871340E+03  0.56852871340E+03  0.00000000000E+00 0.  1.
         21   -1    0    0  501  503 -0.00000000000E+00 -0.00000000000E+00 -0.87660255042E+02  0.87660255042E+02  0.00000000000E+00 0.  1.
          6    2    1    2  501    0  0.73391012013E+02 -0.11999770284E+03  0.20448091585E+03  0.30179867876E+03  0.17170995375E+03 0.  0.
         24    2    3    3    0    0  0.15704014676E+02 -0.84095167668E+02  0.40672088826E+02  0.12439461030E+03  0.80629938355E+02 0.  0.
         -6    2    1    2    0  502 -0.73391012013E+02  0.11999770284E+03  0.27638754251E+03  0.35439028969E+03  0.17151301537E+03 0.  0.
        -24    2    5    5    0    0 -0.11316079664E+02  0.12510305646E+01  0.14787300549E+03  0.16866967794E+03  0.80333154847E+02 0.  0.
          5    1    3    3  501    0  0.57686997337E+02 -0.35902535175E+02  0.16380882703E+03  0.17740406846E+03  0.47000000000E+01 0. -1.
        -11    1    4    4    0    0  0.44795530123E+02 -0.64335897842E+02  0.42510931687E+02  0.89179182453E+02  0.00000000000E+00 0.  1.
         12    1    4    4    0    0 -0.29091515447E+02 -0.19759269827E+02 -0.18388428608E+01  0.35215427843E+02  0.00000000000E+00 0. -1.
         -5    1    5    5    0  502 -0.62074932350E+02  0.11874667228E+03  0.12851453702E+03  0.18572061175E+03  0.47000000000E+01 0.  1.
         13    1    6    6    0    0 -0.11164499658E+02 -0.35740490755E+02  0.40755765097E+02  0.55344928590E+02  0.00000000000E+00 0. -1.
        -14    1    6    6    0    0 -0.15158000626E+00  0.36991521320E+02  0.10711724039E+03  0.11332474935E+03  0.00000000000E+00 0.  1.
</event>
<event>
12    1  0.8488291E-002  0.2171914E+03  0.7818608E-02  0.1137471E+00
         21   -1    0    0  503  502  0.00000000000E+00  0.00000000000E+00  0.17967265876E+03  0.17967265876E+03  0.00000000000E+00 0. -1.
         21   -1    0    0  501  503 -0.00000000000E+00 -0.00000000000E+00 -0.27483510748E+03  0.27483510748E+03  0.00000000000E+00 0. -1.
          6    2    1    2  501    0  0.98693206791E+02  0.81782156695E+02 -0.11184630432E+03  0.24429839871E+03  0.17533807802E+03 0.  0.
         24    2    3    3    0    0  0.28182181703E+02  0.10193596564E+02  0.10997139394E+02  0.85523941501E+02  0.79342691652E+02 0.  0.
         -6    2    1    2    0  502 -0.98693206791E+02 -0.81782156695E+02  0.16683855606E+02  0.21020936753E+03  0.16577381258E+03 0.  0.
        -24    2    5    5    0    0 -0.81850370013E+02 -0.87317421593E+02 -0.37122496871E+02  0.15336278561E+03  0.88420863219E+02 0.  0.
          5    1    3    3  501    0  0.70511025089E+02  0.71588560131E+02 -0.12284344371E+03  0.15877445721E+03  0.47000000000E+01 0. -1.
        -13    1    4    4    0    0  0.56157226895E+02  0.53928100571E+01  0.65718630270E+01  0.56797059048E+02  0.00000000000E+00 0.  1.
         14    1    4    4    0    0 -0.27975045192E+02  0.48007865070E+01  0.44252763674E+01  0.28726882453E+02  0.00000000000E+00 0. -1.
         -5    1    5    5    0  502 -0.16842836778E+02  0.55352648977E+01  0.53806352477E+02  0.56846581912E+02  0.47000000000E+01 0.  1.
         11    1    6    6    0    0 -0.42567544055E+00 -0.55112446231E+02  0.65709651278E+01  0.55504418850E+02  0.00000000000E+00 0. -1.
        -12    1    6    6    0    0 -0.81424694572E+02 -0.32204975362E+02 -0.43693461999E+02  0.97858366764E+02  0.00000000000E+00 0.  1.
</event>
<event>
12    1  0.8488291E-002  0.2278018E+03  0.7818608E-02  0.1128486E+00
         21   -1    0    0  503  502  0.00000000000E+00  0.00000000000E+00  0.42516831016E+03  0.42516831016E+03  0.00000000000E+00 0. -1.
         21   -1    0    0  501  503 -0.00000000000E+00 -0.00000000000E+00 -0.13602024453E+03  0.13602024453E+03  0.00000000000E+00 0. -1.
          6    2    1    2  501    0  0.95643333000E+02  0.11361577935E+03  0.51459164518E+02  0.23196269918E+03  0.17059441882E+03 0.  0.
         24    2    3    3    0    0  0.54215859142E+02  0.79425589500E+01 -0.18199002555E+02  0.98705746862E+02  0.80057336607E+02 0.  0.
         -6    2    1    2    0  502 -0.95643333000E+02 -0.11361577935E+03  0.23768890112E+03  0.32922585551E+03  0.17273522443E+03 0.  0.
        -24    2    5    5    0    0 -0.88107058726E+02 -0.72744550711E+02  0.68977136862E+02  0.15540697806E+03  0.79616957774E+02 0.  0.
          5    1    3    3  501    0  0.41427473858E+02  0.10567322040E+03  0.69658167072E+02  0.13325695232E+03  0.47000000000E+01 0. -1.
        -11    1    4    4    0    0  0.18461001979E+02  0.27020735779E+02 -0.40800461639E+02  0.52303025018E+02  0.00000000000E+00 0.  1.
         12    1    4    4    0    0  0.35754857162E+02 -0.19078176829E+02  0.22601459084E+02  0.46402721844E+02  0.00000000000E+00 0. -1.
         -5    1    5    5    0  502 -0.75362742735E+01 -0.40871228641E+02  0.16871176426E+03  0.17381887745E+03  0.47000000000E+01 0.  1.
         11    1    6    6    0    0 -0.49708793641E+02 -0.51164648177E+02  0.82753325500E+02  0.10925611319E+03  0.00000000000E+00 0. -1.
        -12    1    6    6    0    0 -0.38398265086E+02 -0.21579902534E+02 -0.13776188638E+02  0.46150864871E+02  0.00000000000E+00 0.  1.
</event>
<event>
12    1  0.8488291E-002  0.1851847E+03  0.7818608E-02  0.1163234E+00
         21   -1    0    0  503  502  0.00000000000E+00  0.00000000000E+00  0.43069941033E+02  0.43069941033E+02  0.00000000000E+00 0. -1.
         21   -1    0    0  501  503 -0.00000000000E+00 -0.00000000000E+00 -0.10487387740E+04  0.10487387740E+04  0.00000000000E+00 0. -1.
          6    2    1    2  501    0  0.34868559710E+02  0.52744179965E+02 -0.22995387604E+03  0.29429565531E+03  0.17243370508E+03 0.  0.
         24    2    3    3    0    0  0.81256040287E+02  0.34884626264E+02 -0.20889044692E+03  0.24010598785E+03  0.78715851984E+02 0.  0.
         -6    2    1    2    0  502 -0.34868559710E+02 -0.52744179965E+02 -0.77571495694E+03  0.79751305974E+03  0.17405637323E+03 0.  0.
        -24    2    5    5    0    0 -0.41677488863E+02 -0.99978677835E+02 -0.50722908351E+03  0.52477836533E+03  0.79863887077E+02 0.  0.
          5    1    3    3  501    0 -0.46387480577E+02  0.17859553701E+02 -0.21063429120E+02  0.54189667456E+02  0.47000000000E+01 0. -1.
        -11    1    4    4    0    0  0.83581075246E+01  0.30901225343E+01  0.61519509152E+01  0.10828357158E+02  0.00000000000E+00 0.  1.
         12    1    4    4    0    0  0.72897932762E+02  0.31794503729E+02 -0.21504239784E+03  0.22927763069E+03  0.00000000000E+00 0. -1.
         -5    1    5    5    0  502  0.68089291530E+01  0.47234497870E+02 -0.26848587342E+03  0.27273469441E+03  0.47000000000E+01 0.  1.
         11    1    6    6    0    0 -0.22572484125E+02 -0.22414451168E+02 -0.31513774808E+03  0.31673920649E+03  0.00000000000E+00 0. -1.
        -12    1    6    6    0    0 -0.19105004738E+02 -0.77564226667E+02 -0.19209133543E+03  0.20803915884E+03  0.00000000000E+00 0.  1.
</event>
<event>
12    1  0.8488291E-002  0.1777791E+03  0.7818608E-02  0.1170598E+00
         21   -1    0    0  501  502  0.00000000000E+00  0.00000000000E+00  0.61657697259E+02  0.61657697259E+02  0.00000000000E+00 0. -1.
         21   -1    0    0  502  503 -0.00000000000E+00 -0.00000000000E+00 -0.51171133872E+03  0.51171133872E+03  0.00000000000E+00 0. -1.
         -6    2    1    2    0  503 -0.19727655251E+02 -0.31369233841E+02 -0.25549683148E+03  0.30982065907E+03  0.17128047372E+03 0.  0.
        -24    2    3    3    0    0  0.35603136364E+02 -0.43170080771E+02 -0.22616233162E+03  0.24591949029E+03  0.78713126422E+02 0.  0.
          6    2    1    2  501    0  0.19727655251E+02  0.31369233841E+02 -0.19455680998E+03  0.26354837691E+03  0.17387405052E+03 0.  0.
         24    2    5    5    0    0  0.37071604551E+02  0.15078433419E+02 -0.21433679847E+03  0.23225076198E+03  0.79990563455E+02 0.  0.
          5    1    5    5  501    0 -0.17343949301E+02  0.16290800422E+02  0.19779988487E+02  0.31297614930E+02  0.47000000000E+01 0. -1.
        -13    1    6    6    0    0  0.19716109994E+02  0.48140833622E+02 -0.11986875367E+03  0.13067051298E+03  0.00000000000E+00 0.  1.
         14    1    6    6    0    0  0.17355494557E+02 -0.33062400203E+02 -0.94468044802E+02  0.10158024900E+03  0.00000000000E+00 0. -1.
         -5    1    3    3    0  503 -0.55330791615E+02  0.11800846931E+02 -0.29334499858E+02  0.63901168776E+02  0.47000000000E+01 0.  1.
         11    1    4    4    0    0  0.14569119743E+02 -0.29860086874E+02 -0.21679126279E+03  0.21932244678E+03  0.00000000000E+00 0. -1.
        -12    1    4    4    0    0  0.21034016621E+02 -0.13309993897E+02 -0.93710688238E+01  0.26597043514E+02  0.00000000000E+00 0.  1.
</event>
<event>
12    1  0.8488291E-002  0.5767471E+03  0.7818608E-02  0.9955698E-01
         21   -1    0    0  503  502  0.00000000000E+00  0.00000000000E+00  0.15396643144E+04  0.15396643144E+04  0.00000000000E+00 0.  1.
         21   -1    0    0  501  503 -0.00000000000E+00 -0.00000000000E+00 -0.21615123584E+03  0.21615123584E+03  0.00000000000E+00 0. -1.
          6    2    1    2  501    0  0.52469000775E+03  0.15980227821E+03  0.71017271728E+03  0.91389895096E+03  0.17329059941E+03 0.  0.
         24    2    3    3    0    0  0.32066368911E+03  0.11925877256E+03  0.54436690795E+03  0.64784600331E+03  0.79506334235E+02 0.  0.
         -6    2    1    2    0  502 -0.52469000775E+03 -0.15980227821E+03  0.61334036126E+03  0.84191659926E+03  0.17832775724E+03 0.  0.
        -24    2    5    5    0    0 -0.53494526262E+03 -0.16180097215E+03  0.59549139272E+03  0.82070715070E+03  0.81266474164E+02 0.  0.
          5    1    3    3  501    0  0.20402631864E+03  0.40543505647E+02  0.16580580933E+03  0.26605294765E+03  0.47000000000E+01 0. -1.
        -13    1    4    4    0    0  0.66857019494E+02  0.31433381808E+02  0.18502099359E+03  0.19922521582E+03  0.00000000000E+00 0.  1.
         14    1    4    4    0    0  0.25380666962E+03  0.87825390754E+02  0.35934591436E+03  0.44862078750E+03  0.00000000000E+00 0. -1.
         -5    1    5    5    0  502  0.10255254872E+02  0.19986939431E+01  0.17848968540E+02  0.21209448553E+02  0.47000000000E+01 0.  1.
         13    1    6    6    0    0 -0.20714792135E+03 -0.26412554373E+02  0.19440728306E+03  0.28531049061E+03  0.00000000000E+00 0. -1.
        -14    1    6    6    0    0 -0.32779734127E+03 -0.13538841778E+03  0.40108410966E+03  0.53539666009E+03  0.00000000000E+00 0.  1.
</event>
<event>
12    1  0.8488291E-002  0.2425724E+03  0.7818608E-02  0.1118190E+00
         21   -1    0    0  503  502  0.00000000000E+00  0.00000000000E+00  0.11603055783E+03  0.11603055783E+03  0.00000000000E+00 0.  1.
         21   -1    0    0  501  503 -0.00000000000E+00 -0.00000000000E+00 -0.95221973171E+03  0.95221973171E+03  0.00000000000E+00 0. -1.
          6    2    1    2  501    0  0.12113263882E+03 -0.12286259102E+03 -0.78351043957E+03  0.82002375392E+03  0.16965263221E+03 0.  0.
         24    2    3    3    0    0  0.10795384026E+02 -0.91574811339E+02 -0.31126090740E+03  0.33402483871E+03  0.78655921639E+02 0.  0.
         -6    2    1    2    0  502 -0.12113263882E+03  0.12286259102E+03 -0.52678734308E+02  0.24822653562E+03  0.17050815664E+03 0.  0.
        -24    2    5    5    0    0 -0.10774652764E+03  0.73996600814E+02 -0.96797437856E+02  0.18087950173E+03  0.79138100944E+02 0.  0.
          5    1    3    3  501    0  0.11033725479E+03 -0.31287779677E+02 -0.47224953217E+03  0.48599891521E+03  0.47000000000E+01 0. -1.
        -13    1    4    4    0    0 -0.74846170550E+01 -0.95885239045E+02 -0.29060688393E+03  0.30610841143E+03  0.00000000000E+00 0.  1.
         14    1    4    4    0    0  0.18280001081E+02  0.43104277058E+01 -0.20654023473E+02  0.27916427281E+02  0.00000000000E+00 0. -1.
         -5    1    5    5    0  502 -0.13386111175E+02  0.48865990202E+02  0.44118703548E+02  0.67347033889E+02  0.47000000000E+01 0.  1.
         13    1    6    6    0    0 -0.10239738405E+03  0.62695666447E+02 -0.46017495507E+02  0.12858297221E+03  0.00000000000E+00 0. -1.
        -14    1    6    6    0    0 -0.53491435955E+01  0.11300934367E+02 -0.50779942349E+02  0.52296529519E+02  0.00000000000E+00 0.  1.
</event>
<event>
12    1  0.8488291E-002  0.2327537E+03  0.7818608E-02  0.1125034E+00
         21   -1    0    0  501  502  0.00000000000E+00  0.00000000000E+00  0.85111922302E+02  0.85111922302E+02  0.00000000000E+00 0.  1.
         21   -1    0    0  502  503 -0.00000000000E+00 -0.00000000000E+00 -0.94684711450E+03  0.94684711450E+03  0.00000000000E+00 0. -1.
         -6    2    1    2    0  503  0.13269307252E+02  0.15412853614E+03 -0.72975805746E+03  0.76597722111E+03  0.17390399845E+03 0.  0.
        -24    2    3    3    0    0  0.67462715405E+02  0.12673760947E+03 -0.61060466883E+03  0.63216089785E+03  0.78585619223E+02 0.  0.
          6    2    1    2  501    0 -0.13269307252E+02 -0.15412853614E+03 -0.13197713474E+03  0.26598181568E+03  0.17145460628E+03 0.  0.
         24    2    5    5    0    0  0.39585391314E+02 -0.13970268003E+03 -0.62296578600E+02  0.17721698938E+03  0.80256810341E+02 0.  0.
          5    1    5    5  501    0 -0.52854698566E+02 -0.14425856108E+02 -0.69680556138E+02  0.88764826303E+02  0.47000000000E+01 0. -1.
        -13    1    6    6    0    0  0.54662830752E+02 -0.56609166777E+02 -0.13991055924E+02  0.79927294931E+02  0.00000000000E+00 0.  1.
         14    1    6    6    0    0 -0.15077439439E+02 -0.83093513255E+02 -0.48305522675E+02  0.97289694449E+02  0.00000000000E+00 0. -1.
         -5    1    3    3    0  503 -0.54193408153E+02  0.27390926674E+02 -0.11915338862E+03  0.13381632326E+03  0.47000000000E+01 0.  1.
         13    1    4    4    0    0  0.37157836612E+02  0.25975513029E+02 -0.87167072805E+02  0.98252382568E+02  0.00000000000E+00 0. -1.
        -14    1    4    4    0    0  0.30304878793E+02  0.10076209644E+03 -0.52343759603E+03  0.53390851528E+03  0.00000000000E+00 0.  1.
</event>
<event>
12    1  0.8488291E-002  0.1764157E+03  0.7818608E-02  0.1171414E+00
         21   -1    0    0  503  502  0.00000000000E+00  0.00000000000E+00  0.74479003729E+02  0.74479003729E+02  0.00000000000E+00 0. -1.
         21   -1    0    0  501  503 -0.00000000000E+00 -0.00000000000E+00 -0.41834556347E+03  0.41834556347E+03  0.00000000000E+00 0. -1.
          6    2    1    2  501    0 -0.41982775011E+00 -0.41118747468E+02 -0.18598468405E+03  0.25607746304E+03  0.17115617642E+03 0.  0.
         24    2    3    3    0    0 -0.48613950702E+01 -0.30880240583E+02 -0.21626436047E+02  0.91273706313E+02  0.82981710681E+02 0.  0.
         -6    2    1    2    0  502  0.41982775011E+00  0.41118747468E+02 -0.15788187569E+03  0.23674710416E+03  0.17155633771E+03 0.  0.
        -24    2    5    5    0    0 -0.30960469013E+02 -0.35807794836E+02 -0.91708015976E+02  0.13042925220E+03  0.79753876538E+02 0.  0.
          5    1    3    3  501    0  0.44415673201E+01 -0.10238506886E+02 -0.16435824801E+03  0.16480375673E+03  0.47000000000E+01 0. -1.
        -11    1    4    4    0    0 -0.34911304512E+02 -0.34736822629E+02 -0.32588985539E+02  0.59054957518E+02  0.00000000000E+00 0.  1.
         12    1    4    4    0    0  0.30049909442E+02  0.38565820461E+01  0.10962549492E+02  0.32218748795E+02  0.00000000000E+00 0. -1.
         -5    1    5    5    0  502  0.31380296763E+02  0.76926542305E+02 -0.66173859714E+02  0.10631785196E+03  0.47000000000E+01 0.  1.
         13    1    6    6    0    0 -0.34739193046E+02 -0.22335323807E+02 -0.10393972457E+03  0.11184428715E+03  0.00000000000E+00 0. -1.
        -14    1    6    6    0    0  0.37787240329E+01 -0.13472471029E+02  0.12231708596E+02  0.18584965055E+02  0.00000000000E+00 0.  1.
</event>
<event>
12    1  0.8488291E-002  0.2075442E+03  0.7818608E-02  0.1143659E+00
         21   -1    0    0  503  502  0.00000000000E+00  0.00000000000E+00  0.19588250002E+03  0.19588250002E+03  0.00000000000E+00 0.  1.
         21   -1    0    0  501  503 -0.00000000000E+00 -0.00000000000E+00 -0.26512371799E+03  0.26512371799E+03  0.00000000000E+00 0. -1.
          6    2    1    2  501    0 -0.11379192817E+03 -0.15173866479E+02 -0.13050953156E+03  0.24460747606E+03  0.17210819381E+03 0.  0.
         24    2    3    3    0    0 -0.25017955147E+02 -0.63319446553E+02 -0.19418316702E+02  0.94400408369E+02  0.62442899398E+02 0.  0.
         -6    2    1    2    0  502  0.11379192817E+03  0.15173866479E+02  0.61268313590E+02  0.21639874195E+03  0.17290390431E+03 0.  0.
        -24    2    5    5    0    0  0.86902607691E+02  0.70394863312E+02  0.12890098225E+02  0.13807291116E+03  0.79940441325E+02 0.  0.
          5    1    3    3  501    0 -0.88773973020E+02  0.48145580074E+02 -0.11109121486E+03  0.15020706769E+03  0.47000000000E+01 0. -1.
        -11    1    4    4    0    0 -0.26678227326E+02 -0.55853433833E+02  0.11146312118E+02  0.62893355436E+02  0.00000000000E+00 0.  1.
         12    1    4    4    0    0  0.16602721793E+01 -0.74660127201E+01 -0.30564628820E+02  0.31507052933E+02  0.00000000000E+00 0. -1.
         -5    1    5    5    0  502  0.26889320476E+02 -0.55220996833E+02  0.48378215365E+02  0.78325830789E+02  0.47000000000E+01 0.  1.
         11    1    6    6    0    0 -0.99654748612E+01 -0.71143606115E+01 -0.39693328298E+01  0.12871690613E+02  0.00000000000E+00 0. -1.
        -12    1    6    6    0    0  0.96868082552E+02  0.77509223923E+02  0.16859431054E+02  0.12520122055E+03  0.00000000000E+00 0.  1.
</event>
<event>
12    1  0.8488291E-002  0.2978798E+03  0.7818608E-02  0.1086385E+00
         21   -1    0    0  501  502  0.00000000000E+00  0.00000000000E+00  0.37585642965E+02  0.37585642965E+02  0.00000000000E+00 0.  1.
         21   -1    0    0  502  503 -0.00000000000E+00 -0.00000000000E+00 -0.25134733782E+04  0.25134733782E+04  0.00000000000E+00 0.  1.
         -6    2    1    2    0  503  0.23666534828E+03 -0.52966637843E+02 -0.91969410148E+03  0.96673140177E+03  0.17296361196E+03 0.  0.
        -24    2    3    3    0    0  0.21995567341E+03  0.27502920438E+01 -0.80107976923E+03  0.83453821236E+03  0.79606336734E+02 0.  0.
          6    2    1    2  501    0 -0.23666534828E+03  0.52966637843E+02 -0.15561936337E+04  0.15843276194E+04  0.17187038152E+03 0.  0.
         24    2    5    5    0    0 -0.18198954170E+03  0.99579757007E+02 -0.12652057708E+04  0.12845639573E+04  0.79514757965E+02 0.  0.
          5    1    5    5  501    0 -0.54675806579E+02 -0.46613119164E+02 -0.29098786292E+03  0.29976366202E+03  0.47000000000E+01 0. -1.
        -11    1    6    6    0    0 -0.77442478764E+02  0.49493553012E+02 -0.34297528336E+03  0.35507604017E+03  0.00000000000E+00 0.  1.
         12    1    6    6    0    0 -0.10454706294E+03  0.50086203995E+02 -0.92223048744E+03  0.92948791717E+03  0.00000000000E+00 0. -1.
         -5    1    3    3    0  503  0.16709674870E+02 -0.55716929886E+02 -0.11861433225E+03  0.13219318941E+03  0.47000000000E+01 0.  1.
         11    1    4    4    0    0  0.15101593602E+03  0.36187912740E+02 -0.58563054550E+03  0.60587004694E+03  0.00000000000E+00 0. -1.
        -12    1    4    4    0    0  0.68939737390E+02 -0.33437620696E+02 -0.21544922373E+03  0.22866816542E+03  0.00000000000E+00 0.  1.
</event>
<event>
12    1  0.8488291E-002  0.3071982E+03  0.7818608E-02  0.1081732E+00
         21   -1    0    0  503  502  0.00000000000E+00  0.00000000000E+00  0.17097933617E+03  0.17097933617E+03  0.00000000000E+00 0. -1.
         21   -1    0    0  501  503 -0.00000000000E+00 -0.00000000000E+00 -0.75219596542E+03  0.75219596542E+03  0.00000000000E+00 0.  1.
          6    2    1    2  501    0 -0.12776524613E+03 -0.21964110921E+03 -0.52898281395E+03  0.61156802996E+03  0.17212339424E+03 0.  0.
         24    2    3    3    0    0 -0.12169105950E+03 -0.15145697559E+03 -0.48840691254E+03  0.53185312799E+03  0.81108002816E+02 0.  0.
         -6    2    1    2    0  502  0.12776524613E+03  0.21964110921E+03 -0.52233815298E+02  0.31160727164E+03  0.17263992963E+03 0.  0.
        -24    2    5    5    0    0  0.20482800289E+02  0.16300118716E+03 -0.52286698142E+02  0.19020011884E+03  0.80332149719E+02 0.  0.
          5    1    3    3  501    0 -0.60741866319E+01 -0.68184133623E+02 -0.40575901410E+02  0.79714901971E+02  0.47000000000E+01 0. -1.
        -11    1    4    4    0    0 -0.27799972251E+02 -0.28832266641E+02 -0.36151674985E+02  0.53954440605E+02  0.00000000000E+00 0.  1.
         12    1    4    4    0    0 -0.93891087245E+02 -0.12262470895E+03 -0.45225523756E+03  0.47789868739E+03  0.00000000000E+00 0. -1.
         -5    1    5    5    0  502  0.10728244584E+03  0.56639922048E+02  0.52882843433E-01  0.12140715280E+03  0.47000000000E+01 0.  1.
         13    1    6    6    0    0  0.36076889257E+02  0.87801679635E+02 -0.61112042661E+02  0.11289534376E+03  0.00000000000E+00 0. -1.
        -14    1    6    6    0    0 -0.15594088968E+02  0.75199507527E+02  0.88253445197E+01  0.77304775072E+02  0.00000000000E+00 0.  1.
</event>
<event>
12    1  0.8488291E-002  0.1834701E+03  0.7818608E-02  0.1164729E+00
         21   -1    0    0  501  502  0.00000000000E+00  0.00000000000E+00  0.45986132527E+03  0.45986132527E+03  0.00000000000E+00 0.  1.
         21   -1    0    0  502  503 -0.00000000000E+00 -0.00000000000E+00 -0.76353069440E+02  0.76353069440E+02  0.00000000000E+00 0.  1.
         -6    2    1    2    0  503  0.21826886812E+02  0.60424932528E+02  0.24915806466E+03  0.30881330179E+03  0.17075810001E+03 0.  0.
        -24    2    3    3    0    0  0.25899849397E+02  0.89185408854E+02  0.25086106044E+03  0.27933883458E+03  0.80461627544E+02 0.  0.
          6    2    1    2  501    0 -0.21826886812E+02 -0.60424932528E+02  0.13435019117E+03  0.22740109292E+03  0.17185371027E+03 0.  0.
         24    2    5    5    0    0  0.44668442516E+01  0.24231620067E+01  0.13591477940E+03  0.15909456895E+03  0.82537447254E+02 0.  0.
          5    1    5    5  501    0 -0.26293731063E+02 -0.62848094535E+02 -0.15645882313E+01  0.68306523965E+02  0.47000000000E+01 0. -1.
        -13    1    6    6    0    0  0.17626483690E+02 -0.36858089984E+02  0.75409414693E+02  0.85765911346E+02  0.00000000000E+00 0.  1.
         14    1    6    6    0    0 -0.13159639439E+02  0.39281251991E+02  0.60505364705E+02  0.73328657606E+02  0.00000000000E+00 0. -1.
         -5    1    3    3    0  503 -0.40729625853E+01 -0.28760476325E+02 -0.17029957821E+01  0.29474467210E+02  0.47000000000E+01 0.  1.
         13    1    4    4    0    0  0.21013509289E+02  0.17534431776E+02  0.16566862562E+03  0.16791401784E+03  0.00000000000E+00 0. -1.
        -14    1    4    4    0    0  0.48863401078E+01  0.71650977077E+02  0.85192434819E+02  0.11142481674E+03  0.00000000000E+00 0.  1.
</event>
<event>
12    1  0.8488291E-002  0.2013373E+03  0.7818608E-02  0.1151438E+00
         21   -1    0    0  503  502  0.00000000000E+00  0.00000000000E+00  0.72492403230E+03  0.72492403230E+03  0.00000000000E+00 0.  1.
         21   -1    0    0  501  503 -0.00000000000E+00 -0.00000000000E+00 -0.53853725634E+02  0.53853725634E+02  0.00000000000E+00 0.  1.
          6    2    1    2  501    0 -0.78055122261E+02  0.36250491479E+01  0.28161729100E+03  0.34618637831E+03  0.18555583214E+03 0.  0.
         24    2    3    3    0    0 -0.65246504976E+02 -0.77795970103E+01  0.30220088989E+03  0.31898525381E+03  0.78157442124E+02 0.  0.
         -6    2    1    2    0  502  0.78055122261E+02 -0.36250491479E+01  0.38945301566E+03  0.43259137962E+03  0.17133565660E+03 0.  0.
        -24    2    5    5    0    0  0.77831331291E+02  0.23746103354E+01  0.12813789033E+03  0.17116504062E+03  0.82551785493E+02 0.  0.
          5    1    3    3  501    0 -0.12808617285E+02  0.11404646158E+02 -0.20583598886E+02  0.27201124496E+02  0.47000000000E+01 0. -1.
        -13    1    4    4    0    0 -0.61689132311E+02 -0.32909210931E+02  0.26414901799E+03  0.27324580310E+03  0.00000000000E+00 0.  1.
         14    1    4    4    0    0 -0.35573726654E+01  0.25129613921E+02  0.38051871901E+02  0.45739450710E+02  0.00000000000E+00 0. -1.
         -5    1    5    5    0  502  0.22379097022E+00 -0.59996594833E+01  0.26131512533E+03  0.26142633900E+03  0.47000000000E+01 0.  1.
         11    1    6    6    0    0 -0.15231409480E+02  0.76074250972E+01  0.72240023492E+01  0.18494727933E+02  0.00000000000E+00 0. -1.
        -12    1    6    6    0    0  0.93062740771E+02 -0.52328147618E+01  0.12091388798E+03  0.15267031269E+03  0.00000000000E+00 0.  1.
</event>
<event>
12    1  0.8488291E-002  0.1778861E+03  0.7818608E-02  0.1170393E+00
         21   -1    0    0  503  502  0.00000000000E+00  0.00000000000E+00  0.56641895077E+03  0.56641895077E+03  0.00000000000E+00 0.  1.
         21   -1    0    0  501  503 -0.00000000000E+00 -0.00000000000E+00 -0.61233985700E+02  0.61233985700E+02  0.00000000000E+00 0.  1.
          6    2    1    2  501    0  0.73676758558E+01 -0.38499173163E+02  0.15542792972E+03  0.23622300394E+03  0.17351368035E+03 0.  0.
         24    2    3    3    0    0 -0.51857823223E+02 -0.56480118607E+02  0.12459040845E+03  0.16691198852E+03  0.80359221038E+02 0.  0.
         -6    2    1    2    0  502 -0.73676758558E+01  0.38499173163E+02  0.34975703535E+03  0.39142993254E+03  0.17132115842E+03 0.  0.
        -24    2    5    5    0    0 -0.15610089602E+02  0.49426121782E+02  0.93800439867E+02  0.13506455975E+03  0.82202775922E+02 0.  0.
          5    1    3    3  501    0  0.59225499079E+02  0.17980945444E+02  0.30837521264E+02  0.69311015415E+02  0.47000000000E+01 0. -1.
        -11    1    4    4    0    0  0.33707763082E+01 -0.50678214092E+02  0.35629701796E+02  0.62041269866E+02  0.00000000000E+00 0.  1.
         12    1    4    4    0    0 -0.55228599531E+02 -0.58019045157E+01  0.88960706657E+02  0.10487071865E+03  0.00000000000E+00 0. -1.
         -5    1    5    5    0  502  0.82424137461E+01 -0.10926948618E+02  0.25595659549E+03  0.25636537279E+03  0.47000000000E+01 0.  1.
         11    1    6    6    0    0 -0.31737638298E+01 -0.20414792225E+01 -0.14248301219E+02  0.14739555689E+02  0.00000000000E+00 0. -1.
        -12    1    6    6    0    0 -0.12436325772E+02  0.51467601004E+02  0.10804874109E+03  0.12032500406E+03  0.00000000000E+00 0.  1.
</event>
<event>
12    1  0.8488291E-002  0.2023798E+03  0.7818608E-02  0.1148301E+00
         21   -1    0    0  503  502  0.00000000000E+00  0.00000000000E+00  0.11750567270E+03  0.11750567270E+03  0.00000000000E+00 0. -1.
         21   -1    0    0  501  503 -0.00000000000E+00 -0.00000000000E+00 -0.40897842629E+03  0.40897842629E+03  0.00000000000E+00 0. -1.
          6    2    1    2  501    0 -0.82764906561E+02  0.69440512989E+02 -0.25146149223E+03  0.32278550346E+03  0.17113031458E+03 0.  0.
         24    2    3    3    0    0  0.94370113739E+01 -0.90960088019E+01 -0.87006303811E+02  0.11848969361E+03  0.79359410462E+02 0.  0.
         -6    2    1    2    0  502  0.82764906561E+02 -0.69440512989E+02 -0.40011261360E+02  0.20369859553E+03  0.16798869660E+03 0.  0.
        -24    2    5    5    0    0  0.11088936680E+03 -0.86035090122E+02 -0.14984997023E+02  0.16228882421E+03  0.80091347389E+02 0.  0.
          5    1    3    3  501    0 -0.92201917935E+02  0.78536521791E+02 -0.16445518842E+03  0.20429580985E+03  0.47000000000E+01 0. -1.
        -13    1    4    4    0    0  0.32097784205E+02 -0.61991970623E+01 -0.89714057508E+02  0.95484605615E+02  0.00000000000E+00 0.  1.
         14    1    4    4    0    0 -0.22660772831E+02 -0.28968117395E+01  0.27077536962E+01  0.23005087994E+02  0.00000000000E+00 0. -1.
         -5    1    5    5    0  502 -0.28124460243E+02  0.16594577133E+02 -0.25026264336E+02  0.41409771321E+02  0.47000000000E+01 0.  1.
         13    1    6    6    0    0  0.39783999788E+02 -0.65875710133E+02 -0.36695682314E+02  0.85258131138E+02  0.00000000000E+00 0. -1.
        -14    1    6    6    0    0  0.71105367016E+02 -0.20159379989E+02  0.21710685290E+02  0.77030693076E+02  0.00000000000E+00 0.  1.
</event>
<event>
12    1  0.8488291E-002  0.2111947E+03  0.7818608E-02  0.1141352E+00
         21   -1    0    0  503  502  0.00000000000E+00  0.00000000000E+00  0.66218721512E+03  0.66218721512E+03  0.00000000000E+00 0. -1.
         21   -1    0    0  501  503 -0.00000000000E+00 -0.00000000000E+00 -0.85480041494E+02  0.85480041494E+02  0.00000000000E+00 0. -1.
          6    2    1    2  501    0 -0.11614910596E+03 -0.40625391188E+01  0.11273624751E+03  0.23940061514E+03  0.17634078934E+03 0.  0.
         24    2    3    3    0    0  0.81499953324E+00 -0.91682442317E+01  0.89431513802E+02  0.11993567964E+03  0.79384196565E+02 0.  0.
         -6    2    1    2    0  502  0.11614910596E+03  0.40625391188E+01  0.46397092611E+03  0.50826664147E+03  0.17192684351E+03 0.  0.
        -24    2    5    5    0    0  0.94184537116E+02  0.42363891702E+02  0.18971132015E+03  0.23043601437E+03  0.80280417134E+02 0.  0.
          5    1    3    3  501    0 -0.11696410550E+03  0.51057051129E+01  0.23304733713E+02  0.11946493549E+03  0.47000000000E+01 0. -1.
        -13    1    4    4    0    0 -0.19357095346E+01  0.35292237641E+02  0.38072115921E+02  0.51949735513E+02  0.00000000000E+00 0.  1.
         14    1    4    4    0    0  0.27507090679E+01 -0.44460481873E+02  0.51359397881E+02  0.67985944131E+02  0.00000000000E+00 0. -1.
         -5    1    5    5    0  502  0.21964568847E+02 -0.38301352583E+02  0.27425960596E+03  0.27783062710E+03  0.47000000000E+01 0.  1.
         13    1    6    6    0    0  0.63208980135E+02  0.31890964876E+02  0.18412072620E+03  0.19726340418E+03  0.00000000000E+00 0. -1.
        -14    1    6    6    0    0  0.30975556980E+02  0.10472926825E+02  0.55905939486E+01  0.33172610196E+02  0.00000000000E+00 0.  1.
</event>
<event>
12    1  0.8488291E-002  0.2446557E+03  0.7818608E-02  0.1116783E+00
         21   -1    0    0  501  502  0.00000000000E+00  0.00000000000E+00  0.23649444561E+02  0.23649444561E+02  0.00000000000E+00 0.  1.
         21   -1    0    0  502  503 -0.00000000000E+00 -0.00000000000E+00 -0.25331150526E+04  0.25331150526E+04  0.00000000000E+00 0.  1.
         -6    2    1    2    0  503  0.14533470347E+03  0.94265246006E+02 -0.11943593132E+04  0.12190945069E+04  0.17230535458E+03 0.  0.
        -24    2    3    3    0    0  0.42910969916E+01  0.21103754974E+02 -0.43115109916E+03  0.43950822521E+03  0.82537432326E+02 0.  0.
          6    2    1    2  501    0 -0.14533470347E+03 -0.94265246006E+02 -0.13151062949E+04  0.13376699902E+04  0.17276667311E+03 0.  0.
         24    2    5    5    0    0 -0.16180168266E+03 -0.90712448753E+02 -0.90474323548E+03  0.92693441316E+03  0.78984500177E+02 0.  0.
          5    1    5    5  501    0  0.16466979188E+02 -0.35527972525E+01 -0.41036305939E+03  0.41073557708E+03  0.47000000000E+01 0. -1.
        -11    1    6    6    0    0 -0.77664182231E+02 -0.47221600844E+02 -0.62541871051E+03  0.63198905706E+03  0.00000000000E+00 0.  1.
         12    1    6    6    0    0 -0.84137500431E+02 -0.43490847909E+02 -0.27932452497E+03  0.29494535610E+03  0.00000000000E+00 0. -1.
         -5    1    3    3    0  503  0.14104360648E+03  0.73161491032E+02 -0.76320821400E+03  0.77958628170E+03  0.47000000000E+01 0.  1.
         11    1    4    4    0    0  0.17680817210E+02  0.41769613572E+00 -0.39700849117E+03  0.39740222423E+03  0.00000000000E+00 0. -1.
        -12    1    4    4    0    0 -0.13389720219E+02  0.20686058838E+02 -0.34142607991E+02  0.42106000977E+02  0.00000000000E+00 0.  1.
</event>
<event>
12    1  0.8488291E-002  0.1990665E+03  0.7818608E-02  0.1150559E+00
         21   -1    0    0  501  502  0.00000000000E+00  0.00000000000E+00  0.20130654843E+03  0.20130654843E+03  0.00000000000E+00 0.  1.
         21   -1    0    0  502  503 -0.00000000000E+00 -0.00000000000E+00 -0.20229331752E+03  0.20229331752E+03  0.00000000000E+00 0. -1.
         -6    2    1    2    0  503 -0.75815896639E+02 -0.64489598428E+02 -0.34014709075E+02  0.20181206988E+03  0.17223284422E+03 0.  0.
        -24    2    3    3    0    0 -0.25907988701E+02 -0.70282426101E+02  0.36439981264E+02  0.11515002791E+03  0.79503543296E+02 0.  0.
          6    2    1    2  501    0  0.75815896639E+02  0.64489598428E+02  0.33027939987E+02  0.20178779607E+03  0.17239637854E+03 0.  0.
         24    2    5    5    0    0 -0.51829509040E+01  0.64193428489E+02 -0.19113305972E+02  0.10534247192E+03  0.81142212712E+02 0.  0.
          5    1    5    5  501    0  0.80998847543E+02  0.29616993894E+00  0.52141245960E+02  0.96445324149E+02  0.47000000000E+01 0. -1.
        -11    1    6    6    0    0 -0.32278563578E+02  0.10379021558E+02 -0.28589796562E+02  0.44350943875E+02  0.00000000000E+00 0.  1.
         12    1    6    6    0    0  0.27095612674E+02  0.53814406931E+02  0.94764905893E+01  0.60991528046E+02  0.00000000000E+00 0. -1.
         -5    1    3    3    0  503 -0.49907907938E+02  0.57928276730E+01 -0.70454690339E+02  0.86662041967E+02  0.47000000000E+01 0.  1.
         13    1    4    4    0    0 -0.22488900970E+02 -0.10318768786E+02 -0.20692852896E+02  0.32255570326E+02  0.00000000000E+00 0. -1.
        -14    1    4    4    0    0 -0.34190877310E+01 -0.59963657314E+02  0.57132834160E+02  0.82894457587E+02  0.00000000000E+00 0.  1.
</event>
<event>
12    1  0.8488291E-002  0.2606161E+03  0.7818608E-02  0.1107016E+00
         21   -1    0    0  503  502  0.00000000000E+00  0.00000000000E+00  0.23797484078E+03  0.23797484078E+03  0.00000000000E+00 0.  1.
         21   -1    0    0  501  503 -0.00000000000E+00 -0.00000000000E+00 -0.31391051602E+03  0.31391051602E+03  0.00000000000E+00 0.  1.
          6    2    1    2  501    0 -0.10219331994E+03  0.16479999525E+03 -0.12354336057E+03  0.28695660840E+03  0.17169338977E+03 0.  0.
         24    2    3    3    0    0 -0.76130496201E+02  0.10470418701E+03 -0.15298897778E+03  0.21498500760E+03  0.77808141889E+02 0.  0.
         -6    2    1    2    0  502  0.10219331994E+03 -0.16479999525E+03  0.47607685334E+02  0.26492874840E+03  0.17412132825E+03 0.  0.
        -24    2    5    5    0    0  0.23262227862E+02 -0.50247315509E+01  0.26998586878E+02  0.85471017650E+02  0.77524138127E+02 0.  0.
          5    1    3    3  501    0 -0.26062823737E+02  0.60095808238E+02  0.29445617208E+02  0.71971600800E+02  0.47000000000E+01 0. -1.
        -11    1    4    4    0    0 -0.24372165065E+02  0.60864379571E+02 -0.25064972427E+02  0.70190654458E+02  0.00000000000E+00 0.  1.
         12    1    4    4    0    0 -0.51758331136E+02  0.43839807439E+02 -0.12792400535E+03  0.14479435315E+03  0.00000000000E+00 0. -1.
         -5    1    5    5    0  502  0.78931092075E+02 -0.15977526370E+03  0.20609098455E+02  0.17945773075E+03  0.47000000000E+01 0.  1.
         11    1    6    6    0    0  0.37810093030E+02 -0.13951133361E+02  0.45173409130E+02  0.60538204048E+02  0.00000000000E+00 0. -1.
        -12    1    6    6    0    0 -0.14547865168E+02  0.89264018103E+01 -0.18174822251E+02  0.24932813601E+02  0.00000000000E+00 0.  1.
</event>
<event>
12    1  0.8488291E-002  0.2488036E+03  0.7818608E-02  0.1115205E+00
         21   -1    0    0  503  502  0.00000000000E+00  0.00000000000E+00  0.28908684096E+03  0.28908684096E+03  0.00000000000E+00 0.  1.
         21   -1    0    0  501  503 -0.00000000000E+00 -0.00000000000E+00 -0.33082540634E+03  0.33082540634E+03  0.00000000000E+00 0.  1.
          6    2    1    2  501    0  0.10798164437E+03  0.13496354422E+03  0.16809937230E+03  0.29443540556E+03  0.16899590318E+03 0.  0.
         24    2    3    3    0    0  0.13735223209E+03  0.95889713003E+02  0.12822350610E+03  0.23117743836E+03  0.94558277125E+02 0.  0.
         -6    2    1    2    0  502 -0.10798164437E+03 -0.13496354422E+03 -0.20983793768E+03  0.32547684174E+03  0.17896374111E+03 0.  0.
        -24    2    5    5    0    0  0.14411674286E+02 -0.55376468591E+02 -0.11831531461E+03  0.15310309783E+03  0.78535312205E+02 0.  0.
          5    1    3    3  501    0 -0.29370587720E+02  0.39073831216E+02  0.39875866198E+02  0.63257967198E+02  0.47000000000E+01 0. -1.
        -11    1    4    4    0    0  0.83505787346E+02  0.95945386558E+02  0.51010653519E+02  0.13704313370E+03  0.00000000000E+00 0.  1.
         12    1    4    4    0    0  0.53846444742E+02 -0.55673554538E-01  0.77212852580E+02  0.94134304664E+02  0.00000000000E+00 0. -1.
         -5    1    5    5    0  502 -0.12239331865E+03 -0.79587075628E+02 -0.91522623070E+02  0.17237374392E+03  0.47000000000E+01 0.  1.
         13    1    6    6    0    0 -0.29267701574E+02 -0.12651405939E+02 -0.63330677416E+02  0.70904380186E+02  0.00000000000E+00 0. -1.
        -14    1    6    6    0    0  0.43679375860E+02 -0.42725062652E+02 -0.54984637195E+02  0.82198717640E+02  0.00000000000E+00 0.  1.
</event>
<event>
12    1  0.8488291E-002  0.1780892E+03  0.7818608E-02  0.1170080E+00
         21   -1    0    0  503  502  0.00000000000E+00  0.00000000000E+00  0.29805693923E+03  0.29805693923E+03  0.00000000000E+00 0. -1.
         21   -1    0    0  501  503 -0.00000000000E+00 -0.00000000000E+00 -0.10789270983E+03  0.10789270983E+03  0.00000000000E+00 0.  1.
          6    2    1    2  501    0 -0.34524714799E+02 -0.15547821823E+02  0.64702049532E+02  0.18947856929E+03  0.17401747703E+03 0.  0.
         24    2    3    3    0    0 -0.28136352355E+01 -0.69050420098E+02  0.70296744569E+02  0.12685659869E+03  0.79844143659E+02 0.  0.
         -6    2    1    2    0  502  0.34524714799E+02  0.15547821823E+02  0.12546217987E+03  0.21647107977E+03  0.17229416445E+03 0.  0.
        -24    2    5    5    0    0  0.41967074812E+02  0.49637840311E+02  0.13971310935E+03  0.17848822740E+03  0.90072991723E+02 0.  0.
          5    1    3    3  501    0 -0.31711079563E+02  0.53502598275E+02 -0.55946950367E+01  0.62621970599E+02  0.47000000000E+01 0. -1.
        -11    1    4    4    0    0  0.12134946721E+02  0.15243365639E+02  0.84115852935E+01  0.21221967277E+02  0.00000000000E+00 0.  1.
         12    1    4    4    0    0 -0.14948581957E+02 -0.84293785737E+02  0.61885159275E+02  0.10563463142E+03  0.00000000000E+00 0. -1.
         -5    1    5    5    0  502 -0.74423600137E+01 -0.34090018488E+02 -0.14250929475E+02  0.37982852368E+02  0.47000000000E+01 0.  1.
         13    1    6    6    0    0  0.23435697196E+01  0.44530278645E+02  0.14243314318E+02  0.46811430634E+02  0.00000000000E+00 0. -1.
        -14    1    6    6    0    0  0.39623505093E+02  0.51075616657E+01  0.12546979503E+03  0.13167679676E+03  0.00000000000E+00 0.  1.
</event>
<event>
12    1  0.8488291E-002  0.2142663E+03  0.7818608E-02  0.1138293E+00
         21   -1    0    0  503  502  0.00000000000E+00  0.00000000000E+00  0.76920173431E+02  0.76920173431E+02  0.00000000000E+00 0. -1.
         21   -1    0    0  501  503 -0.00000000000E+00 -0.00000000000E+00 -0.76717111066E+03  0.76717111066E+03  0.00000000000E+00 0.  1.
          6    2    1    2  501    0 -0.72726829883E+01  0.12614594261E+03 -0.14555095670E+03  0.25876391455E+03  0.17264991086E+03 0.  0.
         24    2    3    3    0    0 -0.49040316970E+02  0.13836533859E+03 -0.12194071413E+03  0.20903080244E+03  0.85290204560E+02 0.  0.
         -6    2    1    2    0  502  0.72726829883E+01 -0.12614594261E+03 -0.54469998053E+03  0.58532736954E+03  0.17304441623E+03 0.  0.
        -24    2    5    5    0    0  0.43369790921E+02 -0.16586952495E+02 -0.31468756747E+03  0.32796775018E+03  0.79865601357E+02 0.  0.
          5    1    3    3  501    0  0.41767633981E+02 -0.12219395972E+02 -0.23610242567E+02  0.49733112113E+02  0.47000000000E+01 0. -1.
        -11    1    4    4    0    0  0.24183552824E+01 -0.36302306970E+01  0.84439832568E+01  0.95040975598E+01  0.00000000000E+00 0.  1.
         12    1    4    4    0    0 -0.51458672252E+02  0.14199556928E+03 -0.13038469739E+03  0.19952670488E+03  0.00000000000E+00 0. -1.
         -5    1    5    5    0  502 -0.36097107933E+02 -0.10955899012E+03 -0.23001241306E+03  0.25735961937E+03  0.47000000000E+01 0.  1.
         13    1    6    6    0    0 -0.64312964711E+01  0.20719545742E+02 -0.33022963891E+02  0.39511736158E+02  0.00000000000E+00 0. -1.
        -14    1    6    6    0    0  0.49801087392E+02 -0.37306498237E+02 -0.28166460357E+03  0.28845601402E+03  0.00000000000E+00 0.  1.
</event>
<event>
12    1  0.8488291E-002  0.2717403E+03  0.7818608E-02  0.1100432E+00
         21   -1    0    0  503  502  0.00000000000E+00  0.00000000000E+00  0.25553888747E+02  0.25553888747E+02  0.00000000000E+00 0.  1.
         21   -1    0    0  501  503 -0.00000000000E+00 -0.00000000000E+00 -0.28847651817E+04  0.28847651817E+04  0.00000000000E+00 0.  1.
          6    2    1    2  501    0  0.14801319577E+03  0.14822144995E+03 -0.13614696068E+04  0.13881255998E+04  0.17151001809E+03 0.  0.
         24    2    3    3    0    0  0.74259918365E+02  0.40393810916E+02 -0.36516883352E+03  0.38328547995E+03  0.80082999028E+02 0.  0.
         -6    2    1    2    0  502 -0.14801319577E+03 -0.14822144995E+03 -0.14977416862E+04  0.15221934707E+04  0.17310487923E+03 0.  0.
        -24    2    5    5    0    0 -0.14075299411E+03 -0.13642447241E+03 -0.90069063944E+03  0.92496326242E+03  0.76748725248E+02 0.  0.
          5    1    3    3  501    0  0.73753277405E+02  0.10782763903E+03 -0.99630077324E+03  0.10048401198E+04  0.47000000000E+01 0. -1.
        -13    1    4    4    0    0  0.45011044464E+02  0.16650316863E+02 -0.32378480432E+03  0.32732220622E+03  0.00000000000E+00 0.  1.
         14    1    4    4    0    0  0.29248873901E+02  0.23743494053E+02 -0.41384029199E+02  0.55963273735E+02  0.00000000000E+00 0. -1.
         -5    1    5    5    0  502 -0.72602016640E+01 -0.11796977538E+02 -0.59705104676E+03  0.59723020825E+03  0.47000000000E+01 0.  1.
         13    1    6    6    0    0 -0.16667155318E+02  0.89574783112E+01 -0.65341027047E+02  0.68025585625E+02  0.00000000000E+00 0. -1.
        -14    1    6    6    0    0 -0.12408583879E+03 -0.14538195072E+03 -0.83534961240E+03  0.85693767680E+03  0.00000000000E+00 0.  1.
</event>
<event>
12    1  0.8488291E-002  0.1860160E+03  0.7818608E-02  0.1163021E+00
         21   -1    0    0  501  502  0.00000000000E+00  0.00000000000E+00  0.36486856602E+02  0.36486856602E+02  0.00000000000E+00 0.  1.
         21   -1    0    0  502  503 -0.00000000000E+00 -0.00000000000E+00 -0.96779114901E+03  0.96779114901E+03  0.00000000000E+00 0. -1.
         -6    2    1    2    0  503 -0.53819927833E+02 -0.44686112126E+02 -0.56204887614E+03  0.59081516002E+03  0.16813738696E+03 0.  0.
        -24    2    3    3    0    0 -0.40453073820E+02  0.33526442090E+02 -0.28167007427E+03  0.29938722904E+03  0.86799819514E+02 0.  0.
          6    2    1    2  501    0  0.53819927833E+02  0.44686112126E+02 -0.36925541627E+03  0.41346284559E+03  0.17236162273E+03 0.  0.
         24    2    5    5    0    0  0.97205996245E+02  0.58760909067E+01 -0.22786082221E+03  0.26048216083E+03  0.80292388585E+02 0.  0.
          5    1    5    5  501    0 -0.43386068412E+02  0.38810021219E+02 -0.14139459406E+03  0.15298068476E+03  0.47000000000E+01 0. -1.
        -13    1    6    6    0    0  0.46052392462E+02 -0.14766040209E+02 -0.34498012651E+02  0.59405148529E+02  0.00000000000E+00 0.  1.
         14    1    6    6    0    0  0.51153603782E+02  0.20642131116E+02 -0.19336280956E+03  0.20107701231E+03  0.00000000000E+00 0. -1.
         -5    1    3    3    0  503 -0.13366854013E+02 -0.78212554216E+02 -0.28037880186E+03  0.29142793098E+03  0.47000000000E+01 0.  1.
         11    1    4    4    0    0 -0.56875309938E+02  0.51580288477E+02 -0.20388467233E+03  0.21786299973E+03  0.00000000000E+00 0. -1.
        -12    1    4    4    0    0  0.16422236118E+02 -0.18053846387E+02 -0.77785401939E+02  0.81524229302E+02  0.00000000000E+00 0.  1.
</event>
<event>
12    1  0.8488291E-002  0.1973202E+03  0.7818608E-02  0.1152519E+00
         21   -1    0    0  503  502  0.00000000000E+00  0.00000000000E+00  0.38478833982E+03  0.38478833982E+03  0.00000000000E+00 0. -1.
         21   -1    0    0  501  503 -0.00000000000E+00 -0.00000000000E+00 -0.13025215738E+03  0.13025215738E+03  0.00000000000E+00 0. -1.
          6    2    1    2  501    0  0.93364279175E+02  0.27669062775E+02  0.37478429965E+01  0.19735580376E+03  0.17161818461E+03 0.  0.
         24    2    3    3    0    0  0.13233858080E+03  0.26918723572E+02  0.12731064392E+02  0.15707742913E+03  0.79203037151E+02 0.  0.
         -6    2    1    2    0  502 -0.93364279175E+02 -0.27669062775E+02  0.25078833944E+03  0.31768469345E+03  0.16895652574E+03 0.  0.
        -24    2    5    5    0    0  0.14646349697E+02  0.62922211677E+01  0.10924306625E+03  0.13636503340E+03  0.80045407138E+02 0.  0.
          5    1    3    3  501    0 -0.38974301625E+02  0.75033920303E+00 -0.89832213952E+01  0.40278374628E+02  0.47000000000E+01 0. -1.
        -13    1    4    4    0    0  0.35356450228E+02 -0.13705766411E+02  0.32674930877E+02  0.50055746058E+02  0.00000000000E+00 0.  1.
         14    1    4    4    0    0  0.96982130572E+02  0.40624489983E+02 -0.19943866485E+02  0.10702168307E+03  0.00000000000E+00 0. -1.
         -5    1    5    5    0  502 -0.10801062887E+03 -0.33961283942E+02  0.14154527319E+03  0.18131966005E+03  0.47000000000E+01 0.  1.
         11    1    6    6    0    0  0.12097776380E+02 -0.36509006766E+02  0.57301074326E+02  0.69012150287E+02  0.00000000000E+00 0. -1.
        -12    1    6    6    0    0  0.25485733168E+01  0.42801227934E+02  0.51941991924E+02  0.67352883113E+02  0.00000000000E+00 0.  1.
</event>
<event>
12    1  0.8488291E-002  0.2357439E+03  0.7818608E-02  0.1123470E+00
         21   -1    0    0  501  502  0.00000000000E+00  0.00000000000E+00  0.11683850760E+03  0.11683850760E+03  0.00000000000E+00 0. -1.
         21   -1    0    0  502  503 -0.00000000000E+00 -0.00000000000E+00 -0.89750687391E+03  0.89750687391E+03  0.00000000000E+00 0. -1.
         -6    2    1    2    0  503  0.71708257937E+02  0.13584759842E+03 -0.73985826898E+03  0.77509523936E+03  0.17258542128E+03 0.  0.
        -24    2    3    3    0    0  0.94903205664E+02  0.35557720332E+02 -0.42428288145E+03  0.44312237832E+03  0.77913469684E+02 0.  0.
          6    2    1    2  501    0 -0.71708257937E+02 -0.13584759842E+03 -0.40810097320E+02  0.23925014215E+03  0.17882539591E+03 0.  0.
         24    2    5    5    0    0 -0.45372335872E+02 -0.10615899948E+03 -0.96839265455E+02  0.17042898712E+03  0.79622950731E+02 0.  0.
          5    1    5    5  501    0 -0.26335922065E+02 -0.29688598944E+02  0.56029168134E+02  0.68821155033E+02  0.47000000000E+01 0. -1.
        -11    1    6    6    0    0 -0.26508712867E+02 -0.11584876043E+03 -0.78869204298E+02  0.14263238951E+03  0.00000000000E+00 0.  1.
         12    1    6    6    0    0 -0.18863623005E+02  0.96897609565E+01 -0.17970061157E+02  0.27796597602E+02  0.00000000000E+00 0. -1.
         -5    1    3    3    0  503 -0.23194947727E+02  0.10028987809E+03 -0.31557538753E+03  0.33197286103E+03  0.47000000000E+01 0.  1.
         13    1    4    4    0    0  0.27988126651E+02  0.14211928180E+02 -0.28893676062E+03  0.29063682798E+03  0.00000000000E+00 0. -1.
        -14    1    4    4    0    0  0.66915079012E+02  0.21345792152E+02 -0.13534612083E+03  0.15248555035E+03  0.00000000000E+00 0.  1.
</event>
<event>
12    1  0.8488291E-002  0.1928286E+03  0.7818608E-02  0.1156231E+00
         21   -1    0    0  501  502  0.00000000000E+00  0.00000000000E+00  0.48927232371E+02  0.48927232371E+02  0.00000000000E+00 0.  1.
         21   -1    0    0  502  503 -0.00000000000E+00 -0.00000000000E+00 -0.79866749168E+03  0.79866749168E+03  0.00000000000E+00 0. -1.
         -6    2    1    2    0  503  0.39157041106E+02 -0.75610736827E+02 -0.47306321303E+03  0.51035140385E+03  0.17152111967E+03 0.  0.
        -24    2    3    3    0    0  0.90855241484E+02 -0.27767958014E+02 -0.33462930171E+03  0.35495618767E+03  0.70649778511E+02 0.  0.
          6    2    1    2  501    0 -0.39157041106E+02  0.75610736827E+02 -0.27667704628E+03  0.33724332021E+03  0.17301043811E+03 0.  0.
         24    2    5    5    0    0 -0.84912340192E+01  0.11356525357E+03 -0.16715322386E+03  0.21724959228E+03  0.79297019004E+02 0.  0.
          5    1    5    5  501    0 -0.30665807086E+02 -0.37954516745E+02 -0.10952382242E+03  0.11999372793E+03  0.47000000000E+01 0. -1.
        -13    1    6    6    0    0 -0.13048787524E+02  0.43301470718E+01  0.38556190969E+01  0.14278894499E+02  0.00000000000E+00 0.  1.
         14    1    6    6    0    0  0.45575535045E+01  0.10923510650E+03 -0.17100884296E+03  0.20297069778E+03  0.00000000000E+00 0. -1.
         -5    1    3    3    0  503 -0.51698200378E+02 -0.47842778813E+02 -0.13843391132E+03  0.15539521617E+03  0.47000000000E+01 0.  1.
         13    1    4    4    0    0  0.11525626248E+02  0.21914000375E+02 -0.66746384143E+02  0.71190893161E+02  0.00000000000E+00 0. -1.
        -14    1    4    4    0    0  0.79329615236E+02 -0.49681958389E+02 -0.26788291757E+03  0.28376529451E+03  0.00000000000E+00 0.  1.
</event>
<event>
12    1  0.8488291E-002  0.1889503E+03  0.7818608E-02  0.1159750E+00
         21   -1    0    0  503  502  0.00000000000E+00  0.00000000000E+00  0.52846953056E+02  0.52846953056E+02  0.00000000000E+00 0. -1.
         21   -1    0    0  501  503 -0.00000000000E+00 -0.00000000000E+00 -0.79062239114E+03  0.79062239114E+03  0.00000000000E+00 0. -1.
          6    2    1    2  501    0 -0.48987996338E+02  0.58063787548E+02 -0.53465077791E+03  0.56705701155E+03  0.17300570170E+03 0.  0.
         24    2    3    3    0    0  0.27051587645E+02 -0.11632765035E+02 -0.26271764017E+03  0.27618014899E+03  0.79923755056E+02 0.  0.
         -6    2    1    2    0  502  0.48987996338E+02 -0.58063787548E+02 -0.20312466017E+03  0.27641233264E+03  0.17138530525E+03 0.  0.
        -24    2    5    5    0    0  0.22052583917E+02  0.17473386696E+02 -0.33351777283E+02  0.88592464417E+02  0.77101543458E+02 0.  0.
          5    1    3    3  501    0 -0.76039583982E+02  0.69696552582E+02 -0.27193313773E+03  0.29087686256E+03  0.47000000000E+01 0. -1.
        -13    1    4    4    0    0 -0.12004762297E+02 -0.26094696551E+02 -0.37993623948E+02  0.47629433827E+02  0.00000000000E+00 0.  1.
         14    1    4    4    0    0  0.39056349942E+02  0.14461931517E+02 -0.22472401623E+03  0.22855071517E+03  0.00000000000E+00 0. -1.
         -5    1    5    5    0  502  0.26935412421E+02 -0.75537174244E+02 -0.16977288289E+03  0.18781986822E+03  0.47000000000E+01 0.  1.
         13    1    6    6    0    0 -0.23090130490E+02 -0.10369856957E+02 -0.23714524298E+02  0.34685252226E+02  0.00000000000E+00 0. -1.
        -14    1    6    6    0    0  0.45142714407E+02  0.27843243652E+02 -0.96372529850E+01  0.53907212191E+02  0.00000000000E+00 0.  1.
</event>
<event>
12    1  0.8488291E-002  0.2537479E+03  0.7818608E-02  0.1111128E+00
         21   -1    0    0  503  502  0.00000000000E+00  0.00000000000E+00  0.21285135281E+03  0.21285135281E+03  0.00000000000E+00 0.  1.
         21   -1    0    0  501  503 -0.00000000000E+00 -0.00000000000E+00 -0.30655023529E+03  0.30655023529E+03  0.00000000000E+00 0. -1.
          6    2    1    2  501    0  0.69351795691E+02  0.17149154452E+03 -0.81041554231E+02  0.26533823086E+03  0.17209771015E+03 0.  0.
         24    2    3    3    0    0  0.71130702265E+02  0.19818118027E+03 -0.67407075398E+02  0.23494924966E+03  0.79511502843E+02 0.  0.
         -6    2    1    2    0  502 -0.69351795691E+02 -0.17149154452E+03 -0.12657328255E+02  0.25406335723E+03  0.17369214180E+03 0.  0.
        -24    2    5    5    0    0 -0.85863469174E+02 -0.57719593248E+02 -0.40031984499E+02  0.13579183039E+03  0.78312033777E+02 0.  0.
          5    1    3    3  501    0 -0.17789065743E+01 -0.26689635754E+02 -0.13634478833E+02  0.30388981199E+02  0.47000000000E+01 0. -1.
        -11    1    4    4    0    0 -0.10134759056E+02  0.11742954000E+02 -0.21400564238E+02  0.26430937544E+02  0.00000000000E+00 0.  1.
         12    1    4    4    0    0  0.81265461321E+02  0.18643822627E+03 -0.46006511160E+02  0.20851831212E+03  0.00000000000E+00 0. -1.
         -5    1    5    5    0  502  0.16511673483E+02 -0.11377195127E+03  0.27374656245E+02  0.11827152685E+03  0.47000000000E+01 0.  1.
         13    1    6    6    0    0 -0.61301027642E+02 -0.31612235406E+02 -0.62839320271E+02  0.93305571052E+02  0.00000000000E+00 0. -1.
        -14    1    6    6    0    0 -0.24562441532E+02 -0.26107357842E+02  0.22807335771E+02  0.42486259337E+02  0.00000000000E+00 0.  1.
</event>
<event>
12    1  0.8488291E-002  0.1791628E+03  0.7818608E-02  0.1168633E+00
         21   -1    0    0  501  502  0.00000000000E+00  0.00000000000E+00  0.19736961652E+03  0.19736961652E+03  0.00000000000E+00 0. -1.
         21   -1    0    0  502  503 -0.00000000000E+00 -0.00000000000E+00 -0.18406413122E+03  0.18406413122E+03  0.00000000000E+00 0.  1.
         -6    2    1    2    0  503  0.38905331371E+02  0.26681144464E+02  0.71820901284E+02  0.19295735593E+03  0.17276802675E+03 0.  0.
        -24    2    3    3    0    0  0.59942247459E+02 -0.10955818806E+02  0.98849942864E+02  0.14185205355E+03  0.81471411526E+02 0.  0.
          6    2    1    2  501    0 -0.38905331371E+02 -0.26681144464E+02 -0.58515415985E+02  0.18847639181E+03  0.17284035432E+03 0.  0.
         24    2    5    5    0    0  0.29286704946E+02 -0.17323321586E+02  0.14203926005E+02  0.88237101279E+02  0.80163744740E+02 0.  0.
          5    1    5    5  501    0 -0.68192036316E+02 -0.93578228777E+01 -0.72719341990E+02  0.10023929053E+03  0.47000000000E+01 0. -1.
        -11    1    6    6    0    0  0.28822651729E+02  0.22297565303E+02 -0.14593467988E+02  0.39254247911E+02  0.00000000000E+00 0.  1.
         12    1    6    6    0    0  0.46405321639E+00 -0.39620886889E+02  0.28797393993E+02  0.48982853368E+02  0.00000000000E+00 0. -1.
         -5    1    3    3    0  503 -0.21036916089E+02  0.37636963270E+02 -0.27029041580E+02  0.51105302381E+02  0.47000000000E+01 0.  1.
         11    1    4    4    0    0  0.68625463819E+02  0.88107736717E+01  0.98359560899E+02  0.12025675547E+03  0.00000000000E+00 0. -1.
        -12    1    4    4    0    0 -0.86832163595E+01 -0.19766592478E+02  0.49038196539E+00  0.21595298076E+02  0.00000000000E+00 0.  1.
</event>
<event>
12    1  0.8488291E-002  0.3085079E+03  0.7818608E-02  0.1081108E+00
         21   -1    0    0  503  502  0.00000000000E+00  0.00000000000E+00  0.11151405236E+03  0.11151405236E+03  0.00000000000E+00 0.  1.
         21   -1    0    0  501  503 -0.00000000000E+00 -0.00000000000E+00 -0.96150967211E+03  0.96150967211E+03  0.00000000000E+00 0. -1.
          6    2    1    2  501    0 -0.57252766974E+02 -0.24926746998E+03 -0.24410210249E+03  0.39310896722E+03  0.17186236574E+03 0.  0.
         24    2    3    3    0    0  0.23876419732E+02 -0.16060747273E+03 -0.18196065949E+03  0.25773471197E+03  0.83382590720E+02 0.  0.
         -6    2    1    2    0  502  0.57252766974E+02  0.24926746998E+03 -0.60589351727E+03  0.67991475725E+03  0.17252527913E+03 0.  0.
        -24    2    5    5    0    0  0.81629110054E+02  0.19821224766E+03 -0.56664361120E+03  0.61089673819E+03  0.78475702518E+02 0.  0.
          5    1    3    3  501    0 -0.81129186706E+02 -0.88659997245E+02 -0.62141442994E+02  0.13537425525E+03  0.47000000000E+01 0. -1.
        -13    1    4    4    0    0  0.16374094657E+02 -0.16904886167E+03 -0.16151485431E+03  0.23437721043E+03  0.00000000000E+00 0.  1.
         14    1    4    4    0    0  0.75023250753E+01  0.84413889335E+01 -0.20445805182E+02  0.23357501540E+02  0.00000000000E+00 0. -1.
         -5    1    5    5    0  502 -0.24376343080E+02  0.51055222324E+02 -0.39249906068E+02  0.69018019059E+02  0.47000000000E+01 0.  1.
         13    1    6    6    0    0  0.34126154288E+01  0.86587520884E+02 -0.15914862355E+03  0.18121073118E+03  0.00000000000E+00 0. -1.
        -14    1    6    6    0    0  0.78216494625E+02  0.11162472677E+03 -0.40749498765E+03  0.42968600701E+03  0.00000000000E+00 0.  1.
</event>
<event>
12    1  0.8488291E-002  0.1982868E+03  0.7818608E-02  0.1151736E+00
         21   -1    0    0  501  502  0.00000000000E+00  0.00000000000E+00  0.27842416447E+03  0.27842416447E+03  0.00000000000E+00 0.  1.
         21   -1    0    0  502  503 -0.00000000000E+00 -0.00000000000E+00 -0.13995567899E+03  0.13995567899E+03  0.00000000000E+00 0. -1.
         -6    2    1    2    0  503  0.88695386859E+02 -0.35416718973E+02  0.55848123752E+02  0.20356880877E+03  0.17088016662E+03 0.  0.
        -24    2    3    3    0    0  0.64709836268E+02 -0.90160658289E+02  0.40607415021E+02  0.14170949474E+03  0.78206850931E+02 0.  0.
          6    2    1    2  501    0 -0.88695386859E+02  0.35416718973E+02  0.82620361727E+02  0.21481103469E+03  0.17377123127E+03 0.  0.
         24    2    5    5    0    0 -0.52534792343E+02  0.26752461056E+01  0.11903877446E+03  0.15375382031E+03  0.81871521845E+02 0.  0.
          5    1    5    5  501    0 -0.36160594515E+02  0.32741472867E+02 -0.36418412728E+02  0.61057214371E+02  0.47000000000E+01 0. -1.
        -11    1    6    6    0    0 -0.57498368627E+02 -0.28539083883E+02  0.66401997829E+02  0.92356737813E+02  0.00000000000E+00 0.  1.
         12    1    6    6    0    0  0.49635762834E+01  0.31214329989E+02  0.52636776626E+02  0.61397082502E+02  0.00000000000E+00 0. -1.
         -5    1    3    3    0  503  0.23985550591E+02  0.54743939316E+02  0.15240708731E+02  0.61859314025E+02  0.47000000000E+01 0.  1.
         13    1    4    4    0    0  0.94711033980E+00 -0.46667297170E+02 -0.12132175903E+02  0.48227827395E+02  0.00000000000E+00 0. -1.
        -14    1    4    4    0    0  0.63762725928E+02 -0.43493361119E+02  0.52739590924E+02  0.93481667347E+02  0.00000000000E+00 0.  1.
</event>
<event>
12    1  0.8488291E-002  0.2135028E+03  0.7818608E-02  0.1138867E+00
         21   -1    0    0  503  502  0.00000000000E+00  0.00000000000E+00  0.24778674372E+03  0.24778674372E+03  0.00000000000E+00 0.  1.
         21   -1    0    0  501  503 -0.00000000000E+00 -0.00000000000E+00 -0.18984750887E+03  0.18984750887E+03  0.00000000000E+00 0.  1.
          6    2    1    2  501    0 -0.11442380795E+03  0.55549679869E+02 -0.10187367273E+02  0.21374569938E+03  0.17147847326E+03 0.  0.
         24    2    3    3    0    0 -0.12816390411E+03  0.27372889860E+02 -0.50911088140E+02  0.16213917674E+03  0.80758357613E+02 0.  0.
         -6    2    1    2    0  502  0.11442380795E+03 -0.55549679869E+02  0.68126602119E+02  0.22388855321E+03  0.17119075787E+03 0.  0.
        -24    2    5    5    0    0  0.52479550083E+02 -0.60576335075E+02  0.10311802673E+03  0.15241234638E+03  0.78565898107E+02 0.  0.
          5    1    3    3  501    0  0.13740096151E+02  0.28176790009E+02  0.40723720867E+02  0.51606522637E+02  0.47000000000E+01 0. -1.
        -13    1    4    4    0    0 -0.98000344878E+02  0.50519711551E+02 -0.17723567870E+02  0.11167109612E+03  0.00000000000E+00 0.  1.
         14    1    4    4    0    0 -0.30163559228E+02 -0.23146821691E+02 -0.33187520270E+02  0.50468080619E+02  0.00000000000E+00 0. -1.
         -5    1    5    5    0  502  0.61944257871E+02  0.50266552056E+01 -0.34991424609E+02  0.71476206824E+02  0.47000000000E+01 0.  1.
         13    1    6    6    0    0 -0.20025298630E+02 -0.21104839497E+02  0.20286512446E+02  0.35467864647E+02  0.00000000000E+00 0. -1.
        -14    1    6    6    0    0  0.72504848713E+02 -0.39471495578E+02  0.82831514283E+02  0.11694448174E+03  0.00000000000E+00 0.  1.
</event>
<event>
12    1  0.8488291E-002  0.1841997E+03  0.7818608E-02  0.1164453E+00
         21   -1    0    0  501  502  0.00000000000E+00  0.00000000000E+00  0.82093720658E+02  0.82093720658E+02  0.00000000000E+00 0.  1.
         21   -1    0    0  502  503 -0.00000000000E+00 -0.00000000000E+00 -0.47669752755E+03  0.47669752755E+03  0.00000000000E+00 0.  1.
         -6    2    1    2    0  503 -0.20263345267E+02  0.56885099797E+02 -0.30530193722E+03  0.35656526256E+03  0.17402010186E+03 0.  0.
        -24    2    3    3    0    0 -0.22614338659E+02  0.63460165188E+02 -0.32117194941E+03  0.33860124459E+03  0.83431294292E+02 0.  0.
          6    2    1    2  501    0  0.20263345267E+02 -0.56885099797E+02 -0.89301869667E+02  0.20222598565E+03  0.17109648624E+03 0.  0.
         24    2    5    5    0    0 -0.37645191622E+02 -0.11978455501E+02 -0.93164192945E+02  0.12869359219E+03  0.79509936328E+02 0.  0.
          5    1    5    5  501    0  0.57908536889E+02 -0.44906644296E+02  0.38623232779E+01  0.73532393458E+02  0.47000000000E+01 0. -1.
        -13    1    6    6    0    0 -0.33954328137E+02 -0.66309357373E+01  0.70191467357E+00  0.34602866820E+02  0.00000000000E+00 0.  1.
         14    1    6    6    0    0 -0.36908634855E+01 -0.53475197640E+01 -0.93866107618E+02  0.94090725368E+02  0.00000000000E+00 0. -1.
         -5    1    3    3    0  503  0.23509933924E+01 -0.65750653907E+01  0.15870012189E+02  0.17964017972E+02  0.47000000000E+01 0.  1.
         13    1    4    4    0    0 -0.44480102431E+02  0.17616564495E+02 -0.90109378091E+02  0.10202216856E+03  0.00000000000E+00 0. -1.
        -14    1    4    4    0    0  0.21865763771E+02  0.45843600693E+02 -0.23106257132E+03  0.23657907603E+03  0.00000000000E+00 0.  1.
</event>
<event>
12    1  0.8488291E-002  0.1876959E+03  0.7818608E-02  0.1161959E+00
         21   -1    0    0  501  502  0.00000000000E+00  0.00000000000E+00  0.62935035187E+02  0.62935035187E+02  0.00000000000E+00 0.  1.
         21   -1    0    0  502  503 -0.00000000000E+00 -0.00000000000E+00 -0.83885793918E+03  0.83885793918E+03  0.00000000000E+00 0.  1.
         -6    2    1    2    0  503  0.26131846304E+02  0.52895789692E+02 -0.65209648866E+03  0.67693140297E+03  0.17182972921E+03 0.  0.
        -24    2    3    3    0    0 -0.47360044667E+01 -0.36210273867E+02 -0.27222073953E+03  0.28549764158E+03  0.77917640154E+02 0.  0.
          6    2    1    2  501    0 -0.26131846304E+02 -0.52895789692E+02 -0.12382641533E+03  0.22486157139E+03  0.17818223031E+03 0.  0.
         24    2    5    5    0    0 -0.49308528068E+02 -0.76952129225E+02 -0.14209837980E+03  0.18649725549E+03  0.78970346528E+02 0.  0.
          5    1    5    5  501    0  0.23176681764E+02  0.24056339532E+02  0.18271964472E+02  0.38364315906E+02  0.47000000000E+01 0. -1.
        -13    1    6    6    0    0 -0.59506373702E+02 -0.21265306199E+02 -0.86732041506E+02  0.10731108416E+03  0.00000000000E+00 0.  1.
         14    1    6    6    0    0  0.10197845634E+02 -0.55686823025E+02 -0.55366338292E+02  0.79186171331E+02  0.00000000000E+00 0. -1.
         -5    1    3    3    0  503  0.30867850771E+02  0.89106063559E+02 -0.37987574913E+03  0.39143376139E+03  0.47000000000E+01 0.  1.
         11    1    4    4    0    0 -0.19094270425E+02  0.10275170295E+02 -0.23147441905E+02  0.31717098770E+02  0.00000000000E+00 0. -1.
        -12    1    4    4    0    0  0.14358265959E+02 -0.46485444162E+02 -0.24907329762E+03  0.25378054281E+03  0.00000000000E+00 0.  1.
</event>
<event>
12    1  0.8488291E-002  0.1737864E+03  0.7818608E-02  0.1174730E+00
         21   -1    0    0  501  502  0.00000000000E+00  0.00000000000E+00  0.68222284453E+03  0.68222284453E+03  0.00000000000E+00 0.  1.
         21   -1    0    0  502  503 -0.00000000000E+00 -0.00000000000E+00 -0.50985673668E+02  0.50985673668E+02  0.00000000000E+00 0.  1.
         -6    2    1    2    0  503  0.12773777699E+02  0.16444023045E+02  0.17753173411E+03  0.24843355516E+03  0.17253445866E+03 0.  0.
        -24    2    3    3    0    0  0.72320901205E+02 -0.14068958909E+02  0.10246894175E+03  0.14776869147E+03  0.76859962265E+02 0.  0.
          6    2    1    2  501    0 -0.12773777699E+02 -0.16444023045E+02  0.45370543676E+03  0.48477496304E+03  0.16948323267E+03 0.  0.
         24    2    5    5    0    0  0.13499821984E+02  0.42594345730E+01  0.94646446128E+02  0.12413056207E+03  0.79057312748E+02 0.  0.
          5    1    5    5  501    0 -0.26273599682E+02 -0.20703457618E+02  0.35905899063E+03  0.36064440097E+03  0.47000000000E+01 0. -1.
        -11    1    6    6    0    0 -0.29530798728E+02 -0.98077575034E+01  0.20522662695E+02  0.37275191010E+02  0.00000000000E+00 0.  1.
         12    1    6    6    0    0  0.43030620712E+02  0.14067192076E+02  0.74123783432E+02  0.86855371061E+02  0.00000000000E+00 0. -1.
         -5    1    3    3    0  503 -0.59547123506E+02  0.30512981954E+02  0.75062792355E+02  0.10066486369E+03  0.47000000000E+01 0.  1.
         13    1    4    4    0    0  0.55013384945E+02 -0.43900103207E+02  0.80255758859E+02  0.10674585900E+03  0.00000000000E+00 0. -1.
        -14    1    4    4    0    0  0.17307516259E+02  0.29831144299E+02  0.22213182891E+02  0.41022832464E+02  0.00000000000E+00 0.  1.
</event>
<event>
12    1  0.8488291E-002  0.2075090E+03  0.7818608E-02  0.1143675E+00
         21   -1    0    0  503  502  0.00000000000E+00  0.00000000000E+00  0.52721217478E+02  0.52721217478E+02  0.00000000000E+00 0.  1.
         21   -1    0    0  501  503 -0.00000000000E+00 -0.00000000000E+00 -0.83338751893E+03  0.83338751893E+03  0.00000000000E+00 0.  1.
          6    2    1    2  501    0 -0.17583439251E+02  0.11348700749E+03 -0.45667902593E+03  0.50136502801E+03  0.17211240625E+03 0.  0.
         24    2    3    3    0    0 -0.59481176148E+02  0.12744208950E+03 -0.34743482700E+03  0.38343899327E+03  0.80839384299E+02 0.  0.
         -6    2    1    2    0  502  0.17583439251E+02 -0.11348700749E+03 -0.32398727552E+03  0.38474370839E+03  0.17283370113E+03 0.  0.
        -24    2    5    5    0    0 -0.30494869864E+02 -0.44798699212E+02 -0.26513392237E+03  0.28219901239E+03  0.80021405041E+02 0.  0.
          5    1    3    3  501    0  0.41897736897E+02 -0.13955082009E+02 -0.10924419893E+03  0.11792603475E+03  0.47000000000E+01 0. -1.
        -13    1    4    4    0    0  0.13199389593E+02  0.41215395213E+02 -0.14944241749E+03  0.15558267523E+03  0.00000000000E+00 0.  1.
         14    1    4    4    0    0 -0.72680565741E+02  0.86226694283E+02 -0.19799240951E+03  0.22785631803E+03  0.00000000000E+00 0. -1.
         -5    1    5    5    0  502  0.48078309115E+02 -0.68688308275E+02 -0.58853353149E+02  0.10254469600E+03  0.47000000000E+01 0.  1.
         13    1    6    6    0    0 -0.32943485778E+02  0.11481731237E+02 -0.59355391571E+02  0.68848862851E+02  0.00000000000E+00 0. -1.
        -14    1    6    6    0    0  0.24486159139E+01 -0.56280430449E+02 -0.20577853080E+03  0.21335014954E+03  0.00000000000E+00 0.  1.
</event>
<event>
12    1  0.8488291E-002  0.4330315E+03  0.7818608E-02  0.1032922E+00
         21   -1    0    0  501  502  0.00000000000E+00  0.00000000000E+00  0.25676877195E+03  0.25676877195E+03  0.00000000000E+00 0. -1.
         21   -1    0    0  502  503 -0.00000000000E+00 -0.00000000000E+00 -0.77550090061E+03  0.77550090061E+03  0.00000000000E+00 0. -1.
         -6    2    1    2    0  503 -0.36888559812E+03  0.14803676235E+03 -0.38439568658E+03  0.57887956574E+03  0.17131853449E+03 0.  0.
        -24    2    3    3    0    0 -0.90348045811E+02  0.41344465076E+02 -0.16300583501E+03  0.20739340083E+03  0.81049283051E+02 0.  0.
          6    2    1    2  501    0  0.36888559812E+03 -0.14803676235E+03 -0.13433644209E+03  0.45339010682E+03  0.17182794237E+03 0.  0.
         24    2    5    5    0    0  0.15919301771E+03 -0.12026116507E+03 -0.10928887527E+03  0.24033628102E+03  0.77539054699E+02 0.  0.
          5    1    5    5  501    0  0.20969258041E+03 -0.27775597281E+02 -0.25047566816E+02  0.21305382580E+03  0.47000000000E+01 0. -1.
        -13    1    6    6    0    0 -0.26127013261E+01 -0.27080891579E+02 -0.16689553107E+02  0.31917739266E+02  0.00000000000E+00 0.  1.
         14    1    6    6    0    0  0.16180571904E+03 -0.93180273492E+02 -0.92599322167E+02  0.20841854175E+03  0.00000000000E+00 0. -1.
         -5    1    3    3    0  503 -0.27853755231E+03  0.10669229728E+03 -0.22138985156E+03  0.37148616491E+03  0.47000000000E+01 0.  1.
         13    1    4    4    0    0 -0.22761218041E+02  0.38518465592E+02 -0.19624044706E+02  0.48855382189E+02  0.00000000000E+00 0. -1.
        -14    1    4    4    0    0 -0.67586827770E+02  0.28259994841E+01 -0.14338179031E+03  0.15853801864E+03  0.00000000000E+00 0.  1.
</event>
<event>
12    1  0.8488291E-002  0.1878962E+03  0.7818608E-02  0.1160729E+00
         21   -1    0    0  501  502  0.00000000000E+00  0.00000000000E+00  0.49790815510E+03  0.49790815510E+03  0.00000000000E+00 0. -1.
         21   -1    0    0  502  503 -0.00000000000E+00 -0.00000000000E+00 -0.17012926493E+03  0.17012926493E+03  0.00000000000E+00 0. -1.
         -6    2    1    2    0  503  0.37414304561E+02 -0.65824058626E+02 -0.91664225184E+02  0.20906294636E+03  0.17196612598E+03 0.  0.
        -24    2    3    3    0    0  0.55935255435E+02  0.19027565376E+02 -0.41653902097E+02  0.10873375753E+03  0.81223035041E+02 0.  0.
          6    2    1    2  501    0 -0.37414304561E+02  0.65824058626E+02  0.41944311536E+03  0.45897447366E+03  0.17027155832E+03 0.  0.
         24    2    5    5    0    0  0.23440678684E+02  0.13163437000E+02  0.11311326658E+03  0.14221504395E+03  0.81900953350E+02 0.  0.
          5    1    5    5  501    0 -0.60854983245E+02  0.52660621626E+02  0.30632984879E+03  0.31675942971E+03  0.47000000000E+01 0. -1.
        -13    1    6    6    0    0 -0.30475417568E+02  0.14546963370E+01  0.47926845506E+02  0.56814168457E+02  0.00000000000E+00 0.  1.
         14    1    6    6    0    0  0.53916096253E+02  0.11708740663E+02  0.65186421069E+02  0.85400875493E+02  0.00000000000E+00 0. -1.
         -5    1    3    3    0  503 -0.18520950874E+02 -0.84851624003E+02 -0.50010323087E+02  0.10032918884E+03  0.47000000000E+01 0.  1.
         13    1    4    4    0    0  0.39341966865E+02 -0.43749093689E+01 -0.62002850781E+02  0.73561428029E+02  0.00000000000E+00 0. -1.
        -14    1    4    4    0    0  0.16593288570E+02  0.23402474745E+02  0.20348948684E+02  0.35172329498E+02  0.00000000000E+00 0.  1.
</event>
<event>
12    1  0.8488291E-002  0.1869889E+03  0.7818608E-02  0.1161342E+00
         21   -1    0    0  501  502  0.00000000000E+00  0.00000000000E+00  0.15889631983E+03  0.15889631983E+03  0.00000000000E+00 0. -1.
         21   -1    0    0  502  503 -0.00000000000E+00 -0.00000000000E+00 -0.43863885184E+03  0.43863885184E+03  0.00000000000E+00 0. -1.
         -6    2    1    2    0  503 -0.71876787445E+02 -0.39895531925E+01 -0.35100424903E+03  0.39742754341E+03  0.17193743141E+03 0.  0.
        -24    2    3    3    0    0 -0.95217934972E+02 -0.34996225320E+02 -0.32698556783E+03  0.35154497667E+03  0.79831811486E+02 0.  0.
          6    2    1    2  501    0  0.71876787445E+02  0.39895531925E+01  0.71261717013E+02  0.20010762826E+03  0.17257648005E+03 0.  0.
         24    2    5    5    0    0  0.65284119222E+02  0.53899508620E+02  0.84930291465E+02  0.14773027769E+03  0.86278081146E+02 0.  0.
          5    1    5    5  501    0  0.65926682231E+01 -0.49909955427E+02 -0.13668574451E+02  0.52377350569E+02  0.47000000000E+01 0. -1.
        -11    1    6    6    0    0 -0.80578734102E+01  0.46020784577E+02  0.27206202676E+02  0.54064955387E+02  0.00000000000E+00 0.  1.
         12    1    6    6    0    0  0.73341992632E+02  0.78787240434E+01  0.57724088789E+02  0.93665322304E+02  0.00000000000E+00 0. -1.
         -5    1    3    3    0  503  0.23341147527E+02  0.31006672127E+02 -0.24018681194E+02  0.45882566739E+02  0.47000000000E+01 0.  1.
         13    1    4    4    0    0 -0.58229347535E+02 -0.23236482627E+02 -0.29399524383E+03  0.30060571257E+03  0.00000000000E+00 0. -1.
        -14    1    4    4    0    0 -0.36988587437E+02 -0.11759742693E+02 -0.32990324005E+02  0.50939264097E+02  0.00000000000E+00 0.  1.
</event>
<event>
12    1  0.8488291E-002  0.1857881E+03  0.7818608E-02  0.1163563E+00
         21   -1    0    0  501  502  0.00000000000E+00  0.00000000000E+00  0.79550529475E+03  0.79550529475E+03  0.00000000000E+00 0.  1.
         21   -1    0    0  502  503 -0.00000000000E+00 -0.00000000000E+00 -0.78373086662E+02  0.78373086662E+02  0.00000000000E+00 0.  1.
         -6    2    1    2    0  503  0.64628747288E+01  0.54642835293E+02  0.58805021486E+02  0.18983752219E+03  0.17190883072E+03 0.  0.
        -24    2    3    3    0    0  0.33541003091E+02  0.53167501417E+02  0.10379247306E+03  0.13709889835E+03  0.63807902100E+02 0.  0.
          6    2    1    2  501    0 -0.64628747288E+01 -0.54642835293E+02  0.65832718660E+03  0.68404085922E+03  0.17745310441E+03 0.  0.
         24    2    5    5    0    0  0.52455293668E+00 -0.82119496645E+02  0.25660000911E+03  0.28128708059E+03  0.80839162216E+02 0.  0.
          5    1    5    5  501    0 -0.69874276655E+01  0.27476661352E+02  0.40172717749E+03  0.40275377863E+03  0.47000000000E+01 0. -1.
        -13    1    6    6    0    0  0.39081535095E+02 -0.57362104430E+02  0.15549760969E+03  0.17028588911E+03  0.00000000000E+00 0.  1.
         14    1    6    6    0    0 -0.38556982158E+02 -0.24757392215E+02  0.10110239942E+03  0.11100119148E+03  0.00000000000E+00 0. -1.
         -5    1    3    3    0  503 -0.27078128362E+02  0.14753338753E+01 -0.44987451571E+02  0.52738623840E+02  0.47000000000E+01 0.  1.
         13    1    4    4    0    0 -0.72768537948E+00  0.13902555444E+01  0.62526500021E+02  0.62546187265E+02  0.00000000000E+00 0. -1.
        -14    1    4    4    0    0  0.34268688471E+02  0.51777245873E+02  0.41265973036E+02  0.74552711086E+02  0.00000000000E+00 0.  1.
</event>
<event>
12    1  0.8488291E-002  0.1967790E+03  0.7818608E-02  0.1152805E+00
         21   -1    0    0  501  502  0.00000000000E+00  0.00000000000E+00  0.23692223937E+03  0.23692223937E+03  0.00000000000E+00 0.  1.
         21   -1    0    0  502  503 -0.00000000000E+00 -0.00000000000E+00 -0.18107360136E+03  0.18107360136E+03  0.00000000000E+00 0. -1.
         -6    2    1    2    0  503  0.23938332236E+02  0.91644188013E+02 -0.39432260328E+02  0.20069099103E+03  0.17248266516E+03 0.  0.
        -24    2    3    3    0    0  0.61827672546E+02  0.11771874441E+02 -0.39093910412E+02  0.11216193893E+03  0.84206464087E+02 0.  0.
          6    2    1    2  501    0 -0.23938332236E+02 -0.91644188013E+02  0.95280898339E+02  0.21730484970E+03  0.17079592258E+03 0.  0.
         24    2    5    5    0    0  0.48306680992E+02 -0.30013892325E+02  0.40838644088E+02  0.10774352290E+03  0.81893239740E+02 0.  0.
          5    1    5    5  501    0 -0.72245013228E+02 -0.61630295688E+02  0.54442254251E+02  0.10956132680E+03  0.47000000000E+01 0. -1.
        -13    1    6    6    0    0  0.15944868818E+02 -0.55983284922E+02  0.23615659151E+02  0.62817723529E+02  0.00000000000E+00 0.  1.
         14    1    6    6    0    0  0.32361812174E+02  0.25969392597E+02  0.17222984937E+02  0.44925799371E+02  0.00000000000E+00 0. -1.
         -5    1    3    3    0  503 -0.37889340310E+02  0.79872313572E+02 -0.33834991594E+00  0.88529052097E+02  0.47000000000E+01 0.  1.
         13    1    4    4    0    0  0.32178645949E+02  0.46286578262E+02 -0.35277625194E+02  0.66501303910E+02  0.00000000000E+00 0. -1.
        -14    1    4    4    0    0  0.29649026597E+02 -0.34514703821E+02 -0.38162852178E+01  0.45660635025E+02  0.00000000000E+00 0.  1.
</event>
<event>
12    1  0.8488291E-002  0.1958717E+03  0.7818608E-02  0.1153720E+00
         21   -1    0    0  503  502  0.00000000000E+00  0.00000000000E+00  0.27825782819E+02  0.27825782819E+02  0.00000000000E+00 0. -1.
         21   -1    0    0  501  503 -0.00000000000E+00 -0.00000000000E+00 -0.19327015009E+04  0.19327015009E+04  0.00000000000E+00 0.  1.
          6    2    1    2  501    0 -0.84249672277E+02  0.41811902955E+02 -0.14804850867E+04  0.14931161712E+04  0.16945077778E+03 0.  0.
         24    2    3    3    0    0 -0.25552585361E+02  0.82955450529E+02 -0.86953147054E+03  0.87795395626E+03  0.84756295747E+02 0.  0.
         -6    2    1    2    0  502  0.84249672277E+02 -0.41811902955E+02 -0.42439063133E+03  0.46741111253E+03  0.17181239083E+03 0.  0.
        -24    2    5    5    0    0 -0.96121032614E+00 -0.57516234578E+02 -0.16083169420E+03  0.18993512458E+03  0.83063087610E+02 0.  0.
          5    1    3    3  501    0 -0.58697086916E+02 -0.41143547574E+02 -0.61095361619E+03  0.61516221492E+03  0.47000000000E+01 0. -1.
        -13    1    4    4    0    0  0.70181483772E+01  0.16906250137E+02 -0.53930469233E+03  0.53961525818E+03  0.00000000000E+00 0.  1.
         14    1    4    4    0    0 -0.32570733738E+02  0.66049200392E+02 -0.33022677822E+03  0.33833869808E+03  0.00000000000E+00 0. -1.
         -5    1    5    5    0  502  0.85210882603E+02  0.15704331623E+02 -0.26355893713E+03  0.27747598795E+03  0.47000000000E+01 0.  1.
         13    1    6    6    0    0 -0.20444875558E+02  0.46368686658E+01 -0.57626620130E+01  0.21741705570E+02  0.00000000000E+00 0. -1.
        -14    1    6    6    0    0  0.19483665232E+02 -0.62153103244E+02 -0.15506903219E+03  0.16819341901E+03  0.00000000000E+00 0.  1.
</event>
<event>
12    1  0.8488291E-002  0.1766354E+03  0.7818608E-02  0.1171286E+00
         21   -1    0    0  503  502  0.00000000000E+00  0.00000000000E+00  0.45790578671E+03  0.45790578671E+03  0.00000000000E+00 0.  1.
         21   -1    0    0  501  503 -0.00000000000E+00 -0.00000000000E+00 -0.21703597560E+03  0.21703597560E+03  0.00000000000E+00 0.  1.
          6    2    1    2  501    0 -0.27908211524E+02 -0.31222086661E+02 -0.15943895914E+03  0.23739499531E+03  0.17082714989E+03 0.  0.
         24    2    3    3    0    0  0.36734375550E+02 -0.35198829496E+02 -0.13972521166E+03  0.16953336854E+03  0.81425157853E+02 0.  0.
         -6    2    1    2    0  502  0.27908211524E+02  0.31222086661E+02  0.40030877025E+03  0.43754676700E+03  0.17159946039E+03 0.  0.
        -24    2    5    5    0    0  0.11963212720E+01  0.49445609736E+02  0.10816423841E+03  0.14358054554E+03  0.80433643955E+02 0.  0.
          5    1    3    3  501    0 -0.64642587074E+02  0.39767428350E+01 -0.19713747486E+02  0.67861626765E+02  0.47000000000E+01 0. -1.
        -11    1    4    4    0    0  0.99875430663E+01 -0.26972098768E+02 -0.18219269347E+01  0.28819516759E+02  0.00000000000E+00 0.  1.
         12    1    4    4    0    0  0.26746832484E+02 -0.82267307280E+01 -0.13790328472E+03  0.14071385178E+03  0.00000000000E+00 0. -1.
         -5    1    5    5    0  502  0.26711890252E+02 -0.18223523076E+02  0.29214453184E+03  0.29396622146E+03  0.47000000000E+01 0.  1.
         13    1    6    6    0    0  0.19483454960E+02 -0.85104475599E+01  0.66709078506E+02  0.70015240412E+02  0.00000000000E+00 0. -1.
        -14    1    6    6    0    0 -0.18287133688E+02  0.57956057296E+02  0.41455159905E+02  0.73565305128E+02  0.00000000000E+00 0.  1.
</event>
<event>
12    1  0.8488291E-002  0.5103169E+03  0.7818608E-02  0.1011131E+00
         21   -1    0    0  501  502  0.00000000000E+00  0.00000000000E+00  0.34139829564E+03  0.34139829564E+03  0.00000000000E+00 0.  1.
         21   -1    0    0  502  503 -0.00000000000E+00 -0.00000000000E+00 -0.10854079846E+04  0.10854079846E+04  0.00000000000E+00 0.  1.
         -6    2    1    2    0  503 -0.73032836905E+02  0.47491541963E+03 -0.76111431103E+03  0.91636146198E+03  0.17188625156E+03 0.  0.
        -24    2    3    3    0    0  0.25016306276E+02  0.15455661917E+03 -0.25337459840E+03  0.30803169837E+03  0.78557469263E+02 0.  0.
          6    2    1    2  501    0  0.73032836905E+02 -0.47491541963E+03  0.17104622115E+02  0.51044481821E+03  0.17141439050E+03 0.  0.
         24    2    5    5    0    0 -0.22014886290E+02 -0.17416405436E+03 -0.15687010946E+02  0.19329684865E+03  0.79371382353E+02 0.  0.
          5    1    5    5  501    0  0.95047723195E+02 -0.30075136527E+03  0.32791633061E+02  0.31714796956E+03  0.47000000000E+01 0. -1.
        -13    1    6    6    0    0  0.58299539913E+01 -0.13422256431E+03  0.15858028177E+02  0.13528178810E+03  0.00000000000E+00 0.  1.
         14    1    6    6    0    0 -0.27844840281E+02 -0.39941490051E+02 -0.31545039122E+02  0.58015060553E+02  0.00000000000E+00 0. -1.
         -5    1    3    3    0  503 -0.98049143181E+02  0.32035880046E+03 -0.50773971263E+03  0.60832976361E+03  0.47000000000E+01 0.  1.
         11    1    4    4    0    0 -0.13768665332E+02  0.10405792061E+02 -0.45242021947E+01  0.17841666372E+02  0.00000000000E+00 0. -1.
        -12    1    4    4    0    0  0.38784971608E+02  0.14415082711E+03 -0.24885039621E+03  0.29019003200E+03  0.00000000000E+00 0.  1.
</event>
<event>
12    1  0.8488291E-002  0.2162823E+03  0.7818608E-02  0.1137484E+00
         21   -1    0    0  501  502  0.00000000000E+00  0.00000000000E+00  0.12351676522E+03  0.12351676522E+03  0.00000000000E+00 0.  1.
         21   -1    0    0  502  503 -0.00000000000E+00 -0.00000000000E+00 -0.49413515266E+03  0.49413515266E+03  0.00000000000E+00 0.  1.
         -6    2    1    2    0  503 -0.96044991260E+02 -0.78696158830E+02 -0.32805222431E+02  0.21875601737E+03  0.17708835862E+03 0.  0.
        -24    2    3    3    0    0 -0.24572685820E+02 -0.11015486042E+03 -0.29355492647E+02  0.14044937023E+03  0.78271134444E+02 0.  0.
          6    2    1    2  501    0  0.96044991260E+02  0.78696158830E+02 -0.33781316500E+03  0.39889590051E+03  0.17199557911E+03 0.  0.
         24    2    5    5    0    0  0.90323758553E+02  0.92459161932E+02 -0.34831748482E+03  0.38006551302E+03  0.80110211409E+02 0.  0.
          5    1    5    5  501    0  0.57212327076E+01 -0.13763003102E+02  0.10504319819E+02  0.18830387488E+02  0.47000000000E+01 0. -1.
        -13    1    6    6    0    0  0.64729213042E+02  0.70862499820E+02 -0.14420286137E+03  0.17322191007E+03  0.00000000000E+00 0.  1.
         14    1    6    6    0    0  0.25594545511E+02  0.21596662111E+02 -0.20411462345E+03  0.20684360295E+03  0.00000000000E+00 0. -1.
         -5    1    3    3    0  503 -0.71472305441E+02  0.31458701593E+02 -0.34497297846E+01  0.78306647141E+02  0.47000000000E+01 0.  1.
         13    1    4    4    0    0  0.16689242362E+02 -0.59410530963E+02  0.12277692743E+02  0.62919660990E+02  0.00000000000E+00 0. -1.
        -14    1    4    4    0    0 -0.41261928182E+02 -0.50744329459E+02 -0.41633185390E+02  0.77529709243E+02  0.00000000000E+00 0.  1.
</event>
<event>
12    1  0.8488291E-002  0.1790396E+03  0.7818608E-02  0.1168827E+00
         21   -1    0    0  503  502  0.00000000000E+00  0.00000000000E+00  0.88003445439E+02  0.88003445439E+02  0.00000000000E+00 0.  1.
         21   -1    0    0  501  503 -0.00000000000E+00 -0.00000000000E+00 -0.36934674892E+03  0.36934674892E+03  0.00000000000E+00 0.  1.
          6    2    1    2  501    0  0.48911302848E+02  0.12692725806E+02 -0.16962326278E+03  0.24663174361E+03  0.17176071975E+03 0.  0.
         24    2    3    3    0    0 -0.15707691512E+02  0.51911981222E+02 -0.58538866426E+02  0.11218622476E+03  0.78850268079E+02 0.  0.
         -6    2    1    2    0  502 -0.48911302848E+02 -0.12692725806E+02 -0.11172004071E+03  0.21071845075E+03  0.17136941721E+03 0.  0.
        -24    2    5    5    0    0 -0.43403715305E+02  0.53053759162E+02 -0.96846756090E+02  0.14292288746E+03  0.79681075118E+02 0.  0.
          5    1    3    3  501    0  0.64618994360E+02 -0.39219255416E+02 -0.11108439635E+03  0.13444551885E+03  0.47000000000E+01 0. -1.
        -13    1    4    4    0    0  0.15176365437E+02  0.35854841740E+02 -0.65961172939E+02  0.76594830632E+02  0.00000000000E+00 0.  1.
         14    1    4    4    0    0 -0.30884056948E+02  0.16057139482E+02  0.74223065126E+01  0.35591394127E+02  0.00000000000E+00 0. -1.
         -5    1    5    5    0  502 -0.55075875424E+01 -0.65746484968E+02 -0.14873284619E+02  0.67795563288E+02  0.47000000000E+01 0.  1.
         11    1    6    6    0    0 -0.36508393126E+02  0.33554968548E+02 -0.10842123160E+03  0.11922232235E+03  0.00000000000E+00 0. -1.
        -12    1    6    6    0    0 -0.68953221791E+01  0.19498790614E+02  0.11574475515E+02  0.23700565116E+02  0.00000000000E+00 0.  1.
</event>
<event>
12    1  0.8488291E-002  0.1814716E+03  0.7818608E-02  0.1166508E+00
         21   -1    0    0  501  502  0.00000000000E+00  0.00000000000E+00  0.14378055035E+04  0.14378055035E+04  0.00000000000E+00 0. -1.
         21   -1    0    0  502  503 -0.00000000000E+00 -0.00000000000E+00 -0.23502689496E+02  0.23502689496E+02  0.00000000000E+00 0. -1.
         -6    2    1    2    0  503  0.14364602052E+02  0.55512969189E+02  0.58352824687E+03  0.61094454306E+03  0.17163912214E+03 0.  0.
        -24    2    3    3    0    0 -0.48003873016E+02  0.26443426582E+02  0.45438724600E+03  0.46453978529E+03  0.79534999563E+02 0.  0.
          6    2    1    2  501    0 -0.14364602052E+02 -0.55512969189E+02  0.83077456713E+03  0.85036364993E+03  0.17217411016E+03 0.  0.
         24    2    5    5    0    0 -0.77984544072E+01 -0.28032270269E+02  0.15708484838E+03  0.17606532556E+03  0.74004899887E+02 0.  0.
          5    1    5    5  501    0 -0.65661476448E+01 -0.27480698921E+02  0.67368971875E+03  0.67429832437E+03  0.47000000000E+01 0. -1.
        -13    1    6    6    0    0 -0.16405872877E+02 -0.48969663785E+02  0.13456055737E+03  0.14413092741E+03  0.00000000000E+00 0.  1.
         14    1    6    6    0    0  0.86074184702E+01  0.20937393516E+02  0.22524291012E+02  0.31934398156E+02  0.00000000000E+00 0. -1.
         -5    1    3    3    0  503  0.62368475068E+02  0.29069542607E+02  0.12914100087E+03  0.14640475776E+03  0.47000000000E+01 0.  1.
         13    1    4    4    0    0  0.19826063786E+02 -0.59752234298E+01  0.12310245879E+03  0.12483185275E+03  0.00000000000E+00 0. -1.
        -14    1    4    4    0    0 -0.67829936802E+02  0.32418650012E+02  0.33128478721E+03  0.33970793254E+03  0.00000000000E+00 0.  1.
</event>
<event>
12    1  0.8488291E-002  0.1897694E+03  0.7818608E-02  0.1158872E+00
         21   -1    0    0  503  502  0.00000000000E+00  0.00000000000E+00  0.61872631317E+02  0.61872631317E+02  0.00000000000E+00 0. -1.
         21   -1    0    0  501  503 -0.00000000000E+00 -0.00000000000E+00 -0.73902702306E+03  0.73902702306E+03  0.00000000000E+00 0. -1.
          6    2    1    2  501    0 -0.53397548984E+02 -0.56089464146E+02 -0.15303622719E+03  0.24378787511E+03  0.17324870848E+03 0.  0.
         24    2    3    3    0    0 -0.81400474931E+02  0.81341178023E+01 -0.65299954085E+02  0.13141093816E+03  0.79451554245E+02 0.  0.
         -6    2    1    2    0  502  0.53397548984E+02  0.56089464146E+02 -0.52411816455E+03  0.55711177927E+03  0.17226827324E+03 0.  0.
        -24    2    5    5    0    0  0.20925156211E+02  0.10279276017E+03 -0.37552505209E+03  0.39793371162E+03  0.79548478225E+02 0.  0.
          5    1    3    3  501    0  0.28002925947E+02 -0.64223581948E+02 -0.87736273107E+02  0.11237693695E+03  0.47000000000E+01 0. -1.
        -11    1    4    4    0    0 -0.91688821057E+02 -0.10539606540E+02 -0.57332200392E+02  0.10865037696E+03  0.00000000000E+00 0.  1.
         12    1    4    4    0    0  0.10288346126E+02  0.18673724342E+02 -0.79677536930E+01  0.22760561191E+02  0.00000000000E+00 0. -1.
         -5    1    5    5    0  502  0.32472392773E+02 -0.46703296020E+02 -0.14859311246E+03  0.15917806765E+03  0.47000000000E+01 0.  1.
         13    1    6    6    0    0 -0.13841710441E+02  0.88236186641E+02 -0.30698225918E+03  0.31971131515E+03  0.00000000000E+00 0. -1.
        -14    1    6    6    0    0  0.34766866652E+02  0.14556573525E+02 -0.68542792912E+02  0.78222396471E+02  0.00000000000E+00 0.  1.
</event>
<event>
12    1  0.8488291E-002  0.1946375E+03  0.7818608E-02  0.1154382E+00
         21   -1    0    0  501  502  0.00000000000E+00  0.00000000000E+00  0.58056254215E+03  0.58056254215E+03  0.00000000000E+00 0. -1.
         21   -1    0    0  502  503 -0.00000000000E+00 -0.00000000000E+00 -0.75435442439E+02  0.75435442439E+02  0.00000000000E+00 0. -1.
         -6    2    1    2    0  503 -0.15219478779E+01  0.90902657987E+02  0.13181163335E+03  0.23507030057E+03  0.17209918643E+03 0.  0.
        -24    2    3    3    0    0  0.64365037006E+02  0.37995795232E+02  0.65152319303E+02  0.12734015134E+03  0.79900882285E+02 0.  0.
          6    2    1    2  501    0  0.15219478779E+01 -0.90902657987E+02  0.37331546636E+03  0.42092768402E+03  0.17190133272E+03 0.  0.
         24    2    5    5    0    0  0.21077140220E+02  0.16641878647E+02  0.16272045557E+03  0.18360810733E+03  0.80701873904E+02 0.  0.
          5    1    5    5  501    0 -0.19555192342E+02 -0.10754453663E+03  0.21059501079E+03  0.23731957669E+03  0.47000000000E+01 0. -1.
        -13    1    6    6    0    0  0.43306469831E+02 -0.15375191651E+02  0.83153501127E+02  0.95007113404E+02  0.00000000000E+00 0.  1.
         14    1    6    6    0    0 -0.22229329611E+02  0.32017070298E+02  0.79566954444E+02  0.88600993927E+02  0.00000000000E+00 0. -1.
         -5    1    3    3    0  503 -0.65886984883E+02  0.52906862755E+02  0.66659314044E+02  0.10773014923E+03  0.47000000000E+01 0.  1.
         11    1    4    4    0    0  0.47269440861E+02  0.62508640264E+02  0.55134558894E+02  0.95820403524E+02  0.00000000000E+00 0. -1.
        -12    1    4    4    0    0  0.17095596145E+02 -0.24512845032E+02  0.10017760409E+02  0.31519747821E+02  0.00000000000E+00 0.  1.
</event>
<event>
12    1  0.8488291E-002  0.2008069E+03  0.7818608E-02  0.1149710E+00
         21   -1    0    0  503  502  0.00000000000E+00  0.00000000000E+00  0.69362829498E+02  0.69362829498E+02  0.00000000000E+00 0.  1.
         21   -1    0    0  501  503 -0.00000000000E+00 -0.00000000000E+00 -0.67929294220E+03  0.67929294220E+03  0.00000000000E+00 0.  1.
          6    2    1    2  501    0  0.53164096070E+02  0.89506441303E+02 -0.45538186163E+03  0.49769071719E+03  0.17171367425E+03 0.  0.
         24    2    3    3    0    0  0.21880814084E+02  0.67525225864E+02 -0.44533268402E+03  0.45787999583E+03  0.79337664299E+02 0.  0.
         -6    2    1    2    0  502 -0.53164096070E+02 -0.89506441303E+02 -0.15454825107E+03  0.25096505451E+03  0.16810851415E+03 0.  0.
        -24    2    5    5    0    0  0.29977081764E+02 -0.31325157019E+02 -0.89116828978E+02  0.13013096044E+03  0.84334849054E+02 0.  0.
          5    1    3    3  501    0  0.31283281986E+02  0.21981215439E+02 -0.10049177613E+02  0.39810721354E+02  0.47000000000E+01 0. -1.
        -11    1    4    4    0    0  0.47849278271E+02  0.37208160368E+02 -0.18967402115E+03  0.19912366743E+03  0.00000000000E+00 0.  1.
         12    1    4    4    0    0 -0.25968464187E+02  0.30317065495E+02 -0.25565866286E+03  0.25875632841E+03  0.00000000000E+00 0. -1.
         -5    1    5    5    0  502 -0.83141177834E+02 -0.58181284284E+02 -0.65431422094E+02  0.12083409407E+03  0.47000000000E+01 0.  1.
         11    1    6    6    0    0  0.33419245010E+02 -0.25675510625E+02 -0.14018454879E+01  0.42166846618E+02  0.00000000000E+00 0. -1.
        -12    1    6    6    0    0 -0.34421632460E+01 -0.56496463944E+01 -0.87714983490E+02  0.87964113824E+02  0.00000000000E+00 0.  1.
</event>
<event>
12    1  0.8488291E-002  0.3840670E+03  0.7818608E-02  0.1049504E+00
         21   -1    0    0  501  502  0.00000000000E+00  0.00000000000E+00  0.67671164931E+03  0.67671164931E+03  0.00000000000E+00 0.  1.
         21   -1    0    0  502  503 -0.00000000000E+00 -0.00000000000E+00 -0.70930481132E+03  0.70930481132E+03  0.00000000000E+00 0.  1.
         -6    2    1    2    0  503  0.13509575154E+03  0.31596122518E+03 -0.59330127424E+03  0.70638342582E+03  0.16996700960E+03 0.  0.
        -24    2    3    3    0    0  0.50582057220E+02  0.71075566423E+02 -0.11196640688E+03  0.15974195746E+03  0.73285305810E+02 0.  0.
          6    2    1    2  501    0 -0.13509575154E+03 -0.31596122518E+03  0.56070811222E+03  0.67963303481E+03  0.17153750901E+03 0.  0.
         24    2    5    5    0    0 -0.15976456814E+03 -0.23461981260E+03  0.47844715194E+03  0.56125258245E+03  0.74307539428E+02 0.  0.
          5    1    5    5  501    0  0.24668816610E+02 -0.81341412584E+02  0.82260960287E+02  0.11838045236E+03  0.47000000000E+01 0. -1.
        -11    1    6    6    0    0 -0.21040235259E+02 -0.40218493702E+02  0.13889758350E+03  0.14612582742E+03  0.00000000000E+00 0.  1.
         12    1    6    6    0    0 -0.13872433289E+03 -0.19440131889E+03  0.33954956843E+03  0.41512675503E+03  0.00000000000E+00 0. -1.
         -5    1    3    3    0  503  0.84513694316E+02  0.24488565876E+03 -0.48133486736E+03  0.54664146836E+03  0.47000000000E+01 0.  1.
         13    1    4    4    0    0  0.10601085179E+02  0.69644792053E+02 -0.89362891490E+02  0.11379150426E+03  0.00000000000E+00 0. -1.
        -14    1    4    4    0    0  0.39980972041E+02  0.14307743692E+01 -0.22603515387E+02  0.45950453191E+02  0.00000000000E+00 0.  1.
</event>
<event>
12    1  0.8488291E-002  0.2182937E+03  0.7818608E-02  0.1135169E+00
         21   -1    0    0  501  502  0.00000000000E+00  0.00000000000E+00  0.12404409708E+03  0.12404409708E+03  0.00000000000E+00 0. -1.
         21   -1    0    0  502  503 -0.00000000000E+00 -0.00000000000E+00 -0.63382474807E+03  0.63382474807E+03  0.00000000000E+00 0. -1.
         -6    2    1    2    0  503 -0.11719971599E+03  0.69116325864E+02 -0.49276431286E+03  0.53895156760E+03  0.17070232646E+03 0.  0.
        -24    2    3    3    0    0 -0.61440552980E+02  0.11017411701E+03 -0.33368663667E+03  0.36539286417E+03  0.79068932500E+02 0.  0.
          6    2    1    2  501    0  0.11719971599E+03 -0.69116325864E+02 -0.17016338126E+02  0.21891727755E+03  0.17065280167E+03 0.  0.
         24    2    5    5    0    0  0.56765415900E+02 -0.10301002615E+03 -0.15543315643E+02  0.14945255743E+03  0.90890562386E+02 0.  0.
          5    1    5    5  501    0  0.60434300086E+02  0.33893700286E+02 -0.14730224821E+01  0.69464720119E+02  0.47000000000E+01 0. -1.
        -11    1    6    6    0    0 -0.18048283449E+02 -0.59044798396E+02 -0.34471261510E+01  0.61837783206E+02  0.00000000000E+00 0.  1.
         12    1    6    6    0    0  0.74813699349E+02 -0.43965227754E+02 -0.12096189492E+02  0.87614774223E+02  0.00000000000E+00 0. -1.
         -5    1    3    3    0  503 -0.55759163006E+02 -0.41057791144E+02 -0.15907767620E+03  0.17355870343E+03  0.47000000000E+01 0.  1.
         11    1    4    4    0    0 -0.41851515708E+02  0.22034645274E+02 -0.55497478001E+02  0.72918070626E+02  0.00000000000E+00 0. -1.
        -12    1    4    4    0    0 -0.19589037273E+02  0.88139471735E+02 -0.27818915866E+03  0.29247479354E+03  0.00000000000E+00 0.  1.
</event>
<event>
12    1  0.8488291E-002  0.1867796E+03  0.7818608E-02  0.1161469E+00
         21   -1    0    0  503  502  0.00000000000E+00  0.00000000000E+00  0.25488743493E+03  0.25488743493E+03  0.00000000000E+00 0. -1.
         21   -1    0    0  501  503 -0.00000000000E+00 -0.00000000000E+00 -0.14948936937E+03  0.14948936937E+03  0.00000000000E+00 0. -1.
          6    2    1    2  501    0  0.45077874152E+02  0.56612681359E+02 -0.65244732480E+01  0.18689349134E+03  0.17219058605E+03 0.  0.
         24    2    3    3    0    0  0.42905055658E+02  0.20603161328E+02  0.60674437713E+02  0.11047889648E+03  0.79112989567E+02 0.  0.
         -6    2    1    2    0  502 -0.45077874152E+02 -0.56612681359E+02  0.11192253881E+03  0.21748331296E+03  0.17185844842E+03 0.  0.
        -24    2    5    5    0    0 -0.76666488163E+02 -0.79625468345E+02  0.11349121907E+03  0.17808813994E+03  0.81345947427E+02 0.  0.
          5    1    3    3  501    0  0.21728184946E+01  0.36009520031E+02 -0.67198910961E+02  0.76414594859E+02  0.47000000000E+01 0. -1.
        -13    1    4    4    0    0  0.14335983243E+02 -0.27461815073E+02  0.46492052955E+01  0.31325497802E+02  0.00000000000E+00 0.  1.
         14    1    4    4    0    0  0.28569072415E+02  0.48064976401E+02  0.56025232418E+02  0.79153398680E+02  0.00000000000E+00 0. -1.
         -5    1    5    5    0  502  0.31588614011E+02  0.23012786986E+02 -0.15686802576E+01  0.39395173026E+02  0.47000000000E+01 0.  1.
         13    1    6    6    0    0 -0.11936008482E+02 -0.70926284800E+02  0.58711486449E+02  0.92844196453E+02  0.00000000000E+00 0. -1.
        -14    1    6    6    0    0 -0.64730479681E+02 -0.86991835448E+01  0.54779732623E+02  0.85243943482E+02  0.00000000000E+00 0.  1.
</event>
<event>
12    1  0.8488291E-002  0.2371389E+03  0.7818608E-02  0.1121838E+00
         21   -1    0    0  503  502  0.00000000000E+00  0.00000000000E+00  0.69147093276E+03  0.69147093276E+03  0.00000000000E+00 0. -1.
         21   -1    0    0  501  503 -0.00000000000E+00 -0.00000000000E+00 -0.42314323586E+03  0.42314323586E+03  0.00000000000E+00 0.  1.
          6    2    1    2  501    0  0.16220593791E+03 -0.20712269403E+02 -0.36687630690E+03  0.43684444371E+03  0.17174131430E+03 0.  0.
         24    2    3    3    0    0  0.49703479670E+02 -0.54644439663E+02 -0.11184382763E+03  0.15600311703E+03  0.79821551392E+02 0.  0.
         -6    2    1    2    0  502 -0.16220593791E+03  0.20712269403E+02  0.63520400380E+03  0.67776972492E+03  0.17072758760E+03 0.  0.
        -24    2    5    5    0    0 -0.11753470944E+03  0.77412220959E+02  0.39961376642E+03  0.43132449143E+03  0.80886307344E+02 0.  0.
          5    1    3    3  501    0  0.11250245824E+03  0.33932170260E+02 -0.25503247927E+03  0.28084132668E+03  0.47000000000E+01 0. -1.
        -13    1    4    4    0    0  0.57203892842E+02 -0.39032042652E+01 -0.62786004601E+02  0.85027070593E+02  0.00000000000E+00 0.  1.
         14    1    4    4    0    0 -0.75004131720E+01 -0.50741235398E+02 -0.49057823025E+02  0.70976046434E+02  0.00000000000E+00 0. -1.
         -5    1    5    5    0  502 -0.44671228472E+02 -0.56699951556E+02  0.23559023738E+03  0.24644523349E+03  0.47000000000E+01 0.  1.
         11    1    6    6    0    0 -0.98090528692E+02  0.20870362094E+02  0.21432667812E+03  0.23662892635E+03  0.00000000000E+00 0. -1.
        -12    1    6    6    0    0 -0.19444180747E+02  0.56541858864E+02  0.18528708831E+03  0.19469556508E+03  0.00000000000E+00 0.  1.
</event>
<event>
12    1  0.8488291E-002  0.2157959E+03  0.7818608E-02  0.1137058E+00
         21   -1    0    0  501  502  0.00000000000E+00  0.00000000000E+00  0.14398321333E+03  0.14398321333E+03  0.00000000000E+00 0. -1.
         21   -1    0    0  502  503 -0.00000000000E+00 -0.00000000000E+00 -0.47934662763E+03  0.47934662763E+03  0.00000000000E+00 0. -1.
         -6    2    1    2    0  503 -0.12958577257E+03  0.73830729694E+01 -0.34544258854E+03  0.40730632920E+03  0.17239745244E+03 0.  0.
        -24    2    3    3    0    0 -0.65956586958E+02 -0.16390502836E+02 -0.73478893726E+02  0.12694906165E+03  0.78089669514E+02 0.  0.
          6    2    1    2  501    0  0.12958577257E+03 -0.73830729694E+01  0.10079174240E+02  0.21602351176E+03  0.17238789302E+03 0.  0.
         24    2    5    5    0    0  0.52819343609E+02  0.36948376210E+02 -0.44701457275E+02  0.11170970831E+03  0.79534728789E+02 0.  0.
          5    1    5    5  501    0  0.76766428961E+02 -0.44331449179E+02  0.54780631514E+02  0.10431380345E+03  0.47000000000E+01 0. -1.
        -13    1    6    6    0    0  0.12344479832E+02  0.18805286353E+02 -0.60561406828E+02  0.64604248886E+02  0.00000000000E+00 0.  1.
         14    1    6    6    0    0  0.40474863777E+02  0.18143089857E+02  0.15859949554E+02  0.47105459420E+02  0.00000000000E+00 0. -1.
         -5    1    3    3    0  503 -0.63629185612E+02  0.23773575806E+02 -0.27196369482E+03  0.28035726755E+03  0.47000000000E+01 0.  1.
         13    1    4    4    0    0 -0.64006829574E+02 -0.26847113788E+02 -0.86002896757E+02  0.11051760042E+03  0.00000000000E+00 0. -1.
        -14    1    4    4    0    0 -0.19497573833E+01  0.10456610951E+02  0.12524003031E+02  0.16431461237E+02  0.00000000000E+00 0.  1.
</event>
<event>
12    1  0.8488291E-002  0.2328077E+03  0.7818608E-02  0.1127382E+00
         21   -1    0    0  503  502  0.00000000000E+00  0.00000000000E+00  0.27200810568E+03  0.27200810568E+03  0.00000000000E+00 0.  1.
         21   -1    0    0  501  503 -0.00000000000E+00 -0.00000000000E+00 -0.46127135632E+03  0.46127135632E+03  0.00000000000E+00 0. -1.
          6    2    1    2  501    0 -0.10221493788E+03 -0.86304527323E+02 -0.37622314738E+03  0.43469371688E+03  0.17180921370E+03 0.  0.
         24    2    3    3    0    0 -0.57525761034E+01  0.77836588722E+01 -0.77852888559E+02  0.10727277166E+03  0.73162133687E+02 0.  0.
         -6    2    1    2    0  502  0.10221493788E+03  0.86304527323E+02  0.18695989673E+03  0.29858574512E+03  0.19053366957E+03 0.  0.
        -24    2    5    5    0    0  0.21048999988E+02  0.70965672234E+02  0.18138249903E+02  0.11058035055E+03  0.80123846527E+02 0.  0.
          5    1    3    3  501    0 -0.96462361779E+02 -0.94088186195E+02 -0.29837025882E+03  0.32742094522E+03  0.47000000000E+01 0. -1.
        -13    1    4    4    0    0 -0.31785483101E+02  0.14677560123E+02 -0.13519663533E+02  0.37530374488E+02  0.00000000000E+00 0.  1.
         14    1    4    4    0    0  0.26032906998E+02 -0.68939012513E+01 -0.64333225026E+02  0.69742397173E+02  0.00000000000E+00 0. -1.
         -5    1    5    5    0  502  0.81165937895E+02  0.15338855089E+02  0.16882164683E+03  0.18800539457E+03  0.47000000000E+01 0.  1.
         11    1    6    6    0    0  0.31431765192E+02  0.38202229055E+02 -0.24996512841E+02  0.55427356260E+02  0.00000000000E+00 0. -1.
        -12    1    6    6    0    0 -0.10382765204E+02  0.32763443180E+02  0.43134762744E+02  0.55152994291E+02  0.00000000000E+00 0.  1.
</event>
<event>
12    1  0.8488291E-002  0.1947063E+03  0.7818608E-02  0.1154547E+00
         21   -1    0    0  501  502  0.00000000000E+00  0.00000000000E+00  0.66672456896E+03  0.66672456896E+03  0.00000000000E+00 0.  1.
         21   -1    0    0  502  503 -0.00000000000E+00 -0.00000000000E+00 -0.70780750998E+02  0.70780750998E+02  0.00000000000E+00 0.  1.
         -6    2    1    2    0  503  0.88269030555E+02  0.13000533492E+02  0.13313383156E+03  0.23587103070E+03  0.17306094415E+03 0.  0.
        -24    2    3    3    0    0  0.25596788241E+02  0.70810018842E+02  0.78143703029E+02  0.13430454612E+03  0.79132916345E+02 0.  0.
          6    2    1    2  501    0 -0.88269030555E+02 -0.13000533492E+02  0.46280998640E+03  0.50163428926E+03  0.17170742857E+03 0.  0.
         24    2    5    5    0    0 -0.12509508165E+03  0.77432240830E+01  0.38588213293E+03  0.41373408359E+03  0.81007002400E+02 0.  0.
          5    1    5    5  501    0  0.36826051093E+02 -0.20743757575E+02  0.76927853467E+02  0.87900205668E+02  0.47000000000E+01 0. -1.
        -11    1    6    6    0    0 -0.73413923499E+02  0.27960490357E+02  0.30953894835E+03  0.31935208427E+03  0.00000000000E+00 0.  1.
         12    1    6    6    0    0 -0.51681158149E+02 -0.20217266274E+02  0.76343184584E+02  0.94381999320E+02  0.00000000000E+00 0. -1.
         -5    1    3    3    0  503  0.62672242314E+02 -0.57809485350E+02  0.54990128536E+02  0.10156648458E+03  0.47000000000E+01 0.  1.
         11    1    4    4    0    0 -0.11647847363E+02 -0.70097162094E+01  0.35609128217E+02  0.38115856043E+02  0.00000000000E+00 0. -1.
        -12    1    4    4    0    0  0.37244635604E+02  0.77819735052E+02  0.42534574812E+02  0.96188690079E+02  0.00000000000E+00 0.  1.
</event>
<event>
12    1  0.8488291E-002  0.4260190E+03  0.7818608E-02  0.1035156E+00
         21   -1    0    0  501  502  0.00000000000E+00  0.00000000000E+00  0.72544273132E+03  0.72544273132E+03  0.00000000000E+00 0. -1.
         21   -1    0    0  502  503 -0.00000000000E+00 -0.00000000000E+00 -0.25244363429E+03  0.25244363429E+03  0.00000000000E+00 0. -1.
         -6    2    1    2    0  503  0.32276914192E+03  0.21828365579E+03  0.28515103814E+03  0.51264348280E+03  0.17223400520E+03 0.  0.
        -24    2    3    3    0    0  0.16621289044E+03  0.18541274823E+03  0.14122873509E+03  0.29740855126E+03  0.80632986992E+02 0.  0.
          6    2    1    2  501    0 -0.32276914192E+03 -0.21828365579E+03  0.18784805889E+03  0.46524288281E+03  0.17127864263E+03 0.  0.
         24    2    5    5    0    0 -0.33112397815E+03 -0.17775982973E+03  0.17035701862E+03  0.42007641010E+03  0.78746622533E+02 0.  0.
          5    1    5    5  501    0  0.83548362359E+01 -0.40523826062E+02  0.17491040263E+02  0.45166472706E+02  0.47000000000E+01 0. -1.
        -11    1    6    6    0    0 -0.94608200706E+02 -0.72939937942E+02  0.20810115608E+02  0.12126008040E+03  0.00000000000E+00 0.  1.
         12    1    6    6    0    0 -0.23651577745E+03 -0.10481989178E+03  0.14954690301E+03  0.29881632970E+03  0.00000000000E+00 0. -1.
         -5    1    3    3    0  503  0.15655625147E+03  0.32870907552E+02  0.14392230305E+03  0.21523493154E+03  0.47000000000E+01 0.  1.
         11    1    4    4    0    0  0.10411786879E+03  0.73975227700E+02  0.10345130464E+03  0.16436251807E+03  0.00000000000E+00 0. -1.
        -12    1    4    4    0    0  0.62095021653E+02  0.11143752053E+03  0.37777430453E+02  0.13304603319E+03  0.00000000000E+00 0.  1.
</event>
<event>
12    1  0.8488291E-002  0.1794118E+03  0.7818608E-02  0.1168453E+00
         21   -1    0    0  501  502  0.00000000000E+00  0.00000000000E+00  0.77382899624E+02  0.77382899624E+02  0.00000000000E+00 0.  1.
         21   -1    0    0  502  503 -0.00000000000E+00 -0.00000000000E+00 -0.94858670292E+03  0.94858670292E+03  0.00000000000E+00 0.  1.
         -6    2    1    2    0  503  0.36094641048E+02  0.32397722483E+02 -0.82044310062E+03  0.83983061395E+03  0.17273141939E+03 0.  0.
        -24    2    3    3    0    0 -0.41279890890E+02  0.32118743119E+02 -0.34431643106E+03  0.35743493458E+03  0.80438079927E+02 0.  0.
          6    2    1    2  501    0 -0.36094641048E+02 -0.32397722483E+02 -0.50760702675E+02  0.18613898859E+03  0.17239094698E+03 0.  0.
         24    2    5    5    0    0 -0.78842359482E+02 -0.59601555263E+02 -0.24635590294E+02  0.12893735010E+03  0.79053557178E+02 0.  0.
          5    1    5    5  501    0  0.42747718434E+02  0.27203832780E+02 -0.26125112380E+02  0.57201638491E+02  0.47000000000E+01 0. -1.
        -13    1    6    6    0    0 -0.96059683992E+01 -0.17849216032E+02 -0.41645141765E+02  0.46316163210E+02  0.00000000000E+00 0.  1.
         14    1    6    6    0    0 -0.69236391083E+02 -0.41752339231E+02  0.17009551471E+02  0.82621186887E+02  0.00000000000E+00 0. -1.
         -5    1    3    3    0  503  0.77374531938E+02  0.27897936445E+00 -0.47612666955E+03  0.48239567938E+03  0.47000000000E+01 0.  1.
         11    1    4    4    0    0 -0.11723887480E+02  0.39424706411E+02 -0.30473741144E+03  0.30750064544E+03  0.00000000000E+00 0. -1.
        -12    1    4    4    0    0 -0.29556003410E+02 -0.73059632920E+01 -0.39579019622E+02  0.49934289135E+02  0.00000000000E+00 0.  1.
</event>
<event>
12    1  0.8488291E-002  0.1729905E+03  0.7818608E-02  0.1175045E+00
         21   -1    0    0  501  502  0.00000000000E+00  0.00000000000E+00  0.27789142492E+02  0.27789142492E+02  0.00000000000E+00 0.  1.
         21   -1    0    0  502  503 -0.00000000000E+00 -0.00000000000E+00 -0.19901823783E+04  0.19901823783E+04  0.00000000000E+00 0.  1.
         -6    2    1    2    0  503  0.85348457734E+01 -0.52616490778E+00 -0.16689215073E+04  0.16778631372E+04  0.17277901802E+03 0.  0.
        -24    2    3    3    0    0  0.55452514717E+02 -0.89826116827E+00 -0.14784632068E+04  0.14816544209E+04  0.79815918129E+02 0.  0.
          6    2    1    2  501    0 -0.85348457734E+01  0.52616490778E+00 -0.29347172856E+03  0.34010838369E+03  0.17168266292E+03 0.  0.
         24    2    5    5    0    0 -0.62964733473E+01  0.55447268488E+02 -0.25584635518E+03  0.27333191589E+03  0.78351347307E+02 0.  0.
          5    1    5    5  501    0 -0.22383724261E+01 -0.54921103581E+02 -0.37625373383E+02  0.66776467800E+02  0.47000000000E+01 0. -1.
        -13    1    6    6    0    0 -0.42130116426E+02  0.25479100129E+02 -0.12155310824E+03  0.13114606124E+03  0.00000000000E+00 0.  1.
         14    1    6    6    0    0  0.35833643079E+02  0.29968168359E+02 -0.13429324694E+03  0.14218585465E+03  0.00000000000E+00 0. -1.
         -5    1    3    3    0  503 -0.46917668944E+02  0.37209626049E+00 -0.19045830046E+03  0.19620871625E+03  0.47000000000E+01 0.  1.
         13    1    4    4    0    0  0.86094147296E+01  0.17606628117E+00 -0.13962809643E+02  0.16404666240E+02  0.00000000000E+00 0. -1.
        -14    1    4    4    0    0  0.46843099987E+02 -0.10743274494E+01 -0.14645003972E+04  0.14652497547E+04  0.00000000000E+00 0.  1.
</event>
<event>
12    1  0.8488291E-002  0.2024390E+03  0.7818608E-02  0.1149545E+00
         21   -1    0    0  503  502  0.00000000000E+00  0.00000000000E+00  0.25926179592E+02  0.25926179592E+02  0.00000000000E+00 0. -1.
         21   -1    0    0  501  503 -0.00000000000E+00 -0.00000000000E+00 -0.15899160617E+04  0.15899160617E+04  0.00000000000E+00 0.  1.
          6    2    1    2  501    0 -0.75255384915E+01 -0.89429531289E+02 -0.94266464247E+03  0.96236952207E+03  0.17170962130E+03 0.  0.
         24    2    3    3    0    0  0.45996818448E+02 -0.88389509714E+02 -0.48697632475E+03  0.50352351605E+03  0.80383938748E+02 0.  0.
         -6    2    1    2    0  502  0.75255384915E+01  0.89429531289E+02 -0.62132523961E+03  0.65347271920E+03  0.18145871861E+03 0.  0.
        -24    2    5    5    0    0 -0.45962146305E+02  0.62557513585E+02 -0.54601872645E+03  0.55715969471E+03  0.79148685285E+02 0.  0.
          5    1    3    3  501    0 -0.53522356940E+02 -0.10400215744E+01 -0.45568831772E+03  0.45884600602E+03  0.47000000000E+01 0. -1.
        -13    1    4    4    0    0  0.59074714152E+02 -0.59984420651E+02 -0.43329296761E+03  0.44139636196E+03  0.00000000000E+00 0.  1.
         14    1    4    4    0    0 -0.13077895704E+02 -0.28405089063E+02 -0.53683357146E+02  0.62127154089E+02  0.00000000000E+00 0. -1.
         -5    1    5    5    0  502  0.53487684796E+02  0.26872017703E+02 -0.75306513167E+02  0.96313024486E+02  0.47000000000E+01 0.  1.
         11    1    6    6    0    0 -0.41011514941E+02  0.78186802720E+02 -0.37039234848E+03  0.38076976284E+03  0.00000000000E+00 0. -1.
        -12    1    6    6    0    0 -0.49506313640E+01 -0.15629289135E+02 -0.17562637796E+03  0.17638993187E+03  0.00000000000E+00 0.  1.
</event>
<event>
12    1  0.8488291E-002  0.6081689E+03  0.7818608E-02  0.9888828E-01
         21   -1    0    0  501  502  0.00000000000E+00  0.00000000000E+00  0.16068432680E+04  0.16068432680E+04  0.00000000000E+00 0. -1.
         21   -1    0    0  502  503 -0.00000000000E+00 -0.00000000000E+00 -0.26019729883E+03  0.26019729883E+03  0.00000000000E+00 0.  1.
         -6    2    1    2    0  503  0.53494264773E+03 -0.23105455936E+03  0.35517070490E+03  0.70390145588E+03  0.17257225795E+03 0.  0.
        -24    2    3    3    0    0  0.51417834676E+03 -0.17860944377E+03  0.33259640470E+03  0.64296431307E+03  0.80635189537E+02 0.  0.
          6    2    1    2  501    0 -0.53494264773E+03  0.23105455936E+03  0.99147526431E+03  0.11631391110E+04  0.17412508720E+03 0.  0.
         24    2    5    5    0    0 -0.25240852864E+03  0.14685899932E+03  0.39200619235E+03  0.49508246742E+03  0.78486710255E+02 0.  0.
          5    1    5    5  501    0 -0.28253411909E+03  0.84195560044E+02  0.59946907195E+03  0.66805664356E+03  0.47000000000E+01 0. -1.
        -13    1    6    6    0    0 -0.17201773004E+03  0.87370078878E+02  0.19594203047E+03  0.27498528949E+03  0.00000000000E+00 0.  1.
         14    1    6    6    0    0 -0.80390798599E+02  0.59488920438E+02  0.19606416189E+03  0.22009717792E+03  0.00000000000E+00 0. -1.
         -5    1    3    3    0  503  0.20764300978E+02 -0.52445115592E+02  0.22574300201E+02  0.60937142812E+02  0.47000000000E+01 0.  1.
         11    1    4    4    0    0  0.74288853792E+02  0.11840274915E+01  0.56748838582E+02  0.93491531163E+02  0.00000000000E+00 0. -1.
        -12    1    4    4    0    0  0.43988949296E+03 -0.17979347126E+03  0.27584756612E+03  0.54947278191E+03  0.00000000000E+00 0.  1.
</event>
<event>
12    1  0.8488291E-002  0.2837053E+03  0.7818608E-02  0.1093783E+00
         21   -1    0    0  503  502  0.00000000000E+00  0.00000000000E+00  0.80836395715E+03  0.80836395715E+03  0.00000000000E+00 0. -1.
         21   -1    0    0  501  503 -0.00000000000E+00 -0.00000000000E+00 -0.10019176206E+03  0.10019176206E+03  0.00000000000E+00 0.  1.
          6    2    1    2  501    0 -0.22231019257E+03 -0.37059931673E+02  0.39723829184E+03  0.48814643139E+03  0.17231778122E+03 0.  0.
         24    2    3    3    0    0 -0.12667591991E+03 -0.24240138798E+02  0.11760644439E+03  0.19229795446E+03  0.80702258424E+02 0.  0.
         -6    2    1    2    0  502  0.22231019257E+03  0.37059931673E+02  0.31093390326E+03  0.42040928781E+03  0.17108131642E+03 0.  0.
        -24    2    5    5    0    0  0.35133073317E+02  0.18630770069E+02  0.62960140086E+02  0.10914093865E+03  0.79789265041E+02 0.  0.
          5    1    3    3  501    0 -0.95634272661E+02 -0.12819792875E+02  0.27963184745E+03  0.29584847693E+03  0.47000000000E+01 0. -1.
        -13    1    4    4    0    0 -0.39677355587E+02 -0.47573967365E+02  0.44180341565E+02  0.76088616087E+02  0.00000000000E+00 0.  1.
         14    1    4    4    0    0 -0.86998564320E+02  0.23333828567E+02  0.73426102825E+02  0.11620933837E+03  0.00000000000E+00 0. -1.
         -5    1    5    5    0  502  0.18717711925E+03  0.18429161604E+02  0.24797376317E+03  0.31126834916E+03  0.47000000000E+01 0.  1.
         13    1    6    6    0    0  0.36313612748E+02  0.23410106135E+01  0.78545572691E+02  0.86565384484E+02  0.00000000000E+00 0. -1.
        -14    1    6    6    0    0 -0.11805394310E+01  0.16289759455E+02 -0.15585432605E+02  0.22575554167E+02  0.00000000000E+00 0.  1.
</event>
<event>
12    1  0.8488291E-002  0.2451662E+03  0.7818608E-02  0.1117428E+00
         21   -1    0    0  503  502  0.00000000000E+00  0.00000000000E+00  0.23232763036E+03  0.23232763036E+03  0.00000000000E+00 0. -1.
         21   -1    0    0  501  503 -0.00000000000E+00 -0.00000000000E+00 -0.36987996733E+03  0.36987996733E+03  0.00000000000E+00 0.  1.
          6    2    1    2  501    0 -0.17680926275E+03 -0.20306781556E+02 -0.23803877243E+03  0.33724724392E+03  0.15937178415E+03 0.  0.
         24    2    3    3    0    0 -0.88171658313E+02  0.20758093926E+02 -0.20085430716E+03  0.23261587493E+03  0.74582523237E+02 0.  0.
         -6    2    1    2    0  502  0.17680926275E+03  0.20306781556E+02  0.10048643546E+03  0.26496035377E+03  0.16861964472E+03 0.  0.
        -24    2    5    5    0    0  0.15625652100E+03 -0.28526608021E+02  0.36032297936E+02  0.18139277049E+03  0.79844492420E+02 0.  0.
          5    1    3    3  501    0 -0.88637604442E+02 -0.41064875482E+02 -0.37184465265E+02  0.10463136899E+03  0.47000000000E+01 0. -1.
        -11    1    4    4    0    0 -0.53597279754E+02  0.21663792108E+02 -0.45807967033E+02  0.73758783404E+02  0.00000000000E+00 0.  1.
         12    1    4    4    0    0 -0.34574378560E+02 -0.90569818236E+00 -0.15504634013E+03  0.15885709153E+03  0.00000000000E+00 0. -1.
         -5    1    5    5    0  502  0.20552741753E+02  0.48833389578E+02  0.64454137525E+02  0.83567583280E+02  0.47000000000E+01 0.  1.
         13    1    6    6    0    0  0.14385417688E+03 -0.12094278904E+02  0.53937032741E+02  0.15410872555E+03  0.00000000000E+00 0. -1.
        -14    1    6    6    0    0  0.12402344119E+02 -0.16432329118E+02 -0.17904734805E+02  0.27284044941E+02  0.00000000000E+00 0.  1.
</event>
<event>
12    1  0.8488291E-002  0.2246857E+03  0.7818608E-02  0.1130491E+00
         21   -1    0    0  501  502  0.00000000000E+00  0.00000000000E+00  0.21967751726E+03  0.21967751726E+03  0.00000000000E+00 0. -1.
         21   -1    0    0  502  503 -0.00000000000E+00 -0.00000000000E+00 -0.25304466437E+03  0.25304466437E+03  0.00000000000E+00 0. -1.
         -6    2    1    2    0  503 -0.13602751808E+03  0.46546341879E+02 -0.88762538549E+02  0.24130844211E+03  0.17228153808E+03 0.  0.
        -24    2    3    3    0    0 -0.14480963315E+03  0.84163545329E+02 -0.76265633326E+02  0.20043739880E+03  0.79406371265E+02 0.  0.
          6    2    1    2  501    0  0.13602751808E+03 -0.46546341879E+02  0.55395391443E+02  0.23141373952E+03  0.17266621507E+03 0.  0.
         24    2    5    5    0    0  0.15064499385E+02  0.26202849333E+02  0.11321814797E+01  0.80115746572E+02  0.74187078113E+02 0.  0.
          5    1    5    5  501    0  0.12096301870E+03 -0.72749191212E+02  0.54263209963E+02  0.15129799295E+03  0.47000000000E+01 0. -1.
        -11    1    6    6    0    0  0.21968405191E+02  0.29841644052E+02 -0.30214211670E+02  0.47812478844E+02  0.00000000000E+00 0.  1.
         12    1    6    6    0    0 -0.69039058062E+01 -0.36387947189E+01  0.31346393150E+02  0.32303267728E+02  0.00000000000E+00 0. -1.
         -5    1    3    3    0  503  0.87821150642E+01 -0.37617203450E+02 -0.12496905223E+02  0.40871043302E+02  0.47000000000E+01 0.  1.
         11    1    4    4    0    0 -0.15187892483E+03  0.75524659401E+02 -0.58441243933E+02  0.17940613417E+03  0.00000000000E+00 0. -1.
        -12    1    4    4    0    0  0.70692916798E+01  0.86388859287E+01 -0.17824389393E+02  0.21031264636E+02  0.00000000000E+00 0.  1.
</event>
<event>
12    1  0.8488291E-002  0.1995146E+03  0.7818608E-02  0.1152273E+00
         21   -1    0    0  503  502  0.00000000000E+00  0.00000000000E+00  0.17711019659E+03  0.17711019659E+03  0.00000000000E+00 0.  1.
         21   -1    0    0  501  503 -0.00000000000E+00 -0.00000000000E+00 -0.27780243992E+03  0.27780243992E+03  0.00000000000E+00 0. -1.
          6    2    1    2  501    0  0.34631728049E+02 -0.80377471414E+02 -0.15845483752E+03  0.24720468664E+03  0.16835179555E+03 0.  0.
         24    2    3    3    0    0 -0.21001904788E+02 -0.29717448109E+02 -0.19263249865E+02  0.88907727925E+02  0.78799140621E+02 0.  0.
         -6    2    1    2    0  502 -0.34631728049E+02  0.80377471414E+02  0.57762594192E+02  0.20770794986E+03  0.17929355998E+03 0.  0.
        -24    2    5    5    0    0  0.29368978453E+02 -0.99402784846E+01  0.51197480754E+02  0.96718864391E+02  0.75973749820E+02 0.  0.
          5    1    3    3  501    0  0.55633632838E+02 -0.50660023305E+02 -0.13919158766E+03  0.15829695871E+03  0.47000000000E+01 0. -1.
        -11    1    4    4    0    0  0.15227207986E+01 -0.68407083655E+01  0.29612715522E+02  0.30430689939E+02  0.00000000000E+00 0.  1.
         12    1    4    4    0    0 -0.22524625587E+02 -0.22876739744E+02 -0.48875965387E+02  0.58477037986E+02  0.00000000000E+00 0. -1.
         -5    1    5    5    0  502 -0.64000706503E+02  0.90317749899E+02  0.65651134390E+01  0.11098908547E+03  0.47000000000E+01 0.  1.
         13    1    6    6    0    0  0.16562311397E+02 -0.95602964225E+01 -0.18049679389E+02  0.26296394288E+02  0.00000000000E+00 0. -1.
        -14    1    6    6    0    0  0.12806667056E+02 -0.37998206213E+00  0.69247160143E+02  0.70422470102E+02  0.00000000000E+00 0.  1.
</event>
<event>
12    1  0.8488291E-002  0.1874936E+03  0.7818608E-02  0.1161445E+00
         21   -1    0    0  501  502  0.00000000000E+00  0.00000000000E+00  0.82457950715E+03  0.82457950715E+03  0.00000000000E+00 0.  1.
         21   -1    0    0  502  503 -0.00000000000E+00 -0.00000000000E+00 -0.48189883827E+02  0.48189883827E+02  0.00000000000E+00 0.  1.
         -6    2    1    2    0  503 -0.18337512296E+02 -0.70010104805E+02  0.23385666458E+03  0.29973787290E+03  0.17296292594E+03 0.  0.
        -24    2    3    3    0    0 -0.18629801032E+02  0.48463039209E+00  0.20914503589E+03  0.22488904047E+03  0.80536514300E+02 0.  0.
          6    2    1    2  501    0  0.18337512296E+02  0.70010104805E+02  0.54253295874E+03  0.57303151807E+03  0.16966269553E+03 0.  0.
         24    2    5    5    0    0  0.24737625389E+01  0.11283643830E+03  0.41957943517E+03  0.44178589965E+03  0.79935582839E+02 0.  0.
          5    1    5    5  501    0  0.15863749757E+02 -0.42826333495E+02  0.12295352357E+03  0.13124561842E+03  0.47000000000E+01 0. -1.
        -13    1    6    6    0    0 -0.51135363879E+01  0.67306770763E+02  0.36074653871E+03  0.36700737709E+03  0.00000000000E+00 0.  1.
         14    1    6    6    0    0  0.75872989269E+01  0.45529667537E+02  0.58832896460E+02  0.74778522565E+02  0.00000000000E+00 0. -1.
         -5    1    3    3    0  503  0.29228873597E+00 -0.70494735197E+02  0.24711628696E+02  0.74848832429E+02  0.47000000000E+01 0.  1.
         11    1    4    4    0    0  0.30274166124E+02  0.11561584969E+02  0.87961013224E+02  0.93740787434E+02  0.00000000000E+00 0. -1.
        -12    1    4    4    0    0 -0.48903967155E+02 -0.11076954577E+02  0.12118402266E+03  0.13114825304E+03  0.00000000000E+00 0.  1.
</event>
<event>
12    1  0.8488291E-002  0.2271558E+03  0.7818608E-02  0.1128768E+00
         21   -1    0    0  503  502  0.00000000000E+00  0.00000000000E+00  0.10147736702E+03  0.10147736702E+03  0.00000000000E+00 0. -1.
         21   -1    0    0  501  503 -0.00000000000E+00 -0.00000000000E+00 -0.68152705453E+03  0.68152705453E+03  0.00000000000E+00 0.  1.
          6    2    1    2  501    0 -0.29784024941E+02  0.14569048378E+03 -0.48778955164E+03  0.53782756751E+03  0.17090067430E+03 0.  0.
         24    2    3    3    0    0  0.47156928725E+02  0.10023596349E+03 -0.30052578269E+03  0.33028038509E+03  0.80612420965E+02 0.  0.
         -6    2    1    2    0  502  0.29784024941E+02 -0.14569048378E+03 -0.92260135864E+02  0.24517685403E+03  0.17171765162E+03 0.  0.
        -24    2    5    5    0    0  0.20029778639E+01 -0.14712662082E+03 -0.11990242458E+03  0.20567957322E+03  0.79229041043E+02 0.  0.
          5    1    3    3  501    0 -0.76940953667E+02  0.45454520291E+02 -0.18726376896E+03  0.20754718242E+03  0.47000000000E+01 0. -1.
        -11    1    4    4    0    0  0.24529398991E+02  0.93217033810E+02 -0.15276867384E+03  0.18063602773E+03  0.00000000000E+00 0.  1.
         12    1    4    4    0    0  0.22627529735E+02  0.70189296799E+01 -0.14775710885E+03  0.14964435736E+03  0.00000000000E+00 0. -1.
         -5    1    5    5    0  502  0.27781047077E+02  0.14361370424E+01  0.27642288713E+02  0.39497280813E+02  0.47000000000E+01 0.  1.
         11    1    6    6    0    0 -0.19525386333E+02 -0.59155458879E+02 -0.97136554995E+01  0.63047316594E+02  0.00000000000E+00 0. -1.
        -12    1    6    6    0    0  0.21528364196E+02 -0.87971161945E+02 -0.11018876908E+03  0.14263225662E+03  0.00000000000E+00 0.  1.
</event>
<event>
12    1  0.8488291E-002  0.2355371E+03  0.7818608E-02  0.1123058E+00
         21   -1    0    0  503  502  0.00000000000E+00  0.00000000000E+00  0.17922146636E+03  0.17922146636E+03  0.00000000000E+00 0.  1.
         21   -1    0    0  501  503 -0.00000000000E+00 -0.00000000000E+00 -0.83092695582E+03  0.83092695582E+03  0.00000000000E+00 0.  1.
          6    2    1    2  501    0  0.69092265087E+02 -0.14405241560E+03 -0.72630324652E+03  0.76308047118E+03  0.17102795109E+03 0.  0.
         24    2    3    3    0    0  0.10130585868E+03 -0.15016242594E+03 -0.65865985351E+03  0.68776270132E+03  0.79831695034E+02 0.  0.
         -6    2    1    2    0  502 -0.69092265087E+02  0.14405241560E+03  0.74597757062E+02  0.24706795101E+03  0.17306908309E+03 0.  0.
        -24    2    5    5    0    0 -0.13253242346E+02  0.15278197736E+03  0.32514203819E+02  0.17644701103E+03  0.80983907138E+02 0.  0.
          5    1    3    3  501    0 -0.32213593596E+02  0.61100103389E+01 -0.67643393009E+02  0.75317769858E+02  0.47000000000E+01 0. -1.
        -13    1    4    4    0    0  0.37633536865E+02 -0.86062193101E+02 -0.46043532374E+03  0.46991879248E+03  0.00000000000E+00 0.  1.
         14    1    4    4    0    0  0.63672321817E+02 -0.64100232838E+02 -0.19822452977E+03  0.21784390884E+03  0.00000000000E+00 0. -1.
         -5    1    5    5    0  502 -0.55839022741E+02 -0.87295617561E+01  0.42083553243E+02  0.70620939973E+02  0.47000000000E+01 0.  1.
         13    1    6    6    0    0  0.49697825666E+01  0.23575974161E+02 -0.24218742713E+02  0.34162447146E+02  0.00000000000E+00 0. -1.
        -14    1    6    6    0    0 -0.18223024912E+02  0.12920600320E+03  0.56732946532E+02  0.14228456389E+03  0.00000000000E+00 0.  1.
</event>
<event>
12    1  0.8488291E-002  0.2588228E+03  0.7818608E-02  0.1108180E+00
         21   -1    0    0  501  502  0.00000000000E+00  0.00000000000E+00  0.15443202389E+04  0.15443202389E+04  0.00000000000E+00 0.  1.
         21   -1    0    0  502  503 -0.00000000000E+00 -0.00000000000E+00 -0.43465582693E+02  0.43465582693E+02  0.00000000000E+00 0. -1.
         -6    2    1    2    0  503  0.19083453847E+03  0.17658515562E+02  0.66665582625E+03  0.71435757084E+03  0.17072522981E+03 0.  0.
        -24    2    3    3    0    0  0.19029108588E+03  0.55709426308E+02  0.53429879793E+03  0.57655829618E+03  0.87350019373E+02 0.  0.
          6    2    1    2  501    0 -0.19083453847E+03 -0.17658515562E+02  0.83419882992E+03  0.87342825072E+03  0.17395280126E+03 0.  0.
         24    2    5    5    0    0 -0.11975003608E+03 -0.60455686982E+01  0.73480414263E+03  0.75058989809E+03  0.95244144401E+02 0.  0.
          5    1    5    5  501    0 -0.71084502394E+02 -0.11612946864E+02  0.99394687293E+02  0.12283835263E+03  0.47000000000E+01 0. -1.
        -13    1    6    6    0    0  0.69994908106E+01 -0.15067478410E+02  0.28859097945E+02  0.33299689359E+02  0.00000000000E+00 0.  1.
         14    1    6    6    0    0 -0.12674952689E+03  0.90219097113E+01  0.70594504469E+03  0.71729020873E+03  0.00000000000E+00 0. -1.
         -5    1    3    3    0  503  0.54345259387E+00 -0.38050910745E+02  0.13235702832E+03  0.13779927466E+03  0.47000000000E+01 0.  1.
         13    1    4    4    0    0  0.49997407289E+02  0.57393193612E+02  0.17497997055E+03  0.19081852505E+03  0.00000000000E+00 0. -1.
        -14    1    4    4    0    0  0.14029367859E+03 -0.16837673040E+01  0.35931882738E+03  0.38573977114E+03  0.00000000000E+00 0.  1.
</event>
<event>
12    1  0.8488291E-002  0.1900577E+03  0.7818608E-02  0.1159139E+00
         21   -1    0    0  501  502  0.00000000000E+00  0.00000000000E+00  0.79992013614E+03  0.79992013614E+03  0.00000000000E+00 0. -1.
         21   -1    0    0  502  503 -0.00000000000E+00 -0.00000000000E+00 -0.45233245114E+02  0.45233245114E+02  0.00000000000E+00 0. -1.
         -6    2    1    2    0  503  0.15950336390E+02  0.77158694277E+02  0.43792438031E+03  0.47738839926E+03  0.17295676783E+03 0.  0.
        -24    2    3    3    0    0  0.70025774987E+02  0.78107733463E+02  0.27767117637E+03  0.30818960166E+03  0.82916350587E+02 0.  0.
          6    2    1    2  501    0 -0.15950336390E+02 -0.77158694277E+02  0.31676251071E+03  0.36776498200E+03  0.16942466307E+03 0.  0.
         24    2    5    5    0    0  0.38788737998E+02 -0.58995586876E+02  0.27804530336E+03  0.29814187606E+03  0.81205554451E+02 0.  0.
          5    1    5    5  501    0 -0.54739074388E+02 -0.18163107401E+02  0.38717207357E+02  0.69623105941E+02  0.47000000000E+01 0. -1.
        -13    1    6    6    0    0  0.33822513370E+02  0.43288998373E+01  0.16487865418E+03  0.16836767026E+03  0.00000000000E+00 0.  1.
         14    1    6    6    0    0  0.49662246278E+01 -0.63324486713E+02  0.11316664918E+03  0.12977420580E+03  0.00000000000E+00 0. -1.
         -5    1    3    3    0  503 -0.54075438597E+02 -0.94903918604E+00  0.16025320394E+03  0.16919879760E+03  0.47000000000E+01 0.  1.
         13    1    4    4    0    0  0.64065308603E+02  0.85359573781E+02  0.27899288591E+03  0.29870997806E+03  0.00000000000E+00 0. -1.
        -14    1    4    4    0    0  0.59604663835E+01 -0.72518403179E+01 -0.13217095407E+01  0.94796236009E+01  0.00000000000E+00 0.  1.
</event>
<event>
12    1  0.8488291E-002  0.1766259E+03  0.7818608E-02  0.1171272E+00
         21   -1    0    0  503  502  0.00000000000E+00  0.00000000000E+00  0.97577718860E+03  0.97577718860E+03  0.00000000000E+00 0.  1.
         21   -1    0    0  501  503 -0.00000000000E+00 -0.00000000000E+00 -0.66285365992E+02  0.66285365992E+02  0.00000000000E+00 0.  1.
          6    2    1    2  501    0 -0.12941391081E+02  0.35758972277E+02  0.79625790205E+02  0.19374465054E+03  0.17248344687E+03 0.  0.
         24    2    3    3    0    0  0.26982661980E+02 -0.11827851926E+02 -0.95666733638E+01  0.84952089174E+02  0.79103565577E+02 0.  0.
         -6    2    1    2    0  502  0.12941391081E+02 -0.35758972277E+02  0.82986603241E+03  0.84831790406E+03  0.17181225481E+03 0.  0.
        -24    2    5    5    0    0  0.26941779390E+01 -0.23738338848E+02  0.10990266583E+03  0.12816594772E+03  0.61458497153E+02 0.  0.
          5    1    3    3  501    0 -0.39924053061E+02  0.47586824203E+02  0.89192463568E+02  0.10879256136E+03  0.47000000000E+01 0. -1.
        -11    1    4    4    0    0  0.52657963145E+02  0.59231167364E+01 -0.31378789360E+01  0.53082866150E+02  0.00000000000E+00 0.  1.
         12    1    4    4    0    0 -0.25675301165E+02 -0.17750968663E+02 -0.64287944279E+01  0.31869223024E+02  0.00000000000E+00 0. -1.
         -5    1    5    5    0  502  0.10247213142E+02 -0.12020633428E+02  0.71996336658E+03  0.72015195634E+03  0.47000000000E+01 0.  1.
         11    1    6    6    0    0  0.81809480218E+01  0.11523184756E+02  0.17040569157E+01  0.14234307409E+02  0.00000000000E+00 0. -1.
        -12    1    6    6    0    0 -0.54867700829E+01 -0.35261523604E+02  0.10819860891E+03  0.11393164031E+03  0.00000000000E+00 0.  1.
</event>
<event>
12    1  0.8488291E-002  0.1907346E+03  0.7818608E-02  0.1158447E+00
         21   -1    0    0  503  502  0.00000000000E+00  0.00000000000E+00  0.98547958310E+02  0.98547958310E+02  0.00000000000E+00 0.  1.
         21   -1    0    0  501  503 -0.00000000000E+00 -0.00000000000E+00 -0.90462873117E+03  0.90462873117E+03  0.00000000000E+00 0.  1.
          6    2    1    2  501    0  0.76724035278E+02 -0.58696684407E+01 -0.78969852046E+03  0.81173984222E+03  0.17139657999E+03 0.  0.
         24    2    3    3    0    0  0.11201050215E+03 -0.22802841798E+02 -0.48447852565E+03  0.50398474099E+03  0.78834352560E+02 0.  0.
         -6    2    1    2    0  502 -0.76724035278E+02  0.58696684407E+01 -0.16382252405E+02  0.19143684727E+03  0.17452408917E+03 0.  0.
        -24    2    5    5    0    0  0.27693451725E+02  0.16844406929E+02 -0.22155773816E+02  0.86180588420E+02  0.76717365660E+02 0.  0.
          5    1    3    3  501    0 -0.35286466870E+02  0.16933173357E+02 -0.30521999481E+03  0.30775510123E+03  0.47000000000E+01 0. -1.
        -11    1    4    4    0    0  0.78952087220E+02 -0.33550047082E+02 -0.43583459473E+03  0.44419683891E+03  0.00000000000E+00 0.  1.
         12    1    4    4    0    0  0.33058414928E+02  0.10747205284E+02 -0.48643930921E+02  0.59787902074E+02  0.00000000000E+00 0. -1.
         -5    1    5    5    0  502 -0.10441748700E+03 -0.10974738488E+02  0.57735214109E+01  0.10525625885E+03  0.47000000000E+01 0.  1.
         11    1    6    6    0    0  0.12336810350E+02  0.38489594449E+02 -0.37828268238E+02  0.55359043058E+02  0.00000000000E+00 0. -1.
        -12    1    6    6    0    0  0.15356641375E+02 -0.21645187520E+02  0.15672494422E+02  0.30821545362E+02  0.00000000000E+00 0.  1.
</event>
<event>
12    1  0.8488291E-002  0.2025332E+03  0.7818608E-02  0.1148042E+00
         21   -1    0    0  501  502  0.00000000000E+00  0.00000000000E+00  0.36041576338E+02  0.36041576338E+02  0.00000000000E+00 0. -1.
         21   -1    0    0  502  503 -0.00000000000E+00 -0.00000000000E+00 -0.11463860509E+04  0.11463860509E+04  0.00000000000E+00 0. -1.
         -6    2    1    2    0  503  0.10387294822E+03 -0.16932875459E+02 -0.47504572840E+03  0.51562615309E+03  0.17066216344E+03 0.  0.
        -24    2    3    3    0    0  0.10929760437E+03 -0.28707782461E+02 -0.48128381426E+03  0.50049079566E+03  0.78018097730E+02 0.  0.
          6    2    1    2  501    0 -0.10387294822E+03  0.16932875459E+02 -0.63529874615E+03  0.66680147415E+03  0.17304160602E+03 0.  0.
         24    2    5    5    0    0 -0.10702409110E+03  0.47448071775E+02 -0.61119040426E+03  0.62750250397E+03  0.80623859023E+02 0.  0.
          5    1    5    5  501    0  0.31511428860E+01 -0.30515196316E+02 -0.24108341896E+02  0.39298970173E+02  0.47000000000E+01 0. -1.
        -11    1    6    6    0    0 -0.14762673151E+02  0.25931296597E+02 -0.31775378431E+03  0.31915174464E+03  0.00000000000E+00 0.  1.
         12    1    6    6    0    0 -0.92261417950E+02  0.21516775178E+02 -0.29343661995E+03  0.30835075934E+03  0.00000000000E+00 0. -1.
         -5    1    3    3    0  503 -0.54246561566E+01  0.11774907002E+02  0.62380858583E+01  0.15135357429E+02  0.47000000000E+01 0.  1.
         13    1    4    4    0    0  0.63346728974E+02 -0.50091362457E+02 -0.22041041260E+03  0.23473964864E+03  0.00000000000E+00 0. -1.
        -14    1    4    4    0    0  0.45950875398E+02  0.21383579996E+02 -0.26087340166E+03  0.26575114701E+03  0.00000000000E+00 0.  1.
</event>
<event>
12    1  0.8488291E-002  0.1836101E+03  0.7818608E-02  0.1164419E+00
         21   -1    0    0  503  502  0.00000000000E+00  0.00000000000E+00  0.21412382626E+03  0.21412382626E+03  0.00000000000E+00 0.  1.
         21   -1    0    0  501  503 -0.00000000000E+00 -0.00000000000E+00 -0.22603327885E+03  0.22603327885E+03  0.00000000000E+00 0.  1.
          6    2    1    2  501    0  0.64073770259E+02 -0.20085405995E+01 -0.12739286756E+03  0.22324910074E+03  0.17176069401E+03 0.  0.
         24    2    3    3    0    0  0.10873635754E+03  0.46187464987E+01 -0.11127891340E+03  0.17507839225E+03  0.80153094740E+02 0.  0.
         -6    2    1    2    0  502 -0.64073770259E+02  0.20085405995E+01  0.11548341497E+03  0.21690800437E+03  0.17205574956E+03 0.  0.
        -24    2    5    5    0    0  0.11652985161E+02  0.48960456895E+02  0.44722610391E+02  0.10302997578E+03  0.77988112085E+02 0.  0.
          5    1    3    3  501    0 -0.44662587286E+02 -0.66272870982E+01 -0.16113954162E+02  0.48170708486E+02  0.47000000000E+01 0. -1.
        -13    1    4    4    0    0  0.80697968874E+02 -0.97466416920E+01 -0.27888863132E+02  0.85935719532E+02  0.00000000000E+00 0.  1.
         14    1    4    4    0    0  0.28038388671E+02  0.14365388191E+02 -0.83390050264E+02  0.89142672723E+02  0.00000000000E+00 0. -1.
         -5    1    5    5    0  502 -0.75726755420E+02 -0.46951916295E+02  0.70760804579E+02  0.11387802859E+03  0.47000000000E+01 0.  1.
         11    1    6    6    0    0  0.34376794456E+02  0.85192809956E+01 -0.41363779301E+01  0.35657422343E+02  0.00000000000E+00 0. -1.
        -12    1    6    6    0    0 -0.22723809294E+02  0.40441175899E+02  0.48858988321E+02  0.67372553438E+02  0.00000000000E+00 0.  1.
</event>
<event>
12    1  0.8488291E-002  0.2231335E+03  0.7818608E-02  0.1131791E+00
         21   -1    0    0  501  502  0.00000000000E+00  0.00000000000E+00  0.48432022918E+02  0.48432022918E+02  0.00000000000E+00 0. -1.
         21   -1    0    0  502  503 -0.00000000000E+00 -0.00000000000E+00 -0.11106711343E+04  0.11106711343E+04  0.00000000000E+00 0. -1.
         -6    2    1    2    0  503 -0.12722627216E+03  0.55480227302E+02 -0.69582276825E+03  0.73072422166E+03  0.17471114261E+03 0.  0.
        -24    2    3    3    0    0 -0.13223355515E+03  0.26011785389E+02 -0.67843054864E+03  0.69582377389E+03  0.75765354130E+02 0.  0.
          6    2    1    2  501    0  0.12722627216E+03 -0.55480227302E+02 -0.36641634310E+03  0.42837893553E+03  0.17315598738E+03 0.  0.
         24    2    5    5    0    0  0.14778239066E+02  0.99118631371E+01 -0.20084674182E+03  0.21777013109E+03  0.82266487191E+02 0.  0.
          5    1    5    5  501    0  0.11244803310E+03 -0.65392090439E+02 -0.16556960128E+03  0.21060880444E+03  0.47000000000E+01 0. -1.
        -11    1    6    6    0    0 -0.12364891779E+02  0.40949218097E+02 -0.10900789711E+03  0.11710017354E+03  0.00000000000E+00 0.  1.
         12    1    6    6    0    0  0.27143130845E+02 -0.31037354960E+02 -0.91838844718E+02  0.10066995755E+03  0.00000000000E+00 0. -1.
         -5    1    3    3    0  503  0.50072829903E+01  0.29468441913E+02 -0.17392219609E+02  0.34900447772E+02  0.47000000000E+01 0.  1.
         11    1    4    4    0    0 -0.47737858741E+02  0.29075378317E+02 -0.13917328400E+03  0.14997827763E+03  0.00000000000E+00 0. -1.
        -12    1    4    4    0    0 -0.84495696413E+02 -0.30635929289E+01 -0.53925726464E+03  0.54584549626E+03  0.00000000000E+00 0.  1.
</event>
<event>
12    1  0.8488291E-002  0.1868206E+03  0.7818608E-02  0.1162775E+00
         21   -1    0    0  503  502  0.00000000000E+00  0.00000000000E+00  0.13104330557E+02  0.13104330557E+02  0.00000000000E+00 0. -1.
         21   -1    0    0  501  503 -0.00000000000E+00 -0.00000000000E+00 -0.25845639461E+04  0.25845639461E+04  0.00000000000E+00 0.  1.
          6    2    1    2  501    0  0.61696778389E+02 -0.35225347176E+02 -0.11998505021E+04  0.12133946363E+04  0.16624680034E+03 0.  0.
         24    2    3    3    0    0  0.65048318571E+02  0.31992014894E+02 -0.85104610887E+03  0.85812572227E+03  0.82737555166E+02 0.  0.
         -6    2    1    2    0  502 -0.61696778389E+02  0.35225347176E+02 -0.13716091135E+04  0.13842736403E+04  0.17278493447E+03 0.  0.
        -24    2    5    5    0    0  0.24743101001E+02  0.38613426297E+02 -0.91000965711E+03  0.91461474288E+03  0.79368344616E+02 0.  0.
          5    1    3    3  501    0 -0.33515401819E+01 -0.67217362070E+02 -0.34880439320E+03  0.35526891407E+03  0.47000000000E+01 0. -1.
        -13    1    4    4    0    0  0.65150606389E+01 -0.23370587699E+02 -0.10626125825E+03  0.10899580445E+03  0.00000000000E+00 0.  1.
         14    1    4    4    0    0  0.58533257932E+02  0.55362602593E+02 -0.74478485063E+03  0.74912991782E+03  0.00000000000E+00 0. -1.
         -5    1    5    5    0  502 -0.86439879390E+02 -0.33880791214E+01 -0.46159945637E+03  0.46965889745E+03  0.47000000000E+01 0.  1.
         11    1    6    6    0    0  0.91616606529E+01 -0.24008522540E+02 -0.19220404521E+03  0.19391425986E+03  0.00000000000E+00 0. -1.
        -12    1    6    6    0    0  0.15581440348E+02  0.62621948837E+02 -0.71780561190E+03  0.72070048302E+03  0.00000000000E+00 0.  1.
</event>
<event>
12    1  0.8488291E-002  0.1729319E+03  0.7818608E-02  0.1175150E+00
         21   -1    0    0  503  502  0.00000000000E+00  0.00000000000E+00  0.17070942723E+03  0.17070942723E+03  0.00000000000E+00 0.  1.
         21   -1    0    0  501  503 -0.00000000000E+00 -0.00000000000E+00 -0.21507198606E+03  0.21507198606E+03  0.00000000000E+00 0.  1.
          6    2    1    2  501    0 -0.23712388418E+01  0.78477030002E+01 -0.10664495475E+03  0.20317133949E+03  0.17273748175E+03 0.  0.
         24    2    3    3    0    0 -0.67009315994E+02 -0.46807676367E+01 -0.80051419502E+02  0.13200709488E+03  0.80656588811E+02 0.  0.
         -6    2    1    2    0  502  0.23712388418E+01 -0.78477030002E+01  0.62282395923E+02  0.18261007380E+03  0.17146466982E+03 0.  0.
        -24    2    5    5    0    0 -0.21276720953E+02 -0.68910740082E+02  0.39237417115E+02  0.11303219263E+03  0.77687275121E+02 0.  0.
          5    1    3    3  501    0  0.64638077152E+02  0.12528470637E+02 -0.26593535249E+02  0.71164244614E+02  0.47000000000E+01 0. -1.
        -13    1    4    4    0    0 -0.59449582789E+02  0.18655283242E+02 -0.86536686312E+02  0.10663428419E+03  0.00000000000E+00 0.  1.
         14    1    4    4    0    0 -0.75597332052E+01 -0.23336050879E+02  0.64852668099E+01  0.25372810691E+02  0.00000000000E+00 0. -1.
         -5    1    5    5    0  502  0.23647959795E+02  0.61063037082E+02  0.23044978809E+02  0.69577881172E+02  0.47000000000E+01 0.  1.
         11    1    6    6    0    0  0.25409775877E+02 -0.51638552796E+01  0.16791537285E+02  0.30891387730E+02  0.00000000000E+00 0. -1.
        -12    1    6    6    0    0 -0.46686496830E+02 -0.63746884802E+02  0.22445879830E+02  0.82140804900E+02  0.00000000000E+00 0.  1.
</event>
<event>
12    1  0.8488291E-002  0.2070823E+03  0.7818608E-02  0.1143919E+00
         21   -1    0    0  503  502  0.00000000000E+00  0.00000000000E+00  0.17936536406E+03  0.17936536406E+03  0.00000000000E+00 0. -1.
         21   -1    0    0  501  503 -0.00000000000E+00 -0.00000000000E+00 -0.26253040203E+03  0.26253040203E+03  0.00000000000E+00 0. -1.
          6    2    1    2  501    0  0.49898539404E+02  0.10362490144E+03 -0.10778085581E+03  0.23335557386E+03  0.17207593248E+03 0.  0.
         24    2    3    3    0    0  0.23977488516E+02  0.95193046834E+02 -0.14145269644E+03  0.18977943472E+03  0.79816867833E+02 0.  0.
         -6    2    1    2    0  502 -0.49898539404E+02 -0.10362490144E+03  0.24615817847E+02  0.20854019223E+03  0.17220652965E+03 0.  0.
        -24    2    5    5    0    0 -0.18147642858E+02  0.92019431828E+01 -0.18287033423E+02  0.83637186076E+02  0.79036387846E+02 0.  0.
          5    1    3    3  501    0  0.25921050887E+02  0.84318546043E+01  0.33671840630E+02  0.43576139143E+02  0.47000000000E+01 0. -1.
        -13    1    4    4    0    0  0.25663437517E+02  0.54241553455E+02 -0.22706272699E+02  0.64158654648E+02  0.00000000000E+00 0.  1.
         14    1    4    4    0    0 -0.16859490009E+01  0.40951493380E+02 -0.11874642374E+03  0.12562078007E+03  0.00000000000E+00 0. -1.
         -5    1    5    5    0  502 -0.31750896546E+02 -0.11282684462E+03  0.42902851269E+02  0.12490300615E+03  0.47000000000E+01 0.  1.
         11    1    6    6    0    0 -0.46201466925E+02  0.37342817721E+01  0.52004322498E+01  0.46642951257E+02  0.00000000000E+00 0. -1.
        -12    1    6    6    0    0  0.28053824067E+02  0.54676614106E+01 -0.23487465673E+02  0.36994234819E+02  0.00000000000E+00 0.  1.
</event>
<event>
12    1  0.8488291E-002  0.2375484E+03  0.7818608E-02  0.1121660E+00
         21   -1    0    0  503  502  0.00000000000E+00  0.00000000000E+00  0.23279043686E+03  0.23279043686E+03  0.00000000000E+00 0. -1.
         21   -1    0    0  501  503 -0.00000000000E+00 -0.00000000000E+00 -0.25326138062E+03  0.25326138062E+03  0.00000000000E+00 0.  1.
          6    2    1    2  501    0  0.15262060294E+03  0.51318501717E+02 -0.63600947015E+02  0.24591527884E+03  0.17464995519E+03 0.  0.
         24    2    3    3    0    0  0.92978118217E+01  0.24078093789E+02  0.95613359869E+01  0.82641668207E+02  0.77923181872E+02 0.  0.
         -6    2    1    2    0  502 -0.15262060294E+03 -0.51318501717E+02  0.43130003262E+02  0.24013653863E+03  0.17285462952E+03 0.  0.
        -24    2    5    5    0    0 -0.17638879261E+03 -0.39944436644E+02  0.10114340364E+02  0.19763453641E+03  0.79047744563E+02 0.  0.
          5    1    3    3  501    0  0.14332279111E+03  0.27240407928E+02 -0.73162283002E+02  0.16327361064E+03  0.47000000000E+01 0. -1.
        -11    1    4    4    0    0  0.14293057214E+02  0.49543528854E+02  0.19108019767E+02  0.54990627886E+02  0.00000000000E+00 0.  1.
         12    1    4    4    0    0 -0.49952453927E+01 -0.25465435066E+02 -0.95466837799E+01  0.27651040321E+02  0.00000000000E+00 0. -1.
         -5    1    5    5    0  502  0.23768189678E+02 -0.11374065073E+02  0.33015662898E+02  0.42502002229E+02  0.47000000000E+01 0.  1.
         11    1    6    6    0    0  0.11228977176E+01 -0.46770733851E+00 -0.14125499625E+02  0.14177778003E+02  0.00000000000E+00 0. -1.
        -12    1    6    6    0    0 -0.17751169033E+03 -0.39476729305E+02  0.24239839988E+02  0.18345675840E+03  0.00000000000E+00 0.  1.
</event>
<event>
12    1  0.8488291E-002  0.2068332E+03  0.7818608E-02  0.1144386E+00
         21   -1    0    0  503  502  0.00000000000E+00  0.00000000000E+00  0.12540118675E+04  0.12540118675E+04  0.00000000000E+00 0.  1.
         21   -1    0    0  501  503 -0.00000000000E+00 -0.00000000000E+00 -0.34126109799E+02  0.34126109799E+02  0.00000000000E+00 0.  1.
          6    2    1    2  501    0 -0.11351886356E+03 -0.17347679587E+02  0.55744395751E+03  0.59457861838E+03  0.17202468804E+03 0.  0.
         24    2    3    3    0    0 -0.29807050962E+02 -0.25920412831E+02  0.12030301861E+03  0.14938714296E+03  0.79267736853E+02 0.  0.
         -6    2    1    2    0  502  0.11351886356E+03  0.17347679587E+02  0.66244180020E+03  0.69355935894E+03  0.17031726671E+03 0.  0.
        -24    2    5    5    0    0  0.12371725921E+03 -0.34859895615E+02  0.50657250010E+03  0.52879599257E+03  0.80550179075E+02 0.  0.
          5    1    3    3  501    0 -0.83711812598E+02  0.85727332440E+01  0.43714093890E+03  0.44519147542E+03  0.47000000000E+01 0. -1.
        -11    1    4    4    0    0  0.11213954552E+02 -0.89897029968E+00  0.93879276093E+02  0.94550935500E+02  0.00000000000E+00 0.  1.
         12    1    4    4    0    0 -0.41021005514E+02 -0.25021442532E+02  0.26423742521E+02  0.54836207460E+02  0.00000000000E+00 0. -1.
         -5    1    5    5    0  502 -0.10198395650E+02  0.52207575202E+02  0.15586930011E+03  0.16476336637E+03  0.47000000000E+01 0.  1.
         13    1    6    6    0    0  0.50752553363E+02 -0.54339803332E+02  0.21060007390E+03  0.22334060765E+03  0.00000000000E+00 0. -1.
        -14    1    6    6    0    0  0.72964705846E+02  0.19479907717E+02  0.29597242620E+03  0.30545538491E+03  0.00000000000E+00 0.  1.
</event>
<event>
12    1  0.8488291E-002  0.3026576E+03  0.7818608E-02  0.1084011E+00
         21   -1    0    0  503  502  0.00000000000E+00  0.00000000000E+00  0.95172264557E+02  0.95172264557E+02  0.00000000000E+00 0.  1.
         21   -1    0    0  501  503 -0.00000000000E+00 -0.00000000000E+00 -0.12390064064E+04  0.12390064064E+04  0.00000000000E+00 0.  1.
          6    2    1    2  501    0 -0.81715686143E+02  0.23485590500E+03 -0.88785611055E+03  0.93778699804E+03  0.17123443340E+03 0.  0.
         24    2    3    3    0    0 -0.11569692422E+03  0.13000088107E+03 -0.58439212549E+03  0.61489106928E+03  0.79314963222E+02 0.  0.
         -6    2    1    2    0  502  0.81715686143E+02 -0.23485590500E+03 -0.25597803124E+03  0.39639167286E+03  0.17253074035E+03 0.  0.
        -24    2    5    5    0    0  0.13405208160E+01 -0.12389369243E+03 -0.62870833002E+02  0.15956840578E+03  0.78472227330E+02 0.  0.
          5    1    3    3  501    0  0.33981238073E+02  0.10485502393E+03 -0.30346398506E+03  0.32289592877E+03  0.47000000000E+01 0. -1.
        -11    1    4    4    0    0 -0.59585183440E+02  0.11977147521E+03 -0.42825534393E+03  0.44866272406E+03  0.00000000000E+00 0.  1.
         12    1    4    4    0    0 -0.56111740776E+02  0.10229405867E+02 -0.15613678156E+03  0.16622834522E+03  0.00000000000E+00 0. -1.
         -5    1    5    5    0  502  0.80375165327E+02 -0.11096221257E+03 -0.19310719824E+03  0.23682326708E+03  0.47000000000E+01 0.  1.
         13    1    6    6    0    0 -0.19979980498E+02 -0.14911642490E+02 -0.38516596214E+02  0.45881204064E+02  0.00000000000E+00 0. -1.
        -14    1    6    6    0    0  0.21320501314E+02 -0.10898204994E+03 -0.24354236788E+02  0.11368720172E+03  0.00000000000E+00 0.  1.
</event>
<event>
12    1  0.8488291E-002  0.1981159E+03  0.7818608E-02  0.1151433E+00
         21   -1    0    0  501  502  0.00000000000E+00  0.00000000000E+00  0.51567085294E+03  0.51567085294E+03  0.00000000000E+00 0. -1.
         21   -1    0    0  502  503 -0.00000000000E+00 -0.00000000000E+00 -0.98956809846E+02  0.98956809846E+02  0.00000000000E+00 0.  1.
         -6    2    1    2    0  503 -0.95535991551E+02 -0.18310595595E+02  0.60340339623E+02  0.20710112484E+03  0.17259060151E+03 0.  0.
        -24    2    3    3    0    0 -0.27652135596E+02 -0.16441816538E-01  0.95063381786E+02  0.12854748954E+03  0.81992497440E+02 0.  0.
          6    2    1    2  501    0  0.95535991551E+02  0.18310595595E+02  0.35637370347E+03  0.40752653795E+03  0.17208503425E+03 0.  0.
         24    2    5    5    0    0  0.10796074178E+03 -0.37905270702E+02  0.23533191411E+03  0.27340792324E+03  0.79236679487E+02 0.  0.
          5    1    5    5  501    0 -0.12424750225E+02  0.56215866297E+02  0.12104178936E+03  0.13411861471E+03  0.47000000000E+01 0. -1.
        -11    1    6    6    0    0  0.33127871320E+02  0.15800516010E+02  0.26821991243E+02  0.45459117663E+02  0.00000000000E+00 0.  1.
         12    1    6    6    0    0  0.74832870456E+02 -0.53705786712E+02  0.20850992287E+03  0.22794880557E+03  0.00000000000E+00 0. -1.
         -5    1    3    3    0  503 -0.67883855956E+02 -0.18294153779E+02 -0.34723042162E+02  0.78553635300E+02  0.47000000000E+01 0.  1.
         11    1    4    4    0    0 -0.39058471611E+02  0.29925074247E+02  0.34705570235E+02  0.60212547518E+02  0.00000000000E+00 0. -1.
        -12    1    4    4    0    0  0.11406336015E+02 -0.29941516064E+02  0.60357811551E+02  0.68334942019E+02  0.00000000000E+00 0.  1.
</event>
<event>
12    1  0.8488291E-002  0.2841709E+03  0.7818608E-02  0.1093483E+00
         21   -1    0    0  501  502  0.00000000000E+00  0.00000000000E+00  0.36377459627E+03  0.36377459627E+03  0.00000000000E+00 0.  1.
         21   -1    0    0  502  503 -0.00000000000E+00 -0.00000000000E+00 -0.50764379295E+03  0.50764379295E+03  0.00000000000E+00 0. -1.
         -6    2    1    2    0  503 -0.22039006943E+03  0.48903026783E+02 -0.39896769658E+03  0.48982478491E+03  0.17259724294E+03 0.  0.
        -24    2    3    3    0    0 -0.13222396105E+03 -0.25697481794E+02 -0.29634565416E+03  0.33525482620E+03  0.80196728765E+02 0.  0.
          6    2    1    2  501    0  0.22039006943E+03 -0.48903026783E+02  0.25509849991E+03  0.38159360430E+03  0.17197425813E+03 0.  0.
         24    2    5    5    0    0  0.40516360306E+02  0.62682512295E+01  0.44361469099E+02  0.99050497320E+02  0.78499647469E+02 0.  0.
          5    1    5    5  501    0  0.17987370912E+03 -0.55171278013E+02  0.21073703081E+03  0.28254310698E+03  0.47000000000E+01 0. -1.
        -13    1    6    6    0    0 -0.79418909195E+01  0.14353349508E+02  0.47071247887E+02  0.49847714603E+02  0.00000000000E+00 0.  1.
         14    1    6    6    0    0  0.48458251226E+02 -0.80850982781E+01 -0.27097787886E+01  0.49202782717E+02  0.00000000000E+00 0. -1.
         -5    1    3    3    0  503 -0.88166108379E+02  0.74600508577E+02 -0.10262204242E+03  0.15456995872E+03  0.47000000000E+01 0.  1.
         13    1    4    4    0    0 -0.87977769877E+02  0.11812570483E+02 -0.23313506247E+03  0.24946258671E+03  0.00000000000E+00 0. -1.
        -14    1    4    4    0    0 -0.44246191172E+02 -0.37510052277E+02 -0.63210591684E+02  0.85792239487E+02  0.00000000000E+00 0.  1.
</event>
<event>
12    1  0.8488291E-002  0.2822513E+03  0.7818608E-02  0.1096454E+00
         21   -1    0    0  501  502  0.00000000000E+00  0.00000000000E+00  0.25590927731E+03  0.25590927731E+03  0.00000000000E+00 0.  1.
         21   -1    0    0  502  503 -0.00000000000E+00 -0.00000000000E+00 -0.30465882507E+03  0.30465882507E+03  0.00000000000E+00 0. -1.
         -6    2    1    2    0  503 -0.90515071903E+02  0.20315755862E+03  0.24223834643E+02  0.26903613412E+03  0.14942448070E+03 0.  0.
        -24    2    3    3    0    0  0.17351856674E+01  0.10361735721E+03  0.26110782402E+02  0.13322739990E+03  0.79549981408E+02 0.  0.
          6    2    1    2  501    0  0.90515071903E+02 -0.20315755862E+03 -0.72973382401E+02  0.29153196827E+03  0.17378090262E+03 0.  0.
         24    2    5    5    0    0  0.11127509793E+03 -0.21591095611E+03 -0.75766033091E+02  0.26656165137E+03  0.79466557888E+02 0.  0.
          5    1    5    5  501    0 -0.20760026024E+02  0.12753397488E+02  0.27926506898E+01  0.24970316896E+02  0.47000000000E+01 0. -1.
        -11    1    6    6    0    0  0.91206660789E+02 -0.94911737244E+02 -0.52539612092E+02  0.14172968524E+03  0.00000000000E+00 0.  1.
         12    1    6    6    0    0  0.20068437138E+02 -0.12099921887E+03 -0.23226421000E+02  0.12483196613E+03  0.00000000000E+00 0. -1.
         -5    1    3    3    0  503 -0.92250257570E+02  0.99540201415E+02 -0.18869477592E+01  0.13580873422E+03  0.47000000000E+01 0.  1.
         11    1    4    4    0    0  0.15933793668E+01  0.11240692549E+03  0.75276891372E+01  0.11266996876E+03  0.00000000000E+00 0. -1.
        -12    1    4    4    0    0  0.14180630059E+00 -0.87895682860E+01  0.18583093265E+02  0.20557431138E+02  0.00000000000E+00 0.  1.
</event>
<event>
12    1  0.8488291E-002  0.1922657E+03  0.7818608E-02  0.1156831E+00
         21   -1    0    0  503  502  0.00000000000E+00  0.00000000000E+00  0.60944430949E+03  0.60944430949E+03  0.00000000000E+00 0.  1.
         21   -1    0    0  501  503 -0.00000000000E+00 -0.00000000000E+00 -0.63314401236E+02  0.63314401236E+02  0.00000000000E+00 0.  1.
          6    2    1    2  501    0  0.67883318651E+02  0.45965476415E+02  0.35012629071E+03  0.39944275537E+03  0.17391125725E+03 0.  0.
         24    2    3    3    0    0  0.59984653747E+02  0.43886722948E+02  0.36536692629E+03  0.38152413109E+03  0.80891709364E+02 0.  0.
         -6    2    1    2    0  502 -0.67883318651E+02 -0.45965476415E+02  0.19600361754E+03  0.27331595535E+03  0.17193959226E+03 0.  0.
        -24    2    5    5    0    0 -0.22185025965E+02  0.38051052376E+02  0.13541696546E+03  0.16000248097E+03  0.72958765207E+02 0.  0.
          5    1    3    3  501    0  0.78986649039E+01  0.20787534677E+01 -0.15240635579E+02  0.17918624280E+02  0.47000000000E+01 0. -1.
        -13    1    4    4    0    0  0.59448613596E+02  0.54015603403E+02  0.36204910131E+03  0.37085222775E+03  0.00000000000E+00 0.  1.
         14    1    4    4    0    0  0.53604015173E+00 -0.10128880455E+02  0.33178249794E+01  0.10671903341E+02  0.00000000000E+00 0. -1.
         -5    1    5    5    0  502 -0.45698292687E+02 -0.84016528791E+02  0.60586652084E+02  0.11331347438E+03  0.47000000000E+01 0.  1.
         13    1    6    6    0    0  0.15823088202E+00  0.11940248259E+02  0.12282264420E+03  0.12340176860E+03  0.00000000000E+00 0. -1.
        -14    1    6    6    0    0 -0.22343256847E+02  0.26110804117E+02  0.12594321253E+02  0.36600712370E+02  0.00000000000E+00 0.  1.
</event>
<event>
12    1  0.8488291E-002  0.1988336E+03  0.7818608E-02  0.1151360E+00
         21   -1    0    0  503  502  0.00000000000E+00  0.00000000000E+00  0.29924099606E+02  0.29924099606E+02  0.00000000000E+00 0.  1.
         21   -1    0    0  501  503 -0.00000000000E+00 -0.00000000000E+00 -0.13179733188E+04  0.13179733188E+04  0.00000000000E+00 0.  1.
          6    2    1    2  501    0  0.85140250530E+02  0.30480275131E+02 -0.71437906611E+03  0.74074650240E+03  0.17375275909E+03 0.  0.
         24    2    3    3    0    0  0.89576171164E+02 -0.36440106890E+02 -0.38880599278E+03  0.40830412995E+03  0.78679035863E+02 0.  0.
         -6    2    1    2    0  502 -0.85140250530E+02 -0.30480275131E+02 -0.57367015306E+03  0.60715091598E+03  0.17707874190E+03 0.  0.
        -24    2    5    5    0    0 -0.36909888408E+02 -0.75595755439E+02 -0.47084573632E+03  0.48485404328E+03  0.79439774507E+02 0.  0.
          5    1    3    3  501    0 -0.44359206340E+01  0.66920382021E+02 -0.32557307333E+03  0.33244237245E+03  0.47000000000E+01 0. -1.
        -13    1    4    4    0    0  0.35210264503E+02 -0.64315912502E+01 -0.28576473272E+03  0.28799758777E+03  0.00000000000E+00 0.  1.
         14    1    4    4    0    0  0.54365906661E+02 -0.30008515640E+02 -0.10304126005E+03  0.12030654218E+03  0.00000000000E+00 0. -1.
         -5    1    5    5    0  502 -0.48230362122E+02  0.45115480308E+02 -0.10282441674E+03  0.12229687270E+03  0.47000000000E+01 0.  1.
         13    1    6    6    0    0 -0.72610703708E+01 -0.16981795813E+02 -0.13654987726E+02  0.22968744453E+02  0.00000000000E+00 0. -1.
        -14    1    6    6    0    0 -0.29648818038E+02 -0.58613959626E+02 -0.45719074860E+03  0.46188529883E+03  0.00000000000E+00 0.  1.
</event>
<event>
12    1  0.8488291E-002  0.2822836E+03  0.7818608E-02  0.1094587E+00
         21   -1    0    0  503  502  0.00000000000E+00  0.00000000000E+00  0.18986175423E+03  0.18986175423E+03  0.00000000000E+00 0. -1.
         21   -1    0    0  501  503 -0.00000000000E+00 -0.00000000000E+00 -0.81463934568E+03  0.81463934568E+03  0.00000000000E+00 0. -1.
          6    2    1    2  501    0 -0.22151645947E+03  0.21277361066E+02 -0.66305934973E+03  0.72064672754E+03  0.17367134690E+03 0.  0.
         24    2    3    3    0    0 -0.16154205323E+03 -0.42164853899E+02 -0.36886569076E+03  0.41373657290E+03  0.85101962756E+02 0.  0.
         -6    2    1    2    0  502  0.22151645947E+03 -0.21277361066E+02  0.38281758286E+02  0.28385437237E+03  0.17200448770E+03 0.  0.
        -24    2    5    5    0    0  0.23131708355E+03  0.11727285968E+02  0.41779969236E+02  0.24893036290E+03  0.81090303756E+02 0.  0.
          5    1    3    3  501    0 -0.59974406238E+02  0.63442214965E+02 -0.29419365897E+03  0.30691015464E+03  0.47000000000E+01 0. -1.
        -13    1    4    4    0    0 -0.25067553196E+02 -0.35608559007E+02 -0.14568108867E+03  0.15205042353E+03  0.00000000000E+00 0.  1.
         14    1    4    4    0    0 -0.13647450004E+03 -0.65562948919E+01 -0.22318460209E+03  0.26168614937E+03  0.00000000000E+00 0. -1.
         -5    1    5    5    0  502 -0.98006240811E+01 -0.33004647034E+02 -0.34982109493E+01  0.34924009478E+02  0.47000000000E+01 0.  1.
         13    1    6    6    0    0  0.12872945115E+03 -0.20636811929E+02 -0.75408513602E+01  0.13059101822E+03  0.00000000000E+00 0. -1.
        -14    1    6    6    0    0  0.10258763240E+03  0.32364097897E+02  0.49320820596E+02  0.11833934467E+03  0.00000000000E+00 0.  1.
</event>
<event>
12    1  0.8488291E-002  0.2041973E+03  0.7818608E-02  0.1146487E+00
         21   -1    0    0  503  502  0.00000000000E+00  0.00000000000E+00  0.36037658128E+02  0.36037658128E+02  0.00000000000E+00 0.  1.
         21   -1    0    0  501  503 -0.00000000000E+00 -0.00000000000E+00 -0.11972168180E+04  0.11972168180E+04  0.00000000000E+00 0.  1.
          6    2    1    2  501    0 -0.10846733955E+03  0.46941816073E+01 -0.70416368994E+03  0.73317325665E+03  0.17294312054E+03 0.  0.
         24    2    3    3    0    0 -0.38558216923E+02  0.85510371610E+01 -0.15635207085E+03  0.18088545054E+03  0.81937292059E+02 0.  0.
         -6    2    1    2    0  502  0.10846733955E+03 -0.46941816073E+01 -0.45701546992E+03  0.50008121947E+03  0.17155432735E+03 0.  0.
        -24    2    5    5    0    0  0.18692778989E+02  0.26665054173E+02 -0.12708440915E+03  0.15668717722E+03  0.85673679479E+02 0.  0.
          5    1    3    3  501    0 -0.69909122623E+02 -0.38568555537E+01 -0.54781161909E+03  0.55228780610E+03  0.47000000000E+01 0. -1.
        -13    1    4    4    0    0 -0.34868741286E+00 -0.27484868541E+02 -0.17888941282E+02  0.32795636933E+02  0.00000000000E+00 0.  1.
         14    1    4    4    0    0 -0.38209529510E+02  0.36035905702E+02 -0.13846312957E+03  0.14808981361E+03  0.00000000000E+00 0. -1.
         -5    1    5    5    0  502  0.89774560558E+02 -0.31359235781E+02 -0.32993106078E+03  0.34339404226E+03  0.47000000000E+01 0.  1.
         13    1    6    6    0    0  0.23402009145E+02 -0.26156077653E+02 -0.30481412339E+02  0.46485599151E+02  0.00000000000E+00 0. -1.
        -14    1    6    6    0    0 -0.47092301563E+01  0.52821131826E+02 -0.96602996806E+02  0.11020157806E+03  0.00000000000E+00 0.  1.
</event>
<event>
12    1  0.8488291E-002  0.1987923E+03  0.7818608E-02  0.1150832E+00
         21   -1    0    0  503  502  0.00000000000E+00  0.00000000000E+00  0.51053685794E+02  0.51053685794E+02  0.00000000000E+00 0. -1.
         21   -1    0    0  501  503 -0.00000000000E+00 -0.00000000000E+00 -0.78771133266E+03  0.78771133266E+03  0.00000000000E+00 0. -1.
          6    2    1    2  501    0 -0.12160005630E+02  0.98614223618E+02 -0.42576615960E+03  0.46975026266E+03  0.17180179210E+03 0.  0.
         24    2    3    3    0    0  0.32655021072E+02  0.55536815931E+01 -0.13042530198E+03  0.15683339944E+03  0.80552852246E+02 0.  0.
         -6    2    1    2    0  502  0.12160005630E+02 -0.98614223618E+02 -0.31089148726E+03  0.36901475580E+03  0.17217938990E+03 0.  0.
        -24    2    5    5    0    0  0.53648215605E+02 -0.11706068336E+03 -0.23360765223E+03  0.27925716781E+03  0.82648024578E+02 0.  0.
          5    1    3    3  501    0 -0.44815026701E+02  0.93060542025E+02 -0.29534085763E+03  0.31291686322E+03  0.47000000000E+01 0. -1.
        -11    1    4    4    0    0  0.39134818870E+02  0.19678951493E+02 -0.13392233152E+03  0.14090417332E+03  0.00000000000E+00 0.  1.
         12    1    4    4    0    0 -0.64797977980E+01 -0.14125269900E+02  0.34970295423E+01  0.15929226123E+02  0.00000000000E+00 0. -1.
         -5    1    5    5    0  502 -0.41488209976E+02  0.18446459740E+02 -0.77283835028E+02  0.89757587983E+02  0.47000000000E+01 0.  1.
         11    1    6    6    0    0  0.49848643527E+02 -0.45235392227E+02 -0.55735816467E+02  0.87393416277E+02  0.00000000000E+00 0. -1.
        -12    1    6    6    0    0  0.37995720779E+01 -0.71825291131E+02 -0.17787183577E+03  0.19186375154E+03  0.00000000000E+00 0.  1.
</event>
<event>
12    1  0.8488291E-002  0.1731275E+03  0.7818608E-02  0.1174672E+00
         21   -1    0    0  503  502  0.00000000000E+00  0.00000000000E+00  0.75635581736E+02  0.75635581736E+02  0.00000000000E+00 0.  1.
         21   -1    0    0  501  503 -0.00000000000E+00 -0.00000000000E+00 -0.47930009894E+03  0.47930009894E+03  0.00000000000E+00 0.  1.
          6    2    1    2  501    0 -0.38320705008E+01  0.15707836281E+02 -0.31751436856E+03  0.36155782848E+03  0.17218382098E+03 0.  0.
         24    2    3    3    0    0 -0.86927319345E+01  0.58839956831E+02 -0.10491142708E+03  0.14451841598E+03  0.79633290258E+02 0.  0.
         -6    2    1    2    0  502  0.38320705008E+01 -0.15707836281E+02 -0.86150148646E+02  0.19337785220E+03  0.17237089291E+03 0.  0.
        -24    2    5    5    0    0  0.42153254979E+01  0.42229350247E+02 -0.10007569858E+03  0.13360431785E+03  0.77678061962E+02 0.  0.
          5    1    3    3  501    0  0.48606614337E+01 -0.43132120549E+02 -0.21260294148E+03  0.21703941250E+03  0.47000000000E+01 0. -1.
        -13    1    4    4    0    0  0.20929737223E+02  0.36172949764E+02 -0.98060510777E+02  0.10659455881E+03  0.00000000000E+00 0.  1.
         14    1    4    4    0    0 -0.29622469158E+02  0.22667007067E+02 -0.68509163061E+01  0.37923857169E+02  0.00000000000E+00 0. -1.
         -5    1    5    5    0  502 -0.38325499706E+00 -0.57937186528E+02  0.13925549937E+02  0.59773534347E+02  0.47000000000E+01 0.  1.
         13    1    6    6    0    0 -0.78379049178E+01  0.46167813035E+02 -0.17391770916E+02  0.49953712670E+02  0.00000000000E+00 0. -1.
        -14    1    6    6    0    0  0.12053230416E+02 -0.39384627881E+01 -0.82683927668E+02  0.83650605181E+02  0.00000000000E+00 0.  1.
</event>
<event>
12    1  0.8488291E-002  0.1788377E+03  0.7818608E-02  0.1168954E+00
         21   -1    0    0  501  502  0.00000000000E+00  0.00000000000E+00  0.90464485823E+03  0.90464485823E+03  0.00000000000E+00 0. -1.
         21   -1    0    0  502  503 -0.00000000000E+00 -0.00000000000E+00 -0.24169761777E+03  0.24169761777E+03  0.00000000000E+00 0. -1.
         -6    2    1    2    0  503 -0.41100828992E+02 -0.27311582166E+02 -0.19815559976E+03  0.26686477031E+03  0.17180210490E+03 0.  0.
        -24    2    3    3    0    0 -0.60341242795E+02 -0.49860583392E+02 -0.20743925735E+03  0.23544937157E+03  0.79235205096E+02 0.  0.
          6    2    1    2  501    0  0.41100828992E+02  0.27311582166E+02  0.86110284022E+03  0.87947770569E+03  0.17189453953E+03 0.  0.
         24    2    5    5    0    0  0.32963843645E-01 -0.25323635307E+02  0.70351498465E+03  0.70826713976E+03  0.77895571381E+02 0.  0.
          5    1    5    5  501    0  0.41067865148E+02  0.52635217473E+02  0.15758785557E+03  0.17121056594E+03  0.47000000000E+01 0. -1.
        -13    1    6    6    0    0  0.13208023388E+02 -0.55221732024E+01  0.21455612081E+02  0.25793207797E+02  0.00000000000E+00 0.  1.
         14    1    6    6    0    0 -0.13175059545E+02 -0.19801462104E+02  0.68205937257E+03  0.68247393196E+03  0.00000000000E+00 0. -1.
         -5    1    3    3    0  503  0.19240413803E+02  0.22549001225E+02  0.92836575829E+01  0.31415398735E+02  0.47000000000E+01 0.  1.
         11    1    4    4    0    0 -0.48325987885E+02 -0.91731046868E+01 -0.17572914707E+03  0.18248364333E+03  0.00000000000E+00 0. -1.
        -12    1    4    4    0    0 -0.12015254910E+02 -0.40687478705E+02 -0.31710110277E+02  0.52965728238E+02  0.00000000000E+00 0.  1.
</event>
<event>
12    1  0.8488291E-002  0.2493863E+03  0.7818608E-02  0.1115472E+00
         21   -1    0    0  501  502  0.00000000000E+00  0.00000000000E+00  0.58203163017E+03  0.58203163017E+03  0.00000000000E+00 0.  1.
         21   -1    0    0  502  503 -0.00000000000E+00 -0.00000000000E+00 -0.33363068380E+03  0.33363068380E+03  0.00000000000E+00 0. -1.
         -6    2    1    2    0  503 -0.15553521906E+03 -0.93155769188E+02 -0.25792800132E+03  0.35124885472E+03  0.15485380971E+03 0.  0.
        -24    2    3    3    0    0 -0.10515140466E+03 -0.29968607225E+01 -0.15501870485E+03  0.20537366551E+03  0.84153101872E+02 0.  0.
          6    2    1    2  501    0  0.15553521906E+03  0.93155769188E+02  0.50632894769E+03  0.56441345925E+03  0.17124353424E+03 0.  0.
         24    2    5    5    0    0  0.47571516563E+02  0.22355546211E+01  0.30180774254E+03  0.31587038486E+03  0.80113292793E+02 0.  0.
          5    1    5    5  501    0  0.10796370250E+03  0.90920214566E+02  0.20452120515E+03  0.24854307440E+03  0.47000000000E+01 0. -1.
        -13    1    6    6    0    0  0.60401880396E+02 -0.73344830802E+01  0.13244255369E+03  0.14575051226E+03  0.00000000000E+00 0.  1.
         14    1    6    6    0    0 -0.12830363833E+02  0.95700377013E+01  0.16936518885E+03  0.17011987260E+03  0.00000000000E+00 0. -1.
         -5    1    3    3    0  503 -0.50383814395E+02 -0.90158908465E+02 -0.10290929646E+03  0.14587518921E+03  0.47000000000E+01 0.  1.
         13    1    4    4    0    0 -0.33669730383E+01 -0.12184934562E+02 -0.73683562066E+02  0.74760126113E+02  0.00000000000E+00 0. -1.
        -14    1    4    4    0    0 -0.10178443163E+03  0.91880738393E+01 -0.81335142789E+02  0.13061353940E+03  0.00000000000E+00 0.  1.
</event>
<event>
12    1  0.8488291E-002  0.2402539E+03  0.7818608E-02  0.1119831E+00
         21   -1    0    0  501  502  0.00000000000E+00  0.00000000000E+00  0.18805974390E+03  0.18805974390E+03  0.00000000000E+00 0.  1.
         21   -1    0    0  502  503 -0.00000000000E+00 -0.00000000000E+00 -0.33379290363E+03  0.33379290363E+03  0.00000000000E+00 0. -1.
         -6    2    1    2    0  503 -0.16324484424E+03  0.38546511077E+02 -0.14920539043E+03  0.28281473010E+03  0.17200933214E+03 0.  0.
        -24    2    3    3    0    0 -0.14910546120E+03 -0.31545335888E+01 -0.16493738326E+03  0.23582021045E+03  0.78513958115E+02 0.  0.
          6    2    1    2  501    0  0.16324484424E+03 -0.38546511077E+02  0.34722306962E+01  0.23903791743E+03  0.17027142125E+03 0.  0.
         24    2    5    5    0    0  0.10973854083E+03 -0.92993101487E+02 -0.51413801273E+01  0.16207273047E+03  0.74504173743E+02 0.  0.
          5    1    5    5  501    0  0.53506303408E+02  0.54446590410E+02  0.86136108235E+01  0.76965186956E+02  0.47000000000E+01 0. -1.
        -13    1    6    6    0    0  0.47409386422E+02 -0.12338354283E+02  0.26038416116E+02  0.55478680780E+02  0.00000000000E+00 0.  1.
         14    1    6    6    0    0  0.62329154408E+02 -0.80654747205E+02 -0.31179796243E+02  0.10659404969E+03  0.00000000000E+00 0. -1.
         -5    1    3    3    0  503 -0.14139383039E+02  0.41701044666E+02  0.15731992829E+02  0.46994519652E+02  0.47000000000E+01 0.  1.
         11    1    4    4    0    0 -0.11826129636E+03  0.18622820846E+02 -0.83219992952E+02  0.14580161487E+03  0.00000000000E+00 0. -1.
        -12    1    4    4    0    0 -0.30844164839E+02 -0.21777354435E+02 -0.81717390308E+02  0.90018595577E+02  0.00000000000E+00 0.  1.
</event>
<event>
12    1  0.8488291E-002  0.2086010E+03  0.7818608E-02  0.1142848E+00
         21   -1    0    0  503  502  0.00000000000E+00  0.00000000000E+00  0.16785072164E+03  0.16785072164E+03  0.00000000000E+00 0.  1.
         21   -1    0    0  501  503 -0.00000000000E+00 -0.00000000000E+00 -0.28693025711E+03  0.28693025711E+03  0.00000000000E+00 0.  1.
          6    2    1    2  501    0 -0.94465869175E+01 -0.11713772888E+03 -0.13161238893E+03  0.24664993470E+03  0.17234814718E+03 0.  0.
         24    2    3    3    0    0  0.42691682955E+02 -0.12572028831E+03 -0.96988208419E+02  0.18330182196E+03  0.81022679998E+02 0.  0.
         -6    2    1    2    0  502  0.94465869175E+01  0.11713772888E+03  0.12532853454E+02  0.20813104405E+03  0.17132125831E+03 0.  0.
        -24    2    5    5    0    0 -0.21402979214E+02  0.47534496603E+02 -0.50663775895E+02  0.10907444591E+03  0.81319128600E+02 0.  0.
          5    1    3    3  501    0 -0.52138269873E+02  0.85825594329E+01 -0.34624180509E+02  0.63348112740E+02  0.47000000000E+01 0. -1.
        -13    1    4    4    0    0 -0.17196861668E+02 -0.73490838500E+02 -0.39213905101E+02  0.85055074793E+02  0.00000000000E+00 0.  1.
         14    1    4    4    0    0  0.59888544623E+02 -0.52229449811E+02 -0.57774303319E+02  0.98246747166E+02  0.00000000000E+00 0. -1.
         -5    1    5    5    0  502  0.30849566132E+02  0.69603232276E+02  0.63196629349E+02  0.99056598139E+02  0.47000000000E+01 0.  1.
         13    1    6    6    0    0 -0.61480411652E+01 -0.18700362752E+02 -0.33687961253E+02  0.39017697403E+02  0.00000000000E+00 0. -1.
        -14    1    6    6    0    0 -0.15254938049E+02  0.66234859356E+02 -0.16975814642E+02  0.70056748508E+02  0.00000000000E+00 0.  1.
</event>
<event>
12    1  0.8488291E-002  0.2358774E+03  0.7818608E-02  0.1122645E+00
         21   -1    0    0  501  502  0.00000000000E+00  0.00000000000E+00  0.43239936872E+03  0.43239936872E+03  0.00000000000E+00 0. -1.
         21   -1    0    0  502  503 -0.00000000000E+00 -0.00000000000E+00 -0.18646141626E+03  0.18646141626E+03  0.00000000000E+00 0.  1.
         -6    2    1    2    0  503  0.10988692293E+03 -0.11711063601E+03 -0.49571094967E+02  0.24102993527E+03  0.17276602485E+03 0.  0.
        -24    2    3    3    0    0 -0.16069317810E+01 -0.16701652333E+02  0.58226201512E+01  0.81019319011E+02  0.79048717430E+02 0.  0.
          6    2    1    2  501    0 -0.10988692293E+03  0.11711063601E+03  0.29550904743E+03  0.37783084971E+03  0.17216421516E+03 0.  0.
         24    2    5    5    0    0 -0.13434488561E+03  0.11398540288E+03  0.19622645615E+03  0.27542439507E+03  0.79451588700E+02 0.  0.
          5    1    5    5  501    0  0.24457962682E+02  0.31252331300E+01  0.99282591280E+02  0.10240645464E+03  0.47000000000E+01 0. -1.
        -13    1    6    6    0    0 -0.84397843153E+02  0.78435015697E+02  0.69261811144E+02  0.13443305434E+03  0.00000000000E+00 0.  1.
         14    1    6    6    0    0 -0.49947042459E+02  0.35550387179E+02  0.12696464501E+03  0.14099134073E+03  0.00000000000E+00 0. -1.
         -5    1    3    3    0  503  0.11149385471E+03 -0.10040898367E+03 -0.55393715118E+02  0.16001061626E+03  0.47000000000E+01 0.  1.
         11    1    4    4    0    0  0.86487152256E+01 -0.46191677841E+02 -0.65225783940E+01  0.47444867011E+02  0.00000000000E+00 0. -1.
        -12    1    4    4    0    0 -0.10255647007E+02  0.29490025508E+02  0.12345198545E+02  0.33574452000E+02  0.00000000000E+00 0.  1.
</event>
<event>
12    1  0.8488291E-002  0.2938279E+03  0.7818608E-02  0.1088511E+00
         21   -1    0    0  501  502  0.00000000000E+00  0.00000000000E+00  0.13124387639E+04  0.13124387639E+04  0.00000000000E+00 0. -1.
         21   -1    0    0  502  503 -0.00000000000E+00 -0.00000000000E+00 -0.15001239904E+03  0.15001239904E+03  0.00000000000E+00 0.  1.
         -6    2    1    2    0  503  0.55504791809E+02 -0.23120051064E+03  0.31990986830E+02  0.29445332448E+03  0.17071871317E+03 0.  0.
        -24    2    3    3    0    0  0.63509866758E+02 -0.15886801106E+03  0.82331023938E+02  0.20584022694E+03  0.79493731894E+02 0.  0.
          6    2    1    2  501    0 -0.55504791809E+02  0.23120051064E+03  0.11304353780E+04  0.11679978385E+04  0.17262777501E+03 0.  0.
         24    2    5    5    0    0 -0.48655638894E+02  0.69733760874E+02  0.31127493487E+03  0.33303416032E+03  0.82398411741E+02 0.  0.
          5    1    5    5  501    0 -0.68491529149E+01  0.16146674976E+03  0.81916044317E+03  0.83496367815E+03  0.47000000000E+01 0. -1.
        -13    1    6    6    0    0 -0.51344096373E+01 -0.38922587245E+01  0.15294523470E+03  0.15308088273E+03  0.00000000000E+00 0.  1.
         14    1    6    6    0    0 -0.43521229256E+02  0.73626019598E+02  0.15832970018E+03  0.17995327759E+03  0.00000000000E+00 0. -1.
         -5    1    3    3    0  503 -0.80050749491E+01 -0.72332499573E+02 -0.50340037108E+02  0.88613097539E+02  0.47000000000E+01 0.  1.
         11    1    4    4    0    0 -0.10000076595E+02 -0.24733456941E+02  0.38292929722E+02  0.46670053470E+02  0.00000000000E+00 0. -1.
        -12    1    4    4    0    0  0.73509943353E+02 -0.13413455412E+03  0.44038094216E+02  0.15917017347E+03  0.00000000000E+00 0.  1.
</event>
<event>
12    1  0.8488291E-002  0.2501153E+03  0.7818608E-02  0.1113360E+00
         21   -1    0    0  503  502  0.00000000000E+00  0.00000000000E+00  0.57756489394E+03  0.57756489394E+03  0.00000000000E+00 0. -1.
         21   -1    0    0  501  503 -0.00000000000E+00 -0.00000000000E+00 -0.12013259173E+03  0.12013259173E+03  0.00000000000E+00 0. -1.
          6    2    1    2  501    0 -0.18039594566E+03  0.15079467966E+02  0.11735220835E+03  0.27554569104E+03  0.17141703381E+03 0.  0.
         24    2    3    3    0    0 -0.83950579665E+02 -0.44005186853E+02  0.13828032120E+02  0.12214409352E+03  0.75787919973E+02 0.  0.
         -6    2    1    2    0  502  0.18039594566E+03 -0.15079467966E+02  0.34008009386E+03  0.42215179463E+03  0.17259078744E+03 0.  0.
        -24    2    5    5    0    0  0.15483223168E+02 -0.20352145931E+02  0.13572439300E+03  0.15945929446E+03  0.79700788528E+02 0.  0.
          5    1    3    3  501    0 -0.96445365992E+02  0.59084654820E+02  0.10352417623E+03  0.15340159752E+03  0.47000000000E+01 0. -1.
        -13    1    4    4    0    0 -0.66685474065E+02 -0.58629724441E+02  0.30665417180E+02  0.93940219556E+02  0.00000000000E+00 0.  1.
         14    1    4    4    0    0 -0.17265105600E+02  0.14624537588E+02 -0.16837385060E+02  0.28203873966E+02  0.00000000000E+00 0. -1.
         -5    1    5    5    0  502  0.16491272249E+03  0.52726779643E+01  0.20435570086E+03  0.26269250017E+03  0.47000000000E+01 0.  1.
         11    1    6    6    0    0  0.46119062340E+02 -0.25193708269E+02  0.89667275478E+02  0.10393224302E+03  0.00000000000E+00 0. -1.
        -12    1    6    6    0    0 -0.30635839172E+02  0.48415623381E+01  0.46057117522E+02  0.55527051444E+02  0.00000000000E+00 0.  1.
</event>
<event>
12    1  0.8488291E-002  0.2905241E+03  0.7818608E-02  0.1090865E+00
         21   -1    0    0  501  502  0.00000000000E+00  0.00000000000E+00  0.35257296154E+03  0.35257296154E+03  0.00000000000E+00 0. -1.
         21   -1    0    0  502  503 -0.00000000000E+00 -0.00000000000E+00 -0.97672309372E+03  0.97672309372E+03  0.00000000000E+00 0.  1.
         -6    2    1    2    0  503  0.19659292209E+03 -0.12770403254E+03 -0.89068668956E+03  0.93502968398E+03  0.16124712098E+03 0.  0.
        -24    2    3    3    0    0  0.31106609256E+02 -0.19809199344E+02 -0.23873534393E+03  0.25378841847E+03  0.77807270807E+02 0.  0.
          6    2    1    2  501    0 -0.19659292209E+03  0.12770403254E+03  0.26653655738E+03  0.39426637127E+03  0.17160168458E+03 0.  0.
         24    2    5    5    0    0 -0.20817463640E+03  0.11059347733E+03  0.18482019901E+03  0.30984741350E+03  0.79242142976E+02 0.  0.
          5    1    5    5  501    0  0.11581714302E+02  0.17110555204E+02  0.81716358371E+02  0.84418957770E+02  0.47000000000E+01 0. -1.
        -13    1    6    6    0    0  0.45974716035E+01 -0.19467459981E+01  0.13523890225E+02  0.14416038705E+02  0.00000000000E+00 0.  1.
         14    1    6    6    0    0 -0.21277210800E+03  0.11254022333E+03  0.17129630879E+03  0.29543137480E+03  0.00000000000E+00 0. -1.
         -5    1    3    3    0  503  0.16548631284E+03 -0.10789483319E+03 -0.65195134563E+03  0.68124126551E+03  0.47000000000E+01 0.  1.
         11    1    4    4    0    0  0.43623858694E+02  0.11549953636E+01 -0.64655503705E+02  0.78004546156E+02  0.00000000000E+00 0. -1.
        -12    1    4    4    0    0 -0.12517249439E+02 -0.20964194708E+02 -0.17407984022E+03  0.17578387231E+03  0.00000000000E+00 0.  1.
</event>
<event>
12    1  0.8488291E-002  0.2287974E+03  0.7818608E-02  0.1127773E+00
         21   -1    0    0  503  502  0.00000000000E+00  0.00000000000E+00  0.16437267125E+03  0.16437267125E+03  0.00000000000E+00 0.  1.
         21   -1    0    0  501  503 -0.00000000000E+00 -0.00000000000E+00 -0.43890866954E+03  0.43890866954E+03  0.00000000000E+00 0.  1.
          6    2    1    2  501    0  0.85694415315E+02  0.12146633598E+03 -0.29637669940E+03  0.37344382467E+03  0.17182415035E+03 0.  0.
         24    2    3    3    0    0  0.53372334067E+02  0.13335609831E+03 -0.15281603441E+03  0.22573519961E+03  0.83493622333E+02 0.  0.
         -6    2    1    2    0  502 -0.85694415315E+02 -0.12146633598E+03  0.21840701122E+02  0.22983751611E+03  0.17392718015E+03 0.  0.
        -24    2    5    5    0    0 -0.45613803229E+02 -0.18766844872E+02 -0.41878856877E+02  0.10241729397E+03  0.79389230631E+02 0.  0.
          5    1    3    3  501    0  0.32322081248E+02 -0.11889762328E+02 -0.14356066500E+03  0.14770862507E+03  0.47000000000E+01 0. -1.
        -11    1    4    4    0    0  0.40259010938E+00  0.42649037970E+02 -0.29895504392E+01  0.42755583616E+02  0.00000000000E+00 0.  1.
         12    1    4    4    0    0  0.52969743957E+02  0.90707060336E+02 -0.14982648397E+03  0.18297961599E+03  0.00000000000E+00 0. -1.
         -5    1    5    5    0  502 -0.40080612086E+02 -0.10269949111E+03  0.63719557999E+02  0.12742022214E+03  0.47000000000E+01 0.  1.
         13    1    6    6    0    0 -0.18247757492E+02 -0.32758229880E+02 -0.56949491738E+02  0.68185972807E+02  0.00000000000E+00 0. -1.
        -14    1    6    6    0    0 -0.27366045737E+02  0.13991385009E+02  0.15070634861E+02  0.34231321167E+02  0.00000000000E+00 0.  1.
</event>
<event>
12    1  0.8488291E-002  0.2474065E+03  0.7818608E-02  0.1114958E+00
         21   -1    0    0  503  502  0.00000000000E+00  0.00000000000E+00  0.80536973848E+02  0.80536973848E+02  0.00000000000E+00 0.  1.
         21   -1    0    0  501  503 -0.00000000000E+00 -0.00000000000E+00 -0.17403716226E+04  0.17403716226E+04  0.00000000000E+00 0.  1.
          6    2    1    2  501    0  0.17345838259E+03 -0.33980719378E+02 -0.15132814893E+04  0.15333723738E+04  0.17311115283E+03 0.  0.
         24    2    3    3    0    0  0.68455541410E+02  0.16721497900E+01 -0.11175905961E+04  0.11224099709E+04  0.78143744960E+02 0.  0.
         -6    2    1    2    0  502 -0.17345838259E+03  0.33980719378E+02 -0.14655315946E+03  0.28753622261E+03  0.17308018658E+03 0.  0.
        -24    2    5    5    0    0 -0.19501028620E+02  0.81752020355E+01 -0.73608138963E+02  0.11516494432E+03  0.86009779865E+02 0.  0.
          5    1    3    3  501    0  0.10500284118E+03 -0.35652869168E+02 -0.39569089314E+03  0.41096240296E+03  0.47000000000E+01 0. -1.
        -11    1    4    4    0    0  0.81928763557E+02 -0.11398265800E+02 -0.98947601446E+03  0.99292750287E+03  0.00000000000E+00 0.  1.
         12    1    4    4    0    0 -0.13473222147E+02  0.13070415590E+02 -0.12811458167E+03  0.12948246799E+03  0.00000000000E+00 0. -1.
         -5    1    5    5    0  502 -0.15395735397E+03  0.25805517343E+02 -0.72945020497E+02  0.17237127829E+03  0.47000000000E+01 0.  1.
         11    1    6    6    0    0 -0.42600188620E+02 -0.28695313600E+01 -0.78252813010E+02  0.89143216369E+02  0.00000000000E+00 0. -1.
        -12    1    6    6    0    0  0.23099159999E+02  0.11044733396E+02  0.46446740463E+01  0.26021727949E+02  0.00000000000E+00 0.  1.
</event>
<event>
12    1  0.8488291E-002  0.2364837E+03  0.7818608E-02  0.1122217E+00
         21   -1    0    0  503  502  0.00000000000E+00  0.00000000000E+00  0.11417558275E+03  0.11417558275E+03  0.00000000000E+00 0.  1.
         21   -1    0    0  501  503 -0.00000000000E+00 -0.00000000000E+00 -0.66983138908E+03  0.66983138908E+03  0.00000000000E+00 0.  1.
          6    2    1    2  501    0  0.11924650462E+03 -0.11030511486E+03 -0.48160656276E+03  0.53653466137E+03  0.17186510505E+03 0.  0.
         24    2    3    3    0    0  0.82168609369E+02 -0.12386098803E+03 -0.45846828538E+03  0.49053464079E+03  0.91311775785E+02 0.  0.
         -6    2    1    2    0  502 -0.11924650462E+03  0.11030511486E+03 -0.74049243570E+02  0.24747231046E+03  0.17138350778E+03 0.  0.
        -24    2    5    5    0    0 -0.10670120425E+03  0.12205044483E+02 -0.26918238205E+02  0.13781634830E+03  0.82064878063E+02 0.  0.
          5    1    3    3  501    0  0.37077895249E+02  0.13555873165E+02 -0.23138277381E+02  0.46000020582E+02  0.47000000000E+01 0. -1.
        -11    1    4    4    0    0  0.61734619697E+02 -0.35677213545E+02 -0.11476548810E+03  0.13511159867E+03  0.00000000000E+00 0.  1.
         12    1    4    4    0    0  0.20433989672E+02 -0.88183774483E+02 -0.34370279727E+03  0.35542304212E+03  0.00000000000E+00 0. -1.
         -5    1    5    5    0  502 -0.12545300372E+02  0.98100070380E+02 -0.47131005365E+02  0.10965596216E+03  0.47000000000E+01 0.  1.
         13    1    6    6    0    0  0.68557145862E+01  0.17201217199E+02  0.60238725034E+01  0.19472281211E+02  0.00000000000E+00 0. -1.
        -14    1    6    6    0    0 -0.11355691883E+03 -0.49961727159E+01 -0.32942110708E+02  0.11834406709E+03  0.00000000000E+00 0.  1.
</event>
<event>
12    1  0.8488291E-002  0.1844027E+03  0.7818608E-02  0.1163700E+00
         21   -1    0    0  501  502  0.00000000000E+00  0.00000000000E+00  0.24613247434E+02  0.24613247434E+02  0.00000000000E+00 0.  1.
         21   -1    0    0  502  503 -0.00000000000E+00 -0.00000000000E+00 -0.24157411700E+04  0.24157411700E+04  0.00000000000E+00 0.  1.
         -6    2    1    2    0  503  0.41688226432E+02 -0.52717760827E+02 -0.19957666113E+04  0.20042676293E+04  0.17171864245E+03 0.  0.
        -24    2    3    3    0    0  0.44111732891E+02 -0.11778010165E+02 -0.50929020261E+03  0.51721815452E+03  0.77804513929E+02 0.  0.
          6    2    1    2  501    0 -0.41688226432E+02  0.52717760827E+02 -0.39536131123E+03  0.43608678819E+03  0.17130105046E+03 0.  0.
         24    2    5    5    0    0 -0.57249337287E+02  0.68558384495E+02 -0.39554338367E+03  0.41338884380E+03  0.80361863543E+02 0.  0.
          5    1    5    5  501    0  0.15561110854E+02 -0.15840623667E+02  0.18207243888E+00  0.22697944391E+02  0.47000000000E+01 0. -1.
        -13    1    6    6    0    0 -0.27613332818E+02  0.32140980730E+02 -0.33030102417E+03  0.33300796591E+03  0.00000000000E+00 0.  1.
         14    1    6    6    0    0 -0.29636004469E+02  0.36417403764E+02 -0.65242359496E+02  0.80380877890E+02  0.00000000000E+00 0. -1.
         -5    1    3    3    0  503 -0.24235064586E+01 -0.40939750662E+02 -0.14864764087E+04  0.14870494747E+04  0.47000000000E+01 0.  1.
         13    1    4    4    0    0 -0.10201466580E+02  0.10106780155E+02 -0.28654753128E+03  0.28690713586E+03  0.00000000000E+00 0. -1.
        -14    1    4    4    0    0  0.54313199471E+02 -0.21884790320E+02 -0.22274267133E+03  0.23031101866E+03  0.00000000000E+00 0.  1.
</event>
<event>
12    1  0.8488291E-002  0.1732302E+03  0.7818608E-02  0.1174527E+00
         21   -1    0    0  501  502  0.00000000000E+00  0.00000000000E+00  0.38076064891E+02  0.38076064891E+02  0.00000000000E+00 0. -1.
         21   -1    0    0  502  503 -0.00000000000E+00 -0.00000000000E+00 -0.86611294587E+03  0.86611294587E+03  0.00000000000E+00 0. -1.
         -6    2    1    2    0  503  0.10525560211E+02 -0.17691660298E+02 -0.54980774646E+03  0.57645230510E+03  0.17200267360E+03 0.  0.
        -24    2    3    3    0    0 -0.14129670661E+02 -0.35262631515E+02 -0.53546704738E+03  0.54262383944E+03  0.79199567698E+02 0.  0.
          6    2    1    2  501    0 -0.10525560211E+02  0.17691660298E+02 -0.27822913451E+03  0.32773670566E+03  0.17197707603E+03 0.  0.
         24    2    5    5    0    0  0.46318459819E+02  0.51709956313E+02 -0.18712271122E+03  0.21499382366E+03  0.79925689572E+02 0.  0.
          5    1    5    5  501    0 -0.56844020029E+02 -0.34018296015E+02 -0.91106423288E+02  0.11274288200E+03  0.47000000000E+01 0. -1.
        -13    1    6    6    0    0  0.30502710251E+02 -0.15032002612E+02 -0.88994143555E+02  0.95269795961E+02  0.00000000000E+00 0.  1.
         14    1    6    6    0    0  0.15815749567E+02  0.66741958925E+02 -0.98128567669E+02  0.11972402770E+03  0.00000000000E+00 0. -1.
         -5    1    3    3    0  503  0.24655230871E+02  0.17570971217E+02 -0.14340699082E+02  0.33828465662E+02  0.47000000000E+01 0.  1.
         13    1    4    4    0    0 -0.59521385169E+01 -0.60625467503E+02 -0.35216440574E+03  0.35739424161E+03  0.00000000000E+00 0. -1.
        -14    1    4    4    0    0 -0.81775321436E+01  0.25362835987E+02 -0.18330264164E+03  0.18522959783E+03  0.00000000000E+00 0.  1.
</event>
<event>
12    1  0.8488291E-002  0.1920644E+03  0.7818608E-02  0.1157614E+00
         21   -1    0    0  503  502  0.00000000000E+00  0.00000000000E+00  0.33962968194E+03  0.33962968194E+03  0.00000000000E+00 0. -1.
         21   -1    0    0  501  503 -0.00000000000E+00 -0.00000000000E+00 -0.10701152123E+03  0.10701152123E+03  0.00000000000E+00 0. -1.
          6    2    1    2  501    0  0.63644175564E+02  0.36333695646E+02  0.13542294180E+03  0.23138401570E+03  0.17270920946E+03 0.  0.
         24    2    3    3    0    0  0.68648686640E+01  0.59835185155E+02  0.13624218445E+03  0.16974822367E+03  0.81395029398E+02 0.  0.
         -6    2    1    2    0  502 -0.63644175564E+02 -0.36333695646E+02  0.97195218908E+02  0.21525718747E+03  0.17753317340E+03 0.  0.
        -24    2    5    5    0    0 -0.45690552399E+02  0.29663632968E+02  0.24420734526E+01  0.98303228403E+02  0.81792440313E+02 0.  0.
          5    1    3    3  501    0  0.56779306899E+02 -0.23501489509E+02 -0.81924264763E+00  0.61635792034E+02  0.47000000000E+01 0. -1.
        -11    1    4    4    0    0 -0.24211094977E+02  0.20574505794E+02  0.90209850701E+01  0.33028254273E+02  0.00000000000E+00 0.  1.
         12    1    4    4    0    0  0.31075963642E+02  0.39260679361E+02  0.12722119938E+03  0.13671996939E+03  0.00000000000E+00 0. -1.
         -5    1    5    5    0  502 -0.17953623165E+02 -0.65997328614E+02  0.94753145455E+02  0.11695395907E+03  0.47000000000E+01 0.  1.
         13    1    6    6    0    0 -0.30345652178E+02  0.93020615317E+01  0.41140435405E+02  0.51960777325E+02  0.00000000000E+00 0. -1.
        -14    1    6    6    0    0 -0.15344900220E+02  0.20361571436E+02 -0.38698361952E+02  0.46342451078E+02  0.00000000000E+00 0.  1.
</event>
<event>
12    1  0.8488291E-002  0.1827459E+03  0.7818608E-02  0.1169378E+00
         21   -1    0    0  503  502  0.00000000000E+00  0.00000000000E+00  0.71612656036E+03  0.71612656036E+03  0.00000000000E+00 0.  1.
         21   -1    0    0  501  503 -0.00000000000E+00 -0.00000000000E+00 -0.85789139404E+02  0.85789139404E+02  0.00000000000E+00 0.  1.
          6    2    1    2  501    0 -0.30176481826E+01 -0.54978650580E+02  0.37832096655E+02  0.18662081342E+03  0.17425355734E+03 0.  0.
         24    2    3    3    0    0 -0.63360225215E+02 -0.37879702963E+02  0.56231004613E+02  0.12109058813E+03  0.77792124397E+02 0.  0.
         -6    2    1    2    0  502  0.30176481826E+01  0.54978650580E+02  0.59250532431E+03  0.61529488635E+03  0.15650392843E+03 0.  0.
        -24    2    5    5    0    0 -0.52618238068E+02  0.18404601210E+02  0.34500182090E+03  0.35894924639E+03  0.81920063092E+02 0.  0.
          5    1    3    3  501    0  0.60342577033E+02 -0.17098947617E+02 -0.18398907958E+02  0.65530225290E+02  0.47000000000E+01 0. -1.
        -13    1    4    4    0    0 -0.34977962521E+02  0.20578772346E+02  0.32200603798E+02  0.51805623424E+02  0.00000000000E+00 0.  1.
         14    1    4    4    0    0 -0.28382262694E+02 -0.58458475309E+02  0.24030400815E+02  0.69284964707E+02  0.00000000000E+00 0. -1.
         -5    1    5    5    0  502  0.55635886251E+02  0.36574049369E+02  0.24750350341E+03  0.25634563996E+03  0.47000000000E+01 0.  1.
         13    1    6    6    0    0 -0.49224079029E+02 -0.25231399600E+02  0.19070526004E+03  0.19856517744E+03  0.00000000000E+00 0. -1.
        -14    1    6    6    0    0 -0.33941590399E+01  0.43636000810E+02  0.15429656085E+03  0.16038406895E+03  0.00000000000E+00 0.  1.
</event>
<event>
12    1  0.8488291E-002  0.2108178E+03  0.7818608E-02  0.1140949E+00
         21   -1    0    0  501  502  0.00000000000E+00  0.00000000000E+00  0.74350698855E+03  0.74350698855E+03  0.00000000000E+00 0.  1.
         21   -1    0    0  502  503 -0.00000000000E+00 -0.00000000000E+00 -0.79094237396E+02  0.79094237396E+02  0.00000000000E+00 0.  1.
         -6    2    1    2    0  503  0.64178368788E+02 -0.10389193966E+03  0.12863222239E+03  0.24683659153E+03  0.17166728324E+03 0.  0.
        -24    2    3    3    0    0  0.96902319888E+02 -0.33418705629E+02  0.10006792204E+03  0.16391890376E+03  0.79680289303E+02 0.  0.
          6    2    1    2  501    0 -0.64178368788E+02  0.10389193966E+03  0.53578052876E+03  0.57576463441E+03  0.17184801743E+03 0.  0.
         24    2    5    5    0    0 -0.10932636800E+02  0.44297197218E+02  0.44703472301E+03  0.45624664690E+03  0.78988575108E+02 0.  0.
          5    1    5    5  501    0 -0.53245731988E+02  0.59594742444E+02  0.88745805744E+02  0.11951798751E+03  0.47000000000E+01 0. -1.
        -13    1    6    6    0    0 -0.41459328182E+02  0.63182247011E+01  0.23203383600E+03  0.23579333516E+03  0.00000000000E+00 0.  1.
         14    1    6    6    0    0  0.30526691382E+02  0.37978972517E+02  0.21500088702E+03  0.22045331174E+03  0.00000000000E+00 0. -1.
         -5    1    3    3    0  503 -0.32723951100E+02 -0.70473234033E+02  0.28564300359E+02  0.82917687773E+02  0.47000000000E+01 0.  1.
         11    1    4    4    0    0 -0.12808533952E+02  0.28464683201E+01  0.17628852973E+02  0.21975836299E+02  0.00000000000E+00 0. -1.
        -12    1    4    4    0    0  0.10971085384E+03 -0.36265173949E+02  0.82439069062E+02  0.14194306746E+03  0.00000000000E+00 0.  1.
</event>
<event>
12    1  0.8488291E-002  0.1853341E+03  0.7818608E-02  0.1162871E+00
         21   -1    0    0  501  502  0.00000000000E+00  0.00000000000E+00  0.19091766709E+03  0.19091766709E+03  0.00000000000E+00 0.  1.
         21   -1    0    0  502  503 -0.00000000000E+00 -0.00000000000E+00 -0.18969965317E+03  0.18969965317E+03  0.00000000000E+00 0. -1.
         -6    2    1    2    0  503  0.40013552038E+02  0.49801928773E+02 -0.43818621190E+02  0.18988966174E+03  0.17336866965E+03 0.  0.
        -24    2    3    3    0    0 -0.26014944038E+02 -0.15740689904E+02  0.76655683110E+01  0.83455132915E+02  0.77339845102E+02 0.  0.
          6    2    1    2  501    0 -0.40013552038E+02 -0.49801928773E+02  0.45036635117E+02  0.19072765852E+03  0.17397535678E+03 0.  0.
         24    2    5    5    0    0 -0.48015984295E+02  0.35194782347E+02  0.29433694122E+02  0.10381378396E+03  0.79791929031E+02 0.  0.
          5    1    5    5  501    0  0.80024322573E+01 -0.84996711120E+02  0.15602940994E+02  0.86913874559E+02  0.47000000000E+01 0. -1.
        -13    1    6    6    0    0 -0.27399815977E+02  0.20730691801E+02  0.56950485356E+02  0.66512173926E+02  0.00000000000E+00 0.  1.
         14    1    6    6    0    0 -0.20616168318E+02  0.14464090546E+02 -0.27516791234E+02  0.37301610035E+02  0.00000000000E+00 0. -1.
         -5    1    3    3    0  503  0.66028496075E+02  0.65542618677E+02 -0.51484189501E+02  0.10643452882E+03  0.47000000000E+01 0.  1.
         11    1    4    4    0    0 -0.50319212252E+02  0.30247184027E+01 -0.40909211449E+01  0.50575761773E+02  0.00000000000E+00 0. -1.
        -12    1    4    4    0    0  0.24304268215E+02 -0.18765408307E+02  0.11756489456E+02  0.32879371142E+02  0.00000000000E+00 0.  1.
</event>
<event>
12    1  0.8488291E-002  0.2526301E+03  0.7818608E-02  0.1111663E+00
         21   -1    0    0  501  502  0.00000000000E+00  0.00000000000E+00  0.93747144772E+03  0.93747144772E+03  0.00000000000E+00 0.  1.
         21   -1    0    0  502  503 -0.00000000000E+00 -0.00000000000E+00 -0.11116043681E+03  0.11116043681E+03  0.00000000000E+00 0. -1.
         -6    2    1    2    0  503  0.18344525434E+03  0.22071331968E+02  0.73965550142E+03  0.78160873743E+03  0.17228654215E+03 0.  0.
        -24    2    3    3    0    0  0.48143057646E+02  0.32095964131E+02  0.16990381184E+03  0.19590723030E+03  0.78513901253E+02 0.  0.
          6    2    1    2  501    0 -0.18344525434E+03 -0.22071331968E+02  0.86655509494E+02  0.26702314710E+03  0.17220011246E+03 0.  0.
         24    2    5    5    0    0 -0.10738633060E+03  0.53969921910E+02  0.58286458818E+02  0.15569424157E+03  0.79992556562E+02 0.  0.
          5    1    5    5  501    0 -0.76058923737E+02 -0.76041253878E+02  0.28369050675E+02  0.11132890554E+03  0.47000000000E+01 0. -1.
        -11    1    6    6    0    0 -0.79643301491E+02  0.66084952250E+01  0.61304940100E+02  0.10072250673E+03  0.00000000000E+00 0.  1.
         12    1    6    6    0    0 -0.27743029107E+02  0.47361426685E+02 -0.30184812816E+01  0.54971734836E+02  0.00000000000E+00 0. -1.
         -5    1    3    3    0  503  0.13530219669E+03 -0.10024632163E+02  0.56975168958E+03  0.58570150713E+03  0.47000000000E+01 0.  1.
         11    1    4    4    0    0 -0.55616059574E+01 -0.15390710641E+02  0.76137376078E+02  0.77876218905E+02  0.00000000000E+00 0. -1.
        -12    1    4    4    0    0  0.53704663603E+02  0.47486674772E+02  0.93766435766E+02  0.11803101139E+03  0.00000000000E+00 0.  1.
</event>
<event>
12    1  0.8488291E-002  0.1939604E+03  0.7818608E-02  0.1155071E+00
         21   -1    0    0  501  502  0.00000000000E+00  0.00000000000E+00  0.51322862585E+03  0.51322862585E+03  0.00000000000E+00 0. -1.
         21   -1    0    0  502  503 -0.00000000000E+00 -0.00000000000E+00 -0.89559522080E+02  0.89559522080E+02  0.00000000000E+00 0. -1.
         -6    2    1    2    0  503  0.86329172265E+02  0.19714681757E+02  0.82247515913E+02  0.21011864318E+03  0.17188308723E+03 0.  0.
        -24    2    3    3    0    0  0.10282371092E+03  0.63888046991E+02  0.68869986223E+02  0.16088040294E+03  0.80529690001E+02 0.  0.
          6    2    1    2  501    0 -0.86329172265E+02 -0.19714681757E+02  0.34142158786E+03  0.39266950475E+03  0.17256663828E+03 0.  0.
         24    2    5    5    0    0 -0.10540583301E+02  0.56763639336E+01  0.28489954580E+03  0.29466212413E+03  0.74260966842E+02 0.  0.
          5    1    5    5  501    0 -0.75788588964E+02 -0.25391045690E+02  0.56522042061E+02  0.98007380626E+02  0.47000000000E+01 0. -1.
        -13    1    6    6    0    0  0.30064673940E+02  0.13009820008E+02  0.10057218190E+03  0.10577288787E+03  0.00000000000E+00 0.  1.
         14    1    6    6    0    0 -0.40605257241E+02 -0.73334560746E+01  0.18432736389E+03  0.18888923625E+03  0.00000000000E+00 0. -1.
         -5    1    3    3    0  503 -0.16494538653E+02 -0.44173365234E+02  0.13377529690E+02  0.49238240242E+02  0.47000000000E+01 0.  1.
         13    1    4    4    0    0  0.11448784081E+03  0.45140941309E+02  0.54927485533E+02  0.13476720277E+03  0.00000000000E+00 0. -1.
        -14    1    4    4    0    0 -0.11664129890E+02  0.18747105683E+02  0.13942500690E+02  0.26113200169E+02  0.00000000000E+00 0.  1.
</event>
<event>
12    1  0.8488291E-002  0.2132739E+03  0.7818608E-02  0.1139022E+00
         21   -1    0    0  503  502  0.00000000000E+00  0.00000000000E+00  0.43523244139E+03  0.43523244139E+03  0.00000000000E+00 0.  1.
         21   -1    0    0  501  503 -0.00000000000E+00 -0.00000000000E+00 -0.10445209237E+03  0.10445209237E+03  0.00000000000E+00 0.  1.
          6    2    1    2  501    0 -0.97877554392E+01  0.12559686627E+03  0.16486943835E+03  0.26956944311E+03  0.17209119669E+03 0.  0.
         24    2    3    3    0    0  0.43483976416E+02  0.12705679690E+03  0.14279510197E+03  0.21169565682E+03  0.79939502909E+02 0.  0.
         -6    2    1    2    0  502  0.97877554392E+01 -0.12559686627E+03  0.16591091067E+03  0.27011509066E+03  0.17194580235E+03 0.  0.
        -24    2    5    5    0    0  0.55238651229E+02 -0.11129734824E+03  0.16604261891E+03  0.22223641596E+03  0.79877812728E+02 0.  0.
          5    1    3    3  501    0 -0.53271731856E+02 -0.14599306303E+01  0.22074336386E+02  0.57873786287E+02  0.47000000000E+01 0. -1.
        -13    1    4    4    0    0  0.32915918805E+02  0.36356271912E+02  0.92368990114E+01  0.49905475867E+02  0.00000000000E+00 0.  1.
         14    1    4    4    0    0  0.10568057611E+02  0.90700524992E+02  0.13355820296E+03  0.16179018095E+03  0.00000000000E+00 0. -1.
         -5    1    5    5    0  502 -0.45450895790E+02 -0.14299518031E+02 -0.13170824363E+00  0.47878674701E+02  0.47000000000E+01 0.  1.
         13    1    6    6    0    0  0.59765929731E+02 -0.61567239874E+02  0.59038274510E+02  0.10415377689E+03  0.00000000000E+00 0. -1.
        -14    1    6    6    0    0 -0.45272785019E+01 -0.49730108369E+02  0.10700434440E+03  0.11808263907E+03  0.00000000000E+00 0.  1.
</event>
<event>
12    1  0.8488291E-002  0.2662946E+03  0.7818608E-02  0.1103520E+00
         21   -1    0    0  501  502  0.00000000000E+00  0.00000000000E+00  0.17957702621E+04  0.17957702621E+04  0.00000000000E+00 0.  1.
         21   -1    0    0  502  503 -0.00000000000E+00 -0.00000000000E+00 -0.45489411158E+02  0.45489411158E+02  0.00000000000E+00 0.  1.
         -6    2    1    2    0  503  0.20145754887E+03 -0.22908428224E+02  0.53693154244E+03  0.59903210177E+03  0.17156350894E+03 0.  0.
        -24    2    3    3    0    0  0.99354321889E+02 -0.65153185121E+02  0.21337435522E+03  0.25709492647E+03  0.80330361287E+02 0.  0.
          6    2    1    2  501    0 -0.20145754887E+03  0.22908428224E+02  0.12133493085E+04  0.12422275715E+04  0.17263503365E+03 0.  0.
         24    2    5    5    0    0 -0.14357870596E+03  0.66988891599E+02  0.63687703926E+03  0.66116353465E+03  0.80140501662E+02 0.  0.
          5    1    5    5  501    0 -0.57878842918E+02 -0.44080463375E+02  0.57647226923E+03  0.58106403684E+03  0.47000000000E+01 0. -1.
        -13    1    6    6    0    0 -0.13440637695E+03  0.55531873769E+02  0.62658040674E+03  0.64323546954E+03  0.00000000000E+00 0.  1.
         14    1    6    6    0    0 -0.91723290108E+01  0.11457017830E+02  0.10296632519E+02  0.17928065101E+02  0.00000000000E+00 0. -1.
         -5    1    3    3    0  503  0.10210322699E+03  0.42244756897E+02  0.32355718722E+03  0.34193717530E+03  0.47000000000E+01 0.  1.
         11    1    4    4    0    0  0.30997459585E+01  0.16682023550E+02  0.22112270761E+02  0.27872044291E+02  0.00000000000E+00 0. -1.
        -12    1    4    4    0    0  0.96254575930E+02 -0.81835208670E+02  0.19126208446E+03  0.22922288218E+03  0.00000000000E+00 0.  1.
</event>
<event>
12    1  0.8488291E-002  0.1983543E+03  0.7818608E-02  0.1151167E+00
         21   -1    0    0  501  502  0.00000000000E+00  0.00000000000E+00  0.39603229638E+03  0.39603229638E+03  0.00000000000E+00 0. -1.
         21   -1    0    0  502  503 -0.00000000000E+00 -0.00000000000E+00 -0.12354806430E+03  0.12354806430E+03  0.00000000000E+00 0.  1.
         -6    2    1    2    0  503  0.96570222010E+02 -0.11436153495E+02  0.21041833211E+02  0.19931844341E+03  0.17270926366E+03 0.  0.
        -24    2    3    3    0    0  0.13079155030E+03  0.15261175203E+02  0.23762004455E+02  0.15557674704E+03  0.79373536310E+02 0.  0.
          6    2    1    2  501    0 -0.96570222010E+02  0.11436153495E+02  0.25144239887E+03  0.32026191727E+03  0.17288094838E+03 0.  0.
         24    2    5    5    0    0 -0.57245280473E+02 -0.73845828980E+01  0.42986092764E+02  0.10724362532E+03  0.79509979251E+02 0.  0.
          5    1    5    5  501    0 -0.39324941537E+02  0.18820736393E+02  0.20845630611E+03  0.21301829194E+03  0.47000000000E+01 0. -1.
        -11    1    6    6    0    0 -0.35484178336E+02  0.32725246113E+02  0.37814346725E+02  0.61318785568E+02  0.00000000000E+00 0.  1.
         12    1    6    6    0    0 -0.21761102137E+02 -0.40109829011E+02  0.51717460386E+01  0.45924839756E+02  0.00000000000E+00 0. -1.
         -5    1    3    3    0  503 -0.34221328289E+02 -0.26697328698E+02 -0.27201712444E+01  0.43741696367E+02  0.47000000000E+01 0.  1.
         11    1    4    4    0    0  0.57303721643E+02 -0.27133831764E+02 -0.10149750141E+02  0.64210425697E+02  0.00000000000E+00 0. -1.
        -12    1    4    4    0    0  0.73487828656E+02  0.42395006967E+02  0.33911754596E+02  0.91366321345E+02  0.00000000000E+00 0.  1.
</event>
<event>
12    1  0.8488291E-002  0.2372872E+03  0.7818608E-02  0.1122089E+00
         21   -1    0    0  503  502  0.00000000000E+00  0.00000000000E+00  0.46700117067E+03  0.46700117067E+03  0.00000000000E+00 0. -1.
         21   -1    0    0  501  503 -0.00000000000E+00 -0.00000000000E+00 -0.17222706970E+03  0.17222706970E+03  0.00000000000E+00 0. -1.
          6    2    1    2  501    0 -0.15814752195E+03 -0.29234911811E+01 -0.29436802051E+02  0.23910607938E+03  0.17687850741E+03 0.  0.
         24    2    3    3    0    0 -0.11427438101E+03  0.61288544531E+02  0.46443081869E+01  0.15406697014E+03  0.83067092422E+02 0.  0.
         -6    2    1    2    0  502  0.15814752195E+03  0.29234911811E+01  0.32421090302E+03  0.40012216098E+03  0.17310646601E+03 0.  0.
        -24    2    5    5    0    0  0.10326424842E+03  0.51376361314E+02  0.28279430757E+03  0.31587681265E+03  0.80638110535E+02 0.  0.
          5    1    3    3  501    0 -0.43873140936E+02 -0.64212035712E+02 -0.34081110238E+02  0.85039109243E+02  0.47000000000E+01 0. -1.
        -11    1    4    4    0    0 -0.88570927781E+02  0.65503418017E+02 -0.26662242854E+02  0.11334188199E+03  0.00000000000E+00 0.  1.
         12    1    4    4    0    0 -0.25703453230E+02 -0.42148734861E+01  0.31306551041E+02  0.40725088146E+02  0.00000000000E+00 0. -1.
         -5    1    5    5    0  502  0.54883273531E+02 -0.48452870133E+02  0.41416595445E+02  0.84245348334E+02  0.47000000000E+01 0.  1.
         11    1    6    6    0    0  0.79465484783E+02  0.22701963199E+02  0.25850784725E+03  0.27139721718E+03  0.00000000000E+00 0. -1.
        -12    1    6    6    0    0  0.23798763633E+02  0.28674398116E+02  0.24286460322E+02  0.44479595465E+02  0.00000000000E+00 0.  1.
</event>
<event>
12    1  0.8488291E-002  0.1886270E+03  0.7818608E-02  0.1160465E+00
         21   -1    0    0  503  502  0.00000000000E+00  0.00000000000E+00  0.57167418944E+02  0.57167418944E+02  0.00000000000E+00 0. -1.
         21   -1    0    0  501  503 -0.00000000000E+00 -0.00000000000E+00 -0.70286760767E+03  0.70286760767E+03  0.00000000000E+00 0. -1.
          6    2    1    2  501    0  0.26295702897E+02 -0.67087504101E+02 -0.46232663078E+03  0.49932561926E+03  0.17432143678E+03 0.  0.
         24    2    3    3    0    0  0.79654058213E+02 -0.54751168455E+02 -0.25290293369E+03  0.28280847407E+03  0.81720742155E+02 0.  0.
         -6    2    1    2    0  502 -0.26295702897E+02  0.67087504101E+02 -0.18337355795E+03  0.26070940736E+03  0.17073762366E+03 0.  0.
        -24    2    5    5    0    0  0.81624937662E+01  0.57692431098E+02 -0.29318236518E+02  0.10249826118E+03  0.79065110142E+02 0.  0.
          5    1    3    3  501    0 -0.53358355315E+02 -0.12336335646E+02 -0.20942369709E+03  0.21651714519E+03  0.47000000000E+01 0. -1.
        -11    1    4    4    0    0  0.35910331648E+02  0.19130893102E+02 -0.78763083778E+02  0.88651939382E+02  0.00000000000E+00 0.  1.
         12    1    4    4    0    0  0.43743726565E+02 -0.73882061557E+02 -0.17413984991E+03  0.19415653469E+03  0.00000000000E+00 0. -1.
         -5    1    5    5    0  502 -0.34458196663E+02  0.93950730030E+01 -0.15405532143E+03  0.15821114618E+03  0.47000000000E+01 0.  1.
         11    1    6    6    0    0  0.19647867885E+02  0.26769743934E+02  0.23180121314E+02  0.40496616240E+02  0.00000000000E+00 0. -1.
        -12    1    6    6    0    0 -0.11485374119E+02  0.30922687164E+02 -0.52498357833E+02  0.62001644940E+02  0.00000000000E+00 0.  1.
</event>
<event>
12    1  0.8488291E-002  0.2139644E+03  0.7818608E-02  0.1138501E+00
         21   -1    0    0  501  502  0.00000000000E+00  0.00000000000E+00  0.13392963871E+04  0.13392963871E+04  0.00000000000E+00 0. -1.
         21   -1    0    0  502  503 -0.00000000000E+00 -0.00000000000E+00 -0.34849935058E+02  0.34849935058E+02  0.00000000000E+00 0. -1.
         -6    2    1    2    0  503 -0.10971370199E+02  0.12732838046E+03  0.55476103047E+03  0.59452525111E+03  0.17136973432E+03 0.  0.
        -24    2    3    3    0    0  0.47786582538E+02  0.92016679615E+02  0.24813283460E+03  0.28029229018E+03  0.79014160331E+02 0.  0.
          6    2    1    2  501    0  0.10971370199E+02 -0.12732838046E+03  0.74968542157E+03  0.77962107105E+03  0.17160389178E+03 0.  0.
         24    2    5    5    0    0  0.19438043467E+01 -0.15353697211E+02  0.48946858391E+03  0.49615199119E+03  0.79673015090E+02 0.  0.
          5    1    5    5  501    0  0.90275658527E+01 -0.11197468325E+03  0.26021683766E+03  0.28346907986E+03  0.47000000000E+01 0. -1.
        -11    1    6    6    0    0  0.77155367546E+01  0.28957355012E+02  0.10818584418E+03  0.11225967574E+03  0.00000000000E+00 0.  1.
         12    1    6    6    0    0 -0.57717324079E+01 -0.44311052223E+02  0.38128273973E+03  0.38389231545E+03  0.00000000000E+00 0. -1.
         -5    1    3    3    0  503 -0.58757952737E+02  0.35311700850E+02  0.30662819587E+03  0.31423296092E+03  0.47000000000E+01 0.  1.
         13    1    4    4    0    0  0.63860437566E+02  0.64788988199E+02  0.13474930241E+03  0.16258272657E+03  0.00000000000E+00 0. -1.
        -14    1    4    4    0    0 -0.16073855028E+02  0.27227691416E+02  0.11338353219E+03  0.11770956362E+03  0.00000000000E+00 0.  1.
</event>
<event>
12    1  0.8488291E-002  0.1855142E+03  0.7818608E-02  0.1162594E+00
         21   -1    0    0  503  502  0.00000000000E+00  0.00000000000E+00  0.14988249244E+04  0.14988249244E+04  0.00000000000E+00 0. -1.
         21   -1    0    0  501  503 -0.00000000000E+00 -0.00000000000E+00 -0.24358552987E+02  0.24358552987E+02  0.00000000000E+00 0. -1.
          6    2    1    2  501    0 -0.23507455269E+02 -0.67715640660E+02  0.55387418965E+03  0.58408525671E+03  0.17099988510E+03 0.  0.
         24    2    3    3    0    0 -0.28940274872E+01  0.32035891591E+02  0.23224066110E+03  0.24667527127E+03  0.76670013960E+02 0.  0.
         -6    2    1    2    0  502  0.23507455269E+02  0.67715640660E+02  0.92059218179E+03  0.93909822071E+03  0.17110667582E+03 0.  0.
        -24    2    5    5    0    0  0.21053597929E+01  0.63527680133E+02  0.90759222554E+03  0.91327812065E+03  0.79454887324E+02 0.  0.
          5    1    3    3  501    0 -0.20613427782E+02 -0.99751532250E+02  0.32163352855E+03  0.33740998545E+03  0.47000000000E+01 0. -1.
        -13    1    4    4    0    0  0.30904680884E+02  0.11502543121E+02  0.16824513012E+03  0.17144629366E+03  0.00000000000E+00 0.  1.
         14    1    4    4    0    0 -0.33798708372E+02  0.20533348469E+02  0.63995530980E+02  0.75228977611E+02  0.00000000000E+00 0. -1.
         -5    1    5    5    0  502  0.21402095477E+02  0.41879605261E+01  0.12999956254E+02  0.25820100053E+02  0.47000000000E+01 0.  1.
         11    1    6    6    0    0 -0.24461879938E+02  0.70042841632E+02  0.63653694858E+03  0.64084605807E+03  0.00000000000E+00 0. -1.
        -12    1    6    6    0    0  0.26567239731E+02 -0.65151614989E+01  0.27105527696E+03  0.27243206259E+03  0.00000000000E+00 0.  1.
</event>
<event>
12    1  0.8488291E-002  0.3157667E+03  0.7818608E-02  0.1077853E+00
         21   -1    0    0  501  502  0.00000000000E+00  0.00000000000E+00  0.41965172754E+02  0.41965172754E+02  0.00000000000E+00 0.  1.
         21   -1    0    0  502  503 -0.00000000000E+00 -0.00000000000E+00 -0.24051325039E+04  0.24051325039E+04  0.00000000000E+00 0.  1.
         -6    2    1    2    0  503 -0.11169028679E+03 -0.23663496442E+03 -0.10115541566E+04  0.10590894721E+04  0.17308342420E+03 0.  0.
        -24    2    3    3    0    0 -0.11575603202E+03 -0.24868483479E+03 -0.10036260165E+04  0.10433835795E+04  0.78361385942E+02 0.  0.
          6    2    1    2  501    0  0.11169028679E+03  0.23663496442E+03 -0.13516131746E+04  0.13880082045E+04  0.17674211615E+03 0.  0.
         24    2    5    5    0    0  0.51043160432E+02  0.23055895387E+03 -0.11688163906E+04  0.11952603224E+04  0.82174496693E+02 0.  0.
          5    1    5    5  501    0  0.60647126360E+02  0.60760105525E+01 -0.18279678398E+03  0.19274788215E+03  0.47000000000E+01 0. -1.
        -11    1    6    6    0    0  0.66809089933E+02  0.15013847562E+03 -0.67674533051E+03  0.69641170203E+03  0.00000000000E+00 0.  1.
         12    1    6    6    0    0 -0.15765929501E+02  0.80420478244E+02 -0.49207106007E+03  0.49884862033E+03  0.00000000000E+00 0. -1.
         -5    1    3    3    0  503  0.40657452276E+01  0.12049870374E+02 -0.79281400575E+01  0.15705892686E+02  0.47000000000E+01 0.  1.
         11    1    4    4    0    0 -0.56328443110E+02 -0.42565414977E+02 -0.26394786630E+03  0.27322734889E+03  0.00000000000E+00 0. -1.
        -12    1    4    4    0    0 -0.59427588910E+02 -0.20611941982E+03 -0.73967815023E+03  0.77015623056E+03  0.00000000000E+00 0.  1.
</event>
<event>
12    1  0.8488291E-002  0.1820631E+03  0.7818608E-02  0.1165983E+00
         21   -1    0    0  501  502  0.00000000000E+00  0.00000000000E+00  0.20071274349E+03  0.20071274349E+03  0.00000000000E+00 0.  1.
         21   -1    0    0  502  503 -0.00000000000E+00 -0.00000000000E+00 -0.18613875604E+03  0.18613875604E+03  0.00000000000E+00 0.  1.
         -6    2    1    2    0  503 -0.39524272707E+02  0.42996578856E+02 -0.58624318122E+02  0.19062463657E+03  0.17172672321E+03 0.  0.
        -24    2    3    3    0    0  0.24554424792E+02  0.35695923161E+02  0.13671209615E+02  0.93629212048E+02  0.81868239686E+02 0.  0.
          6    2    1    2  501    0  0.39524272707E+02 -0.42996578856E+02  0.73198305571E+02  0.19622686297E+03  0.17244163037E+03 0.  0.
         24    2    5    5    0    0  0.38141870449E+02  0.26954050961E+02  0.87521921332E+02  0.12465691385E+03  0.75484676013E+02 0.  0.
          5    1    5    5  501    0  0.13824022581E+01 -0.69950629817E+02 -0.14323615760E+02  0.71569949115E+02  0.47000000000E+01 0. -1.
        -13    1    6    6    0    0  0.17624912665E+02 -0.14522356122E+02 -0.29608671619E+01  0.23028311014E+02  0.00000000000E+00 0.  1.
         14    1    6    6    0    0  0.20516957784E+02  0.41476407083E+02  0.90482788494E+02  0.10162860284E+03  0.00000000000E+00 0. -1.
         -5    1    3    3    0  503 -0.64078697498E+02  0.73006556952E+01 -0.72295527737E+02  0.96995424518E+02  0.47000000000E+01 0.  1.
         11    1    4    4    0    0 -0.21045177170E+02  0.72867947974E+01  0.30104383819E+02  0.37446906223E+02  0.00000000000E+00 0. -1.
        -12    1    4    4    0    0  0.45599601962E+02  0.28409128364E+02 -0.16433174204E+02  0.56182305825E+02  0.00000000000E+00 0.  1.
</event>
<event>
12    1  0.8488291E-002  0.1825605E+03  0.7818608E-02  0.1166108E+00
         21   -1    0    0  503  502  0.00000000000E+00  0.00000000000E+00  0.65743347249E+03  0.65743347249E+03  0.00000000000E+00 0.  1.
         21   -1    0    0  501  503 -0.00000000000E+00 -0.00000000000E+00 -0.12964810199E+03  0.12964810199E+03  0.00000000000E+00 0.  1.
          6    2    1    2  501    0  0.34493318595E+02 -0.38998227123E+02 -0.45798844116E+02  0.18514536791E+03  0.17167009754E+03 0.  0.
         24    2    3    3    0    0  0.27939643056E+02  0.23413270302E+02 -0.75677211734E+02  0.11548223185E+03  0.79248347729E+02 0.  0.
         -6    2    1    2    0  502 -0.34493318595E+02  0.38998227123E+02  0.57358421461E+03  0.60193620657E+03  0.17497912672E+03 0.  0.
        -24    2    5    5    0    0  0.97792745128E+01  0.83331778316E+02  0.32665096680E+03  0.34713501910E+03  0.82231672056E+02 0.  0.
          5    1    3    3  501    0  0.65536755392E+01 -0.62411497425E+02  0.29878367617E+02  0.69663136057E+02  0.47000000000E+01 0. -1.
        -11    1    4    4    0    0  0.48700962211E+02  0.54846933114E+01 -0.19087722093E+02  0.52594740381E+02  0.00000000000E+00 0.  1.
         12    1    4    4    0    0 -0.20761319156E+02  0.17928576990E+02 -0.56589489640E+02  0.62887491473E+02  0.00000000000E+00 0. -1.
         -5    1    5    5    0  502 -0.44272593108E+02 -0.44333551193E+02  0.24693324781E+03  0.25480118747E+03  0.47000000000E+01 0.  1.
         11    1    6    6    0    0  0.84552971273E+01 -0.84875578634E+01  0.12484539992E+03  0.12541891632E+03  0.00000000000E+00 0. -1.
        -12    1    6    6    0    0  0.13239773855E+01  0.91819336179E+02  0.20180556687E+03  0.22171610278E+03  0.00000000000E+00 0.  1.
</event>
<event>
12    1  0.8488291E-002  0.1742353E+03  0.7818608E-02  0.1173610E+00
         21   -1    0    0  503  502  0.00000000000E+00  0.00000000000E+00  0.42418346355E+03  0.42418346355E+03  0.00000000000E+00 0. -1.
         21   -1    0    0  501  503 -0.00000000000E+00 -0.00000000000E+00 -0.84519672888E+02  0.84519672888E+02  0.00000000000E+00 0. -1.
          6    2    1    2  501    0 -0.12265989866E+01 -0.24793938690E+02  0.69766138307E+02  0.18768393312E+03  0.17245782312E+03 0.  0.
         24    2    3    3    0    0  0.41979616111E+02 -0.68204510496E+02  0.39132177003E+02  0.11904149469E+03  0.78901246893E+02 0.  0.
         -6    2    1    2    0  502  0.12265989866E+01  0.24793938690E+02  0.26989765236E+03  0.32101920332E+03  0.17202424891E+03 0.  0.
        -24    2    5    5    0    0  0.21226787626E+02 -0.44814549427E+02  0.10550371375E+03  0.14131721053E+03  0.79878658119E+02 0.  0.
          5    1    3    3  501    0 -0.43206215098E+02  0.43410571806E+02  0.30633961304E+02  0.68642438424E+02  0.47000000000E+01 0. -1.
        -11    1    4    4    0    0 -0.23437962882E+02 -0.22806558226E+02  0.91712687464E+01  0.33964531096E+02  0.00000000000E+00 0.  1.
         12    1    4    4    0    0  0.65417578993E+02 -0.45397952270E+02  0.29960908256E+02  0.85076963599E+02  0.00000000000E+00 0. -1.
         -5    1    5    5    0  502 -0.20000188639E+02  0.69608488117E+02  0.16439393861E+03  0.17970199279E+03  0.47000000000E+01 0.  1.
         13    1    6    6    0    0  0.51676350245E+02 -0.29199529801E+02  0.60183340774E+02  0.84528647345E+02  0.00000000000E+00 0. -1.
        -14    1    6    6    0    0 -0.30449562619E+02 -0.15615019626E+02  0.45320372977E+02  0.56788563183E+02  0.00000000000E+00 0.  1.
</event>
<event>
12    1  0.8488291E-002  0.1993288E+03  0.7818608E-02  0.1150343E+00
         21   -1    0    0  503  502  0.00000000000E+00  0.00000000000E+00  0.48429945336E+02  0.48429945336E+02  0.00000000000E+00 0.  1.
         21   -1    0    0  501  503 -0.00000000000E+00 -0.00000000000E+00 -0.10400724409E+04  0.10400724409E+04  0.00000000000E+00 0. -1.
          6    2    1    2  501    0 -0.87959589606E+02 -0.49569908315E+02 -0.74617598476E+03  0.77229710855E+03  0.17166874620E+03 0.  0.
         24    2    3    3    0    0 -0.10166389210E+03 -0.70969583578E+02 -0.72205720363E+03  0.73694799807E+03  0.79708956829E+02 0.  0.
         -6    2    1    2    0  502  0.87959589606E+02  0.49569908315E+02 -0.24546651077E+03  0.31620527766E+03  0.17186594920E+03 0.  0.
        -24    2    5    5    0    0 -0.46350199537E+01  0.66341823620E+02 -0.14589529752E+03  0.17912291055E+03  0.79855233238E+02 0.  0.
          5    1    3    3  501    0  0.13704302491E+02  0.21399675263E+02 -0.24118781130E+02  0.35349110474E+02  0.47000000000E+01 0. -1.
        -13    1    4    4    0    0 -0.55127585910E+02  0.56617294478E+01 -0.34188566639E+03  0.34634796779E+03  0.00000000000E+00 0.  1.
         14    1    4    4    0    0 -0.46536306187E+02 -0.76631313026E+02 -0.38017153724E+03  0.39060003028E+03  0.00000000000E+00 0. -1.
         -5    1    5    5    0  502  0.92594609559E+02 -0.16771915305E+02 -0.99571213258E+02  0.13708236711E+03  0.47000000000E+01 0.  1.
         11    1    6    6    0    0 -0.57005867179E+01 -0.11753740691E+02  0.63346462088E+00  0.13078546807E+02  0.00000000000E+00 0. -1.
        -12    1    6    6    0    0  0.10655667641E+01  0.78095564311E+02 -0.14652876214E+03  0.16604436374E+03  0.00000000000E+00 0.  1.
</event>
<event>
12    1  0.8488291E-002  0.1919496E+03  0.7818608E-02  0.1157515E+00
         21   -1    0    0  503  502  0.00000000000E+00  0.00000000000E+00  0.28643602610E+03  0.28643602610E+03  0.00000000000E+00 0.  1.
         21   -1    0    0  501  503 -0.00000000000E+00 -0.00000000000E+00 -0.13057440373E+03  0.13057440373E+03  0.00000000000E+00 0.  1.
          6    2    1    2  501    0 -0.28715537066E+02  0.68092382366E+02  0.11654689349E+03  0.22456142050E+03  0.17715388392E+03 0.  0.
         24    2    3    3    0    0 -0.69252240809E+02 -0.62347161225E+01  0.48691404894E+02  0.11596031897E+03  0.79001253938E+02 0.  0.
         -6    2    1    2    0  502  0.28715537066E+02 -0.68092382366E+02  0.39314728886E+02  0.19244900934E+03  0.17329113850E+03 0.  0.
        -24    2    5    5    0    0  0.20257882834E+02 -0.75914436763E+02 -0.35167282265E+02  0.11693492830E+03  0.79143263693E+02 0.  0.
          5    1    3    3  501    0  0.40536703743E+02  0.74327098488E+02  0.67855488593E+02  0.10860110152E+03  0.47000000000E+01 0. -1.
        -13    1    4    4    0    0 -0.55493712833E+02  0.69703215383E+01 -0.76763328258E+01  0.56454084281E+02  0.00000000000E+00 0.  1.
         14    1    4    4    0    0 -0.13758527976E+02 -0.13205037661E+02  0.56367737720E+02  0.59506234693E+02  0.00000000000E+00 0. -1.
         -5    1    5    5    0  502  0.84576542317E+01  0.78220543972E+01  0.74482011151E+02  0.75514081039E+02  0.47000000000E+01 0.  1.
         13    1    6    6    0    0 -0.20585571822E+02  0.42835407047E+01 -0.11083120256E+02  0.23768677767E+02  0.00000000000E+00 0. -1.
        -14    1    6    6    0    0  0.40843454656E+02 -0.80197977467E+02 -0.24084162009E+02  0.93166250530E+02  0.00000000000E+00 0.  1.
</event>
<event>
12    1  0.8488291E-002  0.1819849E+03  0.7818608E-02  0.1165909E+00
         21   -1    0    0  503  502  0.00000000000E+00  0.00000000000E+00  0.47610116166E+03  0.47610116166E+03  0.00000000000E+00 0.  1.
         21   -1    0    0  501  503 -0.00000000000E+00 -0.00000000000E+00 -0.96206328788E+02  0.96206328788E+02  0.00000000000E+00 0.  1.
          6    2    1    2  501    0  0.53365249510E+02 -0.23419779184E+02  0.39316772961E+02  0.18618355826E+03  0.17240119726E+03 0.  0.
         24    2    3    3    0    0  0.82217550193E+02  0.68430094145E+01  0.71620936848E+02  0.13313696899E+03  0.76087722918E+02 0.  0.
         -6    2    1    2    0  502 -0.53365249510E+02  0.23419779184E+02  0.34057805991E+03  0.38612393220E+03  0.17234250842E+03 0.  0.
        -24    2    5    5    0    0 -0.83724143427E+02  0.47027938890E+02  0.31598982039E+03  0.34023625228E+03  0.81791084795E+02 0.  0.
          5    1    3    3  501    0 -0.28852300682E+02 -0.30262788599E+02 -0.32304163886E+02  0.53046589267E+02  0.47000000000E+01 0. -1.
        -11    1    4    4    0    0  0.39686486158E+01  0.48781453857E+01 -0.15074945046E+02  0.16334027133E+02  0.00000000000E+00 0.  1.
         12    1    4    4    0    0  0.78248901577E+02  0.19648640288E+01  0.86695881894E+02  0.11680294186E+03  0.00000000000E+00 0. -1.
         -5    1    5    5    0  502  0.30358893917E+02 -0.23608159706E+02  0.24588239528E+02  0.45887679911E+02  0.47000000000E+01 0.  1.
         11    1    6    6    0    0  0.60196270317E+01  0.16831070243E+02  0.11240387224E+02  0.21115566298E+02  0.00000000000E+00 0. -1.
        -12    1    6    6    0    0 -0.89743770459E+02  0.30196868648E+02  0.30474943316E+03  0.31912068599E+03  0.00000000000E+00 0.  1.
</event>
<event>
12    1  0.8488291E-002  0.2376180E+03  0.7818608E-02  0.1121429E+00
         21   -1    0    0  501  502  0.00000000000E+00  0.00000000000E+00  0.41463189773E+03  0.41463189773E+03  0.00000000000E+00 0.  1.
         21   -1    0    0  502  503 -0.00000000000E+00 -0.00000000000E+00 -0.29957430065E+03  0.29957430065E+03  0.00000000000E+00 0.  1.
         -6    2    1    2    0  503  0.14496119306E+03 -0.74190211554E+02 -0.20632476680E+03  0.31452013057E+03  0.17272830734E+03 0.  0.
        -24    2    3    3    0    0  0.11944540503E+03  0.39591439873E+01 -0.83370824884E+02  0.16653993243E+03  0.80634825280E+02 0.  0.
          6    2    1    2  501    0 -0.14496119306E+03  0.74190211554E+02  0.32138236387E+03  0.39968606781E+03  0.17304448565E+03 0.  0.
         24    2    5    5    0    0 -0.10631714026E+03  0.10540254546E+03  0.30181476946E+03  0.34608986127E+03  0.79202311244E+02 0.  0.
          5    1    5    5  501    0 -0.38644052804E+02 -0.31212333906E+02  0.19567594409E+02  0.53596206544E+02  0.47000000000E+01 0. -1.
        -11    1    6    6    0    0 -0.20521631275E+02 -0.19780783170E+01  0.87535148433E+01  0.22398083983E+02  0.00000000000E+00 0.  1.
         12    1    6    6    0    0 -0.85795508985E+02  0.10738062378E+03  0.29306125462E+03  0.32369177729E+03  0.00000000000E+00 0. -1.
         -5    1    3    3    0  503  0.25515788032E+02 -0.78149355541E+02 -0.12295394191E+03  0.14798019814E+03  0.47000000000E+01 0.  1.
         13    1    4    4    0    0  0.68846219526E+02 -0.33676456411E+02 -0.25014364037E+02  0.80620246015E+02  0.00000000000E+00 0. -1.
        -14    1    4    4    0    0  0.50599185505E+02  0.37635600398E+02 -0.58356460846E+02  0.85919686415E+02  0.00000000000E+00 0.  1.
</event>
<event>
12    1  0.8488291E-002  0.1761517E+03  0.7818608E-02  0.1172124E+00
         21   -1    0    0  503  502  0.00000000000E+00  0.00000000000E+00  0.10205157849E+04  0.10205157849E+04  0.00000000000E+00 0.  1.
         21   -1    0    0  501  503 -0.00000000000E+00 -0.00000000000E+00 -0.38830007251E+02  0.38830007251E+02  0.00000000000E+00 0.  1.
          6    2    1    2  501    0  0.19078152721E+02 -0.66613623038E+00  0.23637073595E+03  0.29349729399E+03  0.17293096056E+03 0.  0.
         24    2    3    3    0    0  0.61496738317E+02  0.36932316793E+02  0.10529373291E+03  0.15061184757E+03  0.80320069666E+02 0.  0.
         -6    2    1    2    0  502 -0.19078152721E+02  0.66613623038E+00  0.74531504171E+03  0.76584849817E+03  0.17511422301E+03 0.  0.
        -24    2    5    5    0    0 -0.12908425283E+02 -0.47801562188E+02  0.22794281526E+03  0.24615311236E+03  0.78624493043E+02 0.  0.
          5    1    3    3  501    0 -0.42418585596E+02 -0.37598453023E+02  0.13107700304E+03  0.14288544642E+03  0.47000000000E+01 0. -1.
        -11    1    4    4    0    0  0.21382045092E+00 -0.16317544794E+02 -0.15839855521E+01  0.16395639589E+02  0.00000000000E+00 0.  1.
         12    1    4    4    0    0  0.61282917866E+02  0.53249861587E+02  0.10687771847E+03  0.13421620798E+03  0.00000000000E+00 0. -1.
         -5    1    5    5    0  502 -0.61697274376E+01  0.48467698419E+02  0.51737222645E+03  0.51969538581E+03  0.47000000000E+01 0.  1.
         11    1    6    6    0    0  0.32578066692E+02 -0.12580976609E+02  0.98310041884E+02  0.10432869086E+03  0.00000000000E+00 0. -1.
        -12    1    6    6    0    0 -0.45486491975E+02 -0.35220585579E+02  0.12963277337E+03  0.14182442150E+03  0.00000000000E+00 0.  1.
</event>
<event>
12    1  0.8488291E-002  0.1805018E+03  0.7818608E-02  0.1167971E+00
         21   -1    0    0  503  502  0.00000000000E+00  0.00000000000E+00  0.16037165309E+03  0.16037165309E+03  0.00000000000E+00 0. -1.
         21   -1    0    0  501  503 -0.00000000000E+00 -0.00000000000E+00 -0.24579831027E+03  0.24579831027E+03  0.00000000000E+00 0. -1.
          6    2    1    2  501    0 -0.37774750604E+02  0.28316824811E+02 -0.13049498366E+03  0.22273270607E+03  0.17421866502E+03 0.  0.
         24    2    3    3    0    0  0.46367622997E+01 -0.37734249901E+01  0.99742064174E+00  0.80814197944E+02  0.80586608320E+02 0.  0.
         -6    2    1    2    0  502  0.37774750604E+02 -0.28316824811E+02  0.45068326476E+02  0.18343725729E+03  0.17143307429E+03 0.  0.
        -24    2    5    5    0    0  0.56211414363E+02  0.33542068450E+02 -0.37312451251E+01  0.10238220542E+03  0.78634600115E+02 0.  0.
          5    1    3    3  501    0 -0.42411512904E+02  0.32090249802E+02 -0.13149240430E+03  0.14191850813E+03  0.47000000000E+01 0. -1.
        -13    1    4    4    0    0  0.52893670806E+01  0.30603030886E+02  0.24168353527E+02  0.39352664659E+02  0.00000000000E+00 0.  1.
         14    1    4    4    0    0 -0.65260478087E+00 -0.34376455876E+02 -0.23170932886E+02  0.41461533285E+02  0.00000000000E+00 0. -1.
         -5    1    5    5    0  502 -0.18436663759E+02 -0.61858893261E+02  0.48799571601E+02  0.81055051875E+02  0.47000000000E+01 0.  1.
         11    1    6    6    0    0  0.51300416699E+02 -0.11727570242E+02 -0.16395293118E+02  0.55118729064E+02  0.00000000000E+00 0. -1.
        -12    1    6    6    0    0  0.49109976637E+01  0.45269638692E+02  0.12664047993E+02  0.47263476352E+02  0.00000000000E+00 0.  1.
</event>
<event>
12    1  0.8488291E-002  0.2059502E+03  0.7818608E-02  0.1145461E+00
         21   -1    0    0  501  502  0.00000000000E+00  0.00000000000E+00  0.26948952486E+03  0.26948952486E+03  0.00000000000E+00 0.  1.
         21   -1    0    0  502  503 -0.00000000000E+00 -0.00000000000E+00 -0.19194522946E+03  0.19194522946E+03  0.00000000000E+00 0.  1.
         -6    2    1    2    0  503  0.43100837533E+01 -0.11648945831E+03 -0.62222993443E+02  0.21514456116E+03  0.16978548397E+03 0.  0.
        -24    2    3    3    0    0  0.63146284350E+02 -0.69286448956E+02 -0.63272467222E+02  0.13956007871E+03  0.81765183454E+02 0.  0.
          6    2    1    2  501    0 -0.43100837533E+01  0.11648945831E+03  0.13976728884E+03  0.24629019315E+03  0.16593852323E+03 0.  0.
         24    2    5    5    0    0  0.15715289302E+02  0.12521995152E+03  0.55538128644E+02  0.15914733053E+03  0.79475672415E+02 0.  0.
          5    1    5    5  501    0 -0.20025373055E+02 -0.87304932112E+01  0.84229160196E+02  0.87142862617E+02  0.47000000000E+01 0. -1.
        -11    1    6    6    0    0 -0.26333135354E+02  0.13398938755E+02  0.13698379133E+02  0.32567025781E+02  0.00000000000E+00 0.  1.
         12    1    6    6    0    0  0.42048424656E+02  0.11182101276E+03  0.41839749510E+02  0.12658030475E+03  0.00000000000E+00 0. -1.
         -5    1    3    3    0  503 -0.58836200597E+02 -0.47203009352E+02  0.10494737796E+01  0.75584482453E+02  0.47000000000E+01 0.  1.
         11    1    4    4    0    0 -0.19897945939E+02 -0.93924834403E+01 -0.11223612963E+02  0.24700536142E+02  0.00000000000E+00 0. -1.
        -12    1    4    4    0    0  0.83044230289E+02 -0.59893965516E+02 -0.52048854259E+02  0.11485954257E+03  0.00000000000E+00 0.  1.
</event>
<event>
12    1  0.8488291E-002  0.1857101E+03  0.7818608E-02  0.1162917E+00
         21   -1    0    0  503  502  0.00000000000E+00  0.00000000000E+00  0.27097905359E+03  0.27097905359E+03  0.00000000000E+00 0. -1.
         21   -1    0    0  501  503 -0.00000000000E+00 -0.00000000000E+00 -0.12576913768E+03  0.12576913768E+03  0.00000000000E+00 0. -1.
          6    2    1    2  501    0  0.50978202062E+02 -0.43362507353E+02  0.68562023441E+02  0.19584237181E+03  0.17080515041E+03 0.  0.
         24    2    3    3    0    0  0.38442630065E+02 -0.80570193730E+02  0.87717458853E+02  0.15190408330E+03  0.86087780855E+02 0.  0.
         -6    2    1    2    0  502 -0.50978202062E+02  0.43362507353E+02  0.76647892467E+02  0.20090581947E+03  0.17323153508E+03 0.  0.
        -24    2    5    5    0    0 -0.75181719330E+02  0.66887421841E+02  0.97014218086E+02  0.16120557930E+03  0.80307298334E+02 0.  0.
          5    1    3    3  501    0  0.12535571997E+02  0.37207686377E+02 -0.19155435412E+02  0.43938288504E+02  0.47000000000E+01 0. -1.
        -11    1    4    4    0    0  0.16187357281E+02  0.14102633286E+02  0.35583260443E+02  0.41558190830E+02  0.00000000000E+00 0.  1.
         12    1    4    4    0    0  0.22255272784E+02 -0.94672827016E+02  0.52134198410E+02  0.11034589247E+03  0.00000000000E+00 0. -1.
         -5    1    5    5    0  502  0.24203517268E+02 -0.23524914488E+02 -0.20366325619E+02  0.39700240164E+02  0.47000000000E+01 0.  1.
         13    1    6    6    0    0  0.13078234090E+02  0.14365350782E+02  0.38190408263E+02  0.42847529605E+02  0.00000000000E+00 0. -1.
        -14    1    6    6    0    0 -0.88259953421E+02  0.52522071060E+02  0.58823809823E+02  0.11835804970E+03  0.00000000000E+00 0.  1.
</event>
<event>
12    1  0.8488291E-002  0.2003574E+03  0.7818608E-02  0.1149609E+00
         21   -1    0    0  501  502  0.00000000000E+00  0.00000000000E+00  0.82274296013E+03  0.82274296013E+03  0.00000000000E+00 0.  1.
         21   -1    0    0  502  503 -0.00000000000E+00 -0.00000000000E+00 -0.50827864353E+02  0.50827864353E+02  0.00000000000E+00 0.  1.
         -6    2    1    2    0  503  0.15753639729E+02  0.10109528349E+03  0.47677232748E+03  0.51684636074E+03  0.17131805172E+03 0.  0.
        -24    2    3    3    0    0  0.73426870393E+02  0.83924591281E+02  0.36032266212E+03  0.38568368019E+03  0.80527250090E+02 0.  0.
          6    2    1    2  501    0 -0.15753639729E+02 -0.10109528349E+03  0.29514276829E+03  0.35672446374E+03  0.17226333287E+03 0.  0.
         24    2    5    5    0    0 -0.50776068690E+02 -0.16022337466E+01  0.14210842034E+03  0.17080233184E+03  0.79986605922E+02 0.  0.
          5    1    5    5  501    0  0.35022428961E+02 -0.99493049744E+02  0.15303434795E+03  0.18592213190E+03  0.47000000000E+01 0. -1.
        -11    1    6    6    0    0  0.39257421899E+00  0.32036898585E+02  0.35196567068E+02  0.47595328750E+02  0.00000000000E+00 0.  1.
         12    1    6    6    0    0 -0.51168642909E+02 -0.33639132331E+02  0.10691185327E+03  0.12320700309E+03  0.00000000000E+00 0. -1.
         -5    1    3    3    0  503 -0.57673230664E+02  0.17170692209E+02  0.11644966536E+03  0.13116268055E+03  0.47000000000E+01 0.  1.
         13    1    4    4    0    0  0.42562351241E+02  0.70386412123E+02  0.13672642068E+03  0.15956163344E+03  0.00000000000E+00 0. -1.
        -14    1    4    4    0    0  0.30864519152E+02  0.13538179158E+02  0.22359624144E+03  0.22612204675E+03  0.00000000000E+00 0.  1.
</event>
<event>
12    1  0.8488291E-002  0.2142028E+03  0.7818608E-02  0.1138347E+00
         21   -1    0    0  501  502  0.00000000000E+00  0.00000000000E+00  0.18907758485E+03  0.18907758485E+03  0.00000000000E+00 0. -1.
         21   -1    0    0  502  503 -0.00000000000E+00 -0.00000000000E+00 -0.24812373625E+03  0.24812373625E+03  0.00000000000E+00 0. -1.
         -6    2    1    2    0  503 -0.10210209409E+03  0.75352672493E+02 -0.63051718389E+02  0.22296103556E+03  0.17214308385E+03 0.  0.
        -24    2    3    3    0    0 -0.91064395641E+02  0.21645592690E+02 -0.98606181267E+02  0.15744393063E+03  0.79398718328E+02 0.  0.
          6    2    1    2  501    0  0.10210209409E+03 -0.75352672493E+02  0.40055669969E+01  0.21424028554E+03  0.17256880515E+03 0.  0.
         24    2    5    5    0    0 -0.56847581398E+01 -0.73473800654E+02 -0.10179302823E+02  0.10540630093E+03  0.74673651391E+02 0.  0.
          5    1    5    5  501    0  0.10778685223E+03 -0.18788718397E+01  0.14184869820E+02  0.10883398461E+03  0.47000000000E+01 0. -1.
        -11    1    6    6    0    0 -0.27281211935E+02 -0.33672069503E+01 -0.16021301905E+02  0.31816422206E+02  0.00000000000E+00 0.  1.
         12    1    6    6    0    0  0.21596453795E+02 -0.70106593703E+02  0.58419990820E+01  0.73589878723E+02  0.00000000000E+00 0. -1.
         -5    1    3    3    0  503 -0.11037698452E+02  0.53707079803E+02  0.35554462878E+02  0.65517104932E+02  0.47000000000E+01 0.  1.
         11    1    4    4    0    0 -0.98088058026E+02  0.31723650511E+02 -0.10166202708E+03  0.14478544429E+03  0.00000000000E+00 0. -1.
        -12    1    4    4    0    0  0.70236623859E+01 -0.10078057821E+02  0.30558458126E+01  0.12658486338E+02  0.00000000000E+00 0.  1.
</event>
<event>
12    1  0.8488291E-002  0.2144722E+03  0.7818608E-02  0.1138707E+00
         21   -1    0    0  501  502  0.00000000000E+00  0.00000000000E+00  0.15034523620E+03  0.15034523620E+03  0.00000000000E+00 0.  1.
         21   -1    0    0  502  503 -0.00000000000E+00 -0.00000000000E+00 -0.30645539548E+03  0.30645539548E+03  0.00000000000E+00 0.  1.
         -6    2    1    2    0  503  0.18729864307E+02  0.12619107629E+03 -0.49051611194E+02  0.22001000082E+03  0.17240459491E+03 0.  0.
        -24    2    3    3    0    0 -0.26582929120E+01  0.44343215096E+02  0.37941099869E+02  0.98575461130E+02  0.79399037975E+02 0.  0.
          6    2    1    2  501    0 -0.18729864307E+02 -0.12619107629E+03 -0.10705854808E+03  0.23679063086E+03  0.16832490782E+03 0.  0.
         24    2    5    5    0    0  0.32270871894E+02 -0.12239962438E+03 -0.11048373657E+03  0.18531955047E+03  0.78189529457E+02 0.  0.
          5    1    5    5  501    0 -0.51000736201E+02 -0.37914519115E+01  0.34251884913E+01  0.51471080393E+02  0.47000000000E+01 0. -1.
        -11    1    6    6    0    0  0.12266368784E+02 -0.12644734754E+03 -0.85846697798E+02  0.15332661551E+03  0.00000000000E+00 0.  1.
         12    1    6    6    0    0  0.20004503111E+02  0.40477231525E+01 -0.24637038777E+02  0.31992934956E+02  0.00000000000E+00 0. -1.
         -5    1    3    3    0  503  0.21388157219E+02  0.81847861199E+02 -0.86992711063E+02  0.12143453969E+03  0.47000000000E+01 0.  1.
         13    1    4    4    0    0 -0.31260317207E+02  0.52492907958E+02  0.28108547262E+02  0.67251789916E+02  0.00000000000E+00 0. -1.
        -14    1    4    4    0    0  0.28602024295E+02 -0.81496928626E+01  0.98325526074E+01  0.31323671213E+02  0.00000000000E+00 0.  1.
</event>
<event>
12    1  0.8488291E-002  0.1867322E+03  0.7818608E-02  0.1163732E+00
         21   -1    0    0  503  502  0.00000000000E+00  0.00000000000E+00  0.18326738120E+02  0.18326738120E+02  0.00000000000E+00 0.  1.
         21   -1    0    0  501  503 -0.00000000000E+00 -0.00000000000E+00 -0.23257423549E+04  0.23257423549E+04  0.00000000000E+00 0.  1.
          6    2    1    2  501    0  0.14603490601E+02 -0.42394912455E+02 -0.17315930297E+04  0.17416323789E+04  0.18126867384E+03 0.  0.
         24    2    3    3    0    0 -0.16137423241E+02 -0.26525972590E+02 -0.35314878814E+03  0.36274607315E+03  0.76854429739E+02 0.  0.
         -6    2    1    2    0  502 -0.14603490601E+02  0.42394912455E+02 -0.57582258711E+03  0.60243671418E+03  0.17131185661E+03 0.  0.
        -24    2    5    5    0    0 -0.18680807516E+02  0.22478357753E+02 -0.12099493454E+03  0.14713068829E+03  0.78443713036E+02 0.  0.
          5    1    3    3  501    0  0.30740913842E+02 -0.15868939865E+02 -0.13784442415E+04  0.13788863057E+04  0.47000000000E+01 0. -1.
        -13    1    4    4    0    0 -0.77431231225E+01 -0.53418308584E+02 -0.25404491427E+03  0.25971578718E+03  0.00000000000E+00 0.  1.
         14    1    4    4    0    0 -0.83943001184E+01  0.26892335994E+02 -0.99103873870E+02  0.10303028596E+03  0.00000000000E+00 0. -1.
         -5    1    5    5    0  502  0.40773169153E+01  0.19916554702E+02 -0.45482765257E+03  0.45530602589E+03  0.47000000000E+01 0.  1.
         11    1    6    6    0    0 -0.18147215839E+02 -0.27880486033E+02 -0.44932069201E+02  0.55906473569E+02  0.00000000000E+00 0. -1.
        -12    1    6    6    0    0 -0.53359167694E+00  0.50358843786E+02 -0.76062865340E+02  0.91224214720E+02  0.00000000000E+00 0.  1.
</event>
<event>
12    1  0.8488291E-002  0.1720782E+03  0.7818608E-02  0.1175862E+00
         21   -1    0    0  503  502  0.00000000000E+00  0.00000000000E+00  0.59173840668E+03  0.59173840668E+03  0.00000000000E+00 0. -1.
         21   -1    0    0  501  503 -0.00000000000E+00 -0.00000000000E+00 -0.50641839948E+02  0.50641839948E+02  0.00000000000E+00 0. -1.
          6    2    1    2  501    0 -0.10750133372E+02 -0.87915919538E+01  0.23001609358E+03  0.28687785180E+03  0.17087609865E+03 0.  0.
         24    2    3    3    0    0 -0.43112451558E+02 -0.52697218393E+02  0.72056994944E+02  0.11970072862E+03  0.67084823969E+02 0.  0.
         -6    2    1    2    0  502  0.10750133372E+02  0.87915919538E+01  0.31108047315E+03  0.35550239482E+03  0.17151686359E+03 0.  0.
        -24    2    5    5    0    0  0.11274064924E+02  0.68568490566E+02  0.23747031024E+03  0.26055979009E+03  0.81673211787E+02 0.  0.
          5    1    3    3  501    0  0.32362318186E+02  0.43905626440E+02  0.15795909864E+03  0.16717712318E+03  0.47000000000E+01 0. -1.
        -11    1    4    4    0    0 -0.90777899174E+01 -0.37053904369E+02 -0.38051283336E+00  0.38151577803E+02  0.00000000000E+00 0.  1.
         12    1    4    4    0    0 -0.34034661641E+02 -0.15643314024E+02  0.72437507778E+02  0.81549150822E+02  0.00000000000E+00 0. -1.
         -5    1    5    5    0  502 -0.52393155150E+00 -0.59776898612E+02  0.73610162902E+02  0.94942604738E+02  0.47000000000E+01 0.  1.
         13    1    6    6    0    0  0.26779969038E+01 -0.14629708561E+02  0.92971683489E+01  0.17539594617E+02  0.00000000000E+00 0. -1.
        -14    1    6    6    0    0  0.85960680200E+01  0.83198199127E+02  0.22817314190E+03  0.24302019547E+03  0.00000000000E+00 0.  1.
</event>
<event>
12    1  0.8488291E-002  0.3377439E+03  0.7818608E-02  0.1067794E+00
         21   -1    0    0  503  502  0.00000000000E+00  0.00000000000E+00  0.20784794640E+03  0.20784794640E+03  0.00000000000E+00 0.  1.
         21   -1    0    0  501  503 -0.00000000000E+00 -0.00000000000E+00 -0.75641292400E+03  0.75641292400E+03  0.00000000000E+00 0. -1.
          6    2    1    2  501    0  0.24528205114E+03 -0.15659498045E+03 -0.52725630888E+03  0.62615507567E+03  0.17142255111E+03 0.  0.
         24    2    3    3    0    0  0.80959092322E+02 -0.12700924052E+03 -0.27431999473E+03  0.32304417218E+03  0.80127123167E+02 0.  0.
         -6    2    1    2    0  502 -0.24528205114E+03  0.15659498045E+03 -0.21308668730E+02  0.33810579472E+03  0.17081041113E+03 0.  0.
        -24    2    5    5    0    0 -0.10407727328E+03  0.13890384934E+03  0.13791333407E+02  0.19145701171E+03  0.79619270794E+02 0.  0.
          5    1    3    3  501    0  0.16432295881E+03 -0.29585739937E+02 -0.25293631415E+03  0.30311090349E+03  0.47000000000E+01 0. -1.
        -11    1    4    4    0    0 -0.99462854720E+01 -0.51034654757E+02 -0.89714157799E+02  0.10369230777E+03  0.00000000000E+00 0.  1.
         12    1    4    4    0    0  0.90905377794E+02 -0.75974585760E+02 -0.18460583693E+03  0.21935186441E+03  0.00000000000E+00 0. -1.
         -5    1    5    5    0  502 -0.14120477785E+03  0.17691131116E+02 -0.35100002138E+02  0.14664878301E+03  0.47000000000E+01 0.  1.
         13    1    6    6    0    0 -0.23031927983E+02  0.33006934251E+02 -0.30980209870E+02  0.50790755250E+02  0.00000000000E+00 0. -1.
        -14    1    6    6    0    0 -0.81045345298E+02  0.10589691509E+03  0.44771543277E+02  0.14066625646E+03  0.00000000000E+00 0.  1.
</event>
<event>
12    1  0.8488291E-002  0.2085840E+03  0.7818608E-02  0.1142790E+00
         21   -1    0    0  501  502  0.00000000000E+00  0.00000000000E+00  0.64117123720E+03  0.64117123720E+03  0.00000000000E+00 0. -1.
         21   -1    0    0  502  503 -0.00000000000E+00 -0.00000000000E+00 -0.18624766817E+03  0.18624766817E+03  0.00000000000E+00 0. -1.
         -6    2    1    2    0  503  0.11553089645E+03 -0.20068630339E+02 -0.10250854229E+03  0.23241187614E+03  0.17250258251E+03 0.  0.
        -24    2    3    3    0    0  0.70036013922E+02 -0.74652128991E+02 -0.94466707859E+02  0.16074665611E+03  0.80234312782E+02 0.  0.
          6    2    1    2  501    0 -0.11553089645E+03  0.20068630339E+02  0.55743211132E+03  0.59500702924E+03  0.17190889492E+03 0.  0.
         24    2    5    5    0    0 -0.21431183444E+02 -0.23320425498E+02  0.37209964020E+03  0.38262157540E+03  0.83294596756E+02 0.  0.
          5    1    5    5  501    0 -0.94099713003E+02  0.43389055837E+02  0.18533247111E+03  0.21238545384E+03  0.47000000000E+01 0. -1.
        -11    1    6    6    0    0  0.42914064829E+01 -0.47898177197E+00 -0.34331130929E+01  0.55165078309E+01  0.00000000000E+00 0.  1.
         12    1    6    6    0    0 -0.25722589927E+02 -0.22841443726E+02  0.37553275330E+03  0.37710506756E+03  0.00000000000E+00 0. -1.
         -5    1    3    3    0  503  0.45494882525E+02  0.54583498652E+02 -0.80418344264E+01  0.71665220030E+02  0.47000000000E+01 0.  1.
         13    1    4    4    0    0  0.80068491402E+02 -0.35459392841E+02 -0.77273604588E+02  0.11678844901E+03  0.00000000000E+00 0. -1.
        -14    1    4    4    0    0 -0.10032477480E+02 -0.39192736150E+02 -0.17193103271E+02  0.43958207099E+02  0.00000000000E+00 0.  1.
</event>
<event>
12    1  0.8488291E-002  0.1850372E+03  0.7818608E-02  0.1163721E+00
         21   -1    0    0  503  502  0.00000000000E+00  0.00000000000E+00  0.31163977809E+03  0.31163977809E+03  0.00000000000E+00 0.  1.
         21   -1    0    0  501  503 -0.00000000000E+00 -0.00000000000E+00 -0.12037489067E+03  0.12037489067E+03  0.00000000000E+00 0.  1.
          6    2    1    2  501    0  0.99941419120E+01 -0.65168239992E+02  0.25936666994E+02  0.18387722626E+03  0.16968011453E+03 0.  0.
         24    2    3    3    0    0  0.58179362875E+01 -0.99473967833E+02 -0.16420374933E+02  0.12900890519E+03  0.80279201827E+02 0.  0.
         -6    2    1    2    0  502 -0.99941419120E+01  0.65168239992E+02  0.16532822043E+03  0.24813744250E+03  0.17289299444E+03 0.  0.
        -24    2    5    5    0    0  0.12602691485E+02 -0.21073441991E+02  0.36235731169E+02  0.91181380584E+02  0.79988112628E+02 0.  0.
          5    1    3    3  501    0  0.41762056245E+01  0.34305727841E+02  0.42357041927E+02  0.54868321069E+02  0.47000000000E+01 0. -1.
        -13    1    4    4    0    0 -0.10485907135E+02 -0.89835826230E+01 -0.32823739087E+02  0.35609785914E+02  0.00000000000E+00 0.  1.
         14    1    4    4    0    0  0.16303843422E+02 -0.90490385210E+02  0.16403364154E+02  0.93399119276E+02  0.00000000000E+00 0. -1.
         -5    1    5    5    0  502 -0.22596833397E+02  0.86241681983E+02  0.12909248926E+03  0.15695606192E+03  0.47000000000E+01 0.  1.
         13    1    6    6    0    0 -0.52574214667E+01 -0.35219169862E+02  0.52322979706E+02  0.63290794051E+02  0.00000000000E+00 0. -1.
        -14    1    6    6    0    0  0.17860112951E+02  0.14145727871E+02 -0.16087248537E+02  0.27890586533E+02  0.00000000000E+00 0.  1.
</event>
<event>
12    1  0.8488291E-002  0.3201008E+03  0.7818608E-02  0.1075728E+00
         21   -1    0    0  501  502  0.00000000000E+00  0.00000000000E+00  0.11734216432E+04  0.11734216432E+04  0.00000000000E+00 0. -1.
         21   -1    0    0  502  503 -0.00000000000E+00 -0.00000000000E+00 -0.88642832533E+02  0.88642832533E+02  0.00000000000E+00 0. -1.
         -6    2    1    2    0  503 -0.25669952380E+03 -0.84744861288E+02  0.62855896351E+03  0.70537289306E+03  0.17142990005E+03 0.  0.
        -24    2    3    3    0    0 -0.22140497175E+03 -0.77100770144E+02  0.38145956679E+03  0.45560432140E+03  0.84256787899E+02 0.  0.
          6    2    1    2  501    0  0.25669952380E+03  0.84744861288E+02  0.45621984711E+03  0.55669158262E+03  0.16938899678E+03 0.  0.
         24    2    5    5    0    0  0.72445167901E+02 -0.12791837989E+02  0.18459753911E+03  0.21425349540E+03  0.80102280713E+02 0.  0.
          5    1    5    5  501    0  0.18425435590E+03  0.97536699277E+02  0.27162230800E+03  0.34243808722E+03  0.47000000000E+01 0. -1.
        -13    1    6    6    0    0 -0.10275486729E+02 -0.14255124431E+02  0.81457891627E+01  0.19368739793E+02  0.00000000000E+00 0.  1.
         14    1    6    6    0    0  0.82720654631E+02  0.14632864417E+01  0.17645174995E+03  0.19488475561E+03  0.00000000000E+00 0. -1.
         -5    1    3    3    0  503 -0.35294552046E+02 -0.76440911438E+01  0.24709939672E+03  0.24976857167E+03  0.47000000000E+01 0.  1.
         11    1    4    4    0    0 -0.17844839490E+03 -0.78829261649E+02  0.35514588583E+03  0.40519931189E+03  0.00000000000E+00 0. -1.
        -12    1    4    4    0    0 -0.42956576850E+02  0.17284915056E+01  0.26313680957E+02  0.50405009503E+02  0.00000000000E+00 0.  1.
</event>
<event>
12    1  0.8488291E-002  0.1838590E+03  0.7818608E-02  0.1164622E+00
         21   -1    0    0  501  502  0.00000000000E+00  0.00000000000E+00  0.32529104094E+03  0.32529104094E+03  0.00000000000E+00 0.  1.
         21   -1    0    0  502  503 -0.00000000000E+00 -0.00000000000E+00 -0.13129868566E+03  0.13129868566E+03  0.00000000000E+00 0.  1.
         -6    2    1    2    0  503  0.59393696370E+02 -0.15709271235E+02 -0.90626731277E+01  0.18408219549E+03  0.17329088343E+03 0.  0.
        -24    2    3    3    0    0  0.10735016210E+03 -0.10267153006E+02  0.37538943534E+01  0.13392450756E+03  0.79323453467E+02 0.  0.
          6    2    1    2  501    0 -0.59393696370E+02  0.15709271235E+02  0.20305502840E+03  0.27250753112E+03  0.17103981287E+03 0.  0.
         24    2    5    5    0    0 -0.28818078606E+02 -0.50157556442E+02  0.16035392125E+03  0.18813465667E+03  0.79592756319E+02 0.  0.
          5    1    5    5  501    0 -0.30575617764E+02  0.65866827677E+02  0.42701107152E+02  0.84372874444E+02  0.47000000000E+01 0. -1.
        -13    1    6    6    0    0  0.25555699836E+02 -0.11208887340E+02  0.26417863718E+02  0.38427027896E+02  0.00000000000E+00 0.  1.
         14    1    6    6    0    0 -0.54373778442E+02 -0.38948669102E+02  0.13393605753E+03  0.14970762878E+03  0.00000000000E+00 0. -1.
         -5    1    3    3    0  503 -0.47956465727E+02 -0.54421182289E+01 -0.12816567481E+02  0.50157687924E+02  0.47000000000E+01 0.  1.
         11    1    4    4    0    0  0.29864601713E+02 -0.34815673844E+02 -0.18798947903E+02  0.49572432087E+02  0.00000000000E+00 0. -1.
        -12    1    4    4    0    0  0.77485560384E+02  0.24548520838E+02  0.22552842256E+02  0.84352075476E+02  0.00000000000E+00 0.  1.
</event>
<event>
12    1  0.8488291E-002  0.1798874E+03  0.7818608E-02  0.1168628E+00
         21   -1    0    0  503  502  0.00000000000E+00  0.00000000000E+00  0.30083700054E+03  0.30083700054E+03  0.00000000000E+00 0.  1.
         21   -1    0    0  501  503 -0.00000000000E+00 -0.00000000000E+00 -0.12342883309E+04  0.12342883309E+04  0.00000000000E+00 0.  1.
          6    2    1    2  501    0  0.24638490009E+02 -0.30341969373E+02 -0.12003175624E+04  0.12132914364E+04  0.17258669937E+03 0.  0.
         24    2    3    3    0    0 -0.15647852432E+02 -0.27834953086E+01 -0.27761406206E+03  0.28928586371E+03  0.79775562382E+02 0.  0.
         -6    2    1    2    0  502 -0.24638490009E+02  0.30341969373E+02  0.26686623203E+03  0.32183389503E+03  0.17558980579E+03 0.  0.
        -24    2    5    5    0    0  0.27989065180E+02  0.34722673274E+02  0.24981137541E+03  0.26614001506E+03  0.80223017412E+02 0.  0.
          5    1    3    3  501    0  0.40286342442E+02 -0.27558474064E+02 -0.92270350036E+03  0.92400557274E+03  0.47000000000E+01 0. -1.
        -13    1    4    4    0    0  0.31091003932E+02  0.95907052421E+01 -0.12700398360E+03  0.13110546900E+03  0.00000000000E+00 0.  1.
         14    1    4    4    0    0 -0.46738856364E+02 -0.12374200551E+02 -0.15061007847E+03  0.15818039470E+03  0.00000000000E+00 0. -1.
         -5    1    5    5    0  502 -0.52627555189E+02 -0.43807039012E+01  0.17054856620E+02  0.55693879971E+02  0.47000000000E+01 0.  1.
         13    1    6    6    0    0 -0.72625306907E+01 -0.19700198270E+02  0.27705843540E+02  0.34762852734E+02  0.00000000000E+00 0. -1.
        -14    1    6    6    0    0  0.35251595871E+02  0.54422871544E+02  0.22210553187E+03  0.23137716233E+03  0.00000000000E+00 0.  1.
</event>
<event>
12    1  0.8488291E-002  0.5012635E+03  0.7818608E-02  0.1013458E+00
         21   -1    0    0  503  502  0.00000000000E+00  0.00000000000E+00  0.28789841966E+03  0.28789841966E+03  0.00000000000E+00 0.  1.
         21   -1    0    0  501  503 -0.00000000000E+00 -0.00000000000E+00 -0.97695013528E+03  0.97695013528E+03  0.00000000000E+00 0. -1.
          6    2    1    2  501    0  0.26206900111E+03  0.39097312273E+03 -0.55123808908E+03  0.74498543700E+03  0.17204571033E+03 0.  0.
         24    2    3    3    0    0  0.95400516334E+02  0.22511362813E+03 -0.21357105895E+03  0.33348954515E+03  0.76323491915E+02 0.  0.
         -6    2    1    2    0  502 -0.26206900111E+03 -0.39097312273E+03 -0.13781362654E+03  0.51986311795E+03  0.17240916945E+03 0.  0.
        -24    2    5    5    0    0 -0.75302420016E+02 -0.13281229428E+03 -0.99370038572E+02  0.19888217053E+03  0.79813239594E+02 0.  0.
          5    1    3    3  501    0  0.16666848477E+03  0.16585949459E+03 -0.33766703013E+03  0.41149589184E+03  0.47000000000E+01 0. -1.
        -11    1    4    4    0    0 -0.11813620981E+02  0.36647240279E+02 -0.23231074178E+02  0.44969597154E+02  0.00000000000E+00 0.  1.
         12    1    4    4    0    0  0.10721413731E+03  0.18846638786E+03 -0.19033998477E+03  0.28851994800E+03  0.00000000000E+00 0. -1.
         -5    1    5    5    0  502 -0.18676658109E+03 -0.25816082844E+03 -0.38443587965E+02  0.32098094743E+03  0.47000000000E+01 0.  1.
         13    1    6    6    0    0 -0.87012383352E+02 -0.10746514227E+03 -0.60276582213E+02  0.15084156597E+03  0.00000000000E+00 0. -1.
        -14    1    6    6    0    0  0.11709963336E+02 -0.25347152013E+02 -0.39093456358E+02  0.48040604560E+02  0.00000000000E+00 0.  1.
</event>
<event>
12    1  0.8488291E-002  0.2448253E+03  0.7818608E-02  0.1117425E+00
         21   -1    0    0  503  502  0.00000000000E+00  0.00000000000E+00  0.16292333658E+04  0.16292333658E+04  0.00000000000E+00 0.  1.
         21   -1    0    0  501  503 -0.00000000000E+00 -0.00000000000E+00 -0.36134233062E+02  0.36134233062E+02  0.00000000000E+00 0.  1.
          6    2    1    2  501    0 -0.15114364920E+02 -0.16604742587E+03  0.76577427940E+03  0.80395874731E+03  0.17927417195E+03 0.  0.
         24    2    3    3    0    0 -0.51036211452E+02 -0.18122288215E+03  0.62051937158E+03  0.65348698326E+03  0.80959983276E+02 0.  0.
         -6    2    1    2    0  502  0.15114364920E+02  0.16604742587E+03  0.82732485335E+03  0.86140885156E+03  0.17250682569E+03 0.  0.
        -24    2    5    5    0    0 -0.24737461150E+02  0.60176899158E+02  0.58413830740E+03  0.59315799396E+03  0.79910214992E+02 0.  0.
          5    1    3    3  501    0  0.35921846532E+02  0.15175456279E+02  0.14525490782E+03  0.15047176405E+03  0.47000000000E+01 0. -1.
        -11    1    4    4    0    0 -0.14011107661E+02 -0.79473037414E+02  0.14647460241E+03  0.16723362092E+03  0.00000000000E+00 0.  1.
         12    1    4    4    0    0 -0.37025103792E+02 -0.10174984473E+03  0.47404476917E+03  0.48625336234E+03  0.00000000000E+00 0. -1.
         -5    1    5    5    0  502  0.39851826070E+02  0.10587052671E+03  0.24318654596E+03  0.26825085760E+03  0.47000000000E+01 0.  1.
         13    1    6    6    0    0 -0.12111265586E+02  0.28336467473E+02  0.56072912165E+02  0.63982885381E+02  0.00000000000E+00 0. -1.
        -14    1    6    6    0    0 -0.12626195564E+02  0.31840431685E+02  0.52806539523E+03  0.52917510858E+03  0.00000000000E+00 0.  1.
</event>
<event>
12    1  0.8488291E-002  0.1911459E+03  0.7818608E-02  0.1157623E+00
         21   -1    0    0  501  502  0.00000000000E+00  0.00000000000E+00  0.11011374725E+03  0.11011374725E+03  0.00000000000E+00 0.  1.
         21   -1    0    0  502  503 -0.00000000000E+00 -0.00000000000E+00 -0.58231434710E+03  0.58231434710E+03  0.00000000000E+00 0. -1.
         -6    2    1    2    0  503 -0.49568238245E+02  0.67526173381E+02 -0.46354650596E+03  0.50108636194E+03  0.17086656957E+03 0.  0.
        -24    2    3    3    0    0 -0.48338376759E+02  0.11160308290E+03 -0.33822696607E+03  0.36815268076E+03  0.79668494361E+02 0.  0.
          6    2    1    2  501    0  0.49568238245E+02 -0.67526173381E+02 -0.86540938947E+01  0.19134173242E+03  0.17181376804E+03 0.  0.
         24    2    5    5    0    0 -0.59157228714E+01 -0.44061434917E+02  0.51102498860E+02  0.10635935618E+03  0.82002691628E+02 0.  0.
          5    1    5    5  501    0  0.55483961116E+02 -0.23464738464E+02 -0.59756592755E+02  0.84982376231E+02  0.47000000000E+01 0. -1.
        -11    1    6    6    0    0 -0.26931796025E+01  0.14577762855E+02  0.44924943820E+02  0.47307662841E+02  0.00000000000E+00 0.  1.
         12    1    6    6    0    0 -0.32225432688E+01 -0.58639197772E+02  0.61775550397E+01  0.59051693343E+02  0.00000000000E+00 0. -1.
         -5    1    3    3    0  503 -0.12298614852E+01 -0.44076909522E+02 -0.12531953989E+03  0.13293368118E+03  0.47000000000E+01 0.  1.
         11    1    4    4    0    0 -0.47259896139E+02  0.60356696592E+02 -0.10895119306E+03  0.13321708252E+03  0.00000000000E+00 0. -1.
        -12    1    4    4    0    0 -0.10784806201E+01  0.51246386311E+02 -0.22927577301E+03  0.23493559824E+03  0.00000000000E+00 0.  1.
</event>
<event>
12    1  0.8488291E-002  0.1771712E+03  0.7818608E-02  0.1170686E+00
         21   -1    0    0  501  502  0.00000000000E+00  0.00000000000E+00  0.59964966597E+03  0.59964966597E+03  0.00000000000E+00 0. -1.
         21   -1    0    0  502  503 -0.00000000000E+00 -0.00000000000E+00 -0.12346268718E+03  0.12346268718E+03  0.00000000000E+00 0. -1.
         -6    2    1    2    0  503  0.17437722264E+02 -0.34588089619E+02 -0.36446190813E+02  0.18088110263E+03  0.17288504378E+03 0.  0.
        -24    2    3    3    0    0  0.11965010064E+02  0.42618641266E+02 -0.52274560868E+01  0.97289660058E+02  0.86477983371E+02 0.  0.
          6    2    1    2  501    0 -0.17437722264E+02  0.34588089619E+02  0.51263316961E+03  0.54223125053E+03  0.17239939782E+03 0.  0.
         24    2    5    5    0    0 -0.58904834440E+02 -0.63678806122E+00  0.44028826590E+03  0.45158805723E+03  0.81288568201E+02 0.  0.
          5    1    5    5  501    0  0.41467112177E+02  0.35224877680E+02  0.72344903702E+02  0.90643193299E+02  0.47000000000E+01 0. -1.
        -13    1    6    6    0    0 -0.45170835589E+02  0.40508336267E+01  0.87982215037E+02  0.98983250117E+02  0.00000000000E+00 0.  1.
         14    1    6    6    0    0 -0.13733998851E+02 -0.46876216879E+01  0.35230605087E+03  0.35260480711E+03  0.00000000000E+00 0. -1.
         -5    1    3    3    0  503  0.54727121998E+01 -0.77206730884E+02 -0.31218734727E+02  0.83591442568E+02  0.47000000000E+01 0.  1.
         11    1    4    4    0    0  0.28155197120E+02  0.90283372471E+01 -0.37653032215E+02  0.47874594863E+02  0.00000000000E+00 0. -1.
        -12    1    4    4    0    0 -0.16190187056E+02  0.33590304019E+02  0.32425576128E+02  0.49415065195E+02  0.00000000000E+00 0.  1.
</event>
<event>
12    1  0.8488291E-002  0.2131358E+03  0.7818608E-02  0.1139721E+00
         21   -1    0    0  503  502  0.00000000000E+00  0.00000000000E+00  0.54028639409E+02  0.54028639409E+02  0.00000000000E+00 0. -1.
         21   -1    0    0  501  503 -0.00000000000E+00 -0.00000000000E+00 -0.84521709993E+03  0.84521709993E+03  0.00000000000E+00 0. -1.
          6    2    1    2  501    0  0.26802444564E+02 -0.11764799707E+03 -0.46180423809E+03  0.50861581259E+03  0.17569140061E+03 0.  0.
         24    2    3    3    0    0 -0.93362513733E+01  0.72302098245E+01 -0.12858504319E+03  0.15090406586E+03  0.78092779664E+02 0.  0.
         -6    2    1    2    0  502 -0.26802444564E+02  0.11764799707E+03 -0.32938422243E+03  0.39062992675E+03  0.17186724946E+03 0.  0.
        -24    2    5    5    0    0 -0.82834088714E+02  0.75791513327E+02 -0.24504465260E+03  0.28096332556E+03  0.79294822004E+02 0.  0.
          5    1    3    3  501    0  0.36138695937E+02 -0.12487820689E+03 -0.33321919489E+03  0.35771174673E+03  0.47000000000E+01 0. -1.
        -13    1    4    4    0    0  0.12063633332E+02  0.36513977849E+02 -0.41552107661E+02  0.56616070851E+02  0.00000000000E+00 0.  1.
         14    1    4    4    0    0 -0.21399884705E+02 -0.29283768024E+02 -0.87032935533E+02  0.94287995008E+02  0.00000000000E+00 0. -1.
         -5    1    5    5    0  502  0.56031644150E+02  0.41856483742E+02 -0.84339569826E+02  0.10966660119E+03  0.47000000000E+01 0.  1.
         11    1    6    6    0    0 -0.74969925337E+01  0.59779784464E+02 -0.10034566969E+03  0.11704307306E+03  0.00000000000E+00 0. -1.
        -12    1    6    6    0    0 -0.75337096180E+02  0.16011728863E+02 -0.14469898292E+03  0.16392025250E+03  0.00000000000E+00 0.  1.
</event>
<event>
12    1  0.8488291E-002  0.2028701E+03  0.7818608E-02  0.1147685E+00
         21   -1    0    0  501  502  0.00000000000E+00  0.00000000000E+00  0.17190402982E+03  0.17190402982E+03  0.00000000000E+00 0.  1.
         21   -1    0    0  502  503 -0.00000000000E+00 -0.00000000000E+00 -0.24048905564E+03  0.24048905564E+03  0.00000000000E+00 0.  1.
         -6    2    1    2    0  503  0.50531131448E+02 -0.91342267706E+02 -0.11295814683E+02  0.20318437652E+03  0.17395255192E+03 0.  0.
        -24    2    3    3    0    0  0.80523417044E+02 -0.84865774400E+01 -0.16030962949E+02  0.11481518373E+03  0.79809096937E+02 0.  0.
          6    2    1    2  501    0 -0.50531131448E+02  0.91342267706E+02 -0.57289211139E+02  0.20920870893E+03  0.17201576981E+03 0.  0.
         24    2    5    5    0    0 -0.95528340002E+02  0.90637749894E+02 -0.52677364192E+02  0.16372679763E+03  0.81796663231E+02 0.  0.
          5    1    5    5  501    0  0.44997208554E+02  0.70451781152E+00 -0.46118469470E+01  0.45481911297E+02  0.47000000000E+01 0. -1.
        -13    1    6    6    0    0 -0.11607979413E+02 -0.12474754606E+02  0.64562222209E+01  0.18222170395E+02  0.00000000000E+00 0.  1.
         14    1    6    6    0    0 -0.83920360589E+02  0.10311250450E+03 -0.59133586413E+02  0.14550462724E+03  0.00000000000E+00 0. -1.
         -5    1    3    3    0  503 -0.29992285596E+02 -0.82855690266E+02  0.47351482664E+01  0.88369192787E+02  0.47000000000E+01 0.  1.
         11    1    4    4    0    0 -0.54816844763E+01  0.69474519938E+01 -0.25435995810E+02  0.26931502683E+02  0.00000000000E+00 0. -1.
        -12    1    4    4    0    0  0.86005101520E+02 -0.15434029434E+02  0.94050328610E+01  0.87883681051E+02  0.00000000000E+00 0.  1.
</event>
<event>
12    1  0.8488291E-002  0.2136235E+03  0.7818608E-02  0.1138845E+00
         21   -1    0    0  503  502  0.00000000000E+00  0.00000000000E+00  0.43507996241E+03  0.43507996241E+03  0.00000000000E+00 0.  1.
         21   -1    0    0  501  503 -0.00000000000E+00 -0.00000000000E+00 -0.10836838477E+03  0.10836838477E+03  0.00000000000E+00 0.  1.
          6    2    1    2  501    0  0.31666245449E+02  0.12173729973E+03  0.11285691937E+03  0.24160231537E+03  0.17266231001E+03 0.  0.
         24    2    3    3    0    0  0.30199234033E+02  0.15481545399E+03  0.11061520153E+03  0.20808468254E+03  0.78636465901E+02 0.  0.
         -6    2    1    2    0  502 -0.31666245449E+02 -0.12173729973E+03  0.21385465827E+03  0.30184603181E+03  0.17191419607E+03 0.  0.
        -24    2    5    5    0    0 -0.63726768219E+02 -0.13361582511E+02  0.96738670013E+02  0.13902275980E+03  0.75692302064E+02 0.  0.
          5    1    3    3  501    0  0.14670114162E+01 -0.33078154262E+02  0.22417178405E+01  0.33517632833E+02  0.47000000000E+01 0. -1.
        -11    1    4    4    0    0  0.46932741610E+02  0.57718202154E+02  0.27941363354E+02  0.79465671085E+02  0.00000000000E+00 0.  1.
         12    1    4    4    0    0 -0.16733507577E+02  0.97097251836E+02  0.82673838171E+02  0.12861901146E+03  0.00000000000E+00 0. -1.
         -5    1    5    5    0  502  0.32060522769E+02 -0.10837571722E+03  0.11711598826E+03  0.16282327201E+03  0.47000000000E+01 0.  1.
         11    1    6    6    0    0 -0.17532138775E+02 -0.39280612355E+02  0.24688573055E+02  0.49597056733E+02  0.00000000000E+00 0. -1.
        -12    1    6    6    0    0 -0.46194629444E+02  0.25919029845E+02  0.72050096957E+02  0.89425703067E+02  0.00000000000E+00 0.  1.
</event>
<event>
12    1  0.8488291E-002  0.2166916E+03  0.7818608E-02  0.1136821E+00
         21   -1    0    0  503  502  0.00000000000E+00  0.00000000000E+00  0.38298625337E+02  0.38298625337E+02  0.00000000000E+00 0. -1.
         21   -1    0    0  501  503 -0.00000000000E+00 -0.00000000000E+00 -0.12458138633E+04  0.12458138633E+04  0.00000000000E+00 0.  1.
          6    2    1    2  501    0  0.12484603278E+03 -0.29158357024E+02 -0.50249104613E+03  0.54722252890E+03  0.17469545791E+03 0.  0.
         24    2    3    3    0    0  0.35697031154E+02  0.48544056263E+01 -0.38872514393E+03  0.39866552632E+03  0.80802976812E+02 0.  0.
         -6    2    1    2    0  502 -0.12484603278E+03  0.29158357024E+02 -0.70502419180E+03  0.73688995970E+03  0.17178754320E+03 0.  0.
        -24    2    5    5    0    0 -0.66486400682E+02 -0.15045765512E+02 -0.19341069577E+03  0.22004345402E+03  0.79778492625E+02 0.  0.
          5    1    3    3  501    0  0.89149001629E+02 -0.34012762650E+02 -0.11376590220E+03  0.14855700258E+03  0.47000000000E+01 0. -1.
        -13    1    4    4    0    0 -0.15220424720E+02  0.21259651756E+02 -0.22282574258E+03  0.22435450893E+03  0.00000000000E+00 0.  1.
         14    1    4    4    0    0  0.50917455874E+02 -0.16405246130E+02 -0.16589940135E+03  0.17431101739E+03  0.00000000000E+00 0. -1.
         -5    1    5    5    0  502 -0.58359632100E+02  0.44204122536E+02 -0.51161349603E+03  0.51684650567E+03  0.47000000000E+01 0.  1.
         13    1    6    6    0    0 -0.82348443721E+02 -0.13279015777E+02 -0.12849468831E+03  0.15319426676E+03  0.00000000000E+00 0. -1.
        -14    1    6    6    0    0  0.15862043039E+02 -0.17667497351E+01 -0.64916007454E+02  0.66849187263E+02  0.00000000000E+00 0.  1.
</event>
<event>
12    1  0.8488291E-002  0.1832176E+03  0.7818608E-02  0.1167235E+00
         21   -1    0    0  503  502  0.00000000000E+00  0.00000000000E+00  0.32461340473E+03  0.32461340473E+03  0.00000000000E+00 0.  1.
         21   -1    0    0  501  503 -0.00000000000E+00 -0.00000000000E+00 -0.15865702930E+03  0.15865702930E+03  0.00000000000E+00 0.  1.
          6    2    1    2  501    0 -0.51169625765E+02  0.37797194014E+02 -0.65303946462E+02  0.19450785666E+03  0.17181892330E+03 0.  0.
         24    2    3    3    0    0  0.15794780983E+02  0.41124843434E+02 -0.84289734985E+02  0.12466621301E+03  0.80598867175E+02 0.  0.
         -6    2    1    2    0  502  0.51169625765E+02 -0.37797194014E+02  0.23126032189E+03  0.28876257736E+03  0.16079655197E+03 0.  0.
        -24    2    5    5    0    0  0.54693895195E+02  0.65683887387E+01  0.46699546063E+02  0.98853400693E+02  0.67502454206E+02 0.  0.
          5    1    3    3  501    0 -0.66964406748E+02 -0.33276494194E+01  0.18985788522E+02  0.69841643649E+02  0.47000000000E+01 0. -1.
        -11    1    4    4    0    0 -0.20231561470E+01  0.52562413747E+02 -0.18834379919E+02  0.55871588188E+02  0.00000000000E+00 0.  1.
         12    1    4    4    0    0  0.17817937130E+02 -0.11437570314E+02 -0.65455355065E+02  0.68794624826E+02  0.00000000000E+00 0. -1.
         -5    1    5    5    0  502 -0.35242694302E+01 -0.44365582753E+02  0.18456077583E+03  0.18990917667E+03  0.47000000000E+01 0.  1.
         11    1    6    6    0    0  0.85384571667E+00  0.14856551581E+02 -0.11745587733E+02  0.18957980076E+02  0.00000000000E+00 0. -1.
        -12    1    6    6    0    0  0.53840049478E+02 -0.82881628423E+01  0.58445133795E+02  0.79895420617E+02  0.00000000000E+00 0.  1.
</event>
<event>
12    1  0.8488291E-002  0.2197506E+03  0.7818608E-02  0.1134088E+00
         21   -1    0    0  501  502  0.00000000000E+00  0.00000000000E+00  0.19696464308E+03  0.19696464308E+03  0.00000000000E+00 0.  1.
         21   -1    0    0  502  503 -0.00000000000E+00 -0.00000000000E+00 -0.26323042031E+03  0.26323042031E+03  0.00000000000E+00 0. -1.
         -6    2    1    2    0  503  0.12844135049E+03 -0.47506591945E+02 -0.93578538321E+02  0.23875362436E+03  0.17173320447E+03 0.  0.
        -24    2    3    3    0    0  0.92010681715E+02  0.11414972973E+02 -0.11301286946E+03  0.16665142144E+03  0.80028247793E+02 0.  0.
          6    2    1    2  501    0 -0.12844135049E+03  0.47506591945E+02  0.27312761092E+02  0.22144143902E+03  0.17186118585E+03 0.  0.
         24    2    5    5    0    0 -0.80989885604E+02  0.16024663403E+02  0.83230428317E+02  0.14149377581E+03  0.79227728653E+02 0.  0.
          5    1    5    5  501    0 -0.47451464888E+02  0.31481928541E+02 -0.55917667226E+02  0.79947663209E+02  0.47000000000E+01 0. -1.
        -11    1    6    6    0    0  0.50933661535E+01 -0.32430208457E+01 -0.10917924962E+02  0.12476403667E+02  0.00000000000E+00 0.  1.
         12    1    6    6    0    0 -0.86083251757E+02  0.19267684249E+02  0.94148353279E+02  0.12901737214E+03  0.00000000000E+00 0. -1.
         -5    1    3    3    0  503  0.36430668777E+02 -0.58921564918E+02  0.19434331144E+02  0.72102202927E+02  0.47000000000E+01 0.  1.
         13    1    4    4    0    0  0.16648922550E+02 -0.21698925268E+02 -0.66956160131E+02  0.72326740278E+02  0.00000000000E+00 0. -1.
        -14    1    4    4    0    0  0.75361759164E+02  0.33113898241E+02 -0.46056709334E+02  0.94324681159E+02  0.00000000000E+00 0.  1.
</event>
<event>
12    1  0.8488291E-002  0.1972625E+03  0.7818608E-02  0.1153046E+00
         21   -1    0    0  503  502  0.00000000000E+00  0.00000000000E+00  0.42614551825E+03  0.42614551825E+03  0.00000000000E+00 0.  1.
         21   -1    0    0  501  503 -0.00000000000E+00 -0.00000000000E+00 -0.89263541577E+02  0.89263541577E+02  0.00000000000E+00 0.  1.
          6    2    1    2  501    0  0.86277477731E+02 -0.49724915942E+02  0.17027384161E+03  0.25720223354E+03  0.16505586137E+03 0.  0.
         24    2    3    3    0    0  0.76806471542E+02 -0.49008895137E+02  0.41291886399E+02  0.12778566808E+03  0.79517615732E+02 0.  0.
         -6    2    1    2    0  502 -0.86277477731E+02  0.49724915942E+02  0.16660813506E+03  0.25820682629E+03  0.17028248308E+03 0.  0.
        -24    2    5    5    0    0 -0.64658336764E+02  0.83617466441E+02  0.17253099822E+03  0.21730129434E+03  0.79248507677E+02 0.  0.
          5    1    3    3  501    0  0.94710061896E+01 -0.71602080543E+00  0.12898195521E+03  0.12941656546E+03  0.47000000000E+01 0. -1.
        -13    1    4    4    0    0  0.31199087176E+02 -0.43666543116E+02  0.57908147785E+02  0.78952540226E+02  0.00000000000E+00 0.  1.
         14    1    4    4    0    0  0.45607384366E+02 -0.53423520208E+01 -0.16616261386E+02  0.48833127857E+02  0.00000000000E+00 0. -1.
         -5    1    5    5    0  502 -0.21619140967E+02 -0.33892550499E+02 -0.59228631613E+01  0.40905531943E+02  0.47000000000E+01 0.  1.
         13    1    6    6    0    0 -0.52423820063E+01  0.62888681273E+02  0.53809065239E+02  0.82933010938E+02  0.00000000000E+00 0. -1.
        -14    1    6    6    0    0 -0.59415954758E+02  0.20728785168E+02  0.11872193298E+03  0.13436828341E+03  0.00000000000E+00 0.  1.
</event>
<event>
12    1  0.8488291E-002  0.1836970E+03  0.7818608E-02  0.1164656E+00
         21   -1    0    0  501  502  0.00000000000E+00  0.00000000000E+00  0.27390337310E+02  0.27390337310E+02  0.00000000000E+00 0.  1.
         21   -1    0    0  502  503 -0.00000000000E+00 -0.00000000000E+00 -0.12754629665E+04  0.12754629665E+04  0.00000000000E+00 0.  1.
         -6    2    1    2    0  503  0.53349579984E+02 -0.36016123870E+02 -0.75583605926E+03  0.77745684057E+03  0.17031632808E+03 0.  0.
        -24    2    3    3    0    0 -0.20787235637E+02 -0.55846940012E+02 -0.50474384053E+03  0.51485653401E+03  0.82218709466E+02 0.  0.
          6    2    1    2  501    0 -0.53349579984E+02  0.36016123870E+02 -0.49223656989E+03  0.52539646320E+03  0.17205017856E+03 0.  0.
         24    2    5    5    0    0  0.11866905962E+02  0.71931590433E+02 -0.32355074443E+03  0.34095105532E+03  0.79041512774E+02 0.  0.
          5    1    5    5  501    0 -0.65216485945E+02 -0.35915466563E+02 -0.16868582547E+03  0.18444540789E+03  0.47000000000E+01 0. -1.
        -11    1    6    6    0    0 -0.26222072411E+02  0.39190525271E+01 -0.12207625701E+03  0.12492225013E+03  0.00000000000E+00 0.  1.
         12    1    6    6    0    0  0.38088978372E+02  0.68012537906E+02 -0.20147448742E+03  0.21602880518E+03  0.00000000000E+00 0. -1.
         -5    1    3    3    0  503  0.74136815620E+02  0.19830816141E+02 -0.25109221872E+03  0.26260030655E+03  0.47000000000E+01 0.  1.
         11    1    4    4    0    0 -0.24425003992E+02  0.55771281357E+01 -0.49560853142E+02  0.55533443459E+02  0.00000000000E+00 0. -1.
        -12    1    4    4    0    0  0.36377683550E+01 -0.61424068148E+02 -0.45518298739E+03  0.45932309056E+03  0.00000000000E+00 0.  1.
</event>
<event>
12    1  0.8488291E-002  0.1770879E+03  0.7818608E-02  0.1170807E+00
         21   -1    0    0  503  502  0.00000000000E+00  0.00000000000E+00  0.74016956198E+02  0.74016956198E+02  0.00000000000E+00 0. -1.
         21   -1    0    0  501  503 -0.00000000000E+00 -0.00000000000E+00 -0.44045688795E+03  0.44045688795E+03  0.00000000000E+00 0.  1.
          6    2    1    2  501    0  0.12125101307E+02 -0.42336029345E+02 -0.23529240491E+03  0.29411100392E+03  0.17087834666E+03 0.  0.
         24    2    3    3    0    0  0.35090155404E+02  0.33373206135E+02 -0.97817826352E+02  0.13542694109E+03  0.80168817670E+02 0.  0.
         -6    2    1    2    0  502 -0.12125101307E+02  0.42336029345E+02 -0.13114752685E+03  0.22036284023E+03  0.17152477983E+03 0.  0.
        -24    2    5    5    0    0 -0.71808701642E+02  0.46930533792E+02 -0.94171994517E+02  0.14984673135E+03  0.78909528657E+02 0.  0.
          5    1    3    3  501    0 -0.22965054097E+02 -0.75709235479E+02 -0.13747457856E+03  0.15868406283E+03  0.47000000000E+01 0. -1.
        -13    1    4    4    0    0  0.63564334247E+01  0.10449160910E+02 -0.97908022793E+02  0.98668992784E+02  0.00000000000E+00 0.  1.
         14    1    4    4    0    0  0.28733721979E+02  0.22924045225E+02  0.90196441795E-01  0.36757948305E+02  0.00000000000E+00 0. -1.
         -5    1    5    5    0  502  0.59683600335E+02 -0.45945044472E+01 -0.36975532329E+02  0.70516108877E+02  0.47000000000E+01 0.  1.
         13    1    6    6    0    0 -0.15967481139E+02 -0.97876954839E+01 -0.60660282267E+02  0.63485662015E+02  0.00000000000E+00 0. -1.
        -14    1    6    6    0    0 -0.55841220504E+02  0.56718229276E+02 -0.33511712250E+02  0.86361069339E+02  0.00000000000E+00 0.  1.
</event>
<event>
12    1  0.8488291E-002  0.1903320E+03  0.7818608E-02  0.1158474E+00
         21   -1    0    0  503  502  0.00000000000E+00  0.00000000000E+00  0.17434271796E+03  0.17434271796E+03  0.00000000000E+00 0. -1.
         21   -1    0    0  501  503 -0.00000000000E+00 -0.00000000000E+00 -0.42871704515E+03  0.42871704515E+03  0.00000000000E+00 0. -1.
          6    2    1    2  501    0  0.33798706831E+01 -0.78512727529E+02 -0.34415570613E+03  0.39261504167E+03  0.17183640177E+03 0.  0.
         24    2    3    3    0    0  0.17287430564E+02 -0.10286218236E+03 -0.16569244526E+03  0.21190106420E+03  0.81046843096E+02 0.  0.
         -6    2    1    2    0  502 -0.33798706831E+01  0.78512727529E+02  0.89781378934E+02  0.21044472144E+03  0.17335112595E+03 0.  0.
        -24    2    5    5    0    0 -0.49804306527E+02  0.10087744790E+03  0.72683253524E+02  0.15594843851E+03  0.79876978459E+02 0.  0.
          5    1    3    3  501    0 -0.13907559881E+02  0.24349454836E+02 -0.17846326087E+03  0.18071397747E+03  0.47000000000E+01 0. -1.
        -11    1    4    4    0    0  0.45034030975E+02 -0.47342304794E+02 -0.56871450812E+02  0.86624013337E+02  0.00000000000E+00 0.  1.
         12    1    4    4    0    0 -0.27746600411E+02 -0.55519877571E+02 -0.10882099445E+03  0.12527705087E+03  0.00000000000E+00 0. -1.
         -5    1    5    5    0  502  0.46424435844E+02 -0.22364720370E+02  0.17098125410E+02  0.54496282930E+02  0.47000000000E+01 0.  1.
         13    1    6    6    0    0 -0.26907239175E+02  0.15866871790E+02  0.59126280446E+02  0.66870577834E+02  0.00000000000E+00 0. -1.
        -14    1    6    6    0    0 -0.22897067352E+02  0.85010576109E+02  0.13556973079E+02  0.89077860677E+02  0.00000000000E+00 0.  1.
</event>
<event>
12    1  0.8488291E-002  0.2312478E+03  0.7818608E-02  0.1126009E+00
         21   -1    0    0  501  502  0.00000000000E+00  0.00000000000E+00  0.63677690992E+03  0.63677690992E+03  0.00000000000E+00 0.  1.
         21   -1    0    0  502  503 -0.00000000000E+00 -0.00000000000E+00 -0.16213317255E+03  0.16213317255E+03  0.00000000000E+00 0. -1.
         -6    2    1    2    0  503 -0.14849833483E+03 -0.37047174226E+02 -0.40540699065E+02  0.23477451680E+03  0.17335304119E+03 0.  0.
        -24    2    3    3    0    0 -0.10594316187E+03  0.14115854856E+02  0.31375588089E+02  0.13667945755E+03  0.79206285627E+02 0.  0.
          6    2    1    2  501    0  0.14849833483E+03  0.37047174226E+02  0.51518443643E+03  0.56413556567E+03  0.17149251981E+03 0.  0.
         24    2    5    5    0    0  0.17433359008E+03  0.44057898337E+02  0.48608481550E+03  0.52431737128E+03  0.79353380086E+02 0.  0.
          5    1    5    5  501    0 -0.25835255247E+02 -0.70107241103E+01  0.29099620926E+02  0.39818194387E+02  0.47000000000E+01 0. -1.
        -11    1    6    6    0    0  0.14614934067E+02 -0.11592702712E+02  0.11502303028E+03  0.11652589647E+03  0.00000000000E+00 0.  1.
         12    1    6    6    0    0  0.15971865601E+03  0.55650601048E+02  0.37106178522E+03  0.40779147481E+03  0.00000000000E+00 0. -1.
         -5    1    3    3    0  503 -0.42555172960E+02 -0.51163029082E+02 -0.71916287154E+02  0.98095059246E+02  0.47000000000E+01 0.  1.
         13    1    4    4    0    0 -0.77388007575E+02 -0.20276365517E+01 -0.16005223602E+02  0.79051769170E+02  0.00000000000E+00 0. -1.
        -14    1    4    4    0    0 -0.28555154298E+02  0.16143491407E+02  0.47380811691E+02  0.57627688383E+02  0.00000000000E+00 0.  1.
</event>
<event>
12    1  0.8488291E-002  0.2458592E+03  0.7818608E-02  0.1115967E+00
         21   -1    0    0  501  502  0.00000000000E+00  0.00000000000E+00  0.27579722458E+03  0.27579722458E+03  0.00000000000E+00 0.  1.
         21   -1    0    0  502  503 -0.00000000000E+00 -0.00000000000E+00 -0.30268961070E+03  0.30268961070E+03  0.00000000000E+00 0.  1.
         -6    2    1    2    0  503  0.15330822318E+03  0.85031334696E+02 -0.16547010075E+03  0.29635638254E+03  0.17237462706E+03 0.  0.
        -24    2    3    3    0    0  0.10846833364E+03  0.92812501879E+02 -0.18452140769E+03  0.24679627204E+03  0.80502857631E+02 0.  0.
          6    2    1    2  501    0 -0.15330822318E+03 -0.85031334696E+02  0.13857771463E+03  0.28213045273E+03  0.17222099230E+03 0.  0.
         24    2    5    5    0    0 -0.18179657130E+03 -0.85251035208E+02  0.11979097068E+03  0.24768243399E+03  0.81725021325E+02 0.  0.
          5    1    5    5  501    0  0.28488348117E+02  0.21970051278E+00  0.18786743959E+02  0.34448018743E+02  0.47000000000E+01 0. -1.
        -11    1    6    6    0    0 -0.50151421255E+02  0.12556802746E+02  0.18436916083E+02  0.54888598304E+02  0.00000000000E+00 0.  1.
         12    1    6    6    0    0 -0.13164515004E+03 -0.97807837954E+02  0.10135405459E+03  0.19279383568E+03  0.00000000000E+00 0. -1.
         -5    1    3    3    0  503  0.44839889546E+02 -0.77811671831E+01  0.19051306941E+02  0.49560110506E+02  0.47000000000E+01 0.  1.
         13    1    4    4    0    0 -0.12089961129E+02  0.19704315422E+01 -0.84857332263E+01  0.14901591491E+02  0.00000000000E+00 0. -1.
        -14    1    4    4    0    0  0.12055829477E+03  0.90842070336E+02 -0.17603567447E+03  0.23189468055E+03  0.00000000000E+00 0.  1.
</event>
<event>
12    1  0.8488291E-002  0.2032195E+03  0.7818608E-02  0.1147371E+00
         21   -1    0    0  501  502  0.00000000000E+00  0.00000000000E+00  0.16164707028E+03  0.16164707028E+03  0.00000000000E+00 0. -1.
         21   -1    0    0  502  503 -0.00000000000E+00 -0.00000000000E+00 -0.38926178911E+03  0.38926178911E+03  0.00000000000E+00 0. -1.
         -6    2    1    2    0  503 -0.38403596663E+02  0.10137501214E+03 -0.27673353986E+03  0.34333600213E+03  0.17189074714E+03 0.  0.
        -24    2    3    3    0    0 -0.11265592874E+02 -0.18637121418E+02 -0.89532280947E+02  0.11926952809E+03  0.75729354420E+02 0.  0.
          6    2    1    2  501    0  0.38403596663E+02 -0.10137501214E+03  0.49118821024E+02  0.20757285726E+03  0.17006499690E+03 0.  0.
         24    2    5    5    0    0  0.18659472974E+00 -0.11868820995E+03  0.70945720037E+02  0.16004613241E+03  0.80588729413E+02 0.  0.
          5    1    5    5  501    0  0.38217001933E+02  0.17313197809E+02 -0.21826899012E+02  0.47526724857E+02  0.47000000000E+01 0. -1.
        -13    1    6    6    0    0  0.62884372323E+01 -0.84511991332E+02  0.42454489400E+01  0.84851900146E+02  0.00000000000E+00 0.  1.
         14    1    6    6    0    0 -0.61018425026E+01 -0.34176218617E+02  0.66700271097E+02  0.75194232261E+02  0.00000000000E+00 0. -1.
         -5    1    3    3    0  503 -0.27138003789E+02  0.12001213356E+03 -0.18720125891E+03  0.22406647404E+03  0.47000000000E+01 0.  1.
         13    1    4    4    0    0 -0.38221444872E+02  0.69375863159E+01 -0.61429481020E+02  0.72681428786E+02  0.00000000000E+00 0. -1.
        -14    1    4    4    0    0  0.26955851999E+02 -0.25574707734E+02 -0.28102799927E+02  0.46588099300E+02  0.00000000000E+00 0.  1.
</event>
<event>
12    1  0.8488291E-002  0.1930052E+03  0.7818608E-02  0.1155836E+00
         21   -1    0    0  501  502  0.00000000000E+00  0.00000000000E+00  0.57635458193E+02  0.57635458193E+02  0.00000000000E+00 0.  1.
         21   -1    0    0  502  503 -0.00000000000E+00 -0.00000000000E+00 -0.69106675391E+03  0.69106675391E+03  0.00000000000E+00 0.  1.
         -6    2    1    2    0  503  0.62811754473E+02 -0.61547283425E+02 -0.22073709816E+03  0.29321641639E+03  0.17180691412E+03 0.  0.
        -24    2    3    3    0    0  0.46109293831E+02 -0.61001172580E+02 -0.24216530328E+03  0.26563873695E+03  0.77927494622E+02 0.  0.
          6    2    1    2  501    0 -0.62811754473E+02  0.61547283425E+02 -0.41269419756E+03  0.45548579572E+03  0.17151508622E+03 0.  0.
         24    2    5    5    0    0  0.24842293694E+02  0.35955093888E+02 -0.28244068939E+03  0.29634353635E+03  0.78337986828E+02 0.  0.
          5    1    5    5  501    0 -0.87654048167E+02  0.25592189537E+02 -0.13025350817E+03  0.15914225937E+03  0.47000000000E+01 0. -1.
        -13    1    6    6    0    0  0.27834985635E+02 -0.50458428116E+01 -0.21852546245E+03  0.22034887042E+03  0.00000000000E+00 0.  1.
         14    1    6    6    0    0 -0.29926919408E+01  0.41000936700E+02 -0.63915226938E+02  0.75994665930E+02  0.00000000000E+00 0. -1.
         -5    1    3    3    0  503  0.16702460642E+02 -0.54611084519E+00  0.21428205126E+02  0.27577679443E+02  0.47000000000E+01 0.  1.
         11    1    4    4    0    0  0.36041175297E+02  0.10004105478E+02 -0.87192715978E+02  0.94876857889E+02  0.00000000000E+00 0. -1.
        -12    1    4    4    0    0  0.10068118534E+02 -0.71005278058E+02 -0.15497258731E+03  0.17076187906E+03  0.00000000000E+00 0.  1.
</event>
<event>
12    1  0.8488291E-002  0.2838867E+03  0.7818608E-02  0.1094107E+00
         21   -1    0    0  503  502  0.00000000000E+00  0.00000000000E+00  0.44337519146E+03  0.44337519146E+03  0.00000000000E+00 0. -1.
         21   -1    0    0  501  503 -0.00000000000E+00 -0.00000000000E+00 -0.22081249578E+03  0.22081249578E+03  0.00000000000E+00 0.  1.
          6    2    1    2  501    0 -0.18915910766E+03  0.12188994633E+03  0.25464320755E+03  0.37849415831E+03  0.16666234638E+03 0.  0.
         24    2    3    3    0    0 -0.12159874519E+03  0.10435301725E+02  0.10220102347E+03  0.17787698589E+03  0.79372681446E+02 0.  0.
         -6    2    1    2    0  502  0.18915910766E+03 -0.12188994633E+03 -0.32080511867E+02  0.28569352893E+03  0.17307023489E+03 0.  0.
        -24    2    5    5    0    0  0.21436393743E+03 -0.11695615423E+03 -0.37387390095E+02  0.25904997990E+03  0.77964321752E+02 0.  0.
          5    1    3    3  501    0 -0.67560362471E+02  0.11145464461E+03  0.15244218409E+03  0.20061717242E+03  0.47000000000E+01 0. -1.
        -13    1    4    4    0    0 -0.15471935077E+02  0.11724749995E+02 -0.11317678484E+02  0.22470878570E+02  0.00000000000E+00 0.  1.
         14    1    4    4    0    0 -0.10612681011E+03 -0.12894482701E+01  0.11351870195E+03  0.15540610732E+03  0.00000000000E+00 0. -1.
         -5    1    5    5    0  502 -0.25204829771E+02 -0.49337921002E+01  0.53068782275E+01  0.26643549027E+02  0.47000000000E+01 0.  1.
         13    1    6    6    0    0  0.13815808939E+02  0.11598029082E+02 -0.43565858793E+01  0.18557227588E+02  0.00000000000E+00 0. -1.
        -14    1    6    6    0    0  0.20054812849E+03 -0.12855418331E+03 -0.33030804215E+02  0.24049275231E+03  0.00000000000E+00 0.  1.
</event>
<event>
12    1  0.8488291E-002  0.1944701E+03  0.7818608E-02  0.1154510E+00
         21   -1    0    0  501  502  0.00000000000E+00  0.00000000000E+00  0.27232365585E+03  0.27232365585E+03  0.00000000000E+00 0.  1.
         21   -1    0    0  502  503 -0.00000000000E+00 -0.00000000000E+00 -0.17395173060E+03  0.17395173060E+03  0.00000000000E+00 0.  1.
         -6    2    1    2    0  503  0.87320117379E+02  0.24769382971E+02 -0.51118129002E+02  0.20098805070E+03  0.17188603253E+03 0.  0.
        -24    2    3    3    0    0  0.45095446167E+01 -0.23638709891E+02 -0.61060062952E+02  0.10443823730E+03  0.81239704121E+02 0.  0.
          6    2    1    2  501    0 -0.87320117379E+02 -0.24769382971E+02  0.14949005425E+03  0.24528733574E+03  0.17198917270E+03 0.  0.
         24    2    5    5    0    0 -0.48649921097E+02 -0.69941373267E+02  0.13973421649E+03  0.18484596615E+03  0.85928862598E+02 0.  0.
          5    1    5    5  501    0 -0.38670196282E+02  0.45171990296E+02  0.97558377609E+01  0.60441369593E+02  0.47000000000E+01 0. -1.
        -13    1    6    6    0    0 -0.28045365847E+02  0.14690279207E+02  0.54188485859E+02  0.62759372594E+02  0.00000000000E+00 0.  1.
         14    1    6    6    0    0 -0.20604555250E+02 -0.84631652474E+02  0.85545730631E+02  0.12208659356E+03  0.00000000000E+00 0. -1.
         -5    1    3    3    0  503  0.82810572763E+02  0.48408092862E+02  0.99419339502E+01  0.96549813394E+02  0.47000000000E+01 0.  1.
         13    1    4    4    0    0  0.12530486129E+02 -0.10831824527E+02 -0.79151511405E+02  0.80865958616E+02  0.00000000000E+00 0. -1.
        -14    1    4    4    0    0 -0.80209415126E+01 -0.12806885364E+02  0.18091448452E+02  0.23572278689E+02  0.00000000000E+00 0.  1.
</event>
<event>
12    1  0.8488291E-002  0.3017462E+03  0.7818608E-02  0.1084399E+00
         21   -1    0    0  501  502  0.00000000000E+00  0.00000000000E+00  0.24938880450E+03  0.24938880450E+03  0.00000000000E+00 0.  1.
         21   -1    0    0  502  503 -0.00000000000E+00 -0.00000000000E+00 -0.50427725098E+03  0.50427725098E+03  0.00000000000E+00 0.  1.
         -6    2    1    2    0  503  0.18787943776E+03  0.16177364613E+03 -0.32564740339E+03  0.44395608255E+03  0.17199237246E+03 0.  0.
        -24    2    3    3    0    0  0.49865883811E+00  0.76418958174E+02 -0.12352289440E+03  0.15538479812E+03  0.55194421958E+02 0.  0.
          6    2    1    2  501    0 -0.18787943776E+03 -0.16177364613E+03  0.70758956904E+02  0.30970997293E+03  0.17159266194E+03 0.  0.
         24    2    5    5    0    0 -0.17339610919E+03 -0.14436762283E+03  0.76060889366E+01  0.24245589360E+03  0.88423902582E+02 0.  0.
          5    1    5    5  501    0 -0.14483328572E+02 -0.17406023303E+02  0.63152867968E+02  0.67254079328E+02  0.47000000000E+01 0. -1.
        -13    1    6    6    0    0 -0.75608945037E+02 -0.11925997402E+03  0.89072416538E+01  0.14148849044E+03  0.00000000000E+00 0.  1.
         14    1    6    6    0    0 -0.97787164153E+02 -0.25107648806E+02 -0.13011527172E+01  0.10096740316E+03  0.00000000000E+00 0. -1.
         -5    1    3    3    0  503  0.18738077892E+03  0.85354687959E+02 -0.20212450899E+03  0.28857128444E+03  0.47000000000E+01 0.  1.
         13    1    4    4    0    0 -0.12460781400E+02  0.40481425183E+02 -0.23776940401E+02  0.48573241119E+02  0.00000000000E+00 0. -1.
        -14    1    4    4    0    0  0.12959440238E+02  0.35937532991E+02 -0.99745954001E+02  0.10681155700E+03  0.00000000000E+00 0.  1.
</event>
<event>
12    1  0.8488291E-002  0.3775807E+03  0.7818608E-02  0.1051864E+00
         21   -1    0    0  501  502  0.00000000000E+00  0.00000000000E+00  0.85721665709E+03  0.85721665709E+03  0.00000000000E+00 0.  1.
         21   -1    0    0  502  503 -0.00000000000E+00 -0.00000000000E+00 -0.18866805835E+03  0.18866805835E+03  0.00000000000E+00 0.  1.
         -6    2    1    2    0  503  0.86600007689E+02 -0.32412811258E+03  0.15352794538E+03  0.40728200457E+03  0.17247958297E+03 0.  0.
        -24    2    3    3    0    0  0.17795339515E+02 -0.14825445862E+03  0.13555438476E+03  0.21751698303E+03  0.81502074010E+02 0.  0.
          6    2    1    2  501    0 -0.86600007689E+02  0.32412811258E+03  0.51502065336E+03  0.63860271086E+03  0.17322977293E+03 0.  0.
         24    2    5    5    0    0 -0.75508729842E+02  0.29627466698E+03  0.51948752263E+03  0.60792904467E+03  0.78931556524E+02 0.  0.
          5    1    5    5  501    0 -0.11091277846E+02  0.27853445606E+02 -0.44668692649E+01  0.30673666188E+02  0.47000000000E+01 0. -1.
        -13    1    6    6    0    0 -0.76623607412E+01  0.17535855833E+03  0.25963225294E+03  0.31339789808E+03  0.00000000000E+00 0.  1.
         14    1    6    6    0    0 -0.67846369101E+02  0.12091610865E+03  0.25985526969E+03  0.29453114660E+03  0.00000000000E+00 0. -1.
         -5    1    3    3    0  503  0.68804668174E+02 -0.17587365397E+03  0.17973560614E+02  0.18976502155E+03  0.47000000000E+01 0.  1.
         11    1    4    4    0    0  0.49643097483E+01  0.56913133175E+01 -0.46756268229E+01  0.88823929626E+01  0.00000000000E+00 0. -1.
        -12    1    4    4    0    0  0.12831029766E+02 -0.15394577193E+03  0.14023001159E+03  0.20863459006E+03  0.00000000000E+00 0.  1.
</event>
<event>
12    1  0.8488291E-002  0.4184960E+03  0.7818608E-02  0.1037567E+00
         21   -1    0    0  503  502  0.00000000000E+00  0.00000000000E+00  0.23413394352E+03  0.23413394352E+03  0.00000000000E+00 0. -1.
         21   -1    0    0  501  503 -0.00000000000E+00 -0.00000000000E+00 -0.74857349939E+03  0.74857349939E+03  0.00000000000E+00 0. -1.
          6    2    1    2  501    0 -0.13257829128E+03 -0.35764505259E+03 -0.27285036783E+03  0.49948465926E+03  0.17190292217E+03 0.  0.
         24    2    3    3    0    0 -0.13610183337E+02 -0.71646470120E+02 -0.86743633704E+02  0.13808957577E+03  0.78903860350E+02 0.  0.
         -6    2    1    2    0  502  0.13257829128E+03  0.35764505259E+03 -0.24158918803E+03  0.48322278364E+03  0.17219737483E+03 0.  0.
        -24    2    5    5    0    0  0.11124421413E+02  0.20983114778E+03 -0.15526865226E+03  0.27328632217E+03  0.80151083456E+02 0.  0.
          5    1    3    3  501    0 -0.11896810794E+03 -0.28599858247E+03 -0.18610673413E+03  0.36139508349E+03  0.47000000000E+01 0. -1.
        -11    1    4    4    0    0 -0.15407895270E+02 -0.26319491530E+02  0.92898163416E+01  0.31881335586E+02  0.00000000000E+00 0.  1.
         12    1    4    4    0    0  0.17977119324E+01 -0.45326978590E+02 -0.96033450046E+02  0.10620824019E+03  0.00000000000E+00 0. -1.
         -5    1    5    5    0  502  0.12145386986E+03  0.14781390481E+03 -0.86320535768E+02  0.20993646147E+03  0.47000000000E+01 0.  1.
         11    1    6    6    0    0  0.22500721334E+02  0.14527356217E+03 -0.62607836239E+02  0.15978245049E+03  0.00000000000E+00 0. -1.
        -12    1    6    6    0    0 -0.11376299922E+02  0.64557585607E+02 -0.92660816025E+02  0.11350387168E+03  0.00000000000E+00 0.  1.
</event>
<event>
12    1  0.8488291E-002  0.1771183E+03  0.7818608E-02  0.1171263E+00
         21   -1    0    0  501  502  0.00000000000E+00  0.00000000000E+00  0.17264345666E+02  0.17264345666E+02  0.00000000000E+00 0. -1.
         21   -1    0    0  502  503 -0.00000000000E+00 -0.00000000000E+00 -0.18204763819E+04  0.18204763819E+04  0.00000000000E+00 0. -1.
         -6    2    1    2    0  503 -0.21331964534E+02  0.38743855280E+01 -0.79068256325E+03  0.81027760205E+03  0.17578627073E+03 0.  0.
        -24    2    3    3    0    0  0.42736987919E+01  0.54055499223E+02 -0.67133179350E+03  0.67821515316E+03  0.79681588310E+02 0.  0.
          6    2    1    2  501    0  0.21331964534E+02 -0.38743855280E+01 -0.10125294730E+04  0.10274631255E+04  0.17318913669E+03 0.  0.
         24    2    5    5    0    0  0.50388765617E+01  0.55848171176E+02 -0.39291861951E+03  0.40474974985E+03  0.79327863610E+02 0.  0.
          5    1    5    5  501    0  0.16293087972E+02 -0.59722556704E+02 -0.61961085347E+03  0.62271337567E+03  0.47000000000E+01 0. -1.
        -13    1    6    6    0    0  0.27023465020E+02  0.65922986562E+02 -0.32308365867E+03  0.33084612484E+03  0.00000000000E+00 0.  1.
         14    1    6    6    0    0 -0.21984588458E+02 -0.10074815386E+02 -0.69834960839E+02  0.73903625013E+02  0.00000000000E+00 0. -1.
         -5    1    3    3    0  503 -0.25605663326E+02 -0.50181113695E+02 -0.11935076975E+03  0.13206244889E+03  0.47000000000E+01 0.  1.
         11    1    4    4    0    0  0.94606254231E+01  0.35738435531E+02 -0.10079670540E+03  0.10736254015E+03  0.00000000000E+00 0. -1.
        -12    1    4    4    0    0 -0.51869266312E+01  0.18317063691E+02 -0.57053508809E+03  0.57085261301E+03  0.00000000000E+00 0.  1.
</event>
<event>
12    1  0.8488291E-002  0.2392655E+03  0.7818608E-02  0.1120424E+00
         21   -1    0    0  501  502  0.00000000000E+00  0.00000000000E+00  0.74555343841E+03  0.74555343841E+03  0.00000000000E+00 0. -1.
         21   -1    0    0  502  503 -0.00000000000E+00 -0.00000000000E+00 -0.10886536135E+03  0.10886536135E+03  0.00000000000E+00 0. -1.
         -6    2    1    2    0  503 -0.77977380742E+02  0.14778242375E+03  0.85074777641E+02  0.25314912450E+03  0.17007834891E+03 0.  0.
        -24    2    3    3    0    0  0.23232010884E+02  0.51800623857E+02  0.31540615824E+02  0.10367055298E+03  0.80806819922E+02 0.  0.
          6    2    1    2  501    0  0.77977380742E+02 -0.14778242375E+03  0.55161329942E+03  0.60126967525E+03  0.17125382802E+03 0.  0.
         24    2    5    5    0    0  0.65930856977E+01 -0.43208258066E+02  0.13928769219E+03  0.16991602675E+03  0.86948102943E+02 0.  0.
          5    1    5    5  501    0  0.71384295045E+02 -0.10457416569E+03  0.41232560723E+03  0.43135364851E+03  0.47000000000E+01 0. -1.
        -13    1    6    6    0    0 -0.21511677388E+02 -0.38078314732E+02  0.13387644834E+03  0.14083896385E+03  0.00000000000E+00 0.  1.
         14    1    6    6    0    0  0.28104763086E+02 -0.51299433342E+01  0.54112438452E+01  0.29077062896E+02  0.00000000000E+00 0. -1.
         -5    1    3    3    0  503 -0.10120939163E+03  0.95981799896E+02  0.53534161817E+02  0.14947857153E+03  0.47000000000E+01 0.  1.
         13    1    4    4    0    0 -0.24215241122E+02  0.16084475174E+02 -0.10500083987E+02  0.30908574991E+02  0.00000000000E+00 0. -1.
        -14    1    4    4    0    0  0.47447252006E+02  0.35716148682E+02  0.42040699810E+02  0.72761977984E+02  0.00000000000E+00 0.  1.
</event>
<event>
12    1  0.8488291E-002  0.2203429E+03  0.7818608E-02  0.1133768E+00
         21   -1    0    0  503  502  0.00000000000E+00  0.00000000000E+00  0.22127194261E+03  0.22127194261E+03  0.00000000000E+00 0. -1.
         21   -1    0    0  501  503 -0.00000000000E+00 -0.00000000000E+00 -0.55621233651E+03  0.55621233651E+03  0.00000000000E+00 0. -1.
          6    2    1    2  501    0 -0.85970970475E+02 -0.10591368816E+03 -0.47041727337E+03  0.51946454962E+03  0.17303840649E+03 0.  0.
         24    2    3    3    0    0 -0.11602687187E+03 -0.76058435611E+02 -0.26267453669E+03  0.30739421233E+03  0.79032707961E+02 0.  0.
         -6    2    1    2    0  502  0.85970970475E+02  0.10591368816E+03  0.13547687947E+03  0.25801972950E+03  0.17207986180E+03 0.  0.
        -24    2    5    5    0    0  0.49355126360E+02  0.14038155756E+03  0.10290142388E+03  0.19791977635E+03  0.80253502311E+02 0.  0.
          5    1    3    3  501    0  0.30055901391E+02 -0.29855252549E+02 -0.20774273668E+03  0.21207033728E+03  0.47000000000E+01 0. -1.
        -13    1    4    4    0    0 -0.29848427973E+02  0.14173500224E+02 -0.75848405759E+02  0.82733290864E+02  0.00000000000E+00 0.  1.
         14    1    4    4    0    0 -0.86178443893E+02 -0.90231935835E+02 -0.18682613093E+03  0.22466092147E+03  0.00000000000E+00 0. -1.
         -5    1    5    5    0  502  0.36615844115E+02 -0.34467869403E+02  0.32575455594E+02  0.60099953150E+02  0.47000000000E+01 0.  1.
         13    1    6    6    0    0  0.10777200024E+02  0.12201304372E+03  0.93687568328E+02  0.15420989377E+03  0.00000000000E+00 0. -1.
        -14    1    6    6    0    0  0.38577926336E+02  0.18368513848E+02  0.92138555517E+01  0.43709882584E+02  0.00000000000E+00 0.  1.
</event>
<event>
12    1  0.8488291E-002  0.1958657E+03  0.7818608E-02  0.1155317E+00
         21   -1    0    0  501  502  0.00000000000E+00  0.00000000000E+00  0.73635265706E+02  0.73635265706E+02  0.00000000000E+00 0.  1.
         21   -1    0    0  502  503 -0.00000000000E+00 -0.00000000000E+00 -0.50265618677E+03  0.50265618677E+03  0.00000000000E+00 0. -1.
         -6    2    1    2    0  503  0.53705652950E+02  0.75115406997E+02 -0.18863531315E+03  0.27193134461E+03  0.17273318525E+03 0.  0.
        -24    2    3    3    0    0  0.12830641317E+02  0.98741138113E+02 -0.73634011731E+02  0.14752744164E+03  0.80174438821E+02 0.  0.
          6    2    1    2  501    0 -0.53705652950E+02 -0.75115406997E+02 -0.24038560791E+03  0.30436010786E+03  0.16224430110E+03 0.  0.
         24    2    5    5    0    0 -0.31620441053E+02  0.15476171430E+02 -0.15182264041E+03  0.17567413396E+03  0.81067398053E+02 0.  0.
          5    1    5    5  501    0 -0.22085211897E+02 -0.90591578427E+02 -0.88562967493E+02  0.12868597390E+03  0.47000000000E+01 0. -1.
        -13    1    6    6    0    0  0.27002124160E+02  0.27872352413E+00 -0.58382296129E+02  0.64324838882E+02  0.00000000000E+00 0.  1.
         14    1    6    6    0    0 -0.58622565212E+02  0.15197447905E+02 -0.93440344285E+02  0.11134929508E+03  0.00000000000E+00 0. -1.
         -5    1    3    3    0  503  0.40875011633E+02 -0.23625731116E+02 -0.11500130142E+03  0.12440390298E+03  0.47000000000E+01 0.  1.
         13    1    4    4    0    0  0.33859662459E+02  0.61094873498E+02 -0.77379985700E+02  0.10424357293E+03  0.00000000000E+00 0. -1.
        -14    1    4    4    0    0 -0.21029021143E+02  0.37646264614E+02  0.37459739689E+01  0.43283868711E+02  0.00000000000E+00 0.  1.
</event>
<event>
12    1  0.8488291E-002  0.1786402E+03  0.7818608E-02  0.1169412E+00
         21   -1    0    0  501  502  0.00000000000E+00  0.00000000000E+00  0.57203608946E+03  0.57203608946E+03  0.00000000000E+00 0. -1.
         21   -1    0    0  502  503 -0.00000000000E+00 -0.00000000000E+00 -0.57704655910E+02  0.57704655910E+02  0.00000000000E+00 0. -1.
         -6    2    1    2    0  503  0.15030844214E+02 -0.45946475905E+02  0.19536202722E+03  0.26472372554E+03  0.17197477796E+03 0.  0.
        -24    2    3    3    0    0 -0.42753923862E+02 -0.17413964495E+02  0.47337980816E+02  0.10321090269E+03  0.79249364925E+02 0.  0.
          6    2    1    2  501    0 -0.15030844214E+02  0.45946475905E+02  0.31896940632E+03  0.36501701983E+03  0.17075988309E+03 0.  0.
         24    2    5    5    0    0 -0.31631327596E+02 -0.87917856345E+01  0.79899334569E+02  0.11915437010E+03  0.82073283529E+02 0.  0.
          5    1    5    5  501    0  0.16600483381E+02  0.54738261540E+02  0.23907007176E+03  0.24586264973E+03  0.47000000000E+01 0. -1.
        -13    1    6    6    0    0 -0.32545429216E+02 -0.24513837579E+02  0.91121704519E+02  0.99816322463E+02  0.00000000000E+00 0.  1.
         14    1    6    6    0    0  0.91410161996E+00  0.15722051945E+02 -0.11222369950E+02  0.19338047637E+02  0.00000000000E+00 0. -1.
         -5    1    3    3    0  503  0.57784768076E+02 -0.28532511410E+02  0.14802404641E+03  0.16151282285E+03  0.47000000000E+01 0.  1.
         11    1    4    4    0    0 -0.17261058495E+02 -0.38663448139E+02  0.54743109500E+02  0.69207040105E+02  0.00000000000E+00 0. -1.
        -12    1    4    4    0    0 -0.25492865367E+02  0.21249483644E+02 -0.74051286845E+01  0.34003862583E+02  0.00000000000E+00 0.  1.
</event>
<event>
12    1  0.8488291E-002  0.1714591E+03  0.7818608E-02  0.1176493E+00
         21   -1    0    0  501  502  0.00000000000E+00  0.00000000000E+00  0.62533412996E+02  0.62533412996E+02  0.00000000000E+00 0. -1.
         21   -1    0    0  502  503 -0.00000000000E+00 -0.00000000000E+00 -0.58911657876E+03  0.58911657876E+03  0.00000000000E+00 0. -1.
         -6    2    1    2    0  503  0.14956144514E+02  0.29072189021E+01 -0.41038315014E+03  0.44452520343E+03  0.17016517971E+03 0.  0.
        -24    2    3    3    0    0  0.30292810988E+02  0.44100886526E+02 -0.37649224828E+03  0.38882228771E+03  0.81079071378E+02 0.  0.
          6    2    1    2  501    0 -0.14956144514E+02 -0.29072189021E+01 -0.11620001563E+03  0.20712478833E+03  0.17078084239E+03 0.  0.
         24    2    5    5    0    0  0.50624717865E+02  0.20284952361E+02 -0.88352138446E+02  0.13204935572E+03  0.81587931868E+02 0.  0.
          5    1    5    5  501    0 -0.65580862379E+02 -0.23192171263E+02 -0.27847877185E+02  0.75075432612E+02  0.47000000000E+01 0. -1.
        -11    1    6    6    0    0  0.35590453384E+02  0.29170237828E+02 -0.43174992412E+01  0.46219302750E+02  0.00000000000E+00 0.  1.
         12    1    6    6    0    0  0.15034264481E+02 -0.88852854668E+01 -0.84034639205E+02  0.85830052968E+02  0.00000000000E+00 0. -1.
         -5    1    3    3    0  503 -0.15336666475E+02 -0.41193667624E+02 -0.33890901856E+02  0.55702915718E+02  0.47000000000E+01 0.  1.
         13    1    4    4    0    0  0.52321984398E+02  0.34133980341E+02 -0.33519974528E+03  0.34097153532E+03  0.00000000000E+00 0. -1.
        -14    1    4    4    0    0 -0.22029173409E+02  0.99669061847E+01 -0.41292503002E+02  0.47850752389E+02  0.00000000000E+00 0.  1.
</event>
<event>
12    1  0.8488291E-002  0.1789203E+03  0.7818608E-02  0.1168900E+00
         21   -1    0    0  503  502  0.00000000000E+00  0.00000000000E+00  0.63009301041E+03  0.63009301041E+03  0.00000000000E+00 0.  1.
         21   -1    0    0  501  503 -0.00000000000E+00 -0.00000000000E+00 -0.12208303585E+03  0.12208303585E+03  0.00000000000E+00 0.  1.
          6    2    1    2  501    0  0.30006982809E+02 -0.41927393390E+02 -0.33532583532E+02  0.18184208911E+03  0.17112505918E+03 0.  0.
         24    2    3    3    0    0  0.51685883155E+02  0.17308599509E+01 -0.71980046538E+02  0.11958202794E+03  0.80276446815E+02 0.  0.
         -6    2    1    2    0  502 -0.30006982809E+02  0.41927393390E+02  0.54154255810E+03  0.57033395715E+03  0.17133054345E+03 0.  0.
        -24    2    5    5    0    0 -0.66996031663E+01  0.86315890526E+02  0.46006095522E+03  0.47454818456E+03  0.77746892619E+02 0.  0.
          5    1    3    3  501    0 -0.21678900346E+02 -0.43658253341E+02  0.38447463006E+02  0.62260061168E+02  0.47000000000E+01 0. -1.
        -13    1    4    4    0    0  0.19225902206E+02 -0.10362786077E+02 -0.80913120388E+02  0.83809043080E+02  0.00000000000E+00 0.  1.
         14    1    4    4    0    0  0.32459980949E+02  0.12093646028E+02  0.89330738503E+01  0.35772984861E+02  0.00000000000E+00 0. -1.
         -5    1    5    5    0  502 -0.23307379642E+02 -0.44388497136E+02  0.81481602881E+02  0.95785772596E+02  0.47000000000E+01 0.  1.
         11    1    6    6    0    0 -0.99499787314E+01  0.33766192521E+02  0.50159062699E+02  0.61278784298E+02  0.00000000000E+00 0. -1.
        -12    1    6    6    0    0  0.32503755652E+01  0.52549698005E+02  0.40990189252E+03  0.41326940026E+03  0.00000000000E+00 0.  1.
</event>
<event>
12    1  0.8488291E-002  0.1730843E+03  0.7818608E-02  0.1174696E+00
         21   -1    0    0  501  502  0.00000000000E+00  0.00000000000E+00  0.57303255192E+03  0.57303255192E+03  0.00000000000E+00 0.  1.
         21   -1    0    0  502  503 -0.00000000000E+00 -0.00000000000E+00 -0.60888933684E+02  0.60888933684E+02  0.00000000000E+00 0.  1.
         -6    2    1    2    0  503  0.36290332975E+01  0.12279914695E+02  0.13660092311E+03  0.22041152053E+03  0.17250350721E+03 0.  0.
        -24    2    3    3    0    0  0.48479550691E+02  0.38430966624E+02  0.31171990971E+02  0.10279861240E+03  0.75951666600E+02 0.  0.
          6    2    1    2  501    0 -0.36290332975E+01 -0.12279914695E+02  0.37554269512E+03  0.41350996507E+03  0.17260999150E+03 0.  0.
         24    2    5    5    0    0  0.63655596224E+02 -0.22244177757E+02  0.24301934710E+03  0.26447629209E+03  0.79639611013E+02 0.  0.
          5    1    5    5  501    0 -0.67284629522E+02  0.99642630614E+01  0.13252334803E+03  0.14903367298E+03  0.47000000000E+01 0. -1.
        -13    1    6    6    0    0  0.31966468632E+02  0.20032626988E+02  0.41229186087E+02  0.55883871074E+02  0.00000000000E+00 0.  1.
         14    1    6    6    0    0  0.31689127592E+02 -0.42276804745E+02  0.20179016101E+03  0.20859242102E+03  0.00000000000E+00 0. -1.
         -5    1    3    3    0  503 -0.44850517393E+02 -0.26151051929E+02  0.10542893214E+03  0.11761290813E+03  0.47000000000E+01 0.  1.
         13    1    4    4    0    0  0.67433847296E+02  0.19135323669E+02  0.28319363660E+02  0.75600732346E+02  0.00000000000E+00 0. -1.
        -14    1    4    4    0    0 -0.18954296605E+02  0.19295642955E+02  0.28526273117E+01  0.27197880054E+02  0.00000000000E+00 0.  1.
</event>
<event>
12    1  0.8488291E-002  0.2741908E+03  0.7818608E-02  0.1098949E+00
         21   -1    0    0  501  502  0.00000000000E+00  0.00000000000E+00  0.47338134379E+03  0.47338134379E+03  0.00000000000E+00 0.  1.
         21   -1    0    0  502  503 -0.00000000000E+00 -0.00000000000E+00 -0.37993815604E+03  0.37993815604E+03  0.00000000000E+00 0. -1.
         -6    2    1    2    0  503  0.11750647393E+03  0.17753766247E+03 -0.27891553255E+03  0.39090017457E+03  0.17228371708E+03 0.  0.
        -24    2    3    3    0    0  0.20727371395E+02  0.10161369018E+03 -0.69350454548E+02  0.14785644152E+03  0.79354116447E+02 0.  0.
          6    2    1    2  501    0 -0.11750647393E+03 -0.17753766247E+03  0.37235872030E+03  0.46241932525E+03  0.17278085187E+03 0.  0.
         24    2    5    5    0    0  0.78735911125E+01 -0.43524179297E+02  0.11303721814E+03  0.14469380556E+03  0.78756187454E+02 0.  0.
          5    1    5    5  501    0 -0.12538006504E+03 -0.13401348317E+03  0.25932150216E+03  0.31772551969E+03  0.47000000000E+01 0. -1.
        -13    1    6    6    0    0 -0.83455166818E+01 -0.22531086481E+02  0.11557310118E+03  0.11804422571E+03  0.00000000000E+00 0.  1.
         14    1    6    6    0    0  0.16219107794E+02 -0.20993092817E+02 -0.25358830374E+01  0.26649579855E+02  0.00000000000E+00 0. -1.
         -5    1    3    3    0  503  0.96779102535E+02  0.75923972290E+02 -0.20956507801E+03  0.24304373305E+03  0.47000000000E+01 0.  1.
         11    1    4    4    0    0 -0.15376442979E+01  0.76086072355E+02 -0.81838916544E+02  0.11175447650E+03  0.00000000000E+00 0. -1.
        -12    1    4    4    0    0  0.22265015693E+02  0.25527617821E+02  0.12488461996E+02  0.36101965023E+02  0.00000000000E+00 0.  1.
</event>
<event>
12    1  0.8488291E-002  0.1825356E+03  0.7818608E-02  0.1167169E+00
         21   -1    0    0  501  502  0.00000000000E+00  0.00000000000E+00  0.64810755002E+03  0.64810755002E+03  0.00000000000E+00 0.  1.
         21   -1    0    0  502  503 -0.00000000000E+00 -0.00000000000E+00 -0.65530783038E+02  0.65530783038E+02  0.00000000000E+00 0.  1.
         -6    2    1    2    0  503 -0.46166670030E+02  0.20859043837E+02  0.11853018815E+03  0.21764343972E+03  0.17536476334E+03 0.  0.
        -24    2    3    3    0    0 -0.75011263140E+02 -0.33653233407E+02  0.10382154234E+03  0.15406645345E+03  0.78729471660E+02 0.  0.
          6    2    1    2  501    0  0.46166670030E+02 -0.20859043837E+02  0.46404657883E+03  0.49599489333E+03  0.16764619219E+03 0.  0.
         24    2    5    5    0    0  0.70983851315E+02 -0.64015694228E+02  0.35977837909E+03  0.38035607443E+03  0.78061162172E+02 0.  0.
          5    1    5    5  501    0 -0.24817181285E+02  0.43156650390E+02  0.10426819975E+03  0.11563881891E+03  0.47000000000E+01 0. -1.
        -11    1    6    6    0    0  0.65251899321E+02 -0.40620883884E+02  0.14392840723E+03  0.16316633532E+03  0.00000000000E+00 0.  1.
         12    1    6    6    0    0  0.57319519944E+01 -0.23394810344E+02  0.21584997185E+03  0.21718973911E+03  0.00000000000E+00 0. -1.
         -5    1    3    3    0  503  0.28844593110E+02  0.54512277245E+02  0.14708645807E+02  0.63576986273E+02  0.47000000000E+01 0.  1.
         13    1    4    4    0    0 -0.39323590651E+01  0.21147810476E+02  0.34518526360E+02  0.40672128022E+02  0.00000000000E+00 0. -1.
        -14    1    4    4    0    0 -0.71078904075E+02 -0.54801043883E+02  0.69303015978E+02  0.11339432543E+03  0.00000000000E+00 0.  1.
</event>
<event>
12    1  0.8488291E-002  0.3479839E+03  0.7818608E-02  0.1063458E+00
         21   -1    0    0  501  502  0.00000000000E+00  0.00000000000E+00  0.35070091202E+03  0.35070091202E+03  0.00000000000E+00 0.  1.
         21   -1    0    0  502  503 -0.00000000000E+00 -0.00000000000E+00 -0.34587829511E+03  0.34587829511E+03  0.00000000000E+00 0.  1.
         -6    2    1    2    0  503 -0.27194288686E+03 -0.13257705216E+03  0.18167958055E+02  0.34833946661E+03  0.17169944912E+03 0.  0.
        -24    2    3    3    0    0 -0.18119638127E+03 -0.22150813077E+02  0.40712053889E+02  0.20356651053E+03  0.80368313242E+02 0.  0.
          6    2    1    2  501    0  0.27194288686E+03  0.13257705216E+03 -0.13345341140E+02  0.34823974052E+03  0.17193955413E+03 0.  0.
         24    2    5    5    0    0  0.13521077973E+03  0.33811390864E+02  0.47390924216E+02  0.16890399701E+03  0.82809995771E+02 0.  0.
          5    1    5    5  501    0  0.13673210713E+03  0.98765661299E+02 -0.60736265357E+02  0.17933574351E+03  0.47000000000E+01 0. -1.
        -13    1    6    6    0    0  0.89665152210E+02  0.58075144952E+02  0.48414659292E+02  0.11728828252E+03  0.00000000000E+00 0.  1.
         14    1    6    6    0    0  0.45545627518E+02 -0.24263754088E+02 -0.10237350753E+01  0.51615714486E+02  0.00000000000E+00 0. -1.
         -5    1    3    3    0  503 -0.90746505592E+02 -0.11042623909E+03 -0.22544095834E+02  0.14477295608E+03  0.47000000000E+01 0.  1.
         13    1    4    4    0    0 -0.60638396194E+00  0.58001370542E+00 -0.13596336748E+02  0.13622205782E+02  0.00000000000E+00 0. -1.
        -14    1    4    4    0    0 -0.18058999731E+03 -0.22730826782E+02  0.54308390637E+02  0.18994430475E+03  0.00000000000E+00 0.  1.
</event>
<event>
12    1  0.8488291E-002  0.2337898E+03  0.7818608E-02  0.1124086E+00
         21   -1    0    0  501  502  0.00000000000E+00  0.00000000000E+00  0.56125313014E+02  0.56125313014E+02  0.00000000000E+00 0.  1.
         21   -1    0    0  502  503 -0.00000000000E+00 -0.00000000000E+00 -0.10390150252E+04  0.10390150252E+04  0.00000000000E+00 0. -1.
         -6    2    1    2    0  503  0.12947754164E+03  0.89918325701E+02 -0.35166431040E+03  0.42201094855E+03  0.17197591227E+03 0.  0.
        -24    2    3    3    0    0  0.54038481228E+02  0.76922832662E+02 -0.10009880655E+03  0.15901431853E+03  0.80177944516E+02 0.  0.
          6    2    1    2  501    0 -0.12947754164E+03 -0.89918325701E+02 -0.63122540184E+03  0.67312938972E+03  0.17264972716E+03 0.  0.
         24    2    5    5    0    0 -0.20654417304E+02 -0.53959065807E+02 -0.16471926002E+03  0.19272787940E+03  0.81690973423E+02 0.  0.
          5    1    5    5  501    0 -0.10882312433E+03 -0.35959259895E+02 -0.46650614181E+03  0.48040151032E+03  0.47000000000E+01 0. -1.
        -11    1    6    6    0    0 -0.45675807331E+02 -0.57106249663E+02 -0.13670750070E+03  0.15503658882E+03  0.00000000000E+00 0.  1.
         12    1    6    6    0    0  0.25021390027E+02  0.31471838568E+01 -0.28011759325E+02  0.37691290580E+02  0.00000000000E+00 0. -1.
         -5    1    3    3    0  503  0.75439060410E+02  0.12995493040E+02 -0.25156550385E+03  0.26299663002E+03  0.47000000000E+01 0.  1.
         13    1    4    4    0    0 -0.19861580373E+02  0.18134246571E+02 -0.10597522232E+02  0.28907451480E+02  0.00000000000E+00 0. -1.
        -14    1    4    4    0    0  0.73900061601E+02  0.58788586091E+02 -0.89501284320E+02  0.13010686705E+03  0.00000000000E+00 0.  1.
</event>
<event>
12    1  0.8488291E-002  0.1953980E+03  0.7818608E-02  0.1153866E+00
         21   -1    0    0  501  502  0.00000000000E+00  0.00000000000E+00  0.13388347603E+03  0.13388347603E+03  0.00000000000E+00 0. -1.
         21   -1    0    0  502  503 -0.00000000000E+00 -0.00000000000E+00 -0.34285284804E+03  0.34285284804E+03  0.00000000000E+00 0. -1.
         -6    2    1    2    0  503 -0.66137378679E+02  0.63130042370E+02 -0.20348458639E+03  0.28211054466E+03  0.17268707943E+03 0.  0.
        -24    2    3    3    0    0 -0.96511839549E+02  0.86737078224E+02 -0.19586206515E+03  0.24261253401E+03  0.60506505300E+02 0.  0.
          6    2    1    2  501    0  0.66137378679E+02 -0.63130042370E+02 -0.54847856256E+01  0.19462577941E+03  0.17172523411E+03 0.  0.
         24    2    5    5    0    0  0.45474403020E+02 -0.10510855543E+03 -0.17520955033E+02  0.14608596590E+03  0.88985368528E+02 0.  0.
          5    1    5    5  501    0  0.20662975659E+02  0.41978513062E+02  0.12036169407E+02  0.48539813514E+02  0.47000000000E+01 0. -1.
        -13    1    6    6    0    0  0.56821286519E+02 -0.70265409760E+02 -0.44358065588E+02  0.10066540813E+03  0.00000000000E+00 0.  1.
         14    1    6    6    0    0 -0.11346883499E+02 -0.34843145672E+02  0.26837110555E+02  0.45420557773E+02  0.00000000000E+00 0. -1.
         -5    1    3    3    0  503  0.30374460870E+02 -0.23607035854E+02 -0.76225212382E+01  0.39498010646E+02  0.47000000000E+01 0.  1.
         13    1    4    4    0    0 -0.52072685195E+02  0.26830727231E+02 -0.43471546935E+02  0.72946746741E+02  0.00000000000E+00 0. -1.
        -14    1    4    4    0    0 -0.44439154354E+02  0.59906350993E+02 -0.15239051821E+03  0.16966578727E+03  0.00000000000E+00 0.  1.
</event>
<event>
12    1  0.8488291E-002  0.2571665E+03  0.7818608E-02  0.1108932E+00
         21   -1    0    0  501  502  0.00000000000E+00  0.00000000000E+00  0.83654058567E+03  0.83654058567E+03  0.00000000000E+00 0. -1.
         21   -1    0    0  502  503 -0.00000000000E+00 -0.00000000000E+00 -0.15980849198E+03  0.15980849198E+03  0.00000000000E+00 0.  1.
         -6    2    1    2    0  503  0.44748063554E+02 -0.18557056725E+03 -0.16247733277E+02  0.25719031960E+03  0.17159267769E+03 0.  0.
        -24    2    3    3    0    0  0.37973625790E+02 -0.28911990904E+02 -0.34395201818E+02  0.99268746772E+02  0.79958456112E+02 0.  0.
          6    2    1    2  501    0 -0.44748063554E+02  0.18557056725E+03  0.69297982697E+03  0.73915875804E+03  0.17232470623E+03 0.  0.
         24    2    5    5    0    0 -0.48655293587E+02  0.38928496122E+02  0.19474195542E+03  0.21975310720E+03  0.80524738568E+02 0.  0.
          5    1    5    5  501    0  0.39072300327E+01  0.14664207113E+03  0.49823787155E+03  0.51940565084E+03  0.47000000000E+01 0. -1.
        -13    1    6    6    0    0  0.21234492654E+02 -0.10795780772E+01  0.42709553685E+02  0.47709277327E+02  0.00000000000E+00 0.  1.
         14    1    6    6    0    0 -0.69889786241E+02  0.40008074199E+02  0.15203240173E+03  0.17204382988E+03  0.00000000000E+00 0. -1.
         -5    1    3    3    0  503  0.67744377641E+01 -0.15665857635E+03  0.18147468542E+02  0.15792157283E+03  0.47000000000E+01 0.  1.
         13    1    4    4    0    0 -0.99734588228E+01  0.36066374616E+01 -0.39699896572E+02  0.41092085643E+02  0.00000000000E+00 0. -1.
        -14    1    4    4    0    0  0.47947084613E+02 -0.32518628366E+02  0.53046947539E+01  0.58176661129E+02  0.00000000000E+00 0.  1.
</event>
<event>
12    1  0.8488291E-002  0.2177442E+03  0.7818608E-02  0.1135657E+00
         21   -1    0    0  501  502  0.00000000000E+00  0.00000000000E+00  0.13669028408E+03  0.13669028408E+03  0.00000000000E+00 0.  1.
         21   -1    0    0  502  503 -0.00000000000E+00 -0.00000000000E+00 -0.36416422077E+03  0.36416422077E+03  0.00000000000E+00 0. -1.
         -6    2    1    2    0  503 -0.12355275350E+03 -0.50899055241E+02 -0.16928337774E+03  0.27546884356E+03  0.17137743455E+03 0.  0.
        -24    2    3    3    0    0 -0.34282482255E+02 -0.43064305070E+02 -0.15812410972E+03  0.18504106077E+03  0.78785386554E+02 0.  0.
          6    2    1    2  501    0  0.12355275350E+03  0.50899055241E+02 -0.58190558952E+02  0.22538566129E+03  0.17192020953E+03 0.  0.
         24    2    5    5    0    0  0.11386738971E+03  0.39821338859E+02  0.20185831222E+02  0.14550155393E+03  0.78814420933E+02 0.  0.
          5    1    5    5  501    0  0.96853637876E+01  0.11077716383E+02 -0.78376390174E+02  0.79884107359E+02  0.47000000000E+01 0. -1.
        -11    1    6    6    0    0 -0.87706160004E+01 -0.13986119207E+01  0.13230184200E+02  0.15934791944E+02  0.00000000000E+00 0.  1.
         12    1    6    6    0    0  0.12263800571E+03  0.41219950779E+02  0.69556470220E+01  0.12956676199E+03  0.00000000000E+00 0. -1.
         -5    1    3    3    0  503 -0.89270271242E+02 -0.78347501717E+01 -0.11159268015E+02  0.90427782792E+02  0.47000000000E+01 0.  1.
         11    1    4    4    0    0 -0.15560249364E+01  0.21377716194E+02 -0.55715417214E+02  0.59696194842E+02  0.00000000000E+00 0. -1.
        -12    1    4    4    0    0 -0.32726457319E+02 -0.64442021263E+02 -0.10240869251E+03  0.12534486593E+03  0.00000000000E+00 0.  1.
</event>
<event>
12    1  0.8488291E-002  0.2574025E+03  0.7818608E-02  0.1109893E+00
         21   -1    0    0  503  502  0.00000000000E+00  0.00000000000E+00  0.16194107790E+04  0.16194107790E+04  0.00000000000E+00 0.  1.
         21   -1    0    0  501  503 -0.00000000000E+00 -0.00000000000E+00 -0.44440121845E+02  0.44440121845E+02  0.00000000000E+00 0.  1.
          6    2    1    2  501    0 -0.17505990193E+03 -0.57288439338E+02  0.50552735287E+03  0.56386679739E+03  0.16870069993E+03 0.  0.
         24    2    3    3    0    0 -0.15629165088E+03 -0.47116990051E+02  0.51008837583E+03  0.54153747679E+03  0.80159819888E+02 0.  0.
         -6    2    1    2    0  502  0.17505990193E+03  0.57288439338E+02  0.10694433042E+04  0.10999841034E+04  0.17980020083E+03 0.  0.
        -24    2    5    5    0    0  0.61765435291E+02  0.18299170089E+02  0.27323210803E+03  0.29479458643E+03  0.89990192267E+02 0.  0.
          5    1    3    3  501    0 -0.18768251053E+02 -0.10171449287E+02 -0.45610229602E+01  0.22329320604E+02  0.47000000000E+01 0. -1.
        -13    1    4    4    0    0 -0.49432272539E+02 -0.26206497657E+02  0.78323675301E+02  0.96254497040E+02  0.00000000000E+00 0.  1.
         14    1    4    4    0    0 -0.10685937834E+03 -0.20910492394E+02  0.43176470053E+03  0.44528297975E+03  0.00000000000E+00 0. -1.
         -5    1    5    5    0  502  0.11329446664E+03  0.38989269249E+02  0.79621119620E+03  0.80518951698E+03  0.47000000000E+01 0.  1.
         11    1    6    6    0    0 -0.10618050380E+02 -0.13460416360E+02  0.13063160360E+03  0.13175181844E+03  0.00000000000E+00 0. -1.
        -12    1    6    6    0    0  0.72383485671E+02  0.31759586449E+02  0.14260050443E+03  0.16304276799E+03  0.00000000000E+00 0.  1.
</event>
<event>
12    1  0.8488291E-002  0.1956346E+03  0.7818608E-02  0.1153659E+00
         21   -1    0    0  501  502  0.00000000000E+00  0.00000000000E+00  0.26027214599E+03  0.26027214599E+03  0.00000000000E+00 0. -1.
         21   -1    0    0  502  503 -0.00000000000E+00 -0.00000000000E+00 -0.19064854364E+03  0.19064854364E+03  0.00000000000E+00 0.  1.
         -6    2    1    2    0  503 -0.54760597525E+02  0.75774841454E+02 -0.73845769051E+02  0.20831741034E+03  0.17088708613E+03 0.  0.
        -24    2    3    3    0    0  0.34538834147E+02  0.18806523109E+02 -0.31373894643E+02  0.94099513724E+02  0.79522203455E+02 0.  0.
          6    2    1    2  501    0  0.54760597525E+02 -0.75774841454E+02  0.14346937140E+03  0.24260327929E+03  0.17184976273E+03 0.  0.
         24    2    5    5    0    0  0.39236542399E+02  0.17130715039E+02  0.10969732289E+03  0.14242803297E+03  0.80120373616E+02 0.  0.
          5    1    5    5  501    0  0.15524055126E+02 -0.92905556494E+02  0.33772048513E+02  0.10017524632E+03  0.47000000000E+01 0. -1.
        -13    1    6    6    0    0  0.10585220154E+02  0.23608059451E+02 -0.29256044302E+01  0.26037406131E+02  0.00000000000E+00 0.  1.
         14    1    6    6    0    0  0.28651322245E+02 -0.64773444120E+01  0.11262292732E+03  0.11639062683E+03  0.00000000000E+00 0. -1.
         -5    1    3    3    0  503 -0.89299431672E+02  0.56968318346E+02 -0.42471874408E+02  0.11421789662E+03  0.47000000000E+01 0.  1.
         11    1    4    4    0    0  0.20526116219E+02  0.69537375144E+00  0.25527245386E+02  0.32763474307E+02  0.00000000000E+00 0. -1.
        -12    1    4    4    0    0  0.14012717928E+02  0.18111149357E+02 -0.56901140028E+02  0.61336039416E+02  0.00000000000E+00 0.  1.
</event>
<event>
12    1  0.8488291E-002  0.2814535E+03  0.7818608E-02  0.1094925E+00
         21   -1    0    0  503  502  0.00000000000E+00  0.00000000000E+00  0.33983261471E+03  0.33983261471E+03  0.00000000000E+00 0. -1.
         21   -1    0    0  501  503 -0.00000000000E+00 -0.00000000000E+00 -0.24284342527E+03  0.24284342527E+03  0.00000000000E+00 0. -1.
          6    2    1    2  501    0  0.69614479165E+02  0.21068316862E+03  0.10731354213E+03  0.30103325209E+03  0.17283300985E+03 0.  0.
         24    2    3    3    0    0  0.91317378590E+01  0.19719654762E+03  0.54513175750E+02  0.21948559957E+03  0.78945392891E+02 0.  0.
         -6    2    1    2    0  502 -0.69614479165E+02 -0.21068316862E+03 -0.10324352688E+02  0.28164278790E+03  0.17315453926E+03 0.  0.
        -24    2    5    5    0    0  0.22716522809E+02 -0.14684921993E+03 -0.47103659358E+01  0.16915548293E+03  0.80688636477E+02 0.  0.
          5    1    3    3  501    0  0.60482741306E+02  0.13486620995E+02  0.52800366376E+02  0.81547652518E+02  0.47000000000E+01 0. -1.
        -11    1    4    4    0    0  0.30706737822E+02  0.45552519139E+02 -0.49917239418E+01  0.55162061741E+02  0.00000000000E+00 0.  1.
         12    1    4    4    0    0 -0.21574999963E+02  0.15164402848E+03  0.59504899691E+02  0.16432353783E+03  0.00000000000E+00 0. -1.
         -5    1    5    5    0  502 -0.92331001974E+02 -0.63833948689E+02 -0.56139867523E+01  0.11248730496E+03  0.47000000000E+01 0.  1.
         13    1    6    6    0    0  0.55280702572E+01 -0.67022107073E+02 -0.42105383869E+02  0.79343466953E+02  0.00000000000E+00 0. -1.
        -14    1    6    6    0    0  0.17188452552E+02 -0.79827112855E+02  0.37395017934E+02  0.89812015978E+02  0.00000000000E+00 0.  1.
</event>
<event>
12    1  0.8488291E-002  0.1743268E+03  0.7818608E-02  0.1173581E+00
         21   -1    0    0  503  502  0.00000000000E+00  0.00000000000E+00  0.16646735251E+03  0.16646735251E+03  0.00000000000E+00 0. -1.
         21   -1    0    0  501  503 -0.00000000000E+00 -0.00000000000E+00 -0.18533695904E+03  0.18533695904E+03  0.00000000000E+00 0. -1.
          6    2    1    2  501    0 -0.45400436800E+01 -0.31225812829E+02  0.14691563585E+02  0.17494476163E+03  0.17144726361E+03 0.  0.
         24    2    3    3    0    0  0.55038456735E+02  0.14364934594E+02  0.15744438552E+02  0.99769549575E+02  0.80439372271E+02 0.  0.
         -6    2    1    2    0  502  0.45400436800E+01  0.31225812829E+02 -0.33561170113E+02  0.17685954992E+03  0.17075504349E+03 0.  0.
        -24    2    5    5    0    0  0.65908544084E+02  0.39481435781E+02 -0.25366457892E+02  0.11422177010E+03  0.80625279069E+02 0.  0.
          5    1    3    3  501    0 -0.59578500414E+02 -0.45590747423E+02 -0.10528749675E+01  0.75175212058E+02  0.47000000000E+01 0. -1.
        -11    1    4    4    0    0  0.31136437538E+02 -0.20867698802E+02 -0.21492955510E+02  0.43207473108E+02  0.00000000000E+00 0.  1.
         12    1    4    4    0    0  0.23902019196E+02  0.35232633396E+02  0.37237394062E+02  0.56562076466E+02  0.00000000000E+00 0. -1.
         -5    1    5    5    0  502 -0.61368500404E+02 -0.82556229522E+01 -0.81947122204E+01  0.62637779819E+02  0.47000000000E+01 0.  1.
         11    1    6    6    0    0  0.39809211718E+02  0.74320504199E+01  0.26125836606E+02  0.48193029054E+02  0.00000000000E+00 0. -1.
        -12    1    6    6    0    0  0.26099332367E+02  0.32049385361E+02 -0.51492294498E+02  0.66028741050E+02  0.00000000000E+00 0.  1.
</event>
<event>
12    1  0.8488291E-002  0.2235101E+03  0.7818608E-02  0.1131372E+00
         21   -1    0    0  503  502  0.00000000000E+00  0.00000000000E+00  0.34315512326E+03  0.34315512326E+03  0.00000000000E+00 0. -1.
         21   -1    0    0  501  503 -0.00000000000E+00 -0.00000000000E+00 -0.16454494915E+03  0.16454494915E+03  0.00000000000E+00 0.  1.
          6    2    1    2  501    0  0.11996049586E+03 -0.76606890349E+02  0.24150133338E+01  0.22309241136E+03  0.17177093905E+03 0.  0.
         24    2    3    3    0    0  0.27907368616E+01  0.29529032230E+01 -0.99203690265E+01  0.80850487739E+02  0.80136632050E+02 0.  0.
         -6    2    1    2    0  502 -0.11996049586E+03  0.76606890349E+02  0.17619516078E+03  0.28460766105E+03  0.17233006072E+03 0.  0.
        -24    2    5    5    0    0 -0.43388271793E+01  0.15956953601E+02  0.11164268708E+03  0.13888224474E+03  0.80936632842E+02 0.  0.
          5    1    3    3  501    0  0.11716975900E+03 -0.79559793572E+02  0.12335382360E+02  0.14224192362E+03  0.47000000000E+01 0. -1.
        -13    1    4    4    0    0  0.16143696095E+02  0.35851388636E+02  0.94036760124E+01  0.40427343634E+02  0.00000000000E+00 0.  1.
         14    1    4    4    0    0 -0.13352959233E+02 -0.32898485413E+02 -0.19324045039E+02  0.40423144106E+02  0.00000000000E+00 0. -1.
         -5    1    5    5    0  502 -0.11562166868E+03  0.60649936748E+02  0.64552473698E+02  0.14572541631E+03  0.47000000000E+01 0.  1.
         11    1    6    6    0    0 -0.94502389482E+01  0.25478006050E+02  0.12135044310E+03  0.12435580344E+03  0.00000000000E+00 0. -1.
        -12    1    6    6    0    0  0.51114117689E+01 -0.95210524489E+01 -0.97077560174E+01  0.14526441302E+02  0.00000000000E+00 0.  1.
</event>
<event>
12    1  0.8488291E-002  0.1781548E+03  0.7818608E-02  0.1170509E+00
         21   -1    0    0  501  502  0.00000000000E+00  0.00000000000E+00  0.41428435282E+02  0.41428435282E+02  0.00000000000E+00 0.  1.
         21   -1    0    0  502  503 -0.00000000000E+00 -0.00000000000E+00 -0.75300214253E+03  0.75300214253E+03  0.00000000000E+00 0.  1.
         -6    2    1    2    0  503  0.25843119048E+02 -0.34000842378E+02 -0.32896416189E+03  0.37237701004E+03  0.16918420055E+03 0.  0.
        -24    2    3    3    0    0  0.72020611700E+01 -0.18063092615E+02 -0.57725555272E+02  0.99991304423E+02  0.79296129973E+02 0.  0.
          6    2    1    2  501    0 -0.25843119048E+02  0.34000842378E+02 -0.38260954536E+03  0.42205356777E+03  0.17296018554E+03 0.  0.
         24    2    5    5    0    0 -0.45777378920E+02 -0.24245790489E+02 -0.31955648868E+03  0.33380492521E+03  0.81399949996E+02 0.  0.
          5    1    5    5  501    0  0.19934259872E+02  0.58246632867E+02 -0.63053056672E+02  0.88248642555E+02  0.47000000000E+01 0. -1.
        -13    1    6    6    0    0 -0.87435051628E+01  0.12069567349E+02 -0.61292899621E+01  0.16114947532E+02  0.00000000000E+00 0.  1.
         14    1    6    6    0    0 -0.37033873758E+02 -0.36315357838E+02 -0.31342719872E+03  0.31768997768E+03  0.00000000000E+00 0. -1.
         -5    1    3    3    0  503  0.18641057878E+02 -0.15937749762E+02 -0.27123860661E+03  0.27238570562E+03  0.47000000000E+01 0.  1.
         13    1    4    4    0    0 -0.97485364453E+01 -0.11007584452E+02 -0.74005926994E+02  0.75452489081E+02  0.00000000000E+00 0. -1.
        -14    1    4    4    0    0  0.16950597615E+02 -0.70555081636E+01  0.16280371722E+02  0.24538815342E+02  0.00000000000E+00 0.  1.
</event>
<event>
12    1  0.8488291E-002  0.2341757E+03  0.7818608E-02  0.1124067E+00
         21   -1    0    0  501  502  0.00000000000E+00  0.00000000000E+00  0.42459388193E+03  0.42459388193E+03  0.00000000000E+00 0.  1.
         21   -1    0    0  502  503 -0.00000000000E+00 -0.00000000000E+00 -0.14048251345E+03  0.14048251345E+03  0.00000000000E+00 0.  1.
         -6    2    1    2    0  503 -0.13605365523E+03  0.79635811326E+02  0.57623821275E+02  0.23929294164E+03  0.17055247753E+03 0.  0.
        -24    2    3    3    0    0 -0.10434062022E+03  0.71497765090E+02  0.10452742691E+03  0.18189971375E+03  0.78502404065E+02 0.  0.
          6    2    1    2  501    0  0.13605365523E+03 -0.79635811326E+02  0.22648754720E+03  0.32578345374E+03  0.17316405559E+03 0.  0.
         24    2    5    5    0    0  0.92154664851E+02 -0.11534784805E+03  0.19827848286E+03  0.26237752157E+03  0.87920411483E+02 0.  0.
          5    1    5    5  501    0  0.43898990377E+02  0.35712036728E+02  0.28209064340E+02  0.63405932170E+02  0.47000000000E+01 0. -1.
        -13    1    6    6    0    0  0.61570682799E+02 -0.40970398167E+02  0.38212609153E+02  0.83244975851E+02  0.00000000000E+00 0.  1.
         14    1    6    6    0    0  0.30583982052E+02 -0.74377449888E+02  0.16006587371E+03  0.17913254572E+03  0.00000000000E+00 0. -1.
         -5    1    3    3    0  503 -0.31713035007E+02  0.81380462362E+01 -0.46903605635E+02  0.57393227888E+02  0.47000000000E+01 0.  1.
         11    1    4    4    0    0 -0.99038844485E+01  0.38840782015E+02  0.60806869324E+02  0.72829723546E+02  0.00000000000E+00 0. -1.
        -12    1    4    4    0    0 -0.94436735773E+02  0.32656983075E+02  0.43720557585E+02  0.10906999020E+03  0.00000000000E+00 0.  1.
</event>
<event>
12    1  0.8488291E-002  0.2155910E+03  0.7818608E-02  0.1137259E+00
         21   -1    0    0  501  502  0.00000000000E+00  0.00000000000E+00  0.13310203531E+03  0.13310203531E+03  0.00000000000E+00 0. -1.
         21   -1    0    0  502  503 -0.00000000000E+00 -0.00000000000E+00 -0.46521207690E+03  0.46521207690E+03  0.00000000000E+00 0. -1.
         -6    2    1    2    0  503  0.75139342550E+02 -0.10555961463E+03 -0.16349592743E+02  0.21597377903E+03  0.17201340357E+03 0.  0.
        -24    2    3    3    0    0  0.75803992537E+02 -0.70757992678E+02  0.52965541502E+02  0.13826745699E+03  0.74562740449E+02 0.  0.
          6    2    1    2  501    0 -0.75139342550E+02  0.10555961463E+03 -0.31576044885E+03  0.38234033318E+03  0.17230994249E+03 0.  0.
         24    2    5    5    0    0 -0.57222115598E+02  0.74741426698E+02 -0.32266669733E+03  0.34572648338E+03  0.80946601944E+02 0.  0.
          5    1    5    5  501    0 -0.17917226952E+02  0.30818187934E+02  0.69062484835E+01  0.36613849801E+02  0.47000000000E+01 0. -1.
        -13    1    6    6    0    0 -0.59375920027E+02  0.15358800402E+02 -0.20390314888E+03  0.21292695168E+03  0.00000000000E+00 0.  1.
         14    1    6    6    0    0  0.21538044290E+01  0.59382626296E+02 -0.11876354846E+03  0.13279953171E+03  0.00000000000E+00 0. -1.
         -5    1    3    3    0  503 -0.66464998789E+00 -0.34801621954E+02 -0.69315134244E+02  0.77706322043E+02  0.47000000000E+01 0.  1.
         11    1    4    4    0    0  0.38908710951E+02 -0.60611149087E+02 -0.10968106477E+01  0.72033340719E+02  0.00000000000E+00 0. -1.
        -12    1    4    4    0    0  0.36895281586E+02 -0.10146843591E+02  0.54062352149E+02  0.66234116270E+02  0.00000000000E+00 0.  1.
</event>
<event>
12    1  0.8488291E-002  0.2588249E+03  0.7818608E-02  0.1108266E+00
         21   -1    0    0  503  502  0.00000000000E+00  0.00000000000E+00  0.12344522252E+03  0.12344522252E+03  0.00000000000E+00 0.  1.
         21   -1    0    0  501  503 -0.00000000000E+00 -0.00000000000E+00 -0.64409379396E+03  0.64409379396E+03  0.00000000000E+00 0. -1.
          6    2    1    2  501    0 -0.37778508892E+02  0.18616086704E+03 -0.10496730182E+03  0.27929992598E+03  0.17580452227E+03 0.  0.
         24    2    3    3    0    0 -0.49715631157E+02  0.27543174399E+02 -0.46894586357E+02  0.10989922472E+03  0.81538131738E+02 0.  0.
         -6    2    1    2    0  502  0.37778508892E+02 -0.18616086704E+03 -0.41568126962E+03  0.48823909050E+03  0.17176555948E+03 0.  0.
        -24    2    5    5    0    0  0.77736729852E+02 -0.18448209810E+03 -0.35879033622E+03  0.41853868884E+03  0.79796522511E+02 0.  0.
          5    1    3    3  501    0  0.11937122265E+02  0.15861769264E+03 -0.58072715461E+02  0.16940070126E+03  0.47000000000E+01 0. -1.
        -13    1    4    4    0    0 -0.43843706449E+02  0.37152088597E+02  0.41593327275E+01  0.57618125022E+02  0.00000000000E+00 0.  1.
         14    1    4    4    0    0 -0.58719247079E+01 -0.96089141981E+01 -0.51053919085E+02  0.52281099699E+02  0.00000000000E+00 0. -1.
         -5    1    5    5    0  502 -0.39958220960E+02 -0.16787689385E+01 -0.56890933403E+02  0.69700401655E+02  0.47000000000E+01 0.  1.
         11    1    6    6    0    0  0.62617478738E+02 -0.14982360526E+03 -0.21249886972E+03  0.26743939682E+03  0.00000000000E+00 0. -1.
        -12    1    6    6    0    0  0.15119251114E+02 -0.34658492842E+02 -0.14629146650E+03  0.15109929203E+03  0.00000000000E+00 0.  1.
</event>
<event>
12    1  0.8488291E-002  0.2037047E+03  0.7818608E-02  0.1146674E+00
         21   -1    0    0  503  502  0.00000000000E+00  0.00000000000E+00  0.33291284035E+03  0.33291284035E+03  0.00000000000E+00 0.  1.
         21   -1    0    0  501  503 -0.00000000000E+00 -0.00000000000E+00 -0.20541157092E+03  0.20541157092E+03  0.00000000000E+00 0.  1.
          6    2    1    2  501    0 -0.26190177330E+02 -0.10535472619E+03 -0.10509027364E+03  0.22921514287E+03  0.17236609988E+03 0.  0.
         24    2    3    3    0    0 -0.53571223332E+02 -0.35696474496E+01 -0.70052663052E+02  0.11804118868E+03  0.78381938433E+02 0.  0.
         -6    2    1    2    0  502  0.26190177330E+02  0.10535472619E+03  0.23259154307E+03  0.30910926841E+03  0.17223289520E+03 0.  0.
        -24    2    5    5    0    0 -0.58260078066E+01  0.13569857768E+03  0.15856500716E+03  0.22280861109E+03  0.77799545835E+02 0.  0.
          5    1    3    3  501    0  0.27381046003E+02 -0.10178507874E+03 -0.35037610590E+02  0.11117395419E+03  0.47000000000E+01 0. -1.
        -11    1    4    4    0    0 -0.32935504753E+02 -0.28420063445E+02 -0.73652098909E+02  0.85539927246E+02  0.00000000000E+00 0.  1.
         12    1    4    4    0    0 -0.20635718579E+02  0.24850415995E+02  0.35994358571E+01  0.32501261436E+02  0.00000000000E+00 0. -1.
         -5    1    5    5    0  502  0.32016185136E+02 -0.30343851490E+02  0.74026535911E+02  0.86300657315E+02  0.47000000000E+01 0.  1.
         13    1    6    6    0    0 -0.38448496567E+02  0.52672453233E+02  0.49280378063E+02  0.81738790546E+02  0.00000000000E+00 0. -1.
        -14    1    6    6    0    0  0.32622488761E+02  0.83026124442E+02  0.10928462909E+03  0.14106982054E+03  0.00000000000E+00 0.  1.
</event>
<event>
12    1  0.8488291E-002  0.2643458E+03  0.7818608E-02  0.1104668E+00
         21   -1    0    0  501  502  0.00000000000E+00  0.00000000000E+00  0.10620477978E+04  0.10620477978E+04  0.00000000000E+00 0.  1.
         21   -1    0    0  502  503 -0.00000000000E+00 -0.00000000000E+00 -0.81299221410E+02  0.81299221410E+02  0.00000000000E+00 0.  1.
         -6    2    1    2    0  503  0.19730224392E+03 -0.34831569817E+02  0.23871707570E+03  0.35563548975E+03  0.17131650717E+03 0.  0.
        -24    2    3    3    0    0  0.86713094115E+02  0.46622532686E+02  0.12065350970E+03  0.17445649956E+03  0.78644641212E+02 0.  0.
          6    2    1    2  501    0 -0.19730224392E+03  0.34831569817E+02  0.74203150070E+03  0.78771152947E+03  0.17244504028E+03 0.  0.
         24    2    5    5    0    0 -0.13985356675E+03  0.44245546941E+02  0.31057051742E+03  0.35231556765E+03  0.78457149849E+02 0.  0.
          5    1    5    5  501    0 -0.57448677170E+02 -0.94139771241E+01  0.43146098328E+03  0.43539596182E+03  0.47000000000E+01 0. -1.
        -11    1    6    6    0    0 -0.49135073495E+02  0.40935929178E+02  0.19582279744E+03  0.20600139257E+03  0.00000000000E+00 0.  1.
         12    1    6    6    0    0 -0.90718493254E+02  0.33096177633E+01  0.11474771998E+03  0.14631417508E+03  0.00000000000E+00 0. -1.
         -5    1    3    3    0  503  0.11058914980E+03 -0.81454102503E+02  0.11806356600E+03  0.18117899019E+03  0.47000000000E+01 0.  1.
         11    1    4    4    0    0  0.10566948742E+02 -0.14778405737E+02  0.51642785552E+02  0.54745218800E+02  0.00000000000E+00 0. -1.
        -12    1    4    4    0    0  0.76146145372E+02  0.61400938423E+02  0.69010724147E+02  0.11971128076E+03  0.00000000000E+00 0.  1.
</event>
<event>
12    1  0.8488291E-002  0.1814303E+03  0.7818608E-02  0.1167856E+00
         21   -1    0    0  501  502  0.00000000000E+00  0.00000000000E+00  0.24469108684E+03  0.24469108684E+03  0.00000000000E+00 0. -1.
         21   -1    0    0  502  503 -0.00000000000E+00 -0.00000000000E+00 -0.15510162572E+03  0.15510162572E+03  0.00000000000E+00 0. -1.
         -6    2    1    2    0  503 -0.35098216100E+02  0.12515629919E+02 -0.34657889367E+02  0.18471093561E+03  0.17756248104E+03 0.  0.
        -24    2    3    3    0    0 -0.22140848438E+02  0.74241054863E+02  0.69149963481E+01  0.10902529438E+03  0.76398601061E+02 0.  0.
          6    2    1    2  501    0  0.35098216100E+02 -0.12515629919E+02  0.12424735049E+03  0.21508177696E+03  0.17156410146E+03 0.  0.
         24    2    5    5    0    0 -0.74525968409E+01  0.31676462366E+02  0.12077612641E+02  0.87145649180E+02  0.79934698200E+02 0.  0.
          5    1    5    5  501    0  0.42550812940E+02 -0.44192092284E+02  0.11216973785E+03  0.12793612778E+03  0.47000000000E+01 0. -1.
        -11    1    6    6    0    0  0.97820380834E+01  0.55682281728E+02  0.49833525983E+01  0.56754194300E+02  0.00000000000E+00 0.  1.
         12    1    6    6    0    0 -0.17234634924E+02 -0.24005819362E+02  0.70942600427E+01  0.30391454881E+02  0.00000000000E+00 0. -1.
         -5    1    3    3    0  503 -0.12957367662E+02 -0.61725424944E+02 -0.41572885715E+02  0.75685641227E+02  0.47000000000E+01 0.  1.
         11    1    4    4    0    0  0.15834110601E+02  0.67883385416E+02 -0.10181539890E+01  0.69713052663E+02  0.00000000000E+00 0. -1.
        -12    1    4    4    0    0 -0.37974959038E+02  0.63576694470E+01  0.79331503372E+01  0.39312241720E+02  0.00000000000E+00 0.  1.
</event>
<event>
12    1  0.8488291E-002  0.2073033E+03  0.7818608E-02  0.1148079E+00
         21   -1    0    0  501  502  0.00000000000E+00  0.00000000000E+00  0.20825636722E+03  0.20825636722E+03  0.00000000000E+00 0.  1.
         21   -1    0    0  502  503 -0.00000000000E+00 -0.00000000000E+00 -0.25791608147E+03  0.25791608147E+03  0.00000000000E+00 0.  1.
         -6    2    1    2    0  503  0.22632019417E+02 -0.68078847266E+02 -0.14832327912E+03  0.25490084185E+03  0.19449346081E+03 0.  0.
        -24    2    3    3    0    0  0.20196494015E+02 -0.10811605688E+03 -0.37065639360E+02  0.13654011212E+03  0.71919124501E+02 0.  0.
          6    2    1    2  501    0 -0.22632019417E+02  0.68078847266E+02  0.98663564872E+02  0.21127160685E+03  0.17249421752E+03 0.  0.
         24    2    5    5    0    0  0.46226293439E+02  0.57839208232E+02  0.49039311574E+02  0.12565049980E+03  0.88887287085E+02 0.  0.
          5    1    5    5  501    0 -0.68858312857E+02  0.10239639034E+02  0.49624253298E+02  0.85621107050E+02  0.47000000000E+01 0. -1.
        -13    1    6    6    0    0  0.42913986801E+02  0.54096151126E+02  0.73404408867E+02  0.10077802871E+03  0.00000000000E+00 0.  1.
         14    1    6    6    0    0  0.33123066386E+01  0.37430571061E+01 -0.24365097293E+02  0.24872471085E+02  0.00000000000E+00 0. -1.
         -5    1    3    3    0  503  0.24355254024E+01  0.40037209617E+02 -0.11125763976E+03  0.11836072973E+03  0.47000000000E+01 0.  1.
         11    1    4    4    0    0  0.37286822332E+02 -0.64175133538E+02 -0.47674966149E+02  0.88213702346E+02  0.00000000000E+00 0. -1.
        -12    1    4    4    0    0 -0.17090328317E+02 -0.43940923345E+02  0.10609326788E+02  0.48326409770E+02  0.00000000000E+00 0.  1.
</event>
<event>
12    1  0.8488291E-002  0.2820392E+03  0.7818608E-02  0.1095542E+00
         21   -1    0    0  501  502  0.00000000000E+00  0.00000000000E+00  0.38032522388E+03  0.38032522388E+03  0.00000000000E+00 0. -1.
         21   -1    0    0  502  503 -0.00000000000E+00 -0.00000000000E+00 -0.33614886625E+03  0.33614886625E+03  0.00000000000E+00 0. -1.
         -6    2    1    2    0  503  0.15864094531E+03  0.15645912466E+03 -0.20269774146E+03  0.34165019783E+03  0.16122058202E+03 0.  0.
        -24    2    3    3    0    0  0.10776413993E+03  0.54740378204E+02 -0.17033925345E+03  0.22331037169E+03  0.79009125908E+02 0.  0.
          6    2    1    2  501    0 -0.15864094531E+03 -0.15645912466E+03  0.24687409909E+03  0.37482389230E+03  0.17291536143E+03 0.  0.
         24    2    5    5    0    0 -0.11310869332E+03 -0.15556389814E+03  0.12019635805E+03  0.24012672278E+03  0.78866821898E+02 0.  0.
          5    1    5    5  501    0 -0.45532251988E+02 -0.89522651963E+00  0.12667774104E+03  0.13469716952E+03  0.47000000000E+01 0. -1.
        -13    1    6    6    0    0 -0.86322440777E+02 -0.14153168099E+03  0.12735661415E+03  0.20905139960E+03  0.00000000000E+00 0.  1.
         14    1    6    6    0    0 -0.26786252546E+02 -0.14032217144E+02 -0.71602561008E+01  0.31075323182E+02  0.00000000000E+00 0. -1.
         -5    1    3    3    0  503  0.50876805378E+02  0.10171874645E+03 -0.32358488011E+02  0.11833982614E+03  0.47000000000E+01 0.  1.
         11    1    4    4    0    0  0.28825670684E+01 -0.16949504638E+02 -0.16961510671E+02  0.24151350783E+02  0.00000000000E+00 0. -1.
        -12    1    4    4    0    0  0.10488157286E+03  0.71689882843E+02 -0.15337774278E+03  0.19915902091E+03  0.00000000000E+00 0.  1.
</event>
<event>
12    1  0.8488291E-002  0.2012883E+03  0.7818608E-02  0.1149067E+00
         21   -1    0    0  501  502  0.00000000000E+00  0.00000000000E+00  0.10457720624E+04  0.10457720624E+04  0.00000000000E+00 0.  1.
         21   -1    0    0  502  503 -0.00000000000E+00 -0.00000000000E+00 -0.43588914246E+02  0.43588914246E+02  0.00000000000E+00 0.  1.
         -6    2    1    2    0  503 -0.17305190635E+02 -0.10089145839E+03  0.31046084705E+03  0.36894669833E+03  0.17104728195E+03 0.  0.
        -24    2    3    3    0    0  0.14958634318E+02  0.94080508987E+01  0.98628974793E+02  0.12790361452E+03  0.79494577024E+02 0.  0.
          6    2    1    2  501    0  0.17305190635E+02  0.10089145839E+03  0.69172230115E+03  0.72041427836E+03  0.17331599624E+03 0.  0.
         24    2    5    5    0    0 -0.29897041413E+02  0.78340690122E+02  0.62706778725E+03  0.63711431421E+03  0.75296366074E+02 0.  0.
          5    1    5    5  501    0  0.47202232049E+02  0.22550768272E+02  0.64654513896E+02  0.83299964149E+02  0.47000000000E+01 0. -1.
        -13    1    6    6    0    0  0.13670862145E+02  0.61299332541E+02  0.43044366053E+03  0.43500143164E+03  0.00000000000E+00 0.  1.
         14    1    6    6    0    0 -0.43567903559E+02  0.17041357580E+02  0.19662412673E+03  0.20211288257E+03  0.00000000000E+00 0. -1.
         -5    1    3    3    0  503 -0.32263824954E+02 -0.11029950929E+03  0.21183187225E+03  0.24104308381E+03  0.47000000000E+01 0.  1.
         11    1    4    4    0    0 -0.23735455299E+02  0.27956618777E+02  0.59142713619E+02  0.69590264735E+02  0.00000000000E+00 0. -1.
        -12    1    4    4    0    0  0.38694089617E+02 -0.18548567878E+02  0.39486261174E+02  0.58313349785E+02  0.00000000000E+00 0.  1.
</event>
<event>
12    1  0.8488291E-002  0.3926831E+03  0.7818608E-02  0.1046436E+00
         21   -1    0    0  501  502  0.00000000000E+00  0.00000000000E+00  0.35036981487E+03  0.35036981487E+03  0.00000000000E+00 0.  1.
         21   -1    0    0  502  503 -0.00000000000E+00 -0.00000000000E+00 -0.10233934097E+04  0.10233934097E+04  0.00000000000E+00 0. -1.
         -6    2    1    2    0  503  0.34364253210E+03  0.77209741380E+02 -0.85578889462E+03  0.94158094565E+03  0.17363326584E+03 0.  0.
        -24    2    3    3    0    0  0.29944466486E+03  0.33328760560E+02 -0.57694739722E+03  0.65582989557E+03  0.80415416221E+02 0.  0.
          6    2    1    2  501    0 -0.34364253210E+03 -0.77209741380E+02  0.18276529985E+03  0.43218227888E+03  0.17125079069E+03 0.  0.
         24    2    5    5    0    0 -0.24573334077E+03  0.12208196148E+02  0.12759104499E+03  0.28848793070E+03  0.80074319093E+02 0.  0.
          5    1    5    5  501    0 -0.97909191330E+02 -0.89417937528E+02  0.55174254860E+02  0.14369434818E+03  0.47000000000E+01 0. -1.
        -11    1    6    6    0    0 -0.18230320511E+03  0.18141071632E+02  0.53671284105E+02  0.19090354583E+03  0.00000000000E+00 0.  1.
         12    1    6    6    0    0 -0.63430135666E+02 -0.59328754844E+01  0.73919760881E+02  0.97584384872E+02  0.00000000000E+00 0. -1.
         -5    1    3    3    0  503  0.44197867245E+02  0.43880980820E+02 -0.27884149740E+03  0.28575105008E+03  0.47000000000E+01 0.  1.
         13    1    4    4    0    0  0.10893005909E+03  0.36940424653E+02 -0.15654142496E+03  0.19425645543E+03  0.00000000000E+00 0. -1.
        -14    1    4    4    0    0  0.19051460577E+03 -0.36116640926E+01 -0.42040597227E+03  0.46157344014E+03  0.00000000000E+00 0.  1.
</event>
<event>
12    1  0.8488291E-002  0.2007663E+03  0.7818608E-02  0.1149216E+00
         21   -1    0    0  503  502  0.00000000000E+00  0.00000000000E+00  0.13176716531E+03  0.13176716531E+03  0.00000000000E+00 0. -1.
         21   -1    0    0  501  503 -0.00000000000E+00 -0.00000000000E+00 -0.40990439545E+03  0.40990439545E+03  0.00000000000E+00 0.  1.
          6    2    1    2  501    0 -0.10401468365E+03 -0.69688723477E+01 -0.27622098489E+03  0.34147494478E+03  0.17157938636E+03 0.  0.
         24    2    3    3    0    0 -0.95853652375E+02 -0.36465954713E+02 -0.28191492512E+03  0.30999175474E+03  0.78110015218E+02 0.  0.
         -6    2    1    2    0  502  0.10401468365E+03  0.69688723477E+01 -0.19162452562E+01  0.20019661598E+03  0.17090170700E+03 0.  0.
        -24    2    5    5    0    0  0.26501700469E+02 -0.53571643160E+02  0.49108251533E+01  0.10149446063E+03  0.81882527173E+02 0.  0.
          5    1    3    3  501    0 -0.81610312778E+01  0.29497082365E+02  0.56939402305E+01  0.31483190037E+02  0.47000000000E+01 0. -1.
        -11    1    4    4    0    0 -0.93028578053E+02 -0.35354483784E+01 -0.17693746003E+03  0.19993419041E+03  0.00000000000E+00 0.  1.
         12    1    4    4    0    0 -0.28250743217E+01 -0.32930506334E+02 -0.10497746508E+03  0.11005756434E+03  0.00000000000E+00 0. -1.
         -5    1    5    5    0  502  0.77512983183E+02  0.60540515507E+02 -0.68270704096E+01  0.98702155347E+02  0.47000000000E+01 0.  1.
         11    1    6    6    0    0  0.45004631279E+02 -0.54725587307E+02 -0.16927692580E+02  0.72848153845E+02  0.00000000000E+00 0. -1.
        -12    1    6    6    0    0 -0.18502930809E+02  0.11539441469E+01  0.21838517733E+02  0.28646306785E+02  0.00000000000E+00 0.  1.
</event>
<event>
12    1  0.8488291E-002  0.1995151E+03  0.7818608E-02  0.1154296E+00
         21   -1    0    0  501  502  0.00000000000E+00  0.00000000000E+00  0.25868480367E+03  0.25868480367E+03  0.00000000000E+00 0.  1.
         21   -1    0    0  502  503 -0.00000000000E+00 -0.00000000000E+00 -0.43550974854E+03  0.43550974854E+03  0.00000000000E+00 0.  1.
         -6    2    1    2    0  503 -0.38616356962E+02 -0.40195451055E+02 -0.37567195666E+03  0.42536536900E+03  0.19157082455E+03 0.  0.
        -24    2    3    3    0    0  0.38125477201E+02  0.29118487876E+02 -0.16891605696E+03  0.19414291486E+03  0.82809412165E+02 0.  0.
          6    2    1    2  501    0  0.38616356962E+02  0.40195451055E+02  0.19884701179E+03  0.26882918320E+03  0.17211071534E+03 0.  0.
         24    2    5    5    0    0 -0.50935347293E+01 -0.10937780828E+02  0.18132210401E+03  0.19915584234E+03  0.81484753106E+02 0.  0.
          5    1    5    5  501    0  0.43709891691E+02  0.51133231883E+02  0.17524907776E+02  0.69673340863E+02  0.47000000000E+01 0. -1.
        -11    1    6    6    0    0  0.29246831125E+02 -0.37485067195E+01  0.14751655532E+03  0.15043457890E+03  0.00000000000E+00 0.  1.
         12    1    6    6    0    0 -0.34340365854E+02 -0.71892741090E+01  0.33805548691E+02  0.48721263443E+02  0.00000000000E+00 0. -1.
         -5    1    3    3    0  503 -0.76741834163E+02 -0.69313938931E+02 -0.20675589969E+03  0.23122245414E+03  0.47000000000E+01 0.  1.
         11    1    4    4    0    0  0.57486856588E+02  0.15328774668E+02 -0.67495986256E+02  0.89974541809E+02  0.00000000000E+00 0. -1.
        -12    1    4    4    0    0 -0.19361379386E+02  0.13789713208E+02 -0.10142007071E+03  0.10416837305E+03  0.00000000000E+00 0.  1.
</event>
<event>
12    1  0.8488291E-002  0.2224698E+03  0.7818608E-02  0.1132400E+00
         21   -1    0    0  503  502  0.00000000000E+00  0.00000000000E+00  0.19029899283E+03  0.19029899283E+03  0.00000000000E+00 0. -1.
         21   -1    0    0  501  503 -0.00000000000E+00 -0.00000000000E+00 -0.30316205727E+03  0.30316205727E+03  0.00000000000E+00 0. -1.
          6    2    1    2  501    0  0.12637710361E+03  0.60875210840E+02 -0.15197073554E+03  0.26942148173E+03  0.17267271570E+03 0.  0.
         24    2    3    3    0    0  0.10176528831E+03  0.23505195011E+02 -0.17478987250E+03  0.21897286880E+03  0.80554016930E+02 0.  0.
         -6    2    1    2    0  502 -0.12637710361E+03 -0.60875210840E+02  0.39107671088E+02  0.22403956837E+03  0.17025673157E+03 0.  0.
        -24    2    5    5    0    0 -0.14800505303E+03 -0.14692881675E+02  0.37628436191E+02  0.17280624075E+03  0.79528115402E+02 0.  0.
          5    1    3    3  501    0  0.24611815295E+02  0.37370015828E+02  0.22819136960E+02  0.50448612931E+02  0.47000000000E+01 0. -1.
        -13    1    4    4    0    0  0.18240337896E+02  0.27417611049E+02 -0.10504965836E+03  0.11009026316E+03  0.00000000000E+00 0.  1.
         14    1    4    4    0    0  0.83524950419E+02 -0.39124160376E+01 -0.69740214141E+02  0.10888260564E+03  0.00000000000E+00 0. -1.
         -5    1    5    5    0  502  0.21627949417E+02 -0.46182329165E+02  0.14792348973E+01  0.51233327619E+02  0.47000000000E+01 0.  1.
         13    1    6    6    0    0 -0.12829283663E+03 -0.39239337592E+02  0.17152826353E+02  0.13525160626E+03  0.00000000000E+00 0. -1.
        -14    1    6    6    0    0 -0.19712216400E+02  0.24546455917E+02  0.20475609838E+02  0.37554634491E+02  0.00000000000E+00 0.  1.
</event>
<event>
12    1  0.8488291E-002  0.2621616E+03  0.7818608E-02  0.1106013E+00
         21   -1    0    0  503  502  0.00000000000E+00  0.00000000000E+00  0.57961508555E+03  0.57961508555E+03  0.00000000000E+00 0.  1.
         21   -1    0    0  501  503 -0.00000000000E+00 -0.00000000000E+00 -0.24713454219E+03  0.24713454219E+03  0.00000000000E+00 0.  1.
          6    2    1    2  501    0 -0.15833869486E+03  0.11867633331E+03 -0.13263632874E+03  0.29283725235E+03  0.17031161523E+03 0.  0.
         24    2    3    3    0    0 -0.17661374060E+03  0.13292243236E+03 -0.10135595389E+03  0.25362653334E+03  0.72059715718E+02 0.  0.
         -6    2    1    2    0  502  0.15833869486E+03 -0.11867633331E+03  0.46511687209E+03  0.53391237539E+03  0.17196949006E+03 0.  0.
        -24    2    5    5    0    0  0.13990789241E+03 -0.42289691167E+02  0.39354783733E+03  0.42752238378E+03  0.80826060367E+02 0.  0.
          5    1    3    3  501    0  0.18275045740E+02 -0.14246099048E+02 -0.31280374848E+02  0.39210719013E+02  0.47000000000E+01 0. -1.
        -11    1    4    4    0    0 -0.94658255840E+02  0.56959847883E+02 -0.87694131646E+02  0.14104917722E+03  0.00000000000E+00 0.  1.
         12    1    4    4    0    0 -0.81955484764E+02  0.75962584476E+02 -0.13661822245E+02  0.11257735612E+03  0.00000000000E+00 0. -1.
         -5    1    5    5    0  502  0.18430802451E+02 -0.76386642144E+02  0.71569034767E+02  0.10638999161E+03  0.47000000000E+01 0.  1.
         11    1    6    6    0    0  0.46254094245E+02  0.23007474706E+02  0.10003917263E+03  0.11259050221E+03  0.00000000000E+00 0. -1.
        -12    1    6    6    0    0  0.93653798168E+02 -0.65297165873E+02  0.29350866469E+03  0.31493188158E+03  0.00000000000E+00 0.  1.
</event>
<event>
12    1  0.8488291E-002  0.1872313E+03  0.7818608E-02  0.1161856E+00
         21   -1    0    0  503  502  0.00000000000E+00  0.00000000000E+00  0.82458585626E+02  0.82458585626E+02  0.00000000000E+00 0.  1.
         21   -1    0    0  501  503 -0.00000000000E+00 -0.00000000000E+00 -0.44791780151E+03  0.44791780151E+03  0.00000000000E+00 0.  1.
          6    2    1    2  501    0  0.59324396887E+02  0.35933928625E+02 -0.25108350573E+03  0.31097411585E+03  0.16985682967E+03 0.  0.
         24    2    3    3    0    0 -0.18148574584E+02  0.38049275656E+02 -0.20466489905E+03  0.22051244967E+03  0.70433666797E+02 0.  0.
         -6    2    1    2    0  502 -0.59324396887E+02 -0.35933928625E+02 -0.11437571015E+03  0.21940227129E+03  0.17391067328E+03 0.  0.
        -24    2    5    5    0    0  0.88063182117E+01  0.20578548044E+01 -0.11391028529E+03  0.14125192536E+03  0.83034735601E+02 0.  0.
          5    1    3    3  501    0  0.77472971471E+02 -0.21153470311E+01 -0.46418606676E+02  0.90461666176E+02  0.47000000000E+01 0. -1.
        -11    1    4    4    0    0  0.93317520607E+01 -0.11867567199E+02 -0.10185561987E+03  0.10296838373E+03  0.00000000000E+00 0.  1.
         12    1    4    4    0    0 -0.27480326645E+02  0.49916842855E+02 -0.10280927918E+03  0.11754406594E+03  0.00000000000E+00 0. -1.
         -5    1    5    5    0  502 -0.68130715099E+02 -0.37991783430E+02 -0.46542486190E+00  0.78150345926E+02  0.47000000000E+01 0.  1.
         13    1    6    6    0    0 -0.35187631037E+02  0.13704812758E+02 -0.46209390692E+02  0.59676620706E+02  0.00000000000E+00 0. -1.
        -14    1    6    6    0    0  0.43993949249E+02 -0.11646957954E+02 -0.67700894600E+02  0.81575304656E+02  0.00000000000E+00 0.  1.
</event>
<event>
12    1  0.8488291E-002  0.2216694E+03  0.7818608E-02  0.1133139E+00
         21   -1    0    0  503  502  0.00000000000E+00  0.00000000000E+00  0.59984446818E+02  0.59984446818E+02  0.00000000000E+00 0. -1.
         21   -1    0    0  501  503 -0.00000000000E+00 -0.00000000000E+00 -0.11029044541E+04  0.11029044541E+04  0.00000000000E+00 0. -1.
          6    2    1    2  501    0  0.58375579940E+02  0.12830410528E+03 -0.82373261050E+03  0.85303734729E+03  0.17107790771E+03 0.  0.
         24    2    3    3    0    0  0.48255609852E+02  0.64739700452E+01 -0.45204250251E+03  0.46173104524E+03  0.80514706070E+02 0.  0.
         -6    2    1    2    0  502 -0.58375579940E+02 -0.12830410528E+03 -0.21918739680E+03  0.30985155364E+03  0.16761628385E+03 0.  0.
        -24    2    5    5    0    0 -0.33442046369E+02 -0.87724130236E+02 -0.39484112499E+02  0.12388441714E+03  0.70529853105E+02 0.  0.
          5    1    3    3  501    0  0.10119970088E+02  0.12183013524E+03 -0.37169010799E+03  0.39130630205E+03  0.47000000000E+01 0. -1.
        -11    1    4    4    0    0 -0.11514798766E+02 -0.23306748257E+02 -0.94746067504E+02  0.98247709451E+02  0.00000000000E+00 0.  1.
         12    1    4    4    0    0  0.59770408618E+02  0.29780718302E+02 -0.35729643501E+03  0.36348333579E+03  0.00000000000E+00 0. -1.
         -5    1    5    5    0  502 -0.24933533571E+02 -0.40579975048E+02 -0.17970328430E+03  0.18596713650E+03  0.47000000000E+01 0.  1.
         11    1    6    6    0    0  0.15978027024E+02 -0.56227150876E+02 -0.24608470066E+02  0.63422130540E+02  0.00000000000E+00 0. -1.
        -12    1    6    6    0    0 -0.49420073393E+02 -0.31496979360E+02 -0.14875642434E+02  0.60462286599E+02  0.00000000000E+00 0.  1.
</event>
<event>
12    1  0.8488291E-002  0.1796854E+03  0.7818608E-02  0.1168274E+00
         21   -1    0    0  503  502  0.00000000000E+00  0.00000000000E+00  0.68696858884E+03  0.68696858884E+03  0.00000000000E+00 0.  1.
         21   -1    0    0  501  503 -0.00000000000E+00 -0.00000000000E+00 -0.11167126342E+03  0.11167126342E+03  0.00000000000E+00 0.  1.
          6    2    1    2  501    0 -0.11541327196E+02 -0.45099563912E+02 -0.16425415355E+02  0.18043457062E+03  0.17355018614E+03 0.  0.
         24    2    3    3    0    0 -0.32681159490E+02 -0.51219071956E+02 -0.69952234041E+02  0.12236951050E+03  0.79934539069E+02 0.  0.
         -6    2    1    2    0  502  0.11541327196E+02  0.45099563912E+02  0.59172274078E+03  0.61820528164E+03  0.17284326827E+03 0.  0.
        -24    2    5    5    0    0 -0.45282622360E+02  0.27720320609E+02  0.50119132864E+03  0.50981235786E+03  0.76791667904E+02 0.  0.
          5    1    3    3  501    0  0.21139832294E+02  0.61195080437E+01  0.53526818685E+02  0.58065060120E+02  0.47000000000E+01 0. -1.
        -13    1    4    4    0    0  0.21113417744E+02 -0.14958571290E+02 -0.46820056866E+02  0.53494420166E+02  0.00000000000E+00 0.  1.
         14    1    4    4    0    0 -0.53794577234E+02 -0.36260500666E+02 -0.23132177175E+02  0.68875090339E+02  0.00000000000E+00 0. -1.
         -5    1    5    5    0  502  0.56823949556E+02  0.17379243303E+02  0.90531412142E+02  0.10839292378E+03  0.47000000000E+01 0.  1.
         11    1    6    6    0    0 -0.42351089887E+01  0.20586052513E+02  0.29153673472E+02  0.35939649179E+02  0.00000000000E+00 0. -1.
        -12    1    6    6    0    0 -0.41047513371E+02  0.71342680958E+01  0.47203765517E+03  0.47387270868E+03  0.00000000000E+00 0.  1.
</event>
<event>
12    1  0.8488291E-002  0.2030533E+03  0.7818608E-02  0.1147451E+00
         21   -1    0    0  501  502  0.00000000000E+00  0.00000000000E+00  0.71440383789E+03  0.71440383789E+03  0.00000000000E+00 0.  1.
         21   -1    0    0  502  503 -0.00000000000E+00 -0.00000000000E+00 -0.62571420391E+02  0.62571420391E+02  0.00000000000E+00 0.  1.
         -6    2    1    2    0  503 -0.65021619617E+02 -0.83484293643E+02  0.21280805245E+03  0.29326765590E+03  0.17181738127E+03 0.  0.
        -24    2    3    3    0    0 -0.90734804845E+02 -0.23238236258E+02  0.82169114749E+02  0.14705077121E+03  0.78098306383E+02 0.  0.
          6    2    1    2  501    0  0.65021619617E+02  0.83484293643E+02  0.43902436505E+03  0.48370760238E+03  0.17330093246E+03 0.  0.
         24    2    5    5    0    0  0.69550747227E+02  0.96524958118E+02  0.44517447234E+03  0.46788086088E+03  0.81103730938E+02 0.  0.
          5    1    5    5  501    0 -0.45291276098E+01 -0.13040664474E+02 -0.61501072938E+01  0.15826741502E+02  0.47000000000E+01 0. -1.
        -11    1    6    6    0    0  0.44626855927E+02  0.30798601638E+01  0.10283995071E+03  0.11214765834E+03  0.00000000000E+00 0.  1.
         12    1    6    6    0    0  0.24923891300E+02  0.93445097954E+02  0.34233452163E+03  0.35573320254E+03  0.00000000000E+00 0. -1.
         -5    1    3    3    0  503  0.25713185228E+02 -0.60246057385E+02  0.13063893770E+03  0.14621688469E+03  0.47000000000E+01 0.  1.
         13    1    4    4    0    0 -0.11489394357E+01 -0.14439980668E+02  0.49034250645E+02  0.51129158411E+02  0.00000000000E+00 0. -1.
        -14    1    4    4    0    0 -0.89585865410E+02 -0.87982555897E+01  0.33134864104E+02  0.95921612798E+02  0.00000000000E+00 0.  1.
</event>
<event>
12    1  0.8488291E-002  0.1930917E+03  0.7818608E-02  0.1156041E+00
         21   -1    0    0  503  502  0.00000000000E+00  0.00000000000E+00  0.42823868310E+03  0.42823868310E+03  0.00000000000E+00 0.  1.
         21   -1    0    0  501  503 -0.00000000000E+00 -0.00000000000E+00 -0.17433294920E+03  0.17433294920E+03  0.00000000000E+00 0.  1.
          6    2    1    2  501    0  0.28121924428E+02  0.79603259623E+02 -0.87299652124E+02  0.21051868214E+03  0.17195745023E+03 0.  0.
         24    2    3    3    0    0  0.46039383186E+02  0.10622068894E+03 -0.10307463054E+03  0.17445675185E+03  0.80051978366E+02 0.  0.
         -6    2    1    2    0  502 -0.28121924428E+02 -0.79603259623E+02  0.34120538602E+03  0.39205295016E+03  0.17365736004E+03 0.  0.
        -24    2    5    5    0    0 -0.47753032150E+02  0.15513058586E+02  0.15371032570E+03  0.18084456485E+03  0.80974596884E+02 0.  0.
          5    1    3    3  501    0 -0.17917458758E+02 -0.26617429321E+02  0.15774978417E+02  0.36061930288E+02  0.47000000000E+01 0. -1.
        -13    1    4    4    0    0  0.57930661938E+02  0.45579438361E+02 -0.79238580840E+02  0.10822291572E+03  0.00000000000E+00 0.  1.
         14    1    4    4    0    0 -0.11891278752E+02  0.60641250582E+02 -0.23836049701E+02  0.66233836125E+02  0.00000000000E+00 0. -1.
         -5    1    5    5    0  502  0.19631107722E+02 -0.95116318209E+02  0.18749506032E+03  0.21120838531E+03  0.47000000000E+01 0.  1.
         11    1    6    6    0    0 -0.63316380893E+02  0.10635451823E+02  0.67704038926E+02  0.93305486505E+02  0.00000000000E+00 0. -1.
        -12    1    6    6    0    0  0.15563348743E+02  0.48776067634E+01  0.86006286776E+02  0.87539078341E+02  0.00000000000E+00 0.  1.
</event>
<event>
12    1  0.8488291E-002  0.2162990E+03  0.7818608E-02  0.1136848E+00
         21   -1    0    0  503  502  0.00000000000E+00  0.00000000000E+00  0.29716725651E+03  0.29716725651E+03  0.00000000000E+00 0. -1.
         21   -1    0    0  501  503 -0.00000000000E+00 -0.00000000000E+00 -0.21465955135E+03  0.21465955135E+03  0.00000000000E+00 0. -1.
          6    2    1    2  501    0  0.38540372600E+02  0.12582648769E+03 -0.91580668693E+02  0.23488778550E+03  0.17166125822E+03 0.  0.
         24    2    3    3    0    0  0.91584434494E+02  0.89048879741E+02 -0.81082514357E+02  0.16932433384E+03  0.76019367735E+02 0.  0.
         -6    2    1    2    0  502 -0.38540372600E+02 -0.12582648769E+03  0.17408837385E+03  0.27693902236E+03  0.17050159785E+03 0.  0.
        -24    2    5    5    0    0 -0.38184958907E+02 -0.15711368383E+03  0.13271784505E+03  0.22485614980E+03  0.82483095084E+02 0.  0.
          5    1    3    3  501    0 -0.53044061894E+02  0.36777607954E+02 -0.10498154336E+02  0.65563451659E+02  0.47000000000E+01 0. -1.
        -13    1    4    4    0    0  0.67850801444E+02  0.14381932434E+02 -0.47603479486E+02  0.84122901141E+02  0.00000000000E+00 0.  1.
         14    1    4    4    0    0  0.23733633050E+02  0.74666947307E+02 -0.33479034872E+02  0.85201432698E+02  0.00000000000E+00 0. -1.
         -5    1    5    5    0  502 -0.35541369320E+00  0.31287196136E+02  0.41370528801E+02  0.52082872561E+02  0.47000000000E+01 0.  1.
         13    1    6    6    0    0 -0.56778326266E+02 -0.10106335269E+03  0.58005574305E+02  0.12962340159E+03  0.00000000000E+00 0. -1.
        -14    1    6    6    0    0  0.18593367360E+02 -0.56050331141E+02  0.74712270748E+02  0.95232748207E+02  0.00000000000E+00 0.  1.
</event>
<event>
12    1  0.8488291E-002  0.3930201E+03  0.7818608E-02  0.1046229E+00
         21   -1    0    0  501  502  0.00000000000E+00  0.00000000000E+00  0.11231835553E+04  0.11231835553E+04  0.00000000000E+00 0.  1.
         21   -1    0    0  502  503 -0.00000000000E+00 -0.00000000000E+00 -0.13799478271E+03  0.13799478271E+03  0.00000000000E+00 0. -1.
         -6    2    1    2    0  503  0.33465748575E+03  0.11370477252E+03  0.45502174883E+03  0.60125670877E+03  0.17187329600E+03 0.  0.
        -24    2    3    3    0    0  0.23733332097E+03  0.18517665734E+02  0.35179277818E+03  0.43034477610E+03  0.69054024889E+02 0.  0.
          6    2    1    2  501    0 -0.33465748575E+03 -0.11370477252E+03  0.53016702372E+03  0.65992162919E+03  0.17174130423E+03 0.  0.
         24    2    5    5    0    0 -0.30039844892E+03 -0.11816848308E+03  0.37630136133E+03  0.50215490780E+03  0.79710842339E+02 0.  0.
          5    1    5    5  501    0 -0.34259036831E+02  0.44637105552E+01  0.15386566239E+03  0.15776672140E+03  0.47000000000E+01 0. -1.
        -13    1    6    6    0    0 -0.25288448302E+03 -0.67285656456E+02  0.31383970251E+03  0.40862364125E+03  0.00000000000E+00 0.  1.
         14    1    6    6    0    0 -0.47513965893E+02 -0.50882826619E+02  0.62461658817E+02  0.93531266546E+02  0.00000000000E+00 0. -1.
         -5    1    3    3    0  503  0.97324164777E+02  0.95187106786E+02  0.10322897065E+03  0.17091193267E+03  0.47000000000E+01 0.  1.
         11    1    4    4    0    0  0.23082757329E+03  0.12276952947E+02  0.30503046886E+03  0.38272141186E+03  0.00000000000E+00 0. -1.
        -12    1    4    4    0    0  0.65057476839E+01  0.62407127870E+01  0.46762309319E+02  0.47623364243E+02  0.00000000000E+00 0.  1.
</event>
<event>
12    1  0.8488291E-002  0.1991525E+03  0.7818608E-02  0.1151514E+00
         21   -1    0    0  501  502  0.00000000000E+00  0.00000000000E+00  0.55939298382E+03  0.55939298382E+03  0.00000000000E+00 0. -1.
         21   -1    0    0  502  503 -0.00000000000E+00 -0.00000000000E+00 -0.72822007033E+02  0.72822007033E+02  0.00000000000E+00 0. -1.
         -6    2    1    2    0  503 -0.63127560408E+02  0.64933806169E+02  0.31705072523E+03  0.37441002291E+03  0.17737027603E+03 0.  0.
        -24    2    3    3    0    0  0.10358619274E+02  0.90314005094E+02  0.19958620395E+03  0.23346898253E+03  0.80057432447E+02 0.  0.
          6    2    1    2  501    0  0.63127560408E+02 -0.64933806169E+02  0.16952025156E+03  0.25780496794E+03  0.17182781423E+03 0.  0.
         24    2    5    5    0    0 -0.31017209502E+02 -0.97233442302E+01  0.66340868392E+02  0.10754017526E+03  0.78148370224E+02 0.  0.
          5    1    5    5  501    0  0.94144769910E+02 -0.55210461939E+02  0.10317938316E+03  0.15026479268E+03  0.47000000000E+01 0. -1.
        -11    1    6    6    0    0  0.31475818551E+01  0.28790864127E+02  0.40893012712E+02  0.50110474129E+02  0.00000000000E+00 0.  1.
         12    1    6    6    0    0 -0.34164791357E+02 -0.38514208358E+02  0.25447855680E+02  0.57429701136E+02  0.00000000000E+00 0. -1.
         -5    1    3    3    0  503 -0.73486179682E+02 -0.25380198925E+02  0.11746452129E+03  0.14094104038E+03  0.47000000000E+01 0.  1.
         11    1    4    4    0    0 -0.10260642441E+02  0.95886852691E+02  0.13857553642E+03  0.16882757060E+03  0.00000000000E+00 0. -1.
        -12    1    4    4    0    0  0.20619261716E+02 -0.55728475968E+01  0.61010667529E+02  0.64641411931E+02  0.00000000000E+00 0.  1.
</event>
<event>
12    1  0.8488291E-002  0.2190166E+03  0.7818608E-02  0.1134788E+00
         21   -1    0    0  501  502  0.00000000000E+00  0.00000000000E+00  0.29146672094E+03  0.29146672094E+03  0.00000000000E+00 0.  1.
         21   -1    0    0  502  503 -0.00000000000E+00 -0.00000000000E+00 -0.20980734822E+03  0.20980734822E+03  0.00000000000E+00 0. -1.
         -6    2    1    2    0  503  0.97397320244E+02  0.91338927503E+02 -0.76345011018E+02  0.23194142556E+03  0.17360652786E+03 0.  0.
        -24    2    3    3    0    0  0.77665034885E+02  0.12069437714E+03 -0.21219031896E+02  0.16627507891E+03  0.81229084909E+02 0.  0.
          6    2    1    2  501    0 -0.97397320244E+02 -0.91338927503E+02  0.15800438373E+03  0.26933264360E+03  0.17246927252E+03 0.  0.
         24    2    5    5    0    0 -0.56631512374E+02 -0.12656918116E+03  0.13810208052E+03  0.21170267277E+03  0.80740022304E+02 0.  0.
          5    1    5    5  501    0 -0.40765807870E+02  0.35230253661E+02  0.19902303211E+02  0.57629970826E+02  0.47000000000E+01 0. -1.
        -11    1    6    6    0    0 -0.60067325630E+02 -0.81648039115E+02  0.50616841793E+02  0.11329850208E+03  0.00000000000E+00 0.  1.
         12    1    6    6    0    0  0.34358132559E+01 -0.44921142049E+02  0.87485238726E+02  0.98404170697E+02  0.00000000000E+00 0. -1.
         -5    1    3    3    0  503  0.19732285358E+02 -0.29355449632E+02 -0.55125979122E+02  0.65666346653E+02  0.47000000000E+01 0.  1.
         11    1    4    4    0    0  0.94222659993E+02  0.91892138244E+02 -0.14859534480E+02  0.13244953942E+03  0.00000000000E+00 0. -1.
        -12    1    4    4    0    0 -0.16557625107E+02  0.28802238891E+02 -0.63594974165E+01  0.33825539489E+02  0.00000000000E+00 0.  1.
</event>
<event>
12    1  0.8488291E-002  0.2442897E+03  0.7818608E-02  0.1117261E+00
         21   -1    0    0  503  502  0.00000000000E+00  0.00000000000E+00  0.10853358697E+04  0.10853358697E+04  0.00000000000E+00 0.  1.
         21   -1    0    0  501  503 -0.00000000000E+00 -0.00000000000E+00 -0.80847224556E+02  0.80847224556E+02  0.00000000000E+00 0.  1.
          6    2    1    2  501    0  0.16949510001E+03  0.18854807304E+02  0.16865213455E+03  0.29537880431E+03  0.17239780410E+03 0.  0.
         24    2    3    3    0    0  0.11712140353E+03 -0.44824529326E+02  0.14608082431E+03  0.20976562750E+03  0.83278746725E+02 0.  0.
         -6    2    1    2    0  502 -0.16949510001E+03 -0.18854807304E+02  0.83583651061E+03  0.87080428996E+03  0.17490953739E+03 0.  0.
        -24    2    5    5    0    0 -0.77899043724E+02 -0.19126776172E+02  0.21114456743E+03  0.23941532478E+03  0.79395055271E+02 0.  0.
          5    1    3    3  501    0  0.52373696478E+02  0.63679336631E+02  0.22571310240E+02  0.85613176804E+02  0.47000000000E+01 0. -1.
        -11    1    4    4    0    0  0.12748196876E+03 -0.30424773177E+02  0.13784762462E+03  0.19020853502E+03  0.00000000000E+00 0.  1.
         12    1    4    4    0    0 -0.10360565233E+02 -0.14399756149E+02  0.82331996955E+01  0.19557092482E+02  0.00000000000E+00 0. -1.
         -5    1    5    5    0  502 -0.91596056285E+02  0.27196886744E+00  0.62469194317E+03  0.63138896518E+03  0.47000000000E+01 0.  1.
         13    1    6    6    0    0 -0.28381248266E+02 -0.47835316424E+02  0.10333009527E+03  0.11734914290E+03  0.00000000000E+00 0. -1.
        -14    1    6    6    0    0 -0.49517795458E+02  0.28708540252E+02  0.10781447216E+03  0.12206618188E+03  0.00000000000E+00 0.  1.
</event>
<event>
12    1  0.8488291E-002  0.1752341E+03  0.7818608E-02  0.1173206E+00
         21   -1    0    0  503  502  0.00000000000E+00  0.00000000000E+00  0.12442753084E+03  0.12442753084E+03  0.00000000000E+00 0.  1.
         21   -1    0    0  501  503 -0.00000000000E+00 -0.00000000000E+00 -0.55760485370E+03  0.55760485370E+03  0.00000000000E+00 0.  1.
          6    2    1    2  501    0  0.16525025813E+02 -0.15474895986E+01 -0.47203506282E+03  0.50254162943E+03  0.17162609820E+03 0.  0.
         24    2    3    3    0    0  0.28326223011E+02 -0.61599252481E+02 -0.22125791023E+03  0.24436193864E+03  0.78491091204E+02 0.  0.
         -6    2    1    2    0  502 -0.16525025813E+02  0.15474895986E+01  0.38857739957E+02  0.17949075511E+03  0.17444637002E+03 0.  0.
        -24    2    5    5    0    0 -0.61959299090E+02 -0.14640981667E+02 -0.19454740381E+02  0.10367007750E+03  0.79471283855E+02 0.  0.
          5    1    3    3  501    0 -0.11801197199E+02  0.60051762882E+02 -0.25077715258E+03  0.25817969080E+03  0.47000000000E+01 0. -1.
        -13    1    4    4    0    0  0.42290930070E+02 -0.25236288604E+01 -0.77756088296E+02  0.88548860727E+02  0.00000000000E+00 0.  1.
         14    1    4    4    0    0 -0.13964707059E+02 -0.59075623620E+02 -0.14350182193E+03  0.15581307791E+03  0.00000000000E+00 0. -1.
         -5    1    5    5    0  502  0.45434273277E+02  0.16188471266E+02  0.58312480338E+02  0.75820677610E+02  0.47000000000E+01 0.  1.
         13    1    6    6    0    0 -0.23523001342E+02 -0.45641831439E+02 -0.17514229130E+02  0.54251788830E+02  0.00000000000E+00 0. -1.
        -14    1    6    6    0    0 -0.38436297748E+02  0.31000849771E+02 -0.19405112513E+01  0.49418288669E+02  0.00000000000E+00 0.  1.
</event>
<event>
12    1  0.8488291E-002  0.1771195E+03  0.7818608E-02  0.1170866E+00
         21   -1    0    0  501  502  0.00000000000E+00  0.00000000000E+00  0.47178360956E+03  0.47178360956E+03  0.00000000000E+00 0.  1.
         21   -1    0    0  502  503 -0.00000000000E+00 -0.00000000000E+00 -0.16379198472E+03  0.16379198472E+03  0.00000000000E+00 0.  1.
         -6    2    1    2    0  503 -0.23197095493E+01  0.38649061351E+02 -0.91226209344E+02  0.19923235682E+03  0.17283570157E+03 0.  0.
        -24    2    3    3    0    0  0.51274951711E+02 -0.19623887272E+02 -0.50427153390E+02  0.11004279900E+03  0.80946291997E+02 0.  0.
          6    2    1    2  501    0  0.23197095493E+01 -0.38649061351E+02  0.39921783418E+03  0.43634323746E+03  0.17181795819E+03 0.  0.
         24    2    5    5    0    0  0.22961764287E+02 -0.68934296236E+02  0.37919800987E+03  0.39431737351E+03  0.80099191901E+02 0.  0.
          5    1    5    5  501    0 -0.20642054737E+02  0.30285234885E+02  0.20019824311E+02  0.42025863956E+02  0.47000000000E+01 0. -1.
        -11    1    6    6    0    0  0.29467567367E+02 -0.21418232035E+02  0.29641681770E+03  0.29864696215E+03  0.00000000000E+00 0.  1.
         12    1    6    6    0    0 -0.65058030802E+01 -0.47516064200E+02  0.82781192171E+02  0.95670411351E+02  0.00000000000E+00 0. -1.
         -5    1    3    3    0  503 -0.53594661261E+02  0.58272948623E+02 -0.40799055954E+02  0.89189557817E+02  0.47000000000E+01 0.  1.
         11    1    4    4    0    0 -0.32740428923E+01 -0.35587581798E+02 -0.37404904590E+02  0.51733182992E+02  0.00000000000E+00 0. -1.
        -12    1    4    4    0    0  0.54548994604E+02  0.15963694526E+02 -0.13022248800E+02  0.58309616008E+02  0.00000000000E+00 0.  1.
</event>
<event>
12    1  0.8488291E-002  0.1917155E+03  0.7818608E-02  0.1157870E+00
         21   -1    0    0  503  502  0.00000000000E+00  0.00000000000E+00  0.34889359200E+03  0.34889359200E+03  0.00000000000E+00 0.  1.
         21   -1    0    0  501  503 -0.00000000000E+00 -0.00000000000E+00 -0.13390901715E+03  0.13390901715E+03  0.00000000000E+00 0.  1.
          6    2    1    2  501    0 -0.64630978368E+02 -0.49958542297E+02  0.22245276839E+03  0.29094174362E+03  0.16878638778E+03 0.  0.
         24    2    3    3    0    0 -0.10806938612E+03 -0.36322868956E+02  0.18809891773E+03  0.23371322004E+03  0.79008375172E+02 0.  0.
         -6    2    1    2    0  502  0.64630978368E+02  0.49958542297E+02 -0.74681935397E+01  0.19186086553E+03  0.17344105193E+03 0.  0.
        -24    2    5    5    0    0  0.71227181490E+02  0.94106762681E+02 -0.23589733973E+02  0.14416842038E+03  0.79364121112E+02 0.  0.
          5    1    3    3  501    0  0.43438407748E+02 -0.13635673342E+02  0.34353850662E+02  0.57228523574E+02  0.47000000000E+01 0. -1.
        -13    1    4    4    0    0 -0.28734865538E+01  0.19397679975E+02  0.29047697809E+02  0.35047049254E+02  0.00000000000E+00 0.  1.
         14    1    4    4    0    0 -0.10519589956E+03 -0.55720548931E+02  0.15905121992E+03  0.19866617079E+03  0.00000000000E+00 0. -1.
         -5    1    5    5    0  502 -0.65962031216E+01 -0.44148220384E+02  0.16121540433E+02  0.47692445152E+02  0.47000000000E+01 0.  1.
         13    1    6    6    0    0  0.19993491055E+02  0.87712778937E+02 -0.21494539072E+02  0.92494791655E+02  0.00000000000E+00 0. -1.
        -14    1    6    6    0    0  0.51233690434E+02  0.63939837439E+01 -0.20951949012E+01  0.51673628722E+02  0.00000000000E+00 0.  1.
</event>
<event>
12    1  0.8488291E-002  0.1758004E+03  0.7818608E-02  0.1174249E+00
         21   -1    0    0  503  502  0.00000000000E+00  0.00000000000E+00  0.38900533119E+03  0.38900533119E+03  0.00000000000E+00 0. -1.
         21   -1    0    0  501  503 -0.00000000000E+00 -0.00000000000E+00 -0.11819727087E+03  0.11819727087E+03  0.00000000000E+00 0. -1.
          6    2    1    2  501    0 -0.11643465475E+02 -0.37183884486E+01 -0.14851765725E+02  0.17642662889E+03  0.17537498036E+03 0.  0.
         24    2    3    3    0    0 -0.75375641697E+02 -0.12923432728E+02 -0.63434234630E+01  0.11130362977E+03  0.80621067375E+02 0.  0.
         -6    2    1    2    0  502  0.11643465475E+02  0.37183884486E+01  0.28565982605E+03  0.33077597316E+03  0.16631840398E+03 0.  0.
        -24    2    5    5    0    0 -0.32211108222E+02  0.33544849663E+02  0.93403057203E+02  0.13128262343E+03  0.79675489875E+02 0.  0.
          5    1    3    3  501    0  0.63732176222E+02  0.92050442796E+01 -0.85083422618E+01  0.65122999119E+02  0.47000000000E+01 0. -1.
        -11    1    4    4    0    0 -0.58954307998E+00 -0.29875826687E+02  0.12416819308E+02  0.32358769800E+02  0.00000000000E+00 0.  1.
         12    1    4    4    0    0 -0.74786098617E+02  0.16952393959E+02 -0.18760242771E+02  0.78944859973E+02  0.00000000000E+00 0. -1.
         -5    1    5    5    0  502  0.43854573697E+02 -0.29826461214E+02  0.19225676884E+03  0.19949334974E+03  0.47000000000E+01 0.  1.
         13    1    6    6    0    0  0.25945027333E+02  0.54844752923E+01  0.37153709892E+02  0.45646709315E+02  0.00000000000E+00 0. -1.
        -14    1    6    6    0    0 -0.58156135556E+02  0.28060374370E+02  0.56249347311E+02  0.85635914110E+02  0.00000000000E+00 0.  1.
</event>
<event>
12    1  0.8488291E-002  0.2319377E+03  0.7818608E-02  0.1125304E+00
         21   -1    0    0  501  502  0.00000000000E+00  0.00000000000E+00  0.46576042324E+03  0.46576042324E+03  0.00000000000E+00 0.  1.
         21   -1    0    0  502  503 -0.00000000000E+00 -0.00000000000E+00 -0.44964551038E+03  0.44964551038E+03  0.00000000000E+00 0. -1.
         -6    2    1    2    0  503  0.33465060111E+02  0.15169513015E+03 -0.38654099799E+03  0.45078715251E+03  0.17223179435E+03 0.  0.
        -24    2    3    3    0    0  0.46078710680E+02  0.11824556164E+03 -0.38728009947E+03  0.41472312493E+03  0.76838365956E+02 0.  0.
          6    2    1    2  501    0 -0.33465060111E+02 -0.15169513015E+03  0.40265591085E+03  0.46461878111E+03  0.17206831917E+03 0.  0.
         24    2    5    5    0    0 -0.10324989302E+02 -0.15232733185E+03  0.40572728222E+03  0.44079891801E+03  0.79867622646E+02 0.  0.
          5    1    5    5  501    0 -0.23140070808E+02  0.63220169556E+00 -0.30713713778E+01  0.23819863101E+02  0.47000000000E+01 0. -1.
        -13    1    6    6    0    0 -0.18603617507E+01 -0.62063735571E+01  0.11617499908E+03  0.11635553459E+03  0.00000000000E+00 0.  1.
         14    1    6    6    0    0 -0.84646275517E+01 -0.14612095829E+03  0.28955228314E+03  0.32444338342E+03  0.00000000000E+00 0. -1.
         -5    1    3    3    0  503 -0.12613650570E+02  0.33449568515E+02  0.73910148065E+00  0.36064027583E+02  0.47000000000E+01 0.  1.
         11    1    4    4    0    0  0.40969902533E+02  0.12869116405E+03 -0.37015215872E+03  0.39402102638E+03  0.00000000000E+00 0. -1.
        -12    1    4    4    0    0  0.51088081473E+01 -0.10445602412E+02 -0.17127940743E+02  0.20702098554E+02  0.00000000000E+00 0.  1.
</event>
<event>
12    1  0.8488291E-002  0.1855947E+03  0.7818608E-02  0.1163059E+00
         21   -1    0    0  501  502  0.00000000000E+00  0.00000000000E+00  0.30918908284E+03  0.30918908284E+03  0.00000000000E+00 0. -1.
         21   -1    0    0  502  503 -0.00000000000E+00 -0.00000000000E+00 -0.12966367978E+03  0.12966367978E+03  0.00000000000E+00 0. -1.
         -6    2    1    2    0  503 -0.29522879503E+02 -0.26167250391E+02  0.17578029718E+03  0.25562489649E+03  0.18135338272E+03 0.  0.
        -24    2    3    3    0    0 -0.87774456562E+02  0.24860307883E+01  0.95485013952E+02  0.15226301154E+03  0.79725160525E+02 0.  0.
          6    2    1    2  501    0  0.29522879503E+02  0.26167250391E+02  0.37451058825E+01  0.18322786613E+03  0.17889130695E+03 0.  0.
         24    2    5    5    0    0 -0.34287364467E+01 -0.52179224123E+02  0.18695437412E+02  0.96801125624E+02  0.79287520319E+02 0.  0.
          5    1    5    5  501    0  0.32951615949E+02  0.78346474515E+02 -0.14950331529E+02  0.86426740511E+02  0.47000000000E+01 0. -1.
        -11    1    6    6    0    0 -0.25611729284E+02  0.41319584147E+01  0.24902515947E+02  0.35960659863E+02  0.00000000000E+00 0.  1.
         12    1    6    6    0    0  0.22182992838E+02 -0.56311182538E+02 -0.62070785356E+01  0.60840465761E+02  0.00000000000E+00 0. -1.
         -5    1    3    3    0  503  0.58251577059E+02 -0.28653281180E+02  0.80295283225E+02  0.10336188495E+03  0.47000000000E+01 0.  1.
         13    1    4    4    0    0 -0.31744975478E+02  0.14839355604E+01  0.90600053731E+02  0.96012057935E+02  0.00000000000E+00 0. -1.
        -14    1    4    4    0    0 -0.56029481084E+02  0.10020952280E+01  0.48849602206E+01  0.56250953607E+02  0.00000000000E+00 0.  1.
</event>
<event>
12    1  0.8488291E-002  0.2290364E+03  0.7818608E-02  0.1127381E+00
         21   -1    0    0  503  502  0.00000000000E+00  0.00000000000E+00  0.20276584237E+04  0.20276584237E+04  0.00000000000E+00 0.  1.
         21   -1    0    0  501  503 -0.00000000000E+00 -0.00000000000E+00 -0.21051774112E+03  0.21051774112E+03  0.00000000000E+00 0. -1.
          6    2    1    2  501    0 -0.15227185867E+03 -0.76220722470E+01 -0.13969435261E+03  0.26798302534E+03  0.17045695877E+03 0.  0.
         24    2    3    3    0    0 -0.11358380760E+03 -0.30906826378E+02 -0.24852517322E+02  0.14449342172E+03  0.80026170952E+02 0.  0.
         -6    2    1    2    0  502  0.15227185867E+03  0.76220722470E+01  0.19568350352E+04  0.19701931395E+04  0.17091763207E+03 0.  0.
        -24    2    5    5    0    0  0.61001564340E+02 -0.79460715590E+01  0.49291189350E+03  0.50333742451E+03  0.81253290758E+02 0.  0.
          5    1    3    3  501    0 -0.38688051069E+02  0.23284754131E+02 -0.11484183529E+03  0.12348960362E+03  0.47000000000E+01 0. -1.
        -13    1    4    4    0    0  0.40088897828E+01 -0.18981369945E+02 -0.17404721151E+02  0.26063152545E+02  0.00000000000E+00 0.  1.
         14    1    4    4    0    0 -0.11759269738E+03 -0.11925456433E+02 -0.74477961710E+01  0.11843026917E+03  0.00000000000E+00 0. -1.
         -5    1    5    5    0  502  0.91270294328E+02  0.15568143806E+02  0.14639231417E+04  0.14668557150E+04  0.47000000000E+01 0.  1.
         13    1    6    6    0    0 -0.14507675040E+02 -0.15029629414E+02  0.18706350817E+03  0.18822624282E+03  0.00000000000E+00 0. -1.
        -14    1    6    6    0    0  0.75509239380E+02  0.70835578547E+01  0.30584838532E+03  0.31511118169E+03  0.00000000000E+00 0.  1.
</event>
<event>
12    1  0.8488291E-002  0.3498202E+03  0.7818608E-02  0.1062785E+00
         21   -1    0    0  501  502  0.00000000000E+00  0.00000000000E+00  0.13494221736E+03  0.13494221736E+03  0.00000000000E+00 0. -1.
         21   -1    0    0  502  503 -0.00000000000E+00 -0.00000000000E+00 -0.91636345094E+03  0.91636345094E+03  0.00000000000E+00 0. -1.
         -6    2    1    2    0  503  0.19436127293E+03 -0.23420099590E+03 -0.45118995871E+03  0.57091726665E+03  0.17247531888E+03 0.  0.
        -24    2    3    3    0    0  0.11152907973E+03 -0.57589326786E+02 -0.24655580136E+03  0.28816281089E+03  0.80577764986E+02 0.  0.
          6    2    1    2  501    0 -0.19436127293E+03  0.23420099590E+03 -0.33023127486E+03  0.48038840164E+03  0.17056937192E+03 0.  0.
         24    2    5    5    0    0 -0.14876824330E+03  0.90292701443E+02 -0.13594774893E+03  0.23430609831E+03  0.78312164540E+02 0.  0.
          5    1    5    5  501    0 -0.45593029622E+02  0.14390829446E+03 -0.19428352594E+03  0.24608230334E+03  0.47000000000E+01 0. -1.
        -13    1    6    6    0    0 -0.92164148788E+00 -0.82940612830E+01 -0.21180875488E+02  0.22765552091E+02  0.00000000000E+00 0.  1.
         14    1    6    6    0    0 -0.14784660182E+03  0.98586762726E+02 -0.11476687344E+03  0.21154054621E+03  0.00000000000E+00 0. -1.
         -5    1    3    3    0  503  0.82832193192E+02 -0.17661166912E+03 -0.20463415735E+03  0.28275445576E+03  0.47000000000E+01 0.  1.
         11    1    4    4    0    0  0.10847670624E+03 -0.68765153453E+02 -0.18307963754E+03  0.22363809114E+03  0.00000000000E+00 0. -1.
        -12    1    4    4    0    0  0.30523734921E+01  0.11175826667E+02 -0.63476163825E+02  0.64524719756E+02  0.00000000000E+00 0.  1.
</event>
<event>
12    1  0.8488291E-002  0.2214672E+03  0.7818608E-02  0.1133228E+00
         21   -1    0    0  501  502  0.00000000000E+00  0.00000000000E+00  0.26807191824E+03  0.26807191824E+03  0.00000000000E+00 0.  1.
         21   -1    0    0  502  503 -0.00000000000E+00 -0.00000000000E+00 -0.10960627457E+04  0.10960627457E+04  0.00000000000E+00 0.  1.
         -6    2    1    2    0  503  0.29798269866E+00  0.13520244946E+03 -0.10375544696E+04  0.10609274204E+04  0.17540787520E+03 0.  0.
        -24    2    3    3    0    0  0.34982286745E+02  0.14798700996E+02 -0.57214023131E+03  0.57891853369E+03  0.79746237738E+02 0.  0.
          6    2    1    2  501    0 -0.29798269866E+00 -0.13520244946E+03  0.20956364224E+03  0.30320724352E+03  0.17244686499E+03 0.  0.
         24    2    5    5    0    0  0.27960048475E+02 -0.22650720479E+02  0.13861927034E+03  0.16711315134E+03  0.86120170655E+02 0.  0.
          5    1    5    5  501    0 -0.28258031173E+02 -0.11255172898E+03  0.70944371900E+02  0.13609409218E+03  0.47000000000E+01 0. -1.
        -13    1    6    6    0    0  0.30236499709E+02 -0.46332424170E+02  0.47436248512E+02  0.72877548786E+02  0.00000000000E+00 0.  1.
         14    1    6    6    0    0 -0.22764512342E+01  0.23681703691E+02  0.91183021825E+02  0.94235602556E+02  0.00000000000E+00 0. -1.
         -5    1    3    3    0  503 -0.34684304046E+02  0.12040374847E+03 -0.46541423834E+03  0.48200888668E+03  0.47000000000E+01 0.  1.
         11    1    4    4    0    0  0.50207396334E+02  0.21009498405E+02 -0.54075251155E+03  0.54348455398E+03  0.00000000000E+00 0. -1.
        -12    1    4    4    0    0 -0.15225109589E+02 -0.62107974087E+01 -0.31387719763E+02  0.35433979714E+02  0.00000000000E+00 0.  1.
</event>
<event>
12    1  0.8488291E-002  0.2157362E+03  0.7818608E-02  0.1137602E+00
         21   -1    0    0  503  502  0.00000000000E+00  0.00000000000E+00  0.56440795737E+03  0.56440795737E+03  0.00000000000E+00 0.  1.
         21   -1    0    0  501  503 -0.00000000000E+00 -0.00000000000E+00 -0.48117432019E+03  0.48117432019E+03  0.00000000000E+00 0.  1.
          6    2    1    2  501    0 -0.44114130069E+02 -0.11969357047E+03 -0.43490546677E+03  0.48432453226E+03  0.17074800215E+03 0.  0.
         24    2    3    3    0    0  0.23841596989E+02 -0.90324266412E+02 -0.35425676186E+03  0.37474880290E+03  0.78815716089E+02 0.  0.
         -6    2    1    2    0  502  0.44114130069E+02  0.11969357047E+03  0.51813910394E+03  0.56125774530E+03  0.17398137354E+03 0.  0.
        -24    2    5    5    0    0 -0.14934529526E+02  0.18628632643E+01  0.16204333551E+03  0.18152480486E+03  0.80415805429E+02 0.  0.
          5    1    3    3  501    0 -0.67955727058E+02 -0.29369304060E+02 -0.80648704912E+02  0.10957572936E+03  0.47000000000E+01 0. -1.
        -11    1    4    4    0    0  0.10820960539E+02 -0.84664656228E+02 -0.34950654516E+03  0.35977774016E+03  0.00000000000E+00 0.  1.
         12    1    4    4    0    0  0.13020636451E+02 -0.56596101841E+01 -0.47502166975E+01  0.14971062744E+02  0.00000000000E+00 0. -1.
         -5    1    5    5    0  502  0.59048659595E+02  0.11783070721E+03  0.35609576843E+03  0.37973294044E+03  0.47000000000E+01 0.  1.
         11    1    6    6    0    0  0.58207596167E+01 -0.33059068672E+02  0.11279256931E+03  0.11768154892E+03  0.00000000000E+00 0. -1.
        -12    1    6    6    0    0 -0.20755289143E+02  0.34921931936E+02  0.49250766204E+02  0.63843255942E+02  0.00000000000E+00 0.  1.
</event>
<event>
12    1  0.8488291E-002  0.1796870E+03  0.7818608E-02  0.1168845E+00
         21   -1    0    0  501  502  0.00000000000E+00  0.00000000000E+00  0.64864265991E+02  0.64864265991E+02  0.00000000000E+00 0. -1.
         21   -1    0    0  502  503 -0.00000000000E+00 -0.00000000000E+00 -0.77750438099E+03  0.77750438099E+03  0.00000000000E+00 0.  1.
         -6    2    1    2    0  503  0.31269288216E+02 -0.30561069795E+02 -0.61458450757E+03  0.64031363508E+03  0.17428622134E+03 0.  0.
        -24    2    3    3    0    0  0.72474706594E+02 -0.37783077356E+02 -0.26992989445E+03  0.29309765583E+03  0.79774331130E+02 0.  0.
          6    2    1    2  501    0 -0.31269288216E+02  0.30561069795E+02 -0.98055607426E+02  0.20205501190E+03  0.17117119592E+03 0.  0.
         24    2    5    5    0    0 -0.45957395971E+02  0.58247273858E+01 -0.12846014946E+03  0.15993431246E+03  0.83252415045E+02 0.  0.
          5    1    5    5  501    0  0.14688107755E+02  0.24736342409E+02  0.30404542029E+02  0.42120699438E+02  0.47000000000E+01 0. -1.
        -13    1    6    6    0    0 -0.16085099051E+02 -0.25062041143E+02 -0.10857884156E+03  0.11258863687E+03  0.00000000000E+00 0.  1.
         14    1    6    6    0    0 -0.29872296919E+02  0.30886768529E+02 -0.19881307892E+02  0.47345675588E+02  0.00000000000E+00 0. -1.
         -5    1    3    3    0  503 -0.41205418378E+02  0.72220075613E+01 -0.34465461312E+03  0.34721597925E+03  0.47000000000E+01 0.  1.
         11    1    4    4    0    0  0.81350111214E+02 -0.19767910229E+02 -0.15254700702E+03  0.17400919579E+03  0.00000000000E+00 0. -1.
        -12    1    4    4    0    0 -0.88754046201E+01 -0.18015167127E+02 -0.11738288743E+03  0.11908846004E+03  0.00000000000E+00 0.  1.
</event>
<event>
12    1  0.8488291E-002  0.2484581E+03  0.7818608E-02  0.1114294E+00
         21   -1    0    0  501  502  0.00000000000E+00  0.00000000000E+00  0.15892498740E+04  0.15892498740E+04  0.00000000000E+00 0. -1.
         21   -1    0    0  502  503 -0.00000000000E+00 -0.00000000000E+00 -0.53084177694E+02  0.53084177694E+02  0.00000000000E+00 0.  1.
         -6    2    1    2    0  503  0.17558901008E+03 -0.33577194367E+02  0.34267971206E+03  0.42327394772E+03  0.17254715680E+03 0.  0.
        -24    2    3    3    0    0  0.20271756904E+03 -0.27052001513E+02  0.32015301625E+03  0.38710657462E+03  0.74345966348E+02 0.  0.
          6    2    1    2  501    0 -0.17558901008E+03  0.33577194367E+02  0.11934859842E+04  0.12190601039E+04  0.17245235304E+03 0.  0.
         24    2    5    5    0    0 -0.15637463469E+03  0.82830142499E+02  0.99079014302E+03  0.10095302990E+04  0.78564993580E+02 0.  0.
          5    1    5    5  501    0 -0.19214375387E+02 -0.49252948132E+02  0.20269584119E+03  0.20952980493E+03  0.47000000000E+01 0. -1.
        -11    1    6    6    0    0 -0.46605200516E+02  0.48967266337E+02  0.21776057800E+03  0.22801207692E+03  0.00000000000E+00 0.  1.
         12    1    6    6    0    0 -0.10976943417E+03  0.33862876163E+02  0.77302956501E+03  0.78151822208E+03  0.00000000000E+00 0. -1.
         -5    1    3    3    0  503 -0.27128558964E+02 -0.65251928539E+01  0.22526695812E+02  0.36167373107E+02  0.47000000000E+01 0.  1.
         13    1    4    4    0    0  0.11105862047E+03  0.41814493398E+01  0.11329299780E+03  0.15870351304E+03  0.00000000000E+00 0. -1.
        -14    1    4    4    0    0  0.91658948569E+02 -0.31233450853E+02  0.20686001845E+03  0.22840306158E+03  0.00000000000E+00 0.  1.
</event>
<event>
12    1  0.8488291E-002  0.2095107E+03  0.7818608E-02  0.1142333E+00
         21   -1    0    0  501  502  0.00000000000E+00  0.00000000000E+00  0.20473003496E+03  0.20473003496E+03  0.00000000000E+00 0.  1.
         21   -1    0    0  502  503 -0.00000000000E+00 -0.00000000000E+00 -0.25406099372E+03  0.25406099372E+03  0.00000000000E+00 0.  1.
         -6    2    1    2    0  503 -0.11757778238E+03  0.28763543283E+02 -0.11739183082E+03  0.23850257936E+03  0.16867353702E+03 0.  0.
        -24    2    3    3    0    0 -0.43846926519E+02  0.50936262777E+01 -0.13224694629E+03  0.15951353878E+03  0.77503653202E+02 0.  0.
          6    2    1    2  501    0  0.11757778238E+03 -0.28763543283E+02  0.68060872061E+02  0.22028844931E+03  0.17100538665E+03 0.  0.
         24    2    5    5    0    0  0.99711625679E+02 -0.13617591872E+02 -0.18060179388E+02  0.13091549533E+03  0.81760930371E+02 0.  0.
          5    1    5    5  501    0  0.17866156697E+02 -0.15145951411E+02  0.86121051448E+02  0.89372953973E+02  0.47000000000E+01 0. -1.
        -11    1    6    6    0    0  0.43683142573E+02  0.34603413255E+02 -0.68178006870E+01  0.56143526431E+02  0.00000000000E+00 0.  1.
         12    1    6    6    0    0  0.56028483106E+02 -0.48221005127E+02 -0.11242378701E+02  0.74771968902E+02  0.00000000000E+00 0. -1.
         -5    1    3    3    0  503 -0.73730855857E+02  0.23669917006E+02  0.14855115465E+02  0.78989040581E+02  0.47000000000E+01 0.  1.
         11    1    4    4    0    0 -0.62197984187E+02 -0.78400005589E+01 -0.11580924580E+03  0.13168840594E+03  0.00000000000E+00 0. -1.
        -12    1    4    4    0    0  0.18351057668E+02  0.12933626837E+02 -0.16437700488E+02  0.27825132848E+02  0.00000000000E+00 0.  1.
</event>
<event>
12    1  0.8488291E-002  0.1861901E+03  0.7818608E-02  0.1162156E+00
         21   -1    0    0  501  502  0.00000000000E+00  0.00000000000E+00  0.96251844928E+02  0.96251844928E+02  0.00000000000E+00 0.  1.
         21   -1    0    0  502  503 -0.00000000000E+00 -0.00000000000E+00 -0.44697341972E+03  0.44697341972E+03  0.00000000000E+00 0.  1.
         -6    2    1    2    0  503 -0.55715587952E+02 -0.41747977367E+02 -0.29661985982E+03  0.35021434771E+03  0.17268360590E+03 0.  0.
        -24    2    3    3    0    0  0.31429747687E+02 -0.16870440347E+02 -0.92679653744E+02  0.12699495109E+03  0.79156544821E+02 0.  0.
          6    2    1    2  501    0  0.55715587952E+02  0.41747977367E+02 -0.54101714970E+02  0.19301091694E+03  0.17169478192E+03 0.  0.
         24    2    5    5    0    0  0.69070304675E+01 -0.37510799570E+02 -0.48033758585E+02  0.99613170175E+02  0.78490601693E+02 0.  0.
          5    1    5    5  501    0  0.48808557485E+02  0.79258776937E+02 -0.60679563853E+01  0.93397746761E+02  0.47000000000E+01 0. -1.
        -13    1    6    6    0    0  0.15980945259E+02  0.13261021145E+02  0.90740948592E+01  0.22662402580E+02  0.00000000000E+00 0.  1.
         14    1    6    6    0    0 -0.90739147916E+01 -0.50771820715E+02 -0.57107853444E+02  0.76950767594E+02  0.00000000000E+00 0. -1.
         -5    1    3    3    0  503 -0.87145335639E+02 -0.24877537020E+02 -0.20394020607E+03  0.22321939662E+03  0.47000000000E+01 0.  1.
         11    1    4    4    0    0  0.41937188911E+02 -0.78940571297E+01 -0.10183708209E+03  0.11041664386E+03  0.00000000000E+00 0. -1.
        -12    1    4    4    0    0 -0.10507441224E+02 -0.89763832168E+01  0.91574283507E+01  0.16578307234E+02  0.00000000000E+00 0.  1.
</event>
<event>
12    1  0.8488291E-002  0.2209431E+03  0.7818608E-02  0.1134521E+00
         21   -1    0    0  503  502  0.00000000000E+00  0.00000000000E+00  0.60594954146E+03  0.60594954146E+03  0.00000000000E+00 0. -1.
         21   -1    0    0  501  503 -0.00000000000E+00 -0.00000000000E+00 -0.94850737518E+02  0.94850737518E+02  0.00000000000E+00 0. -1.
          6    2    1    2  501    0 -0.30789531379E+02  0.13526237054E+03  0.11127521591E+03  0.24738235766E+03  0.17196497631E+03 0.  0.
         24    2    3    3    0    0  0.44356706857E+02  0.76312618116E+02  0.31492805897E+02  0.12284580327E+03  0.79423934869E+02 0.  0.
         -6    2    1    2    0  502  0.30789531379E+02 -0.13526237054E+03  0.39982358804E+03  0.45341792132E+03  0.16274214482E+03 0.  0.
        -24    2    5    5    0    0  0.70098695513E+02 -0.10097836886E+03  0.24648642036E+03  0.29138403553E+03  0.95071776284E+02 0.  0.
          5    1    3    3  501    0 -0.75146238236E+02  0.58949752428E+02  0.79782410010E+02  0.12453655439E+03  0.47000000000E+01 0. -1.
        -13    1    4    4    0    0  0.43517400550E+02  0.22570937349E+02  0.45946074952E+02  0.67188192169E+02  0.00000000000E+00 0.  1.
         14    1    4    4    0    0  0.83930630778E+00  0.53741680768E+02 -0.14453269055E+02  0.55657611098E+02  0.00000000000E+00 0. -1.
         -5    1    5    5    0  502 -0.39309164134E+02 -0.34284001679E+02  0.15333716767E+03  0.16203388580E+03  0.47000000000E+01 0.  1.
         11    1    6    6    0    0  0.33613320373E+02 -0.62271018857E+02  0.22166309366E+03  0.23268446915E+03  0.00000000000E+00 0. -1.
        -12    1    6    6    0    0  0.36485375140E+02 -0.38707350008E+02  0.24823326707E+02  0.58699566375E+02  0.00000000000E+00 0.  1.
</event>
<event>
12    1  0.8488291E-002  0.1943618E+03  0.7818608E-02  0.1154709E+00
         21   -1    0    0  501  502  0.00000000000E+00  0.00000000000E+00  0.77420670804E+02  0.77420670804E+02  0.00000000000E+00 0. -1.
         21   -1    0    0  502  503 -0.00000000000E+00 -0.00000000000E+00 -0.85698746460E+03  0.85698746460E+03  0.00000000000E+00 0. -1.
         -6    2    1    2    0  503 -0.87870590719E+02 -0.14148272477E+02 -0.82279714985E+02  0.21053950822E+03  0.17214969851E+03 0.  0.
        -24    2    3    3    0    0 -0.48316486624E+02 -0.76798588117E+02 -0.49926055573E+02  0.12955532163E+03  0.77842561113E+02 0.  0.
          6    2    1    2  501    0  0.87870590719E+02  0.14148272477E+02 -0.69728707881E+03  0.72386862718E+03  0.17278629812E+03 0.  0.
         24    2    5    5    0    0  0.24266072862E+02  0.68028433007E+02 -0.32636144174E+03  0.34366272951E+03  0.79847172837E+02 0.  0.
          5    1    5    5  501    0  0.63604517857E+02 -0.53880160531E+02 -0.37092563707E+03  0.38020589767E+03  0.47000000000E+01 0. -1.
        -11    1    6    6    0    0  0.70248509682E+01 -0.12052339508E+02 -0.10799273051E+02  0.17641760603E+02  0.00000000000E+00 0.  1.
         12    1    6    6    0    0  0.17241221894E+02  0.80080772516E+02 -0.31556216869E+03  0.32602096891E+03  0.00000000000E+00 0. -1.
         -5    1    3    3    0  503 -0.39554104095E+02  0.62650315640E+02 -0.32353659412E+02  0.80984186592E+02  0.47000000000E+01 0.  1.
         13    1    4    4    0    0 -0.58182446391E+02 -0.56542964138E+02 -0.74487856551E+01  0.81472622821E+02  0.00000000000E+00 0. -1.
        -14    1    4    4    0    0  0.98659597674E+01 -0.20255623978E+02 -0.42477269917E+02  0.48082698807E+02  0.00000000000E+00 0.  1.
</event>
<event>
12    1  0.8488291E-002  0.2107450E+03  0.7818608E-02  0.1141998E+00
         21   -1    0    0  503  502  0.00000000000E+00  0.00000000000E+00  0.80143509603E+03  0.80143509603E+03  0.00000000000E+00 0.  1.
         21   -1    0    0  501  503 -0.00000000000E+00 -0.00000000000E+00 -0.14766881476E+03  0.14766881476E+03  0.00000000000E+00 0. -1.
          6    2    1    2  501    0  0.31490131695E+02  0.10911538566E+03 -0.52364362872E+02  0.21219555383E+03  0.17142675049E+03 0.  0.
         24    2    3    3    0    0  0.35244214625E+02 -0.88703185051E+00 -0.55920559042E+02  0.10197141160E+03  0.77640958074E+02 0.  0.
         -6    2    1    2    0  502 -0.31490131695E+02 -0.10911538566E+03  0.70613064414E+03  0.73690835697E+03  0.17752646054E+03 0.  0.
        -24    2    5    5    0    0 -0.58391300673E+02 -0.67964042799E+02  0.23888176377E+03  0.26705655893E+03  0.78905345181E+02 0.  0.
          5    1    3    3  501    0 -0.37540829296E+01  0.11000241751E+03  0.35561961699E+01  0.11022414222E+03  0.47000000000E+01 0. -1.
        -11    1    4    4    0    0 -0.85748237800E+01 -0.32603655380E+01 -0.57336064641E+02  0.58065324376E+02  0.00000000000E+00 0.  1.
         12    1    4    4    0    0  0.43819038405E+02  0.23733336875E+01  0.14155055990E+01  0.43906087228E+02  0.00000000000E+00 0. -1.
         -5    1    5    5    0  502  0.26901168977E+02 -0.41151342865E+02  0.46724888037E+03  0.46985179804E+03  0.47000000000E+01 0.  1.
         13    1    6    6    0    0 -0.49551486150E+02  0.93087229108E+00  0.10999674484E+03  0.12064617764E+03  0.00000000000E+00 0. -1.
        -14    1    6    6    0    0 -0.88398145231E+01 -0.68894915090E+02  0.12888501892E+03  0.14641038129E+03  0.00000000000E+00 0.  1.
</event>
<event>
12    1  0.8488291E-002  0.3174637E+03  0.7818608E-02  0.1077756E+00
         21   -1    0    0  501  502  0.00000000000E+00  0.00000000000E+00  0.87895085113E+03  0.87895085113E+03  0.00000000000E+00 0.  1.
         21   -1    0    0  502  503 -0.00000000000E+00 -0.00000000000E+00 -0.13315793944E+03  0.13315793944E+03  0.00000000000E+00 0.  1.
         -6    2    1    2    0  503  0.34847682092E+02  0.26459482803E+03  0.16637098100E+03  0.35141752602E+03  0.15681259613E+03 0.  0.
        -24    2    3    3    0    0 -0.33786384416E+02  0.13958681798E+03  0.60438184040E+02  0.17370572243E+03  0.76778280719E+02 0.  0.
          6    2    1    2  501    0 -0.34847682092E+02 -0.26459482803E+03  0.57942193069E+03  0.66069126456E+03  0.17192553429E+03 0.  0.
         24    2    5    5    0    0  0.33294135595E+02 -0.10972353523E+03  0.18734357532E+03  0.23363628988E+03  0.79627552316E+02 0.  0.
          5    1    5    5  501    0 -0.68141817687E+02 -0.15487129280E+03  0.39207835537E+03  0.42705497468E+03  0.47000000000E+01 0. -1.
        -11    1    6    6    0    0  0.10222161707E+02 -0.72425870592E+02  0.17244809161E+03  0.18731882880E+03  0.00000000000E+00 0.  1.
         12    1    6    6    0    0  0.23071973888E+02 -0.37297664639E+02  0.14895483708E+02  0.46317461087E+02  0.00000000000E+00 0. -1.
         -5    1    3    3    0  503  0.68634066508E+02  0.12500801005E+03  0.10593279696E+03  0.17771180359E+03  0.47000000000E+01 0.  1.
         11    1    4    4    0    0 -0.14508503770E+02  0.14237659651E+03  0.49932574837E+02  0.15157458212E+03  0.00000000000E+00 0. -1.
        -12    1    4    4    0    0 -0.19277880646E+02 -0.27897785372E+01  0.10505609203E+02  0.22131140305E+02  0.00000000000E+00 0.  1.
</event>
<event>
12    1  0.8488291E-002  0.2107611E+03  0.7818608E-02  0.1141278E+00
         21   -1    0    0  501  502  0.00000000000E+00  0.00000000000E+00  0.21327062769E+04  0.21327062769E+04  0.00000000000E+00 0. -1.
         21   -1    0    0  502  503 -0.00000000000E+00 -0.00000000000E+00 -0.51123201072E+02  0.51123201072E+02  0.00000000000E+00 0.  1.
         -6    2    1    2    0  503  0.10069982248E+03 -0.68892797810E+02  0.19966312244E+03  0.29031984130E+03  0.17185335597E+03 0.  0.
        -24    2    3    3    0    0  0.79520778674E+02  0.21342756908E+02  0.13603109387E+03  0.17779370082E+03  0.79542906913E+02 0.  0.
          6    2    1    2  501    0 -0.10069982248E+03  0.68892797810E+02  0.18819199534E+04  0.18935096367E+04  0.16990986241E+03 0.  0.
         24    2    5    5    0    0 -0.61929349863E+02  0.10990608286E+03  0.11691727942E+04  0.11785160409E+04  0.77591523148E+02 0.  0.
          5    1    5    5  501    0 -0.38770472616E+02 -0.41013285051E+02  0.71274715921E+03  0.71499359582E+03  0.47000000000E+01 0. -1.
        -13    1    6    6    0    0  0.15990903004E+02  0.28970371375E+02  0.18335840610E+03  0.18632041349E+03  0.00000000000E+00 0.  1.
         14    1    6    6    0    0 -0.77920252867E+02  0.80935711486E+02  0.98581438812E+03  0.99219562739E+03  0.00000000000E+00 0. -1.
         -5    1    3    3    0  503  0.21179043805E+02 -0.90235554718E+02  0.63632028567E+02  0.11252614048E+03  0.47000000000E+01 0.  1.
         13    1    4    4    0    0  0.45832253481E+02 -0.28717059674E+02  0.61514471963E+02  0.81910287732E+02  0.00000000000E+00 0. -1.
        -14    1    4    4    0    0  0.33688525193E+02  0.50059816582E+02  0.74516621907E+02  0.95883413093E+02  0.00000000000E+00 0.  1.
</event>
<event>
12    1  0.8488291E-002  0.1855099E+03  0.7818608E-02  0.1164285E+00
         21   -1    0    0  501  502  0.00000000000E+00  0.00000000000E+00  0.33552285537E+03  0.33552285537E+03  0.00000000000E+00 0.  1.
         21   -1    0    0  502  503 -0.00000000000E+00 -0.00000000000E+00 -0.19255747088E+03  0.19255747088E+03  0.00000000000E+00 0.  1.
         -6    2    1    2    0  503 -0.39337553706E+02 -0.26062703153E+02 -0.11218843522E+03  0.21679521411E+03  0.17940794920E+03 0.  0.
        -24    2    3    3    0    0 -0.82854971770E+02  0.25575749278E+02 -0.68253991371E+02  0.13609440370E+03  0.79649319413E+02 0.  0.
          6    2    1    2  501    0  0.39337553706E+02  0.26062703153E+02  0.25515381971E+03  0.31128511215E+03  0.17195418490E+03 0.  0.
         24    2    5    5    0    0 -0.18448243900E+02  0.54282257342E+02  0.97614250324E+02  0.14106070859E+03  0.84158662521E+02 0.  0.
          5    1    5    5  501    0  0.57785797607E+02 -0.28219554189E+02  0.15753956938E+03  0.17022440355E+03  0.47000000000E+01 0. -1.
        -11    1    6    6    0    0 -0.45077475270E+02  0.44147789576E+01  0.42667970917E+02  0.62225595957E+02  0.00000000000E+00 0.  1.
         12    1    6    6    0    0  0.26629231369E+02  0.49867478384E+02  0.54946279407E+02  0.78835112636E+02  0.00000000000E+00 0. -1.
         -5    1    3    3    0  503  0.43517418063E+02 -0.51638452431E+02 -0.43934443848E+02  0.80700810409E+02  0.47000000000E+01 0.  1.
         13    1    4    4    0    0 -0.21002530381E+02  0.15839307921E+02  0.16250669752E+02  0.30920449952E+02  0.00000000000E+00 0. -1.
        -14    1    4    4    0    0 -0.61852441389E+02  0.97364413563E+01 -0.84504661123E+02  0.10517395375E+03  0.00000000000E+00 0.  1.
</event>
<event>
12    1  0.8488291E-002  0.1923009E+03  0.7818608E-02  0.1156458E+00
         21   -1    0    0  501  502  0.00000000000E+00  0.00000000000E+00  0.44675234423E+03  0.44675234423E+03  0.00000000000E+00 0.  1.
         21   -1    0    0  502  503 -0.00000000000E+00 -0.00000000000E+00 -0.10764651057E+03  0.10764651057E+03  0.00000000000E+00 0.  1.
         -6    2    1    2    0  503  0.83177027650E+02  0.17906059956E+02  0.36104918585E+02  0.19566098087E+03  0.17245465890E+03 0.  0.
        -24    2    3    3    0    0  0.14993965384E+02  0.11408161395E+02  0.76379784771E+02  0.11606633587E+03  0.85337902815E+02 0.  0.
          6    2    1    2  501    0 -0.83177027650E+02 -0.17906059956E+02  0.30300091507E+03  0.35873787393E+03  0.17217509327E+03 0.  0.
         24    2    5    5    0    0 -0.19852842650E+02  0.15831434130E+02  0.26509003533E+03  0.27745137003E+03  0.77857345390E+02 0.  0.
          5    1    5    5  501    0 -0.63324185000E+02 -0.33737494086E+02  0.37910879742E+02  0.81286503898E+02  0.47000000000E+01 0. -1.
        -11    1    6    6    0    0  0.22543169499E+02  0.52266946832E+01  0.18296224197E+03  0.18441988725E+03  0.00000000000E+00 0.  1.
         12    1    6    6    0    0 -0.42396012148E+02  0.10604739447E+02  0.82127793362E+02  0.93031482775E+02  0.00000000000E+00 0. -1.
         -5    1    3    3    0  503  0.68183062266E+02  0.64978985617E+01 -0.40274866186E+02  0.79594644996E+02  0.47000000000E+01 0.  1.
         13    1    4    4    0    0  0.32885546679E+02  0.36522825445E+02  0.22645270170E+02  0.54112699248E+02  0.00000000000E+00 0. -1.
        -14    1    4    4    0    0 -0.17891581295E+02 -0.25114664050E+02  0.53734514601E+02  0.61953636624E+02  0.00000000000E+00 0.  1.
</event>
<event>
12    1  0.8488291E-002  0.2006389E+03  0.7818608E-02  0.1149363E+00
         21   -1    0    0  503  502  0.00000000000E+00  0.00000000000E+00  0.19369224191E+03  0.19369224191E+03  0.00000000000E+00 0. -1.
         21   -1    0    0  501  503 -0.00000000000E+00 -0.00000000000E+00 -0.26810822142E+03  0.26810822142E+03  0.00000000000E+00 0.  1.
          6    2    1    2  501    0  0.96950869935E+02  0.29390046473E+02 -0.14735278018E+03  0.24831567432E+03  0.17229215384E+03 0.  0.
         24    2    3    3    0    0  0.38472237268E+02  0.54268167005E+02 -0.15236771009E+03  0.18439454415E+03  0.79751375196E+02 0.  0.
         -6    2    1    2    0  502 -0.96950869935E+02 -0.29390046473E+02  0.72936800671E+02  0.21348478901E+03  0.17318409925E+03 0.  0.
        -24    2    5    5    0    0 -0.54727417625E+02  0.15255857965E+02  0.10902245443E+03  0.14206811648E+03  0.71201283058E+02 0.  0.
          5    1    3    3  501    0  0.58478632667E+02 -0.24878120532E+02  0.50149299078E+01  0.63921130167E+02  0.47000000000E+01 0. -1.
        -11    1    4    4    0    0  0.33119692516E+02  0.73602714445E+02 -0.10126298493E+03  0.12949311072E+03  0.00000000000E+00 0.  1.
         12    1    4    4    0    0  0.53525447515E+01 -0.19334547440E+02 -0.51104725158E+02  0.54901433438E+02  0.00000000000E+00 0. -1.
         -5    1    5    5    0  502 -0.42223452310E+02 -0.44645904438E+02 -0.36085653754E+02  0.71416672527E+02  0.47000000000E+01 0.  1.
         13    1    6    6    0    0  0.17207311121E+02 -0.10109859743E+01  0.18089440980E+02  0.24986827002E+02  0.00000000000E+00 0. -1.
        -14    1    6    6    0    0 -0.71934728746E+02  0.16266843939E+02  0.90933013445E+02  0.11708128948E+03  0.00000000000E+00 0.  1.
</event>
<event>
12    1  0.8488291E-002  0.2080193E+03  0.7818608E-02  0.1143199E+00
         21   -1    0    0  503  502  0.00000000000E+00  0.00000000000E+00  0.23648190079E+03  0.23648190079E+03  0.00000000000E+00 0.  1.
         21   -1    0    0  501  503 -0.00000000000E+00 -0.00000000000E+00 -0.22721527903E+03  0.22721527903E+03  0.00000000000E+00 0. -1.
          6    2    1    2  501    0  0.52909174233E+02 -0.10384234804E+03 -0.97942749811E+02  0.22967604243E+03  0.17197583627E+03 0.  0.
         24    2    3    3    0    0 -0.27959629490E+02 -0.88360567611E+02 -0.73184284513E+02  0.14356843217E+03  0.81649399424E+02 0.  0.
         -6    2    1    2    0  502 -0.52909174233E+02  0.10384234804E+03  0.10720937157E+03  0.23402113739E+03  0.17230620833E+03 0.  0.
        -24    2    5    5    0    0 -0.20372881388E+02  0.87065317735E+01  0.41455691753E+02  0.11379189678E+03  0.10362993488E+03 0.  0.
          5    1    3    3  501    0  0.80868803723E+02 -0.15481780426E+02 -0.24758465298E+02  0.86107610260E+02  0.47000000000E+01 0. -1.
        -13    1    4    4    0    0 -0.19384454195E+02 -0.59743096232E+02 -0.89645237940E+02  0.10945895714E+03  0.00000000000E+00 0.  1.
         14    1    4    4    0    0 -0.85751752956E+01 -0.28617471379E+02  0.16460953427E+02  0.34109475035E+02  0.00000000000E+00 0. -1.
         -5    1    5    5    0  502 -0.32536292845E+02  0.95135816263E+02  0.65753679813E+02  0.12022924061E+03  0.47000000000E+01 0.  1.
         11    1    6    6    0    0 -0.24936330163E+02  0.12242011240E+02 -0.30701740634E+02  0.41403916230E+02  0.00000000000E+00 0. -1.
        -12    1    6    6    0    0  0.45634487756E+01 -0.35354794666E+01  0.72157432386E+02  0.72387980552E+02  0.00000000000E+00 0.  1.
</event>
<event>
12    1  0.8488291E-002  0.1770961E+03  0.7818608E-02  0.1170754E+00
         21   -1    0    0  503  502  0.00000000000E+00  0.00000000000E+00  0.73166963194E+03  0.73166963194E+03  0.00000000000E+00 0.  1.
         21   -1    0    0  501  503 -0.00000000000E+00 -0.00000000000E+00 -0.75323654002E+02  0.75323654002E+02  0.00000000000E+00 0.  1.
          6    2    1    2  501    0  0.29250074381E+02 -0.25961198521E+02  0.62623846000E+02  0.18742165221E+03  0.17226601217E+03 0.  0.
         24    2    3    3    0    0  0.16831753569E+02  0.25394972771E+02  0.94669209484E+02  0.12544854237E+03  0.76464795752E+02 0.  0.
         -6    2    1    2    0  502 -0.29250074381E+02  0.25961198521E+02  0.59372213194E+03  0.61957163373E+03  0.17272373518E+03 0.  0.
        -24    2    5    5    0    0 -0.16578141470E+02  0.74153794968E+02  0.24053146412E+03  0.26285207712E+03  0.73906759726E+02 0.  0.
          5    1    3    3  501    0  0.12418320812E+02 -0.51356171291E+02 -0.32045363484E+02  0.61973109832E+02  0.47000000000E+01 0. -1.
        -13    1    4    4    0    0 -0.19000231962E+02 -0.71640646812E+01  0.13903712853E+01  0.20353519835E+02  0.00000000000E+00 0.  1.
         14    1    4    4    0    0  0.35831985531E+02  0.32559037452E+02  0.93278838198E+02  0.10509502254E+03  0.00000000000E+00 0. -1.
         -5    1    5    5    0  502 -0.12671932910E+02 -0.48192596447E+02  0.35319066782E+03  0.35671955661E+03  0.47000000000E+01 0.  1.
         11    1    6    6    0    0  0.13924547430E+01  0.53627137113E+02  0.60888525330E+02  0.81149376350E+02  0.00000000000E+00 0. -1.
        -12    1    6    6    0    0 -0.17970596213E+02  0.20526657855E+02  0.17964293879E+03  0.18170270077E+03  0.00000000000E+00 0.  1.
</event>
<event>
12    1  0.8488291E-002  0.2329238E+03  0.7818608E-02  0.1125674E+00
         21   -1    0    0  501  502  0.00000000000E+00  0.00000000000E+00  0.59234363647E+03  0.59234363647E+03  0.00000000000E+00 0. -1.
         21   -1    0    0  502  503 -0.00000000000E+00 -0.00000000000E+00 -0.10483133397E+03  0.10483133397E+03  0.00000000000E+00 0.  1.
         -6    2    1    2    0  503  0.24491096729E+02 -0.14598794909E+03  0.11192072482E+03  0.25841778646E+03  0.17983661645E+03 0.  0.
        -24    2    3    3    0    0  0.21937752857E+02 -0.13594475572E+03  0.14990451865E+03  0.21876625570E+03  0.80156523842E+02 0.  0.
          6    2    1    2  501    0 -0.24491096729E+02  0.14598794909E+03  0.37559157768E+03  0.43875718397E+03  0.17183287858E+03 0.  0.
         24    2    5    5    0    0  0.14110725417E+02  0.73027976442E+01  0.11376783999E+03  0.13993042560E+03  0.79905939486E+02 0.  0.
          5    1    5    5  501    0 -0.38601822146E+02  0.13868515145E+03  0.26182373769E+03  0.29882675838E+03  0.47000000000E+01 0. -1.
        -11    1    6    6    0    0 -0.91017000182E+01  0.66495470725E+01 -0.93479285804E+01  0.14643810578E+02  0.00000000000E+00 0.  1.
         12    1    6    6    0    0  0.23212425435E+02  0.65325057180E+00  0.12311576857E+03  0.12528661502E+03  0.00000000000E+00 0. -1.
         -5    1    3    3    0  503  0.25533438723E+01 -0.10043193373E+02 -0.37983793829E+02  0.39651530761E+02  0.47000000000E+01 0.  1.
         13    1    4    4    0    0  0.49376450088E+02 -0.63586974080E+02  0.61729198083E+02  0.10144866185E+03  0.00000000000E+00 0. -1.
        -14    1    4    4    0    0 -0.27438697231E+02 -0.72357781639E+02  0.88175320564E+02  0.11731759385E+03  0.00000000000E+00 0.  1.
</event>
<event>
12    1  0.8488291E-002  0.1834539E+03  0.7818608E-02  0.1165716E+00
         21   -1    0    0  501  502  0.00000000000E+00  0.00000000000E+00  0.12504004853E+03  0.12504004853E+03  0.00000000000E+00 0. -1.
         21   -1    0    0  502  503 -0.00000000000E+00 -0.00000000000E+00 -0.44003952656E+03  0.44003952656E+03  0.00000000000E+00 0. -1.
         -6    2    1    2    0  503 -0.61326659262E+02 -0.18957332353E+00 -0.33863459722E+03  0.38513467078E+03  0.17289976612E+03 0.  0.
        -24    2    3    3    0    0 -0.85764645118E+02  0.41615286849E+02 -0.17762949738E+03  0.21693956484E+03  0.80144432128E+02 0.  0.
          6    2    1    2  501    0  0.61326659262E+02  0.18957332353E+00  0.23635119190E+02  0.17994490432E+03  0.16751284923E+03 0.  0.
         24    2    5    5    0    0 -0.39212285947E+01  0.43334057727E+02 -0.22946302495E+02  0.88782125451E+02  0.73908838502E+02 0.  0.
          5    1    5    5  501    0  0.65247887857E+02 -0.43144484404E+02  0.46581421685E+02  0.91162778865E+02  0.47000000000E+01 0. -1.
        -13    1    6    6    0    0  0.12620842678E+02 -0.97860323130E+01 -0.28705136960E+02  0.32848698395E+02  0.00000000000E+00 0.  1.
         14    1    6    6    0    0 -0.16542071273E+02  0.53120090040E+02  0.57588344655E+01  0.55933427056E+02  0.00000000000E+00 0. -1.
         -5    1    3    3    0  503  0.24437985856E+02 -0.41804860172E+02 -0.16100509984E+03  0.16819510594E+03  0.47000000000E+01 0.  1.
         11    1    4    4    0    0 -0.95217397410E+02  0.43493351138E+02 -0.12321670036E+03  0.16167986767E+03  0.00000000000E+00 0. -1.
        -12    1    4    4    0    0  0.94527522918E+01 -0.18780642893E+01 -0.54412797023E+02  0.55259697169E+02  0.00000000000E+00 0.  1.
</event>
<event>
12    1  0.8488291E-002  0.1891050E+03  0.7818608E-02  0.1159441E+00
         21   -1    0    0  501  502  0.00000000000E+00  0.00000000000E+00  0.72164790372E+02  0.72164790372E+02  0.00000000000E+00 0. -1.
         21   -1    0    0  502  503 -0.00000000000E+00 -0.00000000000E+00 -0.18100616535E+04  0.18100616535E+04  0.00000000000E+00 0. -1.
         -6    2    1    2    0  503  0.75558859086E+02  0.12813038465E+02 -0.16710835108E+04  0.16816654539E+04  0.17206185945E+03 0.  0.
        -24    2    3    3    0    0  0.14392817044E+02  0.23640750884E+02 -0.40455788190E+03  0.41360875846E+03  0.81480592707E+02 0.  0.
          6    2    1    2  501    0 -0.75558859086E+02 -0.12813038465E+02 -0.66813352298E+02  0.20056098999E+03  0.17287964461E+03 0.  0.
         24    2    5    5    0    0  0.75232956347E+01  0.39393462474E+02 -0.38687227725E+02  0.98378153579E+02  0.81074747299E+02 0.  0.
          5    1    5    5  501    0 -0.83082154721E+02 -0.52206500939E+02 -0.28126124572E+02  0.10218283641E+03  0.47000000000E+01 0. -1.
        -11    1    6    6    0    0  0.41222953100E+02  0.70757711997E+01 -0.82209522949E+01  0.42626077194E+02  0.00000000000E+00 0.  1.
         12    1    6    6    0    0 -0.33699657465E+02  0.32317691275E+02 -0.30466275431E+02  0.55752076385E+02  0.00000000000E+00 0. -1.
         -5    1    3    3    0  503  0.61166042042E+02 -0.10827712419E+02 -0.12665256289E+04  0.12680566954E+04  0.47000000000E+01 0.  1.
         13    1    4    4    0    0 -0.10359879007E+02  0.28805193272E+02 -0.36734366956E+03  0.36861692558E+03  0.00000000000E+00 0. -1.
        -14    1    4    4    0    0  0.24752696051E+02 -0.51644423878E+01 -0.37214212331E+02  0.44991832886E+02  0.00000000000E+00 0.  1.
</event>
<event>
12    1  0.8488291E-002  0.2800326E+03  0.7818608E-02  0.1095980E+00
         21   -1    0    0  501  502  0.00000000000E+00  0.00000000000E+00  0.75885354644E+02  0.75885354644E+02  0.00000000000E+00 0. -1.
         21   -1    0    0  502  503 -0.00000000000E+00 -0.00000000000E+00 -0.10932722075E+04  0.10932722075E+04  0.00000000000E+00 0. -1.
         -6    2    1    2    0  503 -0.21006107376E+03 -0.59288422787E+02 -0.65275115103E+03  0.70939951571E+03  0.17182210546E+03 0.  0.
        -24    2    3    3    0    0 -0.14544951730E+03  0.22877633744E+02 -0.32940769911E+03  0.36954808938E+03  0.79858687215E+02 0.  0.
          6    2    1    2  501    0  0.21006107376E+03  0.59288422787E+02 -0.36463570181E+03  0.45975804642E+03  0.17543515734E+03 0.  0.
         24    2    5    5    0    0  0.22559958957E+03  0.79377987651E+02 -0.34783990474E+03  0.42894855293E+03  0.76211691971E+02 0.  0.
          5    1    5    5  501    0 -0.15538515810E+02 -0.20089564864E+02 -0.16795797061E+02  0.30809493487E+02  0.47000000000E+01 0. -1.
        -11    1    6    6    0    0  0.25377442289E+02  0.37876301684E+02 -0.78568542774E+02  0.90838564058E+02  0.00000000000E+00 0.  1.
         12    1    6    6    0    0  0.20022214728E+03  0.41501685967E+02 -0.26927136197E+03  0.33810998888E+03  0.00000000000E+00 0. -1.
         -5    1    3    3    0  503 -0.64611556456E+02 -0.82166056531E+02 -0.32334345192E+03  0.33985142632E+03  0.47000000000E+01 0.  1.
         11    1    4    4    0    0 -0.86699471017E+02  0.17002129692E+02 -0.27648464839E+03  0.29025787067E+03  0.00000000000E+00 0. -1.
        -12    1    4    4    0    0 -0.58750046287E+02  0.58755040527E+01 -0.52923050722E+02  0.79290218717E+02  0.00000000000E+00 0.  1.
</event>
<event>
12    1  0.8488291E-002  0.3125287E+03  0.7818608E-02  0.1079415E+00
         21   -1    0    0  501  502  0.00000000000E+00  0.00000000000E+00  0.33094688602E+03  0.33094688602E+03  0.00000000000E+00 0.  1.
         21   -1    0    0  502  503 -0.00000000000E+00 -0.00000000000E+00 -0.55156889104E+03  0.55156889104E+03  0.00000000000E+00 0. -1.
         -6    2    1    2    0  503 -0.22207800583E+03  0.13384936765E+03 -0.41267380647E+03  0.51766190521E+03  0.17447029450E+03 0.  0.
        -24    2    3    3    0    0 -0.21003818063E+03  0.56428269546E+02 -0.33274352855E+03  0.40563546569E+03  0.80756970654E+02 0.  0.
          6    2    1    2  501    0  0.22207800583E+03 -0.13384936765E+03  0.19205180145E+03  0.36485387184E+03  0.17029433185E+03 0.  0.
         24    2    5    5    0    0  0.19254696931E+03 -0.91151722233E+02  0.79955038708E+02  0.24122966200E+03  0.80099748795E+02 0.  0.
          5    1    5    5  501    0  0.29531036527E+02 -0.42697645422E+02  0.11209676274E+03  0.12362420985E+03  0.47000000000E+01 0. -1.
        -11    1    6    6    0    0  0.17623438174E+03 -0.65828573150E+02  0.91211187025E+02  0.20907280787E+03  0.00000000000E+00 0.  1.
         12    1    6    6    0    0  0.16312587561E+02 -0.25323149083E+02 -0.11256148316E+02  0.32156854127E+02  0.00000000000E+00 0. -1.
         -5    1    3    3    0  503 -0.12039825207E+02  0.77421098108E+02 -0.79930277918E+02  0.11202643952E+03  0.47000000000E+01 0.  1.
         11    1    4    4    0    0 -0.16709093793E+02  0.32341755690E+02 -0.65190246257E+02  0.74665595716E+02  0.00000000000E+00 0. -1.
        -12    1    4    4    0    0 -0.19332908683E+03  0.24086513856E+02 -0.26755328230E+03  0.33096986998E+03  0.00000000000E+00 0.  1.
</event>
<event>
12    1  0.8488291E-002  0.3380340E+03  0.7818608E-02  0.1067638E+00
         21   -1    0    0  503  502  0.00000000000E+00  0.00000000000E+00  0.99524175394E+02  0.99524175394E+02  0.00000000000E+00 0.  1.
         21   -1    0    0  501  503 -0.00000000000E+00 -0.00000000000E+00 -0.12172926042E+04  0.12172926042E+04  0.00000000000E+00 0. -1.
          6    2    1    2  501    0  0.15336966290E+03 -0.24727589351E+03 -0.71585530094E+03  0.79164907186E+03  0.17202273127E+03 0.  0.
         24    2    3    3    0    0  0.12441169151E+03 -0.26091736811E+03 -0.59615275425E+03  0.66765131534E+03  0.82486547461E+02 0.  0.
         -6    2    1    2    0  502 -0.15336966290E+03  0.24727589351E+03 -0.40191312787E+03  0.52516770774E+03  0.17204458112E+03 0.  0.
        -24    2    5    5    0    0 -0.67652149990E+02  0.16331917410E+03 -0.16507420125E+03  0.25962865240E+03  0.94379972449E+02 0.  0.
          5    1    3    3  501    0  0.28957971389E+02  0.13641474595E+02 -0.11970254670E+03  0.12399775652E+03  0.47000000000E+01 0. -1.
        -11    1    4    4    0    0 -0.73278169462E+01 -0.35430437455E+02 -0.10998304101E+03  0.11578118201E+03  0.00000000000E+00 0.  1.
         12    1    4    4    0    0  0.13173950845E+03 -0.22548693065E+03 -0.48616971324E+03  0.55187013332E+03  0.00000000000E+00 0. -1.
         -5    1    5    5    0  502 -0.85717512907E+02  0.83956719414E+02 -0.23683892662E+03  0.26553905535E+03  0.47000000000E+01 0.  1.
         13    1    6    6    0    0  0.38154883195E+01 -0.51195187769E+01  0.62733948045E+01  0.89511399272E+01  0.00000000000E+00 0. -1.
        -14    1    6    6    0    0 -0.71467638309E+02  0.16843869288E+03 -0.17134759606E+03  0.25067751247E+03  0.00000000000E+00 0.  1.
</event>
<event>
12    1  0.8488291E-002  0.1836318E+03  0.7818608E-02  0.1164363E+00
         21   -1    0    0  503  502  0.00000000000E+00  0.00000000000E+00  0.96614219521E+02  0.96614219521E+02  0.00000000000E+00 0.  1.
         21   -1    0    0  501  503 -0.00000000000E+00 -0.00000000000E+00 -0.38988633741E+03  0.38988633741E+03  0.00000000000E+00 0.  1.
          6    2    1    2  501    0 -0.13753035423E+01 -0.64463180235E+02 -0.67617152096E+02  0.19556966485E+03  0.17180809494E+03 0.  0.
         24    2    3    3    0    0  0.64426880002E+02 -0.48570686308E+02 -0.57653466794E+02  0.12698494536E+03  0.79317839610E+02 0.  0.
         -6    2    1    2    0  502  0.13753035423E+01  0.64463180235E+02 -0.22565496580E+03  0.29093089208E+03  0.17193960368E+03 0.  0.
        -24    2    5    5    0    0  0.41039381897E+02 -0.12200782334E+02 -0.74320527187E+02  0.11664720215E+03  0.79056556029E+02 0.  0.
          5    1    3    3  501    0 -0.65802183544E+02 -0.15892493927E+02 -0.99636853017E+01  0.68584719488E+02  0.47000000000E+01 0. -1.
        -13    1    4    4    0    0 -0.13286122272E+02 -0.30586284156E+02 -0.18302208844E+02  0.38039619767E+02  0.00000000000E+00 0.  1.
         14    1    4    4    0    0  0.77713002274E+02 -0.17984402153E+02 -0.39351257950E+02  0.88945325597E+02  0.00000000000E+00 0. -1.
         -5    1    5    5    0  502 -0.39664078354E+02  0.76663962569E+02 -0.15133443861E+03  0.17428368994E+03  0.47000000000E+01 0.  1.
         13    1    6    6    0    0  0.45639934732E+02 -0.35602663345E+02 -0.72436295799E+02  0.92723083581E+02  0.00000000000E+00 0. -1.
        -14    1    6    6    0    0 -0.46005528353E+01  0.23401881011E+02 -0.18842313880E+01  0.23924118566E+02  0.00000000000E+00 0.  1.
</event>
<event>
12    1  0.8488291E-002  0.2152643E+03  0.7818608E-02  0.1137929E+00
         21   -1    0    0  503  502  0.00000000000E+00  0.00000000000E+00  0.45969817603E+03  0.45969817603E+03  0.00000000000E+00 0. -1.
         21   -1    0    0  501  503 -0.00000000000E+00 -0.00000000000E+00 -0.10569736657E+03  0.10569736657E+03  0.00000000000E+00 0.  1.
          6    2    1    2  501    0  0.57617813261E+02 -0.11327283184E+03  0.10859331886E+03  0.23895482757E+03  0.17075231735E+03 0.  0.
         24    2    3    3    0    0  0.81676342309E+02 -0.13516657788E+03  0.72323815107E+02  0.19000877729E+03  0.77016703043E+02 0.  0.
         -6    2    1    2    0  502 -0.57617813261E+02  0.11327283184E+03  0.24540749061E+03  0.32644071503E+03  0.17374739464E+03 0.  0.
        -24    2    5    5    0    0  0.13772780169E+02  0.11724173916E+03  0.13537210196E+03  0.19513098268E+03  0.76257324471E+02 0.  0.
          5    1    3    3  501    0 -0.24058529048E+02  0.21893746041E+02  0.36269503748E+02  0.48946050277E+02  0.47000000000E+01 0. -1.
        -11    1    4    4    0    0  0.27725311413E+02 -0.25846520942E+01  0.29579612472E+02  0.40624214373E+02  0.00000000000E+00 0.  1.
         12    1    4    4    0    0  0.53951030895E+02 -0.13258192578E+03  0.42744202635E+02  0.14938456292E+03  0.00000000000E+00 0. -1.
         -5    1    5    5    0  502 -0.71390593430E+02 -0.39689073249E+01  0.11003538865E+03  0.13130973235E+03  0.47000000000E+01 0.  1.
         11    1    6    6    0    0  0.46721235256E+00  0.14970745950E+02  0.73180653455E+02  0.74697721262E+02  0.00000000000E+00 0. -1.
        -12    1    6    6    0    0  0.13305567817E+02  0.10227099321E+03  0.62191448508E+02  0.12043326142E+03  0.00000000000E+00 0.  1.
</event>
<event>
12    1  0.8488291E-002  0.1938694E+03  0.7818608E-02  0.1157577E+00
         21   -1    0    0  501  502  0.00000000000E+00  0.00000000000E+00  0.99988166311E+02  0.99988166311E+02  0.00000000000E+00 0. -1.
         21   -1    0    0  502  503 -0.00000000000E+00 -0.00000000000E+00 -0.39098032597E+03  0.39098032597E+03  0.00000000000E+00 0.  1.
         -6    2    1    2    0  503  0.41245360118E+02  0.77719203556E+02 -0.21666712620E+03  0.28334007539E+03  0.15998593818E+03 0.  0.
        -24    2    3    3    0    0  0.15533702263E+02  0.76713266772E+02 -0.61297683101E+02  0.12578419607E+03  0.77058658331E+02 0.  0.
          6    2    1    2  501    0 -0.41245360118E+02 -0.77719203556E+02 -0.74325033463E+02  0.20762841689E+03  0.17275385544E+03 0.  0.
         24    2    5    5    0    0 -0.85345146329E+02 -0.83236239094E+02 -0.33114967313E+02  0.14683706572E+03  0.79072481366E+02 0.  0.
          5    1    5    5  501    0  0.44099786211E+02  0.55170355382E+01 -0.41210066149E+02  0.60791351169E+02  0.47000000000E+01 0. -1.
        -11    1    6    6    0    0 -0.68196487639E+01  0.12374997368E+02 -0.16940654794E+02  0.22059781367E+02  0.00000000000E+00 0.  1.
         12    1    6    6    0    0 -0.78525497565E+02 -0.95611236462E+02 -0.16174312520E+02  0.12477728436E+03  0.00000000000E+00 0. -1.
         -5    1    3    3    0  503  0.25711657855E+02  0.10059367833E+01 -0.15536944310E+03  0.15755587932E+03  0.47000000000E+01 0.  1.
         13    1    4    4    0    0  0.49268618610E+01 -0.13783813052E+02 -0.22295212227E+02  0.26671032194E+02  0.00000000000E+00 0. -1.
        -14    1    4    4    0    0  0.10606840402E+02  0.90497079825E+02 -0.39002470874E+02  0.99113163881E+02  0.00000000000E+00 0.  1.
</event>
<event>
12    1  0.8488291E-002  0.2192367E+03  0.7818608E-02  0.1134513E+00
         21   -1    0    0  501  502  0.00000000000E+00  0.00000000000E+00  0.11727936778E+03  0.11727936778E+03  0.00000000000E+00 0.  1.
         21   -1    0    0  502  503 -0.00000000000E+00 -0.00000000000E+00 -0.53521413094E+03  0.53521413094E+03  0.00000000000E+00 0. -1.
         -6    2    1    2    0  503 -0.12430711966E+03 -0.49572309824E+02 -0.36713098772E+03  0.42744740047E+03  0.17325254436E+03 0.  0.
        -24    2    3    3    0    0 -0.52098947708E+02  0.12823091213E+01 -0.30266710743E+03  0.31800383407E+03  0.82481003242E+02 0.  0.
          6    2    1    2  501    0  0.12430711966E+03  0.49572309824E+02 -0.50803775437E+02  0.22504609825E+03  0.17365209138E+03 0.  0.
         24    2    5    5    0    0  0.83597295343E+02 -0.42359046235E+02 -0.53612648054E+02  0.12435526556E+03  0.61701859411E+02 0.  0.
          5    1    5    5  501    0  0.40709824313E+02  0.91931356059E+02  0.28088726172E+01  0.10069083269E+03  0.47000000000E+01 0. -1.
        -11    1    6    6    0    0  0.84822925105E+02 -0.25428011496E+02 -0.59160478298E+02  0.10649635949E+03  0.00000000000E+00 0.  1.
         12    1    6    6    0    0 -0.12256297627E+01 -0.16931034739E+02  0.55478302440E+01  0.17858906071E+02  0.00000000000E+00 0. -1.
         -5    1    3    3    0  503 -0.72208171947E+02 -0.50854618945E+02 -0.64463880293E+02  0.10944356640E+03  0.47000000000E+01 0.  1.
         11    1    4    4    0    0  0.15206376388E+02 -0.20409588340E+02 -0.10590569907E+03  0.10892108278E+03  0.00000000000E+00 0. -1.
        -12    1    4    4    0    0 -0.67305324096E+02  0.21691897461E+02 -0.19676140836E+03  0.20908275129E+03  0.00000000000E+00 0.  1.
</event>
<event>
12    1  0.8488291E-002  0.1739607E+03  0.7818608E-02  0.1174025E+00
         21   -1    0    0  503  502  0.00000000000E+00  0.00000000000E+00  0.10637910653E+03  0.10637910653E+03  0.00000000000E+00 0. -1.
         21   -1    0    0  501  503 -0.00000000000E+00 -0.00000000000E+00 -0.30173330511E+03  0.30173330511E+03  0.00000000000E+00 0. -1.
          6    2    1    2  501    0  0.69302421830E+01 -0.95810320201E+01 -0.14841220456E+03  0.22792950450E+03  0.17258578194E+03 0.  0.
         24    2    3    3    0    0 -0.95206919992E+01 -0.39408329845E+02 -0.16625984169E+03  0.18918767850E+03  0.80659672087E+02 0.  0.
         -6    2    1    2    0  502 -0.69302421830E+01  0.95810320201E+01 -0.46941994013E+02  0.18018290714E+03  0.17355836134E+03 0.  0.
        -24    2    5    5    0    0 -0.13119979787E+02  0.40324079116E+01  0.42352118364E+02  0.90379629991E+02  0.78653553030E+02 0.  0.
          5    1    3    3  501    0  0.16450934182E+02  0.29827297825E+02  0.17847637125E+02  0.38741826002E+02  0.47000000000E+01 0. -1.
        -11    1    4    4    0    0 -0.21450158473E+02 -0.32572545711E+01 -0.34282381527E+01  0.21965241239E+02  0.00000000000E+00 0.  1.
         12    1    4    4    0    0  0.11929466474E+02 -0.36151075274E+02 -0.16283160354E+03  0.16722243726E+03  0.00000000000E+00 0. -1.
         -5    1    5    5    0  502  0.61897376042E+01  0.55486241085E+01 -0.89294112377E+02  0.89803277147E+02  0.47000000000E+01 0.  1.
         11    1    6    6    0    0 -0.45562536383E+02  0.23849425409E+01  0.15349345853E+02  0.48137668106E+02  0.00000000000E+00 0. -1.
        -12    1    6    6    0    0  0.32442556596E+02  0.16474653708E+01  0.27002772511E+02  0.42241961885E+02  0.00000000000E+00 0.  1.
</event>
<event>
12    1  0.8488291E-002  0.1669427E+03  0.7818608E-02  0.1181156E+00
         21   -1    0    0  503  502  0.00000000000E+00  0.00000000000E+00  0.88889032929E+02  0.88889032929E+02  0.00000000000E+00 0.  1.
         21   -1    0    0  501  503 -0.00000000000E+00 -0.00000000000E+00 -0.52779052485E+03  0.52779052485E+03  0.00000000000E+00 0.  1.
          6    2    1    2  501    0  0.28335083144E+02 -0.12517001155E+02 -0.41605101130E+03  0.44818030811E+03  0.16373024252E+03 0.  0.
         24    2    3    3    0    0 -0.29554805027E+02 -0.28968335205E+02 -0.33402096307E+03  0.34633285179E+03  0.81632037326E+02 0.  0.
         -6    2    1    2    0  502 -0.28335083144E+02  0.12517001155E+02 -0.22850480624E+02  0.16849924968E+03  0.16404359305E+03 0.  0.
        -24    2    5    5    0    0 -0.12649661629E+02 -0.89379217322E+01 -0.74361781626E+02  0.11034557142E+03  0.80041053094E+02 0.  0.
          5    1    3    3  501    0  0.57889888171E+02  0.16451334050E+02 -0.82030048231E+02  0.10184745631E+03  0.47000000000E+01 0. -1.
        -13    1    4    4    0    0 -0.57765091541E+02 -0.24949169902E+02 -0.23744623025E+03  0.24564197348E+03  0.00000000000E+00 0.  1.
         14    1    4    4    0    0  0.28210286515E+02 -0.40191653034E+01 -0.96574732822E+02  0.10069087831E+03  0.00000000000E+00 0. -1.
         -5    1    5    5    0  502 -0.15685421515E+02  0.21454922888E+02  0.51511301002E+02  0.58153678260E+02  0.47000000000E+01 0.  1.
         11    1    6    6    0    0  0.29169211298E+02  0.82812164788E+01 -0.10493124384E+02  0.32086244615E+02  0.00000000000E+00 0. -1.
        -12    1    6    6    0    0 -0.41818872927E+02 -0.17219138211E+02 -0.63868657242E+02  0.78259326802E+02  0.00000000000E+00 0.  1.
</event>
<event>
12    1  0.8488291E-002  0.2028136E+03  0.7818608E-02  0.1147480E+00
         21   -1    0    0  501  502  0.00000000000E+00  0.00000000000E+00  0.52373078562E+03  0.52373078562E+03  0.00000000000E+00 0.  1.
         21   -1    0    0  502  503 -0.00000000000E+00 -0.00000000000E+00 -0.89446269870E+02  0.89446269870E+02  0.00000000000E+00 0.  1.
         -6    2    1    2    0  503 -0.57634031087E+02  0.89924614995E+02  0.32526453724E+03  0.38331498831E+03  0.17241010166E+03 0.  0.
        -24    2    3    3    0    0  0.80324744310E+01 -0.62698492948E+01  0.48214794500E+02  0.82742010716E+02  0.66466098674E+02 0.  0.
          6    2    1    2  501    0  0.57634031087E+02 -0.89924614995E+02  0.10901997850E+03  0.22986206717E+03  0.17188105274E+03 0.  0.
         24    2    5    5    0    0  0.79363057638E+02 -0.88719479765E+02  0.13405382394E+03  0.19636003197E+03  0.80107386895E+02 0.  0.
          5    1    5    5  501    0 -0.21729026551E+02 -0.12051352302E+01 -0.25033845433E+02  0.33502035206E+02  0.47000000000E+01 0. -1.
        -11    1    6    6    0    0  0.43767930445E+02 -0.26109039434E+02  0.10861638165E+03  0.11997846490E+03  0.00000000000E+00 0.  1.
         12    1    6    6    0    0  0.35595127193E+02 -0.62610440331E+02  0.25437442283E+02  0.76381567071E+02  0.00000000000E+00 0. -1.
         -5    1    3    3    0  503 -0.65666505518E+02  0.96194464290E+02  0.27704974274E+03  0.30057297760E+03  0.47000000000E+01 0.  1.
         11    1    4    4    0    0 -0.10166790807E+01  0.25703174081E+02  0.41524294612E+02  0.48846226438E+02  0.00000000000E+00 0. -1.
        -12    1    4    4    0    0  0.90491535117E+01 -0.31973023376E+02  0.66904998880E+01  0.33895784278E+02  0.00000000000E+00 0.  1.
</event>
<event>
12    1  0.8488291E-002  0.1924523E+03  0.7818608E-02  0.1158213E+00
         21   -1    0    0  501  502  0.00000000000E+00  0.00000000000E+00  0.30383398964E+03  0.30383398964E+03  0.00000000000E+00 0. -1.
         21   -1    0    0  502  503 -0.00000000000E+00 -0.00000000000E+00 -0.12334993733E+03  0.12334993733E+03  0.00000000000E+00 0. -1.
         -6    2    1    2    0  503  0.49358715080E+02 -0.41433130562E+02  0.42005173906E+02  0.19698301833E+03  0.18134190860E+03 0.  0.
        -24    2    3    3    0    0  0.26158636950E+02 -0.96973625843E+02  0.10422922790E+02  0.12884698655E+03  0.80029683413E+02 0.  0.
          6    2    1    2  501    0 -0.49358715080E+02  0.41433130562E+02  0.13847887840E+03  0.23020090864E+03  0.17222970566E+03 0.  0.
         24    2    5    5    0    0 -0.76578590268E+02  0.56861313674E+02  0.15087079493E+03  0.19622150260E+03  0.81507004860E+02 0.  0.
          5    1    5    5  501    0  0.27219875188E+02 -0.15428183111E+02 -0.12391916526E+02  0.33979406035E+02  0.47000000000E+01 0. -1.
        -13    1    6    6    0    0  0.87089281914E+01  0.36655906939E+02  0.41200653650E+02  0.55830052884E+02  0.00000000000E+00 0.  1.
         14    1    6    6    0    0 -0.85287518459E+02  0.20205406734E+02  0.10967014128E+03  0.14039144972E+03  0.00000000000E+00 0. -1.
         -5    1    3    3    0  503  0.23200078131E+02  0.55540495280E+02  0.31582251116E+02  0.68136031780E+02  0.47000000000E+01 0.  1.
         13    1    4    4    0    0  0.39570234304E+02 -0.15551608625E+02  0.17601896200E+02  0.46016113738E+02  0.00000000000E+00 0. -1.
        -14    1    4    4    0    0 -0.13411597355E+02 -0.81422017218E+02 -0.71789734099E+01  0.82830872811E+02  0.00000000000E+00 0.  1.
</event>
<event>
12    1  0.8488291E-002  0.2346099E+03  0.7818608E-02  0.1123568E+00
         21   -1    0    0  503  502  0.00000000000E+00  0.00000000000E+00  0.51757961371E+02  0.51757961371E+02  0.00000000000E+00 0. -1.
         21   -1    0    0  501  503 -0.00000000000E+00 -0.00000000000E+00 -0.10600618515E+04  0.10600618515E+04  0.00000000000E+00 0.  1.
          6    2    1    2  501    0  0.31655296905E+02 -0.15627585112E+03 -0.50809797291E+03  0.55932750030E+03  0.17105409394E+03 0.  0.
         24    2    3    3    0    0  0.36117688242E+02 -0.13697036035E+02 -0.15957452814E+03  0.18271189654E+03  0.80171758769E+02 0.  0.
         -6    2    1    2    0  502 -0.31655296905E+02  0.15627585112E+03 -0.50020591721E+03  0.55249231255E+03  0.17209763611E+03 0.  0.
        -24    2    5    5    0    0  0.22514166066E+02  0.97553397211E+02 -0.16895112984E+03  0.21170721684E+03  0.79069010392E+02 0.  0.
          5    1    3    3  501    0 -0.44623913367E+01 -0.14257881509E+03 -0.34852344476E+03  0.37661560376E+03  0.47000000000E+01 0. -1.
        -11    1    4    4    0    0  0.35937149583E+02 -0.13466209077E+02 -0.16898946380E+03  0.17329240140E+03  0.00000000000E+00 0.  1.
         12    1    4    4    0    0  0.18053865880E+00 -0.23082695755E+00  0.94149356556E+01  0.94194951399E+01  0.00000000000E+00 0. -1.
         -5    1    5    5    0  502 -0.54169462971E+02  0.58722453913E+02 -0.33125478736E+03  0.34078509572E+03  0.47000000000E+01 0.  1.
         11    1    6    6    0    0  0.28570455374E+02  0.14867552267E+02 -0.12312601326E+02  0.34480649386E+02  0.00000000000E+00 0. -1.
        -12    1    6    6    0    0 -0.60562893076E+01  0.82685844944E+02 -0.15663852852E+03  0.17722656745E+03  0.00000000000E+00 0.  1.
</event>
<event>
12    1  0.8488291E-002  0.2567377E+03  0.7818608E-02  0.1109203E+00
         21   -1    0    0  503  502  0.00000000000E+00  0.00000000000E+00  0.42629664710E+03  0.42629664710E+03  0.00000000000E+00 0.  1.
         21   -1    0    0  501  503 -0.00000000000E+00 -0.00000000000E+00 -0.47348542442E+03  0.47348542442E+03  0.00000000000E+00 0. -1.
          6    2    1    2  501    0 -0.11575293375E+03 -0.15039230760E+03 -0.39297376843E+03  0.46910644518E+03  0.17209266802E+03 0.  0.
         24    2    3    3    0    0 -0.82251603564E+02 -0.16651064344E+03 -0.37766589408E+03  0.42862730375E+03  0.81232489162E+02 0.  0.
         -6    2    1    2    0  502  0.11575293375E+03  0.15039230760E+03  0.34578499111E+03  0.43067562634E+03  0.17290936120E+03 0.  0.
        -24    2    5    5    0    0  0.65565454632E+02  0.72138101284E+01  0.13548749007E+03  0.17131874068E+03  0.81500816215E+02 0.  0.
          5    1    3    3  501    0 -0.33501330183E+02  0.16118335846E+02 -0.15307874346E+02  0.40479141437E+02  0.47000000000E+01 0. -1.
        -11    1    4    4    0    0 -0.21385510247E+01  0.91465216703E+01 -0.22441202907E+02  0.24327758776E+02  0.00000000000E+00 0.  1.
         12    1    4    4    0    0 -0.80113052539E+02 -0.17565716511E+03 -0.35522469118E+03  0.40429954497E+03  0.00000000000E+00 0. -1.
         -5    1    5    5    0  502  0.50187479115E+02  0.14317849747E+03  0.21029750104E+03  0.25935688566E+03  0.47000000000E+01 0.  1.
         11    1    6    6    0    0 -0.17589599744E+02 -0.69271887061E+01  0.37733033858E+02  0.42203812703E+02  0.00000000000E+00 0. -1.
        -12    1    6    6    0    0  0.83155054376E+02  0.14140998834E+02  0.97754456213E+02  0.12911492797E+03  0.00000000000E+00 0.  1.
</event>
<event>
12    1  0.8488291E-002  0.2096544E+03  0.7818608E-02  0.1142063E+00
         21   -1    0    0  501  502  0.00000000000E+00  0.00000000000E+00  0.65273253177E+02  0.65273253177E+02  0.00000000000E+00 0.  1.
         21   -1    0    0  502  503 -0.00000000000E+00 -0.00000000000E+00 -0.72450098862E+03  0.72450098862E+03  0.00000000000E+00 0. -1.
         -6    2    1    2    0  503 -0.67503667451E+02  0.97977178578E+02 -0.43729589989E+03  0.48447325835E+03  0.17126109119E+03 0.  0.
        -24    2    3    3    0    0 -0.51481412070E+02  0.13287805098E+03 -0.39371872865E+03  0.42619939272E+03  0.79527183058E+02 0.  0.
          6    2    1    2  501    0  0.67503667451E+02 -0.97977178578E+02 -0.22193183556E+03  0.30530098345E+03  0.17262293654E+03 0.  0.
         24    2    5    5    0    0  0.45653954165E+02  0.78930360349E+01 -0.53262656889E+02  0.10490813391E+03  0.77602979279E+02 0.  0.
          5    1    5    5  501    0  0.21849713286E+02 -0.10587021461E+03 -0.16866917867E+03  0.20039284954E+03  0.47000000000E+01 0. -1.
        -11    1    6    6    0    0  0.66633705510E+02 -0.62970852221E+00 -0.46562968990E+02  0.81293033674E+02  0.00000000000E+00 0.  1.
         12    1    6    6    0    0 -0.20979751344E+02  0.85227445571E+01 -0.66996878998E+01  0.23615100237E+02  0.00000000000E+00 0. -1.
         -5    1    3    3    0  503 -0.16022255382E+02 -0.34900872405E+02 -0.43577171234E+02  0.58273865626E+02  0.47000000000E+01 0.  1.
         13    1    4    4    0    0 -0.72996966574E+02  0.10358375726E+03 -0.31271701205E+03  0.33741677718E+03  0.00000000000E+00 0. -1.
        -14    1    4    4    0    0  0.21515554504E+02  0.29294293721E+02 -0.81001716604E+02  0.88782615545E+02  0.00000000000E+00 0.  1.
</event>
<event>
12    1  0.8488291E-002  0.2151414E+03  0.7818608E-02  0.1137745E+00
         21   -1    0    0  503  502  0.00000000000E+00  0.00000000000E+00  0.87654751106E+03  0.87654751106E+03  0.00000000000E+00 0.  1.
         21   -1    0    0  501  503 -0.00000000000E+00 -0.00000000000E+00 -0.10145454060E+03  0.10145454060E+03  0.00000000000E+00 0.  1.
          6    2    1    2  501    0 -0.10873660378E+03 -0.68417007087E+02  0.72654206809E+03  0.75745043934E+03  0.17135709933E+03 0.  0.
         24    2    3    3    0    0  0.64340023799E+01 -0.64002849900E+02  0.27408430989E+03  0.29052018088E+03  0.71707777755E+02 0.  0.
         -6    2    1    2    0  502  0.10873660378E+03  0.68417007087E+02  0.48550902375E+02  0.22055161232E+03  0.17257255783E+03 0.  0.
        -24    2    5    5    0    0  0.13789106949E+03  0.78338062610E+02  0.59871813870E+02  0.18740552280E+03  0.79908677763E+02 0.  0.
          5    1    3    3  501    0 -0.11517060616E+03 -0.44141571871E+01  0.45245775820E+03  0.46693025845E+03  0.47000000000E+01 0. -1.
        -11    1    4    4    0    0 -0.36542225577E+01 -0.27761559946E+02  0.23353578620E+03  0.23520846284E+03  0.00000000000E+00 0.  1.
         12    1    4    4    0    0  0.10088224938E+02 -0.36241289954E+02  0.40548523686E+02  0.55311718045E+02  0.00000000000E+00 0. -1.
         -5    1    5    5    0  502 -0.29154465712E+02 -0.99210555226E+01 -0.11320911495E+02  0.33146089523E+02  0.47000000000E+01 0.  1.
         13    1    6    6    0    0  0.37786561323E+02  0.60943920835E+02  0.45155557916E+02  0.84740840886E+02  0.00000000000E+00 0. -1.
        -14    1    6    6    0    0  0.10010450817E+03  0.17394141775E+02  0.14716255954E+02  0.10266468191E+03  0.00000000000E+00 0.  1.
</event>
<event>
12    1  0.8488291E-002  0.1825769E+03  0.7818608E-02  0.1166071E+00
         21   -1    0    0  501  502  0.00000000000E+00  0.00000000000E+00  0.40513110905E+03  0.40513110905E+03  0.00000000000E+00 0. -1.
         21   -1    0    0  502  503 -0.00000000000E+00 -0.00000000000E+00 -0.24148427111E+03  0.24148427111E+03  0.00000000000E+00 0. -1.
         -6    2    1    2    0  503  0.10442193558E+02  0.53737998645E+02 -0.18205643043E+03  0.25566134369E+03  0.17094258361E+03 0.  0.
        -24    2    3    3    0    0  0.27911281777E+02 -0.20487996738E+02 -0.39087048906E+02  0.93559519249E+02  0.77632393942E+02 0.  0.
          6    2    1    2  501    0 -0.10442193558E+02 -0.53737998645E+02  0.34570326837E+03  0.39095403646E+03  0.17417662575E+03 0.  0.
         24    2    5    5    0    0 -0.47332601112E+02 -0.61536482753E+02  0.33341820722E+03  0.35101995013E+03  0.77589887504E+02 0.  0.
          5    1    5    5  501    0  0.36890407554E+02  0.77984841084E+01  0.12285061148E+02  0.39934086334E+02  0.47000000000E+01 0.  1.
        -11    1    6    6    0    0 -0.25803412445E+02 -0.37841306197E+01  0.23735711585E+02  0.35263575298E+02  0.00000000000E+00 0.  1.
         12    1    6    6    0    0 -0.21529188667E+02 -0.57752352133E+02  0.30968249564E+03  0.31575637483E+03  0.00000000000E+00 0. -1.
         -5    1    3    3    0  503 -0.17469088219E+02  0.74225995382E+02 -0.14296938153E+03  0.16210182445E+03  0.47000000000E+01 0.  1.
         11    1    4    4    0    0  0.35581671403E+02 -0.12048570133E+02 -0.59389498588E+02  0.70273294533E+02  0.00000000000E+00 0. -1.
        -12    1    4    4    0    0 -0.76703896256E+01 -0.84394266044E+01  0.20302449682E+02  0.23286224716E+02  0.00000000000E+00 0.  1.
</event>
<event>
12    1  0.8488291E-002  0.2083163E+03  0.7818608E-02  0.1142918E+00
         21   -1    0    0  503  502  0.00000000000E+00  0.00000000000E+00  0.53807582057E+02  0.53807582057E+02  0.00000000000E+00 0.  1.
         21   -1    0    0  501  503 -0.00000000000E+00 -0.00000000000E+00 -0.83296265890E+03  0.83296265890E+03  0.00000000000E+00 0.  1.
          6    2    1    2  501    0  0.65284337907E+02 -0.96599725058E+02 -0.31014193712E+03  0.37357534224E+03  0.17256002871E+03 0.  0.
         24    2    3    3    0    0  0.29044740397E+02  0.21420919777E+02 -0.10320543311E+03  0.13256291988E+03  0.74960746770E+02 0.  0.
         -6    2    1    2    0  502 -0.65284337907E+02  0.96599725058E+02 -0.46901313972E+03  0.51319489872E+03  0.17263292613E+03 0.  0.
        -24    2    5    5    0    0 -0.90221711561E+02  0.33155682755E+02 -0.20316874544E+03  0.23870928693E+03  0.80407263402E+02 0.  0.
          5    1    3    3  501    0  0.36239597511E+02 -0.11802064483E+03 -0.20693650402E+03  0.24101242236E+03  0.47000000000E+01 0. -1.
        -11    1    4    4    0    0  0.50677186741E+02 -0.12641446860E+00 -0.49832333026E+02  0.71073586172E+02  0.00000000000E+00 0.  1.
         12    1    4    4    0    0 -0.21632446344E+02  0.21547334245E+02 -0.53373100080E+02  0.61489333710E+02  0.00000000000E+00 0. -1.
         -5    1    5    5    0  502  0.24937373654E+02  0.63444042303E+02 -0.26584439428E+03  0.27448561179E+03  0.47000000000E+01 0.  1.
         11    1    6    6    0    0  0.13855286515E+01 -0.51756424404E+01 -0.81428848859E+02  0.81604928716E+02  0.00000000000E+00 0. -1.
        -12    1    6    6    0    0 -0.91607240213E+02  0.38331325195E+02 -0.12173989658E+03  0.15710435821E+03  0.00000000000E+00 0.  1.
</event>
<event>
12    1  0.8488291E-002  0.3130682E+03  0.7818608E-02  0.1078998E+00
         21   -1    0    0  501  502  0.00000000000E+00  0.00000000000E+00  0.49016613587E+03  0.49016613587E+03  0.00000000000E+00 0.  1.
         21   -1    0    0  502  503 -0.00000000000E+00 -0.00000000000E+00 -0.52976749348E+03  0.52976749348E+03  0.00000000000E+00 0.  1.
         -6    2    1    2    0  503 -0.19950342268E+03 -0.16755218571E+03 -0.42255971428E+03  0.52589768907E+03  0.17359814700E+03 0.  0.
        -24    2    3    3    0    0 -0.18893931238E+03 -0.96690323201E+02 -0.38022171474E+03  0.44254542342E+03  0.78935524735E+02 0.  0.
          6    2    1    2  501    0  0.19950342268E+03  0.16755218571E+03  0.38295835666E+03  0.49403594028E+03  0.17186930136E+03 0.  0.
         24    2    5    5    0    0  0.46392960098E+01  0.71087742900E+02  0.12284561611E+03  0.15498115947E+03  0.62073538120E+02 0.  0.
          5    1    5    5  501    0  0.19486412667E+03  0.96464442808E+02  0.26011274055E+03  0.33905478081E+03  0.47000000000E+01 0. -1.
        -11    1    6    6    0    0  0.12762983278E+02  0.69314343075E+02  0.12732959913E+03  0.14553418400E+03  0.00000000000E+00 0.  1.
         12    1    6    6    0    0 -0.81236872677E+01  0.17733998255E+01 -0.44839830206E+01  0.94469754680E+01  0.00000000000E+00 0. -1.
         -5    1    3    3    0  503 -0.10564110305E+02 -0.70861862506E+02 -0.42337999535E+02  0.83352265651E+02  0.47000000000E+01 0.  1.
         11    1    4    4    0    0 -0.12613819861E+03 -0.25755388861E+02 -0.25356755579E+03  0.28437772514E+03  0.00000000000E+00 0. -1.
        -12    1    4    4    0    0 -0.62801113767E+02 -0.70934934341E+02 -0.12665415895E+03  0.15816769828E+03  0.00000000000E+00 0.  1.
</event>
<event>
12    1  0.8488291E-002  0.1742366E+03  0.7818608E-02  0.1173506E+00
         21   -1    0    0  501  502  0.00000000000E+00  0.00000000000E+00  0.74027529079E+02  0.74027529079E+02  0.00000000000E+00 0. -1.
         21   -1    0    0  502  503 -0.00000000000E+00 -0.00000000000E+00 -0.47503425574E+03  0.47503425574E+03  0.00000000000E+00 0. -1.
         -6    2    1    2    0  503  0.21893401476E+02 -0.19844816391E+02 -0.98950469744E+02  0.20035508679E+03  0.17169108182E+03 0.  0.
        -24    2    3    3    0    0  0.18773127161E+02  0.54524074174E+02 -0.51658156790E+02  0.11204245542E+03  0.80991614909E+02 0.  0.
          6    2    1    2  501    0 -0.21893401476E+02  0.19844816391E+02 -0.30205625692E+03  0.34870669803E+03  0.17171267030E+03 0.  0.
         24    2    5    5    0    0 -0.44545897148E+02 -0.41884727397E+02 -0.23012842427E+03  0.25113941229E+03  0.79832608672E+02 0.  0.
          5    1    5    5  501    0  0.22652495673E+02  0.61729543788E+02 -0.71927832646E+02  0.97567285735E+02  0.47000000000E+01 0. -1.
        -11    1    6    6    0    0  0.15848017961E+02  0.11188284131E+02 -0.58028575385E+02  0.61185398064E+02  0.00000000000E+00 0.  1.
         12    1    6    6    0    0 -0.60393915109E+02 -0.53073011528E+02 -0.17209984889E+03  0.18995401423E+03  0.00000000000E+00 0. -1.
         -5    1    3    3    0  503  0.31202743148E+01 -0.74368890565E+02 -0.47292312955E+02  0.88312631374E+02  0.47000000000E+01 0.  1.
         13    1    4    4    0    0  0.28283293493E+02 -0.46678338082E+01  0.55244159185E+01  0.29193364563E+02  0.00000000000E+00 0. -1.
        -14    1    4    4    0    0 -0.95101663321E+01  0.59191907982E+02 -0.57182572708E+02  0.82849090856E+02  0.00000000000E+00 0.  1.
</event>
<event>
12    1  0.8488291E-002  0.2477021E+03  0.7818608E-02  0.1115901E+00
         21   -1    0    0  503  502  0.00000000000E+00  0.00000000000E+00  0.19152387567E+04  0.19152387567E+04  0.00000000000E+00 0.  1.
         21   -1    0    0  501  503 -0.00000000000E+00 -0.00000000000E+00 -0.31414104152E+02  0.31414104152E+02  0.00000000000E+00 0.  1.
          6    2    1    2  501    0  0.98627388283E+02 -0.13621708595E+03  0.10197509742E+04  0.10477759761E+04  0.17222076096E+03 0.  0.
         24    2    3    3    0    0  0.10734629009E+03 -0.34712363139E+02  0.61057873826E+03  0.62608505059E+03  0.80298946467E+02 0.  0.
         -6    2    1    2    0  502 -0.98627388283E+02  0.13621708595E+03  0.86407367837E+03  0.89887688477E+03  0.18186224481E+03 0.  0.
        -24    2    5    5    0    0  0.21280552893E+02  0.77071888273E+02  0.33501358963E+03  0.35316383172E+03  0.78087443967E+02 0.  0.
          5    1    3    3  501    0 -0.87189018111E+01 -0.10150472281E+03  0.40917223590E+03  0.42169092548E+03  0.47000000000E+01 0. -1.
        -13    1    4    4    0    0  0.11484666929E+03 -0.27932239451E+02  0.45244885500E+03  0.46763226347E+03  0.00000000000E+00 0.  1.
         14    1    4    4    0    0 -0.75003791992E+01 -0.67801236879E+01  0.15812988326E+03  0.15845278712E+03  0.00000000000E+00 0. -1.
         -5    1    5    5    0  502 -0.11990794118E+03  0.59145197677E+02  0.52906008874E+03  0.54571305305E+03  0.47000000000E+01 0.  1.
         13    1    6    6    0    0 -0.10926493947E+02 -0.11460072128E+02  0.29853999712E+02  0.33793236335E+02  0.00000000000E+00 0. -1.
        -14    1    6    6    0    0  0.32207046840E+02  0.88531960401E+02  0.30515958992E+03  0.31937059538E+03  0.00000000000E+00 0.  1.
</event>
<event>
12    1  0.8488291E-002  0.2201777E+03  0.7818608E-02  0.1135801E+00
         21   -1    0    0  503  502  0.00000000000E+00  0.00000000000E+00  0.18233408939E+04  0.18233408939E+04  0.00000000000E+00 0.  1.
         21   -1    0    0  501  503 -0.00000000000E+00 -0.00000000000E+00 -0.32845658847E+02  0.32845658847E+02  0.00000000000E+00 0.  1.
          6    2    1    2  501    0 -0.65098887295E+02  0.10888989311E+03  0.46798890452E+03  0.51719614071E+03  0.17995376979E+03 0.  0.
         24    2    3    3    0    0 -0.36392557188E+02  0.71988759346E+02  0.45417848489E+03  0.46822099649E+03  0.80287020894E+02 0.  0.
         -6    2    1    2    0  502  0.65098887295E+02 -0.10888989311E+03  0.13225063305E+04  0.13389904120E+04  0.16666569919E+03 0.  0.
        -24    2    5    5    0    0  0.41964194412E+02  0.74235124758E+01  0.49625030706E+03  0.50425384961E+03  0.78685929098E+02 0.  0.
          5    1    3    3  501    0 -0.28706330107E+02  0.36901133762E+02  0.13810419631E+02  0.48975144221E+02  0.47000000000E+01 0. -1.
        -11    1    4    4    0    0 -0.75313600604E+01  0.74644365150E+01  0.23036295519E+01  0.10851078562E+02  0.00000000000E+00 0.  1.
         12    1    4    4    0    0 -0.28861197127E+02  0.64524322831E+02  0.45187485534E+03  0.45736991792E+03  0.00000000000E+00 0. -1.
         -5    1    5    5    0  502  0.23134692882E+02 -0.11631340558E+03  0.82625602348E+03  0.83473656244E+03  0.47000000000E+01 0.  1.
         13    1    6    6    0    0 -0.98901146879E+01 -0.25154124296E+02  0.19286360888E+03  0.19474834009E+03  0.00000000000E+00 0. -1.
        -14    1    6    6    0    0  0.51854309100E+02  0.32577636771E+02  0.30338669818E+03  0.30950550952E+03  0.00000000000E+00 0.  1.
</event>
<event>
12    1  0.8488291E-002  0.1756945E+03  0.7818608E-02  0.1172614E+00
         21   -1    0    0  503  502  0.00000000000E+00  0.00000000000E+00  0.72729697054E+02  0.72729697054E+02  0.00000000000E+00 0. -1.
         21   -1    0    0  501  503 -0.00000000000E+00 -0.00000000000E+00 -0.55431629329E+03  0.55431629329E+03  0.00000000000E+00 0. -1.
          6    2    1    2  501    0 -0.19242361516E+02 -0.25217169831E+02 -0.87029255142E+02  0.19606794670E+03  0.17280733301E+03 0.  0.
         24    2    3    3    0    0 -0.47513650819E+01 -0.79358569268E+02 -0.82912981162E+02  0.13967367552E+03  0.79459519256E+02 0.  0.
         -6    2    1    2    0  502  0.19242361516E+02  0.25217169831E+02 -0.39455734109E+03  0.43097804364E+03  0.17047112531E+03 0.  0.
        -24    2    5    5    0    0 -0.41677432237E+02 -0.45454751640E+01 -0.13398653545E+03  0.16168959038E+03  0.80208866426E+02 0.  0.
          5    1    3    3  501    0 -0.14490996434E+02  0.54141399437E+02 -0.41162739804E+01  0.56394271182E+02  0.47000000000E+01 0. -1.
        -13    1    4    4    0    0  0.11095688255E+02 -0.63111557469E+02 -0.11968883442E+02  0.65187707084E+02  0.00000000000E+00 0.  1.
         14    1    4    4    0    0 -0.15847053337E+02 -0.16247011799E+02 -0.70944097720E+02  0.74485968431E+02  0.00000000000E+00 0. -1.
         -5    1    5    5    0  502  0.60919793753E+02  0.29762644995E+02 -0.26057080564E+03  0.26928845326E+03  0.47000000000E+01 0.  1.
         11    1    6    6    0    0  0.23219846013E+02  0.75974955534E+01 -0.38612549341E+02  0.45692583142E+02  0.00000000000E+00 0. -1.
        -12    1    6    6    0    0 -0.64897278250E+02 -0.12142970717E+02 -0.95373986110E+02  0.11599700724E+03  0.00000000000E+00 0.  1.
</event>
<event>
12    1  0.8488291E-002  0.1930396E+03  0.7818608E-02  0.1155968E+00
         21   -1    0    0  503  502  0.00000000000E+00  0.00000000000E+00  0.18293639153E+03  0.18293639153E+03  0.00000000000E+00 0. -1.
         21   -1    0    0  501  503 -0.00000000000E+00 -0.00000000000E+00 -0.35107178977E+03  0.35107178977E+03  0.00000000000E+00 0. -1.
          6    2    1    2  501    0  0.32864684296E+02  0.81687094091E+02 -0.25779742777E+03  0.32206181765E+03  0.17178891643E+03 0.  0.
         24    2    3    3    0    0  0.73545763729E+02  0.15861190825E+02 -0.17132277800E+03  0.20592416305E+03  0.85980869540E+02 0.  0.
         -6    2    1    2    0  502 -0.32864684296E+02 -0.81687094091E+02  0.89662029525E+02  0.21194636365E+03  0.17067253063E+03 0.  0.
        -24    2    5    5    0    0 -0.64210666087E+02 -0.78597527589E+02  0.11380137662E+03  0.17198495634E+03  0.79545527239E+02 0.  0.
          5    1    3    3  501    0 -0.40681079433E+02  0.65825903266E+02 -0.86474649764E+02  0.11613765460E+03  0.47000000000E+01 0. -1.
        -11    1    4    4    0    0  0.11128629567E+02 -0.13261714639E+02  0.38163916929E+01  0.17728065793E+02  0.00000000000E+00 0.  1.
         12    1    4    4    0    0  0.62417134162E+02  0.29122905464E+02 -0.17513916970E+03  0.18819609725E+03  0.00000000000E+00 0. -1.
         -5    1    5    5    0  502  0.31345981791E+02 -0.30895665024E+01 -0.24139347100E+02  0.39961407308E+02  0.47000000000E+01 0.  1.
         11    1    6    6    0    0 -0.54458154764E+02 -0.91510017924E+02  0.75886405894E+02  0.13076131156E+03  0.00000000000E+00 0. -1.
        -12    1    6    6    0    0 -0.97525113229E+01  0.12912490335E+02  0.37914970731E+02  0.41223644784E+02  0.00000000000E+00 0.  1.
</event>
<event>
12    1  0.8488291E-002  0.1989821E+03  0.7818608E-02  0.1150787E+00
         21   -1    0    0  501  502  0.00000000000E+00  0.00000000000E+00  0.83374185190E+03  0.83374185190E+03  0.00000000000E+00 0. -1.
         21   -1    0    0  502  503 -0.00000000000E+00 -0.00000000000E+00 -0.97487163815E+02  0.97487163815E+02  0.00000000000E+00 0. -1.
         -6    2    1    2    0  503 -0.85388535939E+01 -0.98370557700E+02  0.34377847442E+02  0.20192999828E+03  0.17275476598E+03 0.  0.
        -24    2    3    3    0    0 -0.16345861270E+02 -0.13690052744E+03  0.28246541619E+02  0.16186516523E+03  0.79959508545E+02 0.  0.
          6    2    1    2  501    0  0.85388535939E+01  0.98370557700E+02  0.70187684065E+03  0.72929901743E+03  0.17174480706E+03 0.  0.
         24    2    5    5    0    0  0.10215277536E+02 -0.12004176309E+02  0.21531251120E+03  0.23034778836E+03  0.80325425482E+02 0.  0.
          5    1    5    5  501    0 -0.16764239422E+01  0.11037473401E+03  0.48656432944E+03  0.49895122907E+03  0.47000000000E+01 0. -1.
        -11    1    6    6    0    0 -0.87516448149E+01 -0.28786329960E+02  0.19652398021E+03  0.19881377940E+03  0.00000000000E+00 0.  1.
         12    1    6    6    0    0  0.18966922351E+02  0.16782153651E+02  0.18788530990E+02  0.31534008965E+02  0.00000000000E+00 0. -1.
         -5    1    3    3    0  503  0.78070076760E+01  0.38529969738E+02  0.61313058226E+01  0.40064833058E+02  0.47000000000E+01 0.  1.
         13    1    4    4    0    0 -0.12083579214E+02 -0.14261907263E+02 -0.22345020986E+02  0.29132710967E+02  0.00000000000E+00 0. -1.
        -14    1    4    4    0    0 -0.42622820559E+01 -0.12263862018E+03  0.50591562605E+02  0.13273245426E+03  0.00000000000E+00 0.  1.
</event>
<event>
12    1  0.8488291E-002  0.2270146E+03  0.7818608E-02  0.1129935E+00
         21   -1    0    0  501  502  0.00000000000E+00  0.00000000000E+00  0.35262669977E+03  0.35262669977E+03  0.00000000000E+00 0. -1.
         21   -1    0    0  502  503 -0.00000000000E+00 -0.00000000000E+00 -0.15143683342E+03  0.15143683342E+03  0.00000000000E+00 0.  1.
         -6    2    1    2    0  503  0.32305024765E+02  0.12949753429E+03  0.36354759841E+02  0.22351721422E+03  0.17557064241E+03 0.  0.
        -24    2    3    3    0    0  0.27127726727E+02  0.10728765604E+03  0.90205393823E+02  0.16484810917E+03  0.82409534195E+02 0.  0.
          6    2    1    2  501    0 -0.32305024765E+02 -0.12949753429E+03  0.16483510650E+03  0.28054631897E+03  0.18363659423E+03 0.  0.
         24    2    5    5    0    0 -0.22296022405E+01 -0.81737509685E+01  0.92990217143E+01  0.80952844351E+02  0.79969430863E+02 0.  0.
          5    1    5    5  501    0 -0.30075422524E+02 -0.12132378332E+03  0.15553608479E+03  0.19959347462E+03  0.47000000000E+01 0. -1.
        -11    1    6    6    0    0  0.21975807936E+02 -0.49473509010E+01  0.37439958053E+02  0.43693968398E+02  0.00000000000E+00 0.  1.
         12    1    6    6    0    0 -0.24205410177E+02 -0.32264000675E+01 -0.28140936339E+02  0.37258875952E+02  0.00000000000E+00 0. -1.
         -5    1    3    3    0  503  0.51772980380E+01  0.22209878248E+02 -0.53850633982E+02  0.58669105047E+02  0.47000000000E+01 0.  1.
         11    1    4    4    0    0 -0.12826482247E+02 -0.37374664607E+01  0.28986249761E+02  0.31916923059E+02  0.00000000000E+00 0. -1.
        -12    1    4    4    0    0  0.39954208973E+02  0.11102512250E+03  0.61219144062E+02  0.13293118611E+03  0.00000000000E+00 0.  1.
</event>
<event>
12    1  0.8488291E-002  0.2047415E+03  0.7818608E-02  0.1146106E+00
         21   -1    0    0  503  502  0.00000000000E+00  0.00000000000E+00  0.54317397438E+03  0.54317397438E+03  0.00000000000E+00 0. -1.
         21   -1    0    0  501  503 -0.00000000000E+00 -0.00000000000E+00 -0.76619205787E+02  0.76619205787E+02  0.00000000000E+00 0. -1.
          6    2    1    2  501    0  0.80999264556E+02 -0.74818218489E+02  0.23126422935E+03  0.30887247650E+03  0.17251207578E+03 0.  0.
         24    2    3    3    0    0 -0.17760436039E+00 -0.57675709066E+02  0.19481061857E+03  0.21812830085E+03  0.79386771969E+02 0.  0.
         -6    2    1    2    0  502 -0.80999264556E+02  0.74818218489E+02  0.23529053925E+03  0.31092070367E+03  0.17073780903E+03 0.  0.
        -24    2    5    5    0    0 -0.23582951131E+02  0.67658124660E+02  0.58871372040E+02  0.12519587348E+03  0.84109398247E+02 0.  0.
          5    1    3    3  501    0  0.81176868916E+02 -0.17142509423E+02  0.36453610778E+02  0.90744175654E+02  0.47000000000E+01 0. -1.
        -11    1    4    4    0    0  0.31429690390E+02  0.90092855094E+00  0.67701078121E+02  0.74646319996E+02  0.00000000000E+00 0.  1.
         12    1    4    4    0    0 -0.31607294751E+02 -0.58576637617E+02  0.12710954045E+03  0.14348198085E+03  0.00000000000E+00 0. -1.
         -5    1    5    5    0  502 -0.57416313426E+02  0.71600938292E+01  0.17641916721E+03  0.18572483019E+03  0.47000000000E+01 0.  1.
         13    1    6    6    0    0 -0.45217937544E+02  0.74750874848E+02  0.50680718948E+02  0.10099945762E+03  0.00000000000E+00 0. -1.
        -14    1    6    6    0    0  0.21634986413E+02 -0.70927501883E+01  0.81906530922E+01  0.24196415859E+02  0.00000000000E+00 0.  1.
</event>
<event>
12    1  0.8488291E-002  0.1944996E+03  0.7818608E-02  0.1155550E+00
         21   -1    0    0  503  502  0.00000000000E+00  0.00000000000E+00  0.11941457813E+03  0.11941457813E+03  0.00000000000E+00 0. -1.
         21   -1    0    0  501  503 -0.00000000000E+00 -0.00000000000E+00 -0.31126054885E+03  0.31126054885E+03  0.00000000000E+00 0. -1.
          6    2    1    2  501    0 -0.55691284556E+02 -0.62167424345E+02 -0.11358314891E+03  0.22102022303E+03  0.17024247252E+03 0.  0.
         24    2    3    3    0    0 -0.47729965184E+01 -0.88689436833E+02 -0.35037445371E+02  0.12361587638E+03  0.78515378195E+02 0.  0.
         -6    2    1    2    0  502  0.55691284556E+02  0.62167424345E+02 -0.78262821808E+02  0.20965490394E+03  0.17568096552E+03 0.  0.
        -24    2    5    5    0    0  0.10070584029E+02  0.60023055418E+02  0.17281303990E+02  0.10365199545E+03  0.82103037997E+02 0.  0.
          5    1    3    3  501    0 -0.50918288038E+02  0.26522012488E+02 -0.78545703537E+02  0.97404346655E+02  0.47000000000E+01 0. -1.
        -11    1    4    4    0    0 -0.13053846704E+02  0.44449961109E+01 -0.26313498877E+02  0.29707930378E+02  0.00000000000E+00 0.  1.
         12    1    4    4    0    0  0.82808501852E+01 -0.93134432944E+02 -0.87239464938E+01  0.93907946000E+02  0.00000000000E+00 0. -1.
         -5    1    5    5    0  502  0.45620700527E+02  0.21443689268E+01 -0.95544125799E+02  0.10600290849E+03  0.47000000000E+01 0.  1.
         11    1    6    6    0    0  0.50341006378E+01  0.15560187728E+02 -0.32703072098E+02  0.36564361556E+02  0.00000000000E+00 0. -1.
        -12    1    6    6    0    0  0.50364833911E+01  0.44462867690E+02  0.49984376089E+02  0.67087633891E+02  0.00000000000E+00 0.  1.
</event>
<event>
12    1  0.8488291E-002  0.1755254E+03  0.7818608E-02  0.1172213E+00
         21   -1    0    0  501  502  0.00000000000E+00  0.00000000000E+00  0.10669819388E+04  0.10669819388E+04  0.00000000000E+00 0. -1.
         21   -1    0    0  502  503 -0.00000000000E+00 -0.00000000000E+00 -0.54364086982E+02  0.54364086982E+02  0.00000000000E+00 0. -1.
         -6    2    1    2    0  503  0.31128857842E+02 -0.18469699795E+02  0.12238426963E+03  0.21397917831E+03  0.17175285644E+03 0.  0.
        -24    2    3    3    0    0  0.65604452445E+02 -0.18481849677E+02  0.21780494154E+02  0.10752836144E+03  0.80264784565E+02 0.  0.
          6    2    1    2  501    0 -0.31128857842E+02  0.18469699795E+02  0.89023358221E+03  0.90736684749E+03  0.17172253620E+03 0.  0.
         24    2    5    5    0    0 -0.31444409286E+02 -0.22467756976E+02  0.24336796956E+03  0.25919003075E+03  0.80361386577E+02 0.  0.
          5    1    5    5  501    0  0.31555144398E+00  0.40937456771E+02  0.64686561265E+03  0.64817681674E+03  0.47000000000E+01 0. -1.
        -11    1    6    6    0    0  0.17560784101E+02 -0.43244155474E+01  0.15847050556E+03  0.15949916250E+03  0.00000000000E+00 0.  1.
         12    1    6    6    0    0 -0.49005193387E+02 -0.18143341428E+02  0.84897464003E+02  0.99690868244E+02  0.00000000000E+00 0. -1.
         -5    1    3    3    0  503 -0.34475594603E+02  0.12149882039E-01  0.10060377547E+03  0.10645081686E+03  0.47000000000E+01 0.  1.
         11    1    4    4    0    0 -0.45763633261E+01  0.46233295432E+01 -0.21113980434E+02  0.22093402796E+02  0.00000000000E+00 0. -1.
        -12    1    4    4    0    0  0.70180815771E+02 -0.23105179220E+02  0.42894474588E+02  0.85434958649E+02  0.00000000000E+00 0.  1.
</event>
<event>
12    1  0.8488291E-002  0.1928123E+03  0.7818608E-02  0.1156022E+00
         21   -1    0    0  503  502  0.00000000000E+00  0.00000000000E+00  0.31606862791E+02  0.31606862791E+02  0.00000000000E+00 0.  1.
         21   -1    0    0  501  503 -0.00000000000E+00 -0.00000000000E+00 -0.11866841509E+04  0.11866841509E+04  0.00000000000E+00 0.  1.
          6    2    1    2  501    0  0.17042278087E+02 -0.84998281068E+02 -0.64046775852E+03  0.66886137819E+03  0.17222498803E+03 0.  0.
         24    2    3    3    0    0 -0.63946446467E+01  0.16642846993E+02 -0.36363198520E+03  0.37298920367E+03  0.81085446057E+02 0.  0.
         -6    2    1    2    0  502 -0.17042278087E+02  0.84998281068E+02 -0.51460952960E+03  0.54942963551E+03  0.17185694458E+03 0.  0.
        -24    2    5    5    0    0 -0.47192768316E+02  0.55283350064E+02 -0.48686874572E+03  0.49859981871E+03  0.79228766796E+02 0.  0.
          5    1    3    3  501    0  0.23436922734E+02 -0.10164112806E+03 -0.27683577332E+03  0.29587217452E+03  0.47000000000E+01 0. -1.
        -13    1    4    4    0    0  0.88864969766E+01  0.63791499214E+01 -0.34978130519E+03  0.34995231796E+03  0.00000000000E+00 0.  1.
         14    1    4    4    0    0 -0.15281141623E+02  0.10263697071E+02 -0.13850680006E+02  0.23036885716E+02  0.00000000000E+00 0. -1.
         -5    1    5    5    0  502  0.30150490229E+02  0.29714931004E+02 -0.27740783882E+02  0.50829816801E+02  0.47000000000E+01 0.  1.
         11    1    6    6    0    0  0.69512341825E+01  0.50824584570E+01 -0.29828598523E+01  0.91130946185E+01  0.00000000000E+00 0. -1.
        -12    1    6    6    0    0 -0.54144002499E+02  0.50200891607E+02 -0.48388588586E+03  0.48948672409E+03  0.00000000000E+00 0.  1.
</event>
<event>
12    1  0.8488291E-002  0.1807060E+03  0.7818608E-02  0.1167785E+00
         21   -1    0    0  501  502  0.00000000000E+00  0.00000000000E+00  0.36090534453E+03  0.36090534453E+03  0.00000000000E+00 0. -1.
         21   -1    0    0  502  503 -0.00000000000E+00 -0.00000000000E+00 -0.92954071801E+02  0.92954071801E+02  0.00000000000E+00 0. -1.
         -6    2    1    2    0  503  0.21263538776E+02  0.36237412473E+02  0.18107105270E+03  0.25581516867E+03  0.17575376597E+03 0.  0.
        -24    2    3    3    0    0 -0.41689278826E+02 -0.24713948900E+02  0.11164692122E+03  0.14392269471E+03  0.76811013510E+02 0.  0.
          6    2    1    2  501    0 -0.21263538776E+02 -0.36237412473E+02  0.86880220026E+02  0.19804424766E+03  0.17293947859E+03 0.  0.
         24    2    5    5    0    0 -0.41653532612E+02 -0.85658508027E+02  0.55681618526E+02  0.13596656028E+03  0.79461098006E+02 0.  0.
          5    1    5    5  501    0  0.20389993836E+02  0.49421095554E+02  0.31198601500E+02  0.62077687376E+02  0.47000000000E+01 0. -1.
        -13    1    6    6    0    0 -0.11919488731E+02 -0.90271667419E+02  0.28483360000E+02  0.95406236416E+02  0.00000000000E+00 0.  1.
         14    1    6    6    0    0 -0.29734043881E+02  0.46131593920E+01  0.27198258526E+02  0.40560323864E+02  0.00000000000E+00 0. -1.
         -5    1    3    3    0  503  0.62952817601E+02  0.60951361373E+02  0.69424131488E+02  0.11189247397E+03  0.47000000000E+01 0.  1.
         13    1    4    4    0    0 -0.46221869448E+01 -0.43772145776E+02  0.81007011496E+02  0.92192739787E+02  0.00000000000E+00 0. -1.
        -14    1    4    4    0    0 -0.37067091881E+02  0.19058196876E+02  0.30639909719E+02  0.51729954922E+02  0.00000000000E+00 0.  1.
</event>
<event>
12    1  0.8488291E-002  0.2128054E+03  0.7818608E-02  0.1139755E+00
         21   -1    0    0  503  502  0.00000000000E+00  0.00000000000E+00  0.34750971630E+03  0.34750971630E+03  0.00000000000E+00 0.  1.
         21   -1    0    0  501  503 -0.00000000000E+00 -0.00000000000E+00 -0.12909469231E+03  0.12909469231E+03  0.00000000000E+00 0.  1.
          6    2    1    2  501    0  0.11675967257E+03 -0.43008589285E+02  0.11040170614E+03  0.23973873653E+03  0.17263709098E+03 0.  0.
         24    2    3    3    0    0  0.79121158093E+02  0.42467431058E+02  0.65141875901E+02  0.13584768754E+03  0.78405929979E+02 0.  0.
         -6    2    1    2    0  502 -0.11675967257E+03  0.43008589285E+02  0.10801331785E+03  0.23686567208E+03  0.17016436139E+03 0.  0.
        -24    2    5    5    0    0 -0.20535204081E+02  0.33356282816E+01  0.10287974632E+03  0.13255107230E+03  0.80948894640E+02 0.  0.
          5    1    3    3  501    0  0.37638514477E+02 -0.85476020343E+02  0.45259830241E+02  0.10389104899E+03  0.47000000000E+01 0. -1.
        -13    1    4    4    0    0 -0.24409033740E+00  0.24702880492E+02 -0.85064472110E+01  0.26127600901E+02  0.00000000000E+00 0.  1.
         14    1    4    4    0    0  0.79365248431E+02  0.17764550566E+02  0.73648323112E+02  0.10972008664E+03  0.00000000000E+00 0. -1.
         -5    1    5    5    0  502 -0.96224468489E+02  0.39672961004E+02  0.51335715272E+01  0.10431459978E+03  0.47000000000E+01 0.  1.
         11    1    6    6    0    0  0.12204412014E+02 -0.31206713340E+02  0.27236986256E+02  0.43181709675E+02  0.00000000000E+00 0. -1.
        -12    1    6    6    0    0 -0.32739616096E+02  0.34542341621E+02  0.75642760063E+02  0.89369362629E+02  0.00000000000E+00 0.  1.
</event>
<event>
12    1  0.8488291E-002  0.2417634E+03  0.7818608E-02  0.1119689E+00
         21   -1    0    0  503  502  0.00000000000E+00  0.00000000000E+00  0.51922893487E+03  0.51922893487E+03  0.00000000000E+00 0. -1.
         21   -1    0    0  501  503 -0.00000000000E+00 -0.00000000000E+00 -0.17483997557E+03  0.17483997557E+03  0.00000000000E+00 0.  1.
          6    2    1    2  501    0  0.15236807722E+03 -0.22366002877E+02 -0.38298911426E+02  0.24477816114E+03  0.18636864681E+03 0.  0.
         24    2    3    3    0    0  0.31183064493E+02  0.28772028171E+02  0.30374362997E+02  0.96322732985E+02  0.80964522143E+02 0.  0.
         -6    2    1    2    0  502 -0.15236807722E+03  0.22366002877E+02  0.38268787073E+03  0.44929074930E+03  0.17803342935E+03 0.  0.
        -24    2    5    5    0    0 -0.37063367411E+02 -0.48720742198E+02  0.13108697751E+03  0.16350481386E+03  0.76174960180E+02 0.  0.
          5    1    3    3  501    0  0.12118501272E+03 -0.51138031048E+02 -0.68673274422E+02  0.14845542815E+03  0.47000000000E+01 0. -1.
        -11    1    4    4    0    0  0.74082012458E+01 -0.22429856338E+02 -0.11269608640E+02  0.26172198607E+02  0.00000000000E+00 0.  1.
         12    1    4    4    0    0  0.23774863247E+02  0.51201884509E+02  0.41643971637E+02  0.70150534377E+02  0.00000000000E+00 0. -1.
         -5    1    5    5    0  502 -0.11530470981E+03  0.71086745074E+02  0.25160089322E+03  0.28578593545E+03  0.47000000000E+01 0.  1.
         11    1    6    6    0    0 -0.51506429768E+02 -0.29748597203E+02  0.12569588225E+03  0.13905878669E+03  0.00000000000E+00 0. -1.
        -12    1    6    6    0    0  0.14443062358E+02 -0.18972144995E+02  0.53910952608E+01  0.24446027163E+02  0.00000000000E+00 0.  1.
</event>
<event>
12    1  0.8488291E-002  0.1874468E+03  0.7818608E-02  0.1161716E+00
         21   -1    0    0  503  502  0.00000000000E+00  0.00000000000E+00  0.44894622020E+03  0.44894622020E+03  0.00000000000E+00 0. -1.
         21   -1    0    0  501  503 -0.00000000000E+00 -0.00000000000E+00 -0.29303039601E+03  0.29303039601E+03  0.00000000000E+00 0. -1.
          6    2    1    2  501    0  0.71796679920E+02 -0.10498321878E+02 -0.24065111238E+03  0.30503979460E+03  0.17283327339E+03 0.  0.
         24    2    3    3    0    0  0.41497616029E+02 -0.70799671733E+02 -0.18517875094E+03  0.21755517337E+03  0.79400491239E+02 0.  0.
         -6    2    1    2    0  502 -0.71796679920E+02  0.10498321878E+02  0.39656693657E+03  0.43693682161E+03  0.16847395313E+03 0.  0.
        -24    2    5    5    0    0 -0.31056617378E+02 -0.32846636042E+02  0.10237919002E+03  0.13675844415E+03  0.78599990550E+02 0.  0.
          5    1    3    3  501    0  0.30299063891E+02  0.60301349855E+02 -0.55472361445E+02  0.87484621227E+02  0.47000000000E+01 0. -1.
        -11    1    4    4    0    0 -0.15862969585E+02 -0.14788142624E+02 -0.92516190234E+02  0.95024041283E+02  0.00000000000E+00 0.  1.
         12    1    4    4    0    0  0.57360585614E+02 -0.56011529110E+02 -0.92662560701E+02  0.12253113209E+03  0.00000000000E+00 0. -1.
         -5    1    5    5    0  502 -0.40740062541E+02  0.43344957920E+02  0.29418774655E+03  0.30017837745E+03  0.47000000000E+01 0.  1.
         13    1    6    6    0    0 -0.37917627711E+02 -0.13093486502E+02  0.10791305818E+03  0.11512781595E+03  0.00000000000E+00 0. -1.
        -14    1    6    6    0    0  0.68610103333E+01 -0.19753149540E+02 -0.55338681558E+01  0.21630628200E+02  0.00000000000E+00 0.  1.
</event>
<event>
12    1  0.8488291E-002  0.2385558E+03  0.7818608E-02  0.1120977E+00
         21   -1    0    0  503  502  0.00000000000E+00  0.00000000000E+00  0.78733127713E+03  0.78733127713E+03  0.00000000000E+00 0. -1.
         21   -1    0    0  501  503 -0.00000000000E+00 -0.00000000000E+00 -0.13250264438E+03  0.13250264438E+03  0.00000000000E+00 0.  1.
          6    2    1    2  501    0  0.14090583234E+03  0.85334476445E+02  0.16830600321E+02  0.23914882851E+03  0.17254699828E+03 0.  0.
         24    2    3    3    0    0  0.10803714662E+03  0.30790891077E+02 -0.49799661063E+02  0.14686104526E+03  0.80424227380E+02 0.  0.
         -6    2    1    2    0  502 -0.14090583234E+03 -0.85334476445E+02  0.63799803243E+03  0.68068509300E+03  0.17074624445E+03 0.  0.
        -24    2    5    5    0    0 -0.35035449678E+02 -0.68214899484E+02  0.19417572256E+03  0.22406495484E+03  0.81364227450E+02 0.  0.
          5    1    3    3  501    0  0.32868685715E+02  0.54543585369E+02  0.66630261383E+02  0.92287783251E+02  0.47000000000E+01 0. -1.
        -11    1    4    4    0    0  0.45041943749E+02 -0.23159338779E+02 -0.10556549812E+01  0.50658129425E+02  0.00000000000E+00 0.  1.
         12    1    4    4    0    0  0.62995202875E+02  0.53950229856E+02 -0.48744006081E+02  0.96202915837E+02  0.00000000000E+00 0. -1.
         -5    1    5    5    0  502 -0.10587038266E+03 -0.17119576961E+02  0.44382230986E+03  0.45662013816E+03  0.47000000000E+01 0.  1.
         11    1    6    6    0    0 -0.32578714651E+02 -0.74233283562E+02  0.19970433135E+03  0.21553137358E+03  0.00000000000E+00 0. -1.
        -12    1    6    6    0    0 -0.24567350270E+01  0.60183840777E+01 -0.55286087914E+01  0.85335812569E+01  0.00000000000E+00 0.  1.
</event>
<event>
12    1  0.8488291E-002  0.2209737E+03  0.7818608E-02  0.1134106E+00
         21   -1    0    0  501  502  0.00000000000E+00  0.00000000000E+00  0.21291254449E+04  0.21291254449E+04  0.00000000000E+00 0. -1.
         21   -1    0    0  502  503 -0.00000000000E+00 -0.00000000000E+00 -0.52703062650E+02  0.52703062650E+02  0.00000000000E+00 0. -1.
         -6    2    1    2    0  503  0.21663235283E+02 -0.12954161160E+03  0.20610403365E+03  0.29850163434E+03  0.17138852971E+03 0.  0.
        -24    2    3    3    0    0  0.53964636447E+02 -0.55198329886E+02  0.47511884422E+02  0.12033355681E+03  0.79143844510E+02 0.  0.
          6    2    1    2  501    0 -0.21663235283E+02  0.12954161160E+03  0.18703183486E+04  0.18833268732E+04  0.17770498404E+03 0.  0.
         24    2    5    5    0    0  0.12107702942E+02  0.13808662771E+03  0.10472262978E+04  0.10594845900E+04  0.81302917262E+02 0.  0.
          5    1    5    5  501    0 -0.33770938225E+02 -0.85450161068E+01  0.82309205082E+03  0.82384228327E+03  0.47000000000E+01 0. -1.
        -11    1    6    6    0    0 -0.13651575160E+01  0.94224772262E+02  0.41361384564E+03  0.42421290017E+03  0.00000000000E+00 0.  1.
         12    1    6    6    0    0  0.13472860458E+02  0.43861855448E+02  0.63361245214E+03  0.63527168978E+03  0.00000000000E+00 0. -1.
         -5    1    3    3    0  503 -0.32301401164E+02 -0.74343281717E+02  0.15859214923E+03  0.17816807753E+03  0.47000000000E+01 0.  1.
         13    1    4    4    0    0  0.13785544175E+02 -0.67162551604E+02  0.31574790864E+02  0.75483885593E+02  0.00000000000E+00 0. -1.
        -14    1    4    4    0    0  0.40179092271E+02  0.11964221718E+02  0.15937093558E+02  0.44849671216E+02  0.00000000000E+00 0.  1.
</event>
<event>
12    1  0.8488291E-002  0.1786569E+03  0.7818608E-02  0.1169652E+00
         21   -1    0    0  501  502  0.00000000000E+00  0.00000000000E+00  0.20454099125E+03  0.20454099125E+03  0.00000000000E+00 0.  1.
         21   -1    0    0  502  503 -0.00000000000E+00 -0.00000000000E+00 -0.34746794072E+03  0.34746794072E+03  0.00000000000E+00 0.  1.
         -6    2    1    2    0  503  0.15766245392E+02 -0.43888292121E+02 -0.27714815880E+03  0.32855062407E+03  0.17017536241E+03 0.  0.
        -24    2    3    3    0    0  0.40536524547E+02 -0.86012497593E+02 -0.22693351705E+03  0.25832516101E+03  0.78687407409E+02 0.  0.
          6    2    1    2  501    0 -0.15766245392E+02  0.43888292121E+02  0.13422120933E+03  0.22345830790E+03  0.17246311391E+03 0.  0.
         24    2    5    5    0    0 -0.30182884592E+01 -0.36773426015E+02  0.10536303504E+03  0.13671900077E+03  0.78926048254E+02 0.  0.
          5    1    5    5  501    0 -0.12747956933E+02  0.80661718136E+02  0.28858174289E+02  0.86739307133E+02  0.47000000000E+01 0. -1.
        -11    1    6    6    0    0 -0.40762019899E+02 -0.22617614052E+02  0.51900773958E+02  0.69762375742E+02  0.00000000000E+00 0.  1.
         12    1    6    6    0    0  0.37743731440E+02 -0.14155811963E+02  0.53462261080E+02  0.66956625028E+02  0.00000000000E+00 0. -1.
         -5    1    3    3    0  503 -0.24770279155E+02  0.42124205472E+02 -0.50214641751E+02  0.70225463062E+02  0.47000000000E+01 0.  1.
         11    1    4    4    0    0 -0.44790075131E+01 -0.25563374703E+02 -0.85867747954E+01  0.27336428733E+02  0.00000000000E+00 0. -1.
        -12    1    4    4    0    0  0.45015532060E+02 -0.60449122890E+02 -0.21834674225E+03  0.23098873227E+03  0.00000000000E+00 0.  1.
</event>
<event>
12    1  0.8488291E-002  0.1904142E+03  0.7818608E-02  0.1158332E+00
         21   -1    0    0  503  502  0.00000000000E+00  0.00000000000E+00  0.15147157361E+04  0.15147157361E+04  0.00000000000E+00 0.  1.
         21   -1    0    0  501  503 -0.00000000000E+00 -0.00000000000E+00 -0.76408431472E+02  0.76408431472E+02  0.00000000000E+00 0.  1.
          6    2    1    2  501    0  0.10108864843E+02  0.81454864705E+02  0.59667221944E+02  0.19954385693E+03  0.17181527677E+03 0.  0.
         24    2    3    3    0    0  0.67718546712E+02  0.44415870734E+02  0.63836511430E+02  0.13076714943E+03  0.80413780142E+02 0.  0.
         -6    2    1    2    0  502 -0.10108864843E+02 -0.81454864705E+02  0.13786400827E+04  0.13915803107E+04  0.17061711303E+03 0.  0.
        -24    2    5    5    0    0  0.35830571187E+02 -0.78428349002E+02  0.12388198614E+04  0.12443003871E+04  0.78574606253E+02 0.  0.
          5    1    3    3  501    0 -0.57609681869E+02  0.37038993971E+02 -0.41692894865E+01  0.68776707498E+02  0.47000000000E+01 0. -1.
        -11    1    4    4    0    0  0.39347636954E+02 -0.19471646819E+02  0.19893198484E+02  0.48198764607E+02  0.00000000000E+00 0.  1.
         12    1    4    4    0    0  0.28370909757E+02  0.63887517553E+02  0.43943312947E+02  0.82568384823E+02  0.00000000000E+00 0. -1.
         -5    1    5    5    0  502 -0.45939436030E+02 -0.30265157033E+01  0.13982022134E+03  0.14727992353E+03  0.47000000000E+01 0.  1.
         13    1    6    6    0    0  0.20740378979E+00  0.98237991838E+01  0.26710207995E+02  0.28460239948E+02  0.00000000000E+00 0. -1.
        -14    1    6    6    0    0  0.35623167397E+02 -0.88252148186E+02  0.12121096534E+04  0.12158401472E+04  0.00000000000E+00 0.  1.
</event>
<event>
12    1  0.8488291E-002  0.1746146E+03  0.7818608E-02  0.1173397E+00
         21   -1    0    0  501  502  0.00000000000E+00  0.00000000000E+00  0.39557581242E+03  0.39557581242E+03  0.00000000000E+00 0. -1.
         21   -1    0    0  502  503 -0.00000000000E+00 -0.00000000000E+00 -0.85245596265E+02  0.85245596265E+02  0.00000000000E+00 0. -1.
         -6    2    1    2    0  503  0.23325535351E+02  0.23665916571E+02  0.79016539571E+02  0.19166083551E+03  0.17142376188E+03 0.  0.
        -24    2    3    3    0    0 -0.43160650378E+02  0.28917279334E+02  0.45058124880E+01  0.91551254783E+02  0.75248117060E+02 0.  0.
          6    2    1    2  501    0 -0.23325535351E+02 -0.23665916571E+02  0.23131367658E+03  0.28916057317E+03  0.17030462089E+03 0.  0.
         24    2    5    5    0    0  0.42155973221E+02 -0.11246449352E+01  0.71179246691E+02  0.11462959446E+03  0.79341463704E+02 0.  0.
          5    1    5    5  501    0 -0.65481508572E+02 -0.22541271636E+02  0.16013442989E+03  0.17453097871E+03  0.47000000000E+01 0. -1.
        -11    1    6    6    0    0 -0.32080954209E+01 -0.32106604732E+02  0.13501987085E+02  0.34977558504E+02  0.00000000000E+00 0.  1.
         12    1    6    6    0    0  0.45364068642E+02  0.30981959797E+02  0.57677259606E+02  0.79652035958E+02  0.00000000000E+00 0. -1.
         -5    1    3    3    0  503  0.66486185729E+02 -0.52513627628E+01  0.74510727083E+02  0.10010958073E+03  0.47000000000E+01 0.  1.
         13    1    4    4    0    0  0.82970924104E+01  0.37748976700E+02  0.70121193983E+01  0.39280997987E+02  0.00000000000E+00 0. -1.
        -14    1    4    4    0    0 -0.51457742788E+02 -0.88316973664E+01 -0.25063069103E+01  0.52270256796E+02  0.00000000000E+00 0.  1.
</event>
<event>
12    1  0.8488291E-002  0.1984188E+03  0.7818608E-02  0.1151367E+00
         21   -1    0    0  503  502  0.00000000000E+00  0.00000000000E+00  0.39012032068E+02  0.39012032068E+02  0.00000000000E+00 0.  1.
         21   -1    0    0  501  503 -0.00000000000E+00 -0.00000000000E+00 -0.15177209588E+04  0.15177209588E+04  0.00000000000E+00 0. -1.
          6    2    1    2  501    0 -0.23381220009E+02  0.94280910955E+02 -0.28744227147E+03  0.34927509575E+03  0.17301578386E+03 0.  0.
         24    2    3    3    0    0 -0.36563993189E+01  0.25368993019E+02 -0.40543033987E+02  0.92138469706E+02  0.78668957869E+02 0.  0.
         -6    2    1    2    0  502  0.23381220009E+02 -0.94280910955E+02 -0.11912666553E+04  0.12074578951E+04  0.17147230947E+03 0.  0.
        -24    2    5    5    0    0  0.76120466917E+02 -0.31222445962E+02 -0.68257327274E+03  0.69214357784E+03  0.79920542185E+02 0.  0.
          5    1    3    3  501    0 -0.19724820690E+02  0.68911917936E+02 -0.24689923748E+03  0.25713662605E+03  0.47000000000E+01 0. -1.
        -11    1    4    4    0    0 -0.86770639998E+01  0.34443367968E+02  0.12831176706E+02  0.37766071179E+02  0.00000000000E+00 0.  1.
         12    1    4    4    0    0  0.50206646809E+01 -0.90743749488E+01 -0.53374210693E+02  0.54372398528E+02  0.00000000000E+00 0. -1.
         -5    1    5    5    0  502 -0.52739246908E+02 -0.63058464994E+02 -0.50869338252E+03  0.51531431727E+03  0.47000000000E+01 0.  1.
         11    1    6    6    0    0  0.41747569196E+02 -0.52977146907E+02 -0.30409365265E+03  0.31148416847E+03  0.00000000000E+00 0. -1.
        -12    1    6    6    0    0  0.34372897721E+02  0.21754700945E+02 -0.37847962010E+03  0.38065940937E+03  0.00000000000E+00 0.  1.
</event>
<event>
12    1  0.8488291E-002  0.2292651E+03  0.7818608E-02  0.1128206E+00
         21   -1    0    0  501  502  0.00000000000E+00  0.00000000000E+00  0.36991783284E+02  0.36991783284E+02  0.00000000000E+00 0.  1.
         21   -1    0    0  502  503 -0.00000000000E+00 -0.00000000000E+00 -0.13932586337E+04  0.13932586337E+04  0.00000000000E+00 0. -1.
         -6    2    1    2    0  503 -0.75786504921E+02 -0.12910258605E+03 -0.74219345729E+03  0.77679702844E+03  0.17364165196E+03 0.  0.
        -24    2    3    3    0    0 -0.93376062336E+02 -0.11617452508E+03 -0.73375782973E+03  0.75292702419E+03  0.79265009768E+02 0.  0.
          6    2    1    2  501    0  0.75786504921E+02  0.12910258605E+03 -0.61407339318E+03  0.65345338860E+03  0.16584368184E+03 0.  0.
         24    2    5    5    0    0  0.10298243857E+03  0.66536752875E+02 -0.49666714988E+03  0.51758426681E+03  0.78630104595E+02 0.  0.
          5    1    5    5  501    0 -0.27195933654E+02  0.62565833173E+02 -0.11740624330E+03  0.13586912178E+03  0.47000000000E+01 0. -1.
        -13    1    6    6    0    0 -0.11250078297E+02  0.12090737508E+02 -0.32214609178E+02  0.36201260194E+02  0.00000000000E+00 0.  1.
         14    1    6    6    0    0  0.11423251687E+03  0.54446015367E+02 -0.46445254070E+03  0.48138300662E+03  0.00000000000E+00 0. -1.
         -5    1    3    3    0  503  0.17589557415E+02 -0.12928060964E+02 -0.84356275585E+01  0.23870004245E+02  0.47000000000E+01 0.  1.
         11    1    4    4    0    0 -0.64126144424E+02 -0.24584259947E+02 -0.38887589775E+03  0.39489367188E+03  0.00000000000E+00 0. -1.
        -12    1    4    4    0    0 -0.29249917912E+02 -0.91590265136E+02 -0.34488193198E+03  0.35803335232E+03  0.00000000000E+00 0.  1.
</event>
<event>
12    1  0.8488291E-002  0.2380379E+03  0.7818608E-02  0.1121465E+00
         21   -1    0    0  503  502  0.00000000000E+00  0.00000000000E+00  0.44298124725E+03  0.44298124725E+03  0.00000000000E+00 0. -1.
         21   -1    0    0  501  503 -0.00000000000E+00 -0.00000000000E+00 -0.19936050389E+03  0.19936050389E+03  0.00000000000E+00 0.  1.
          6    2    1    2  501    0  0.14107684285E+03 -0.80852427130E+02 -0.72328318664E+02  0.24675883024E+03  0.17093491177E+03 0.  0.
         24    2    3    3    0    0  0.12495109823E+03  0.38476397652E+01 -0.57916344762E+02  0.15921492147E+03  0.79796660003E+02 0.  0.
         -6    2    1    2    0  502 -0.14107684285E+03  0.80852427130E+02  0.31594906202E+03  0.39558292089E+03  0.17384546858E+03 0.  0.
        -24    2    5    5    0    0 -0.16505098155E+03  0.38880210173E+02  0.27017190376E+03  0.32884414250E+03  0.79950704944E+02 0.  0.
          5    1    3    3  501    0  0.16125744616E+02 -0.84700066896E+02 -0.14411973902E+02  0.87543908773E+02  0.47000000000E+01 0. -1.
        -11    1    4    4    0    0  0.15594485808E+02  0.30806595136E+02 -0.54220186106E+01  0.34951860856E+02  0.00000000000E+00 0.  1.
         12    1    4    4    0    0  0.10935661242E+03 -0.26958955371E+02 -0.52494326152E+02  0.12426306062E+03  0.00000000000E+00 0. -1.
         -5    1    5    5    0  502  0.23974138698E+02  0.41972216958E+02  0.45777158257E+02  0.66738778388E+02  0.47000000000E+01 0.  1.
         13    1    6    6    0    0 -0.35518904206E+02  0.21434701647E+02  0.13323294576E+03  0.13954231196E+03  0.00000000000E+00 0. -1.
        -14    1    6    6    0    0 -0.12953207734E+03  0.17445508526E+02  0.13693895801E+03  0.18930183055E+03  0.00000000000E+00 0.  1.
</event>
<event>
12    1  0.8488291E-002  0.2166691E+03  0.7818608E-02  0.1136723E+00
         21   -1    0    0  503  502  0.00000000000E+00  0.00000000000E+00  0.84255261308E+02  0.84255261308E+02  0.00000000000E+00 0. -1.
         21   -1    0    0  501  503 -0.00000000000E+00 -0.00000000000E+00 -0.64767849022E+03  0.64767849022E+03  0.00000000000E+00 0.  1.
          6    2    1    2  501    0 -0.29467756040E+02 -0.12727602878E+03 -0.42087223497E+03  0.47257632557E+03  0.17066753988E+03 0.  0.
         24    2    3    3    0    0 -0.53978319359E+02 -0.15039189774E+03 -0.37696007167E+03  0.41702923566E+03  0.79266045014E+02 0.  0.
         -6    2    1    2    0  502  0.29467756040E+02  0.12727602878E+03 -0.14255099394E+03  0.25935742596E+03  0.17285240056E+03 0.  0.
        -24    2    5    5    0    0 -0.25675368841E+02  0.11840677732E+03 -0.52294499928E+02  0.15311359059E+03  0.77650933149E+02 0.  0.
          5    1    3    3  501    0  0.24510563319E+02  0.23115868957E+02 -0.43912163305E+02  0.55547089914E+02  0.47000000000E+01 0. -1.
        -13    1    4    4    0    0 -0.46127451416E+01  0.82667687160E+00 -0.80088732752E+02  0.80225718608E+02  0.00000000000E+00 0.  1.
         14    1    4    4    0    0 -0.49365574217E+02 -0.15121857461E+03 -0.29687133892E+03  0.33680351705E+03  0.00000000000E+00 0. -1.
         -5    1    5    5    0  502  0.55143124881E+02  0.88692514544E+01 -0.90256494008E+02  0.10624383537E+03  0.47000000000E+01 0.  1.
         11    1    6    6    0    0 -0.39656327373E+01  0.86290307153E+02 -0.69336924089E+02  0.11076710881E+03  0.00000000000E+00 0. -1.
        -12    1    6    6    0    0 -0.21709736104E+02  0.32116470172E+02  0.17042424161E+02  0.42346481781E+02  0.00000000000E+00 0.  1.
</event>
<event>
12    1  0.8488291E-002  0.2178184E+03  0.7818608E-02  0.1135731E+00
         21   -1    0    0  503  502  0.00000000000E+00  0.00000000000E+00  0.70264851417E+02  0.70264851417E+02  0.00000000000E+00 0.  1.
         21   -1    0    0  501  503 -0.00000000000E+00 -0.00000000000E+00 -0.87973528696E+03  0.87973528696E+03  0.00000000000E+00 0.  1.
          6    2    1    2  501    0  0.13042522572E+03  0.26660631608E+02 -0.63646468915E+03  0.67270511241E+03  0.17240457922E+03 0.  0.
         24    2    3    3    0    0  0.49341808278E+02  0.47534973915E+02 -0.51028417519E+03  0.52119976314E+03  0.81025094037E+02 0.  0.
         -6    2    1    2    0  502 -0.13042522572E+03 -0.26660631608E+02 -0.17300574639E+03  0.27729502597E+03  0.17099711799E+03 0.  0.
        -24    2    5    5    0    0 -0.13874382560E+03  0.25835132724E+02 -0.14301477964E+03  0.21608593789E+03  0.79514791913E+02 0.  0.
          5    1    3    3  501    0  0.81083417444E+02 -0.20874342307E+02 -0.12618051396E+03  0.15150534926E+03  0.47000000000E+01 0. -1.
        -13    1    4    4    0    0  0.61674919854E+02  0.46780166743E+02 -0.27768660225E+03  0.28827422501E+03  0.00000000000E+00 0.  1.
         14    1    4    4    0    0 -0.12333111576E+02  0.75480717249E+00 -0.23259757294E+03  0.23292553813E+03  0.00000000000E+00 0. -1.
         -5    1    5    5    0  502  0.83185998814E+01 -0.52495764333E+02 -0.29990966752E+02  0.61209088080E+02  0.47000000000E+01 0.  1.
         13    1    6    6    0    0 -0.42633906174E+02  0.44768756546E+02 -0.73106409677E+02  0.95741520012E+02  0.00000000000E+00 0. -1.
        -14    1    6    6    0    0 -0.96109919430E+02 -0.18933623822E+02 -0.69908369961E+02  0.12034441788E+03  0.00000000000E+00 0.  1.
</event>
<event>
12    1  0.8488291E-002  0.2030941E+03  0.7818608E-02  0.1147530E+00
         21   -1    0    0  503  502  0.00000000000E+00  0.00000000000E+00  0.42117804925E+03  0.42117804925E+03  0.00000000000E+00 0.  1.
         21   -1    0    0  501  503 -0.00000000000E+00 -0.00000000000E+00 -0.10409025807E+03  0.10409025807E+03  0.00000000000E+00 0. -1.
          6    2    1    2  501    0  0.76504155270E+02  0.71793067569E+02  0.90963722197E+02  0.22253448891E+03  0.17389672129E+03 0.  0.
         24    2    3    3    0    0 -0.23876990085E+02  0.23578811116E+02  0.65600859793E+02  0.10822633672E+03  0.79267875997E+02 0.  0.
         -6    2    1    2    0  502 -0.76504155270E+02 -0.71793067569E+02  0.22612406898E+03  0.30273381840E+03  0.17178049921E+03 0.  0.
        -24    2    5    5    0    0 -0.41144168790E+02  0.25820227791E+02  0.14476220290E+03  0.17074697312E+03  0.76412738819E+02 0.  0.
          5    1    3    3  501    0  0.10038114535E+03  0.48214256453E+02  0.25362862404E+02  0.11430815219E+03  0.47000000000E+01 0. -1.
        -13    1    4    4    0    0 -0.19199058863E+02  0.37691330420E+02  0.13958942094E+01  0.42322438147E+02  0.00000000000E+00 0.  1.
         14    1    4    4    0    0 -0.46779312223E+01 -0.14112519303E+02  0.64204965583E+02  0.65903898573E+02  0.00000000000E+00 0. -1.
         -5    1    5    5    0  502 -0.35359986480E+02 -0.97613295361E+02  0.81361866085E+02  0.13198684528E+03  0.47000000000E+01 0.  1.
         11    1    6    6    0    0  0.18818382290E+02  0.10810482741E+02  0.13236798542E+02  0.25420678290E+02  0.00000000000E+00 0. -1.
        -12    1    6    6    0    0 -0.59962551080E+02  0.15009745051E+02  0.13152540435E+03  0.14532629483E+03  0.00000000000E+00 0.  1.
</event>
<event>
12    1  0.8488291E-002  0.2240540E+03  0.7818608E-02  0.1130904E+00
         21   -1    0    0  503  502  0.00000000000E+00  0.00000000000E+00  0.12420175936E+04  0.12420175936E+04  0.00000000000E+00 0.  1.
         21   -1    0    0  501  503 -0.00000000000E+00 -0.00000000000E+00 -0.64641042714E+02  0.64641042714E+02  0.00000000000E+00 0. -1.
          6    2    1    2  501    0 -0.14309376614E+03  0.11654760469E+02  0.18865347159E+03  0.29286697306E+03  0.17195718134E+03 0.  0.
         24    2    3    3    0    0 -0.37374625975E+02  0.50648871304E+02  0.13239185489E+03  0.16683310145E+03  0.79646152879E+02 0.  0.
         -6    2    1    2    0  502  0.14309376614E+03 -0.11654760469E+02  0.98872307925E+03  0.10137916632E+04  0.17201322506E+03 0.  0.
        -24    2    5    5    0    0  0.14302157626E+03 -0.83850330984E+01  0.99316590479E+03  0.10065442480E+04  0.78913425306E+02 0.  0.
          5    1    3    3  501    0 -0.10571914017E+03 -0.38994110835E+02  0.56261616696E+02  0.12603387160E+03  0.47000000000E+01 0. -1.
        -11    1    4    4    0    0 -0.26007333873E+02  0.22215842906E+02  0.13184247738E+03  0.13620706271E+03  0.00000000000E+00 0.  1.
         12    1    4    4    0    0 -0.11367292102E+02  0.28433028398E+02  0.54937751542E+00  0.30626038746E+02  0.00000000000E+00 0. -1.
         -5    1    5    5    0  502  0.72189886307E-01 -0.32697273705E+01 -0.44428255365E+01  0.72474152085E+01  0.47000000000E+01 0.  1.
         13    1    6    6    0    0  0.34424268892E+02  0.69449996455E+01  0.87846557482E+02  0.94605924605E+02  0.00000000000E+00 0. -1.
        -14    1    6    6    0    0  0.10859730737E+03 -0.15330032744E+02  0.90531934731E+03  0.91193832339E+03  0.00000000000E+00 0.  1.
</event>
<event>
12    1  0.8488291E-002  0.2012095E+03  0.7818608E-02  0.1149093E+00
         21   -1    0    0  503  502  0.00000000000E+00  0.00000000000E+00  0.37892367723E+03  0.37892367723E+03  0.00000000000E+00 0.  1.
         21   -1    0    0  501  503 -0.00000000000E+00 -0.00000000000E+00 -0.23385717660E+03  0.23385717660E+03  0.00000000000E+00 0.  1.
          6    2    1    2  501    0  0.43948902784E+02  0.93642018512E+02 -0.15395135982E+03  0.25335010143E+03  0.17258307859E+03 0.  0.
         24    2    3    3    0    0  0.19206546341E+01  0.65482014929E+02 -0.13709805590E+02  0.10418863530E+03  0.79848166935E+02 0.  0.
         -6    2    1    2    0  502 -0.43948902784E+02 -0.93642018512E+02  0.29901786044E+03  0.35943075240E+03  0.17052404881E+03 0.  0.
        -24    2    5    5    0    0 -0.40541263138E+02  0.56979938220E+01  0.86158821620E+02  0.12446030646E+03  0.79943506244E+02 0.  0.
          5    1    3    3  501    0  0.42028248149E+02  0.28160003583E+02 -0.14024155423E+03  0.14916146613E+03  0.47000000000E+01 0. -1.
        -13    1    4    4    0    0  0.16623322023E+02  0.39254953285E+01 -0.33731169098E+02  0.37809206781E+02  0.00000000000E+00 0.  1.
         14    1    4    4    0    0 -0.14702667389E+02  0.61556519601E+02  0.20021363509E+02  0.66379428519E+02  0.00000000000E+00 0. -1.
         -5    1    5    5    0  502 -0.34076396454E+01 -0.99340012334E+02  0.21285903882E+03  0.23497044595E+03  0.47000000000E+01 0.  1.
         13    1    6    6    0    0 -0.30580155148E+02 -0.15725762178E+02  0.93578438253E+02  0.99696387050E+02  0.00000000000E+00 0. -1.
        -14    1    6    6    0    0 -0.99611079896E+01  0.21423756000E+02 -0.74196166326E+01  0.24763919410E+02  0.00000000000E+00 0.  1.
</event>
<event>
12    1  0.8488291E-002  0.2004912E+03  0.7818608E-02  0.1149735E+00
         21   -1    0    0  501  502  0.00000000000E+00  0.00000000000E+00  0.87379056698E+02  0.87379056698E+02  0.00000000000E+00 0. -1.
         21   -1    0    0  502  503 -0.00000000000E+00 -0.00000000000E+00 -0.49073335690E+03  0.49073335690E+03  0.00000000000E+00 0. -1.
         -6    2    1    2    0  503 -0.95407974231E+02 -0.28423315892E+02 -0.27811803543E+03  0.34172108412E+03  0.17179374630E+03 0.  0.
        -24    2    3    3    0    0 -0.12008107178E+02  0.17138084979E+02 -0.20819241896E+03  0.22364034516E+03  0.78949427341E+02 0.  0.
          6    2    1    2  501    0  0.95407974231E+02  0.28423315892E+02 -0.12523626478E+03  0.23639132948E+03  0.17402922802E+03 0.  0.
         24    2    5    5    0    0  0.84123714083E+02 -0.32933043905E+02 -0.12067603881E+03  0.17366316136E+03  0.86225301503E+02 0.  0.
          5    1    5    5  501    0  0.11284260149E+02  0.61356359798E+02 -0.45602259688E+01  0.62728168119E+02  0.47000000000E+01 0. -1.
        -13    1    6    6    0    0  0.21425421254E+02 -0.18704740180E+02  0.82345220285E+01  0.29609514250E+02  0.00000000000E+00 0.  1.
         14    1    6    6    0    0  0.62698292829E+02 -0.14228303726E+02 -0.12891056083E+03  0.14405364711E+03  0.00000000000E+00 0. -1.
         -5    1    3    3    0  503 -0.83399867053E+02 -0.45561400872E+02 -0.69925616464E+02  0.11808073895E+03  0.47000000000E+01 0.  1.
         13    1    4    4    0    0 -0.41191567501E+02 -0.80910598240E+01 -0.89933499869E+02  0.99248399891E+02  0.00000000000E+00 0. -1.
        -14    1    4    4    0    0  0.29183460323E+02  0.25229144803E+02 -0.11825891909E+03  0.12439194527E+03  0.00000000000E+00 0.  1.
</event>
<event>
12    1  0.8488291E-002  0.1857869E+03  0.7818608E-02  0.1162771E+00
         21   -1    0    0  501  502  0.00000000000E+00  0.00000000000E+00  0.10808788169E+03  0.10808788169E+03  0.00000000000E+00 0.  1.
         21   -1    0    0  502  503 -0.00000000000E+00 -0.00000000000E+00 -0.31835951221E+03  0.31835951221E+03  0.00000000000E+00 0. -1.
         -6    2    1    2    0  503 -0.56319770682E+02  0.37708424571E+02 -0.12292532853E+03  0.22115210850E+03  0.17089112572E+03 0.  0.
        -24    2    3    3    0    0 -0.82717509331E+01 -0.20186976133E+02 -0.56708782742E+02  0.12081661847E+03  0.10442621026E+03 0.  0.
          6    2    1    2  501    0  0.56319770682E+02 -0.37708424571E+02 -0.87346301997E+02  0.20529528539E+03  0.17298247275E+03 0.  0.
         24    2    5    5    0    0 -0.18235807585E+02 -0.40259207720E+02 -0.61962427643E+01  0.94966400423E+02  0.83826459429E+02 0.  0.
          5    1    5    5  501    0  0.74555578268E+02  0.25507831488E+01 -0.81150059233E+02  0.11032888497E+03  0.47000000000E+01 0. -1.
        -13    1    6    6    0    0  0.31196037171E+02 -0.64111948750E+01 -0.13542588868E+02  0.34607771788E+02  0.00000000000E+00 0.  1.
         14    1    6    6    0    0 -0.49431844756E+02 -0.33848012845E+02  0.73463461036E+01  0.60358628635E+02  0.00000000000E+00 0. -1.
         -5    1    3    3    0  503 -0.48048019749E+02  0.57895400704E+02 -0.66216545785E+02  0.10033549003E+03  0.47000000000E+01 0.  1.
         11    1    4    4    0    0 -0.48996521761E+01  0.42658653404E+02 -0.30357811104E+02  0.52586728332E+02  0.00000000000E+00 0. -1.
        -12    1    4    4    0    0 -0.33720987570E+01 -0.62845629537E+02 -0.26350971638E+02  0.68229890137E+02  0.00000000000E+00 0.  1.
</event>
<event>
12    1  0.8488291E-002  0.2218555E+03  0.7818608E-02  0.1132831E+00
         21   -1    0    0  501  502  0.00000000000E+00  0.00000000000E+00  0.41924807063E+02  0.41924807063E+02  0.00000000000E+00 0.  1.
         21   -1    0    0  502  503 -0.00000000000E+00 -0.00000000000E+00 -0.12278419767E+04  0.12278419767E+04  0.00000000000E+00 0.  1.
         -6    2    1    2    0  503 -0.12784519705E+03 -0.45547724146E+02 -0.73462283732E+03  0.76688862026E+03  0.17328719857E+03 0.  0.
        -24    2    3    3    0    0 -0.11242501258E+03  0.27039496331E+02 -0.55183903908E+03  0.56955972332E+03  0.80631480010E+02 0.  0.
          6    2    1    2  501    0  0.12784519705E+03  0.45547724146E+02 -0.45129433229E+03  0.50287816348E+03  0.17550180444E+03 0.  0.
         24    2    5    5    0    0 -0.35849979480E+01 -0.27299205779E+01 -0.19409120122E+03  0.20999564818E+03  0.80040447181E+02 0.  0.
          5    1    5    5  501    0  0.13143019500E+03  0.48277644724E+02 -0.25720313107E+03  0.29288251530E+03  0.47000000000E+01 0. -1.
        -11    1    6    6    0    0 -0.40867849492E+02  0.11344054410E+01 -0.78959018877E+02  0.88915660374E+02  0.00000000000E+00 0.  1.
         12    1    6    6    0    0  0.37282851544E+02 -0.38643260188E+01 -0.11513218235E+03  0.12107998780E+03  0.00000000000E+00 0. -1.
         -5    1    3    3    0  503 -0.15420184470E+02 -0.72587220477E+02 -0.18278379825E+03  0.19732889694E+03  0.47000000000E+01 0.  1.
         11    1    4    4    0    0  0.10600276577E+02  0.95150406902E+01 -0.31230495314E+02  0.34325583759E+02  0.00000000000E+00 0. -1.
        -12    1    4    4    0    0 -0.12302528915E+03  0.17524455641E+02 -0.52060854376E+03  0.53523413956E+03  0.00000000000E+00 0.  1.
</event>
<event>
12    1  0.8488291E-002  0.1833239E+03  0.7818608E-02  0.1164643E+00
         21   -1    0    0  503  502  0.00000000000E+00  0.00000000000E+00  0.87765163577E+03  0.87765163577E+03  0.00000000000E+00 0. -1.
         21   -1    0    0  501  503 -0.00000000000E+00 -0.00000000000E+00 -0.68587502102E+02  0.68587502102E+02  0.00000000000E+00 0. -1.
          6    2    1    2  501    0  0.37484016620E+02  0.50659004453E+02  0.89963777043E+02  0.20413874780E+03  0.17206905864E+03 0.  0.
         24    2    3    3    0    0 -0.39499588155E+02  0.53035109688E+02  0.69453978815E+02  0.12429600797E+03  0.79074029241E+02 0.  0.
         -6    2    1    2    0  502 -0.37484016620E+02 -0.50659004453E+02  0.71910035663E+03  0.74210039007E+03  0.17215190911E+03 0.  0.
        -24    2    5    5    0    0  0.37237061817E+02 -0.16064558917E+02  0.24776852479E+03  0.26360712896E+03  0.80341818110E+02 0.  0.
          5    1    3    3  501    0  0.76983604776E+02 -0.23761052356E+01  0.20509798229E+02  0.79842739831E+02  0.47000000000E+01 0. -1.
        -11    1    4    4    0    0  0.93960445750E+01  0.40954065755E+02  0.59684098500E+02  0.72991182819E+02  0.00000000000E+00 0.  1.
         12    1    4    4    0    0 -0.48895632730E+02  0.12081043933E+02  0.97698803150E+01  0.51304825153E+02  0.00000000000E+00 0. -1.
         -5    1    5    5    0  502 -0.74721078437E+02 -0.34594445536E+02  0.47133183183E+03  0.47849326111E+03  0.47000000000E+01 0.  1.
         11    1    6    6    0    0  0.51940037677E+02  0.16214555121E+02  0.15643722767E+03  0.16562996563E+03  0.00000000000E+00 0. -1.
        -12    1    6    6    0    0 -0.14702975860E+02 -0.32279114037E+02  0.91331297117E+02  0.97977163336E+02  0.00000000000E+00 0.  1.
</event>
<event>
12    1  0.8488291E-002  0.3615944E+03  0.7818608E-02  0.1057987E+00
         21   -1    0    0  501  502  0.00000000000E+00  0.00000000000E+00  0.12820070203E+03  0.12820070203E+03  0.00000000000E+00 0.  1.
         21   -1    0    0  502  503 -0.00000000000E+00 -0.00000000000E+00 -0.16179370096E+04  0.16179370096E+04  0.00000000000E+00 0. -1.
         -6    2    1    2    0  503 -0.28688924729E+03  0.13215723347E+03 -0.12763034841E+04  0.13265372684E+04  0.17601013137E+03 0.  0.
        -24    2    3    3    0    0 -0.30046162570E+03  0.10120268636E+03 -0.11367368288E+04  0.11828593831E+04  0.80414737846E+02 0.  0.
          6    2    1    2  501    0  0.28688924729E+03 -0.13215723347E+03 -0.21343282351E+03  0.41960044327E+03  0.17532822726E+03 0.  0.
         24    2    5    5    0    0  0.19243339400E+03 -0.15609356775E+02 -0.14643190079E+03  0.25523338627E+03  0.80171795240E+02 0.  0.
          5    1    5    5  501    0  0.94455853288E+02 -0.11654787670E+03 -0.67000922726E+02  0.16436705701E+03  0.47000000000E+01 0. -1.
        -13    1    6    6    0    0  0.14970511182E+03 -0.34024719959E+02 -0.14089677673E+03  0.20837755102E+03  0.00000000000E+00 0.  1.
         14    1    6    6    0    0  0.42728282174E+02  0.18415363184E+02 -0.55351240591E+01  0.46855835251E+02  0.00000000000E+00 0. -1.
         -5    1    3    3    0  503  0.13572378410E+02  0.30954547112E+02 -0.13956665528E+03  0.14367788525E+03  0.47000000000E+01 0.  1.
         13    1    4    4    0    0 -0.12226374897E+03  0.45613832495E+02 -0.61615642477E+03  0.62982361484E+03  0.00000000000E+00 0. -1.
        -14    1    4    4    0    0 -0.17819787673E+03  0.55588853866E+02 -0.52058040402E+03  0.55303576827E+03  0.00000000000E+00 0.  1.
</event>
<event>
12    1  0.8488291E-002  0.1826549E+03  0.7818608E-02  0.1165323E+00
         21   -1    0    0  501  502  0.00000000000E+00  0.00000000000E+00  0.38963561372E+02  0.38963561372E+02  0.00000000000E+00 0.  1.
         21   -1    0    0  502  503 -0.00000000000E+00 -0.00000000000E+00 -0.15492267973E+04  0.15492267973E+04  0.00000000000E+00 0.  1.
         -6    2    1    2    0  503 -0.46556100594E+02 -0.37916881972E+02 -0.12870316788E+04  0.12999282052E+04  0.17250401741E+03 0.  0.
        -24    2    3    3    0    0  0.18652926941E+02  0.31012670935E+02 -0.60491368915E+03  0.61122613440E+03  0.79794101329E+02 0.  0.
          6    2    1    2  501    0  0.46556100594E+02  0.37916881972E+02 -0.22323155718E+03  0.28826215352E+03  0.17221376422E+03 0.  0.
         24    2    5    5    0    0  0.77420245907E+02 -0.10085999988E+02 -0.19374824555E+03  0.22385541624E+03  0.80481319898E+02 0.  0.
          5    1    5    5  501    0 -0.30864145313E+02  0.48002881960E+02 -0.29483311631E+02  0.64406737280E+02  0.47000000000E+01 0. -1.
        -13    1    6    6    0    0 -0.98893271027E+01 -0.21872864538E+02 -0.39665294623E+02  0.46363310831E+02  0.00000000000E+00 0.  1.
         14    1    6    6    0    0  0.87309573010E+02  0.11786864550E+02 -0.15408295093E+03  0.17749210541E+03  0.00000000000E+00 0. -1.
         -5    1    3    3    0  503 -0.65209027535E+02 -0.68929552907E+02 -0.68211798961E+03  0.68870207078E+03  0.47000000000E+01 0.  1.
         11    1    4    4    0    0 -0.25916606888E+02  0.24721366145E+02 -0.15586695859E+03  0.15992912567E+03  0.00000000000E+00 0. -1.
        -12    1    4    4    0    0  0.44569533829E+02  0.62913047904E+01 -0.44904673056E+03  0.45129700873E+03  0.00000000000E+00 0.  1.
</event>
<event>
12    1  0.8488291E-002  0.1825872E+03  0.7818608E-02  0.1165408E+00
         21   -1    0    0  503  502  0.00000000000E+00  0.00000000000E+00  0.90698214553E+02  0.90698214553E+02  0.00000000000E+00 0. -1.
         21   -1    0    0  501  503 -0.00000000000E+00 -0.00000000000E+00 -0.40050923286E+03  0.40050923286E+03  0.00000000000E+00 0. -1.
          6    2    1    2  501    0 -0.12379006488E+02 -0.61293814426E+02 -0.22624684736E+03  0.29073309347E+03  0.17154569132E+03 0.  0.
         24    2    3    3    0    0  0.36766984242E+02 -0.93069111553E+02 -0.15037495996E+03  0.19479753588E+03  0.72936827090E+02 0.  0.
         -6    2    1    2    0  502  0.12379006488E+02  0.61293814426E+02 -0.83564170944E+02  0.20047435394E+03  0.17116315151E+03 0.  0.
        -24    2    5    5    0    0  0.61693250521E+02  0.79854318669E+02 -0.63557905803E+02  0.14391705886E+03  0.80558941592E+02 0.  0.
          5    1    3    3  501    0 -0.49145990731E+02  0.31775297127E+02 -0.75871887401E+02  0.95935557591E+02  0.47000000000E+01 0. -1.
        -13    1    4    4    0    0  0.19224505022E+02 -0.92631281444E+02 -0.85246218502E+02  0.12734619611E+03  0.00000000000E+00 0.  1.
         14    1    4    4    0    0  0.17542479221E+02 -0.43783010889E+00 -0.65128741459E+02  0.67451339768E+02  0.00000000000E+00 0. -1.
         -5    1    5    5    0  502 -0.49314244032E+02 -0.18560504244E+02 -0.20006265141E+02  0.56557295083E+02  0.47000000000E+01 0.  1.
         13    1    6    6    0    0  0.63831061164E+02  0.22072970282E+02 -0.16908157507E+02  0.69624034476E+02  0.00000000000E+00 0. -1.
        -14    1    6    6    0    0 -0.21378106432E+01  0.57781348387E+02 -0.46649748296E+02  0.74293024383E+02  0.00000000000E+00 0.  1.
</event>
<event>
12    1  0.8488291E-002  0.1847233E+03  0.7818608E-02  0.1164032E+00
         21   -1    0    0  501  502  0.00000000000E+00  0.00000000000E+00  0.11855974227E+03  0.11855974227E+03  0.00000000000E+00 0.  1.
         21   -1    0    0  502  503 -0.00000000000E+00 -0.00000000000E+00 -0.31740723299E+03  0.31740723299E+03  0.00000000000E+00 0.  1.
         -6    2    1    2    0  503 -0.18981725383E+02  0.62198737849E+02 -0.17187307346E+03  0.25231540043E+03  0.17289800180E+03 0.  0.
        -24    2    3    3    0    0  0.95100243568E+01  0.80136903045E+02 -0.49345760057E+02  0.12515962941E+03  0.81960752843E+02 0.  0.
          6    2    1    2  501    0  0.18981725383E+02 -0.62198737849E+02 -0.26974417257E+02  0.18365157483E+03  0.16962102718E+03 0.  0.
         24    2    5    5    0    0 -0.26110514839E+02 -0.83642410913E+02 -0.49549776896E+02  0.12865268297E+03  0.80115669862E+02 0.  0.
          5    1    5    5  501    0  0.45092240222E+02  0.21443673064E+02  0.22575359639E+02  0.54998891857E+02  0.47000000000E+01 0. -1.
        -11    1    6    6    0    0  0.46150773962E+01 -0.66253790511E+02  0.16804914925E+01  0.66435590974E+02  0.00000000000E+00 0.  1.
         12    1    6    6    0    0 -0.30725592235E+02 -0.17388620402E+02 -0.51230268389E+02  0.62217091999E+02  0.00000000000E+00 0. -1.
         -5    1    3    3    0  503 -0.28491749740E+02 -0.17938165196E+02 -0.12252731340E+03  0.12715577102E+03  0.47000000000E+01 0.  1.
         13    1    4    4    0    0  0.11409392012E+02 -0.10967420931E+02  0.77542858488E+01  0.17623492758E+02  0.00000000000E+00 0. -1.
        -14    1    4    4    0    0 -0.18993676548E+01  0.91104323976E+02 -0.57100045905E+02  0.10753613666E+03  0.00000000000E+00 0.  1.
</event>
<event>
12    1  0.8488291E-002  0.1839920E+03  0.7818608E-02  0.1164820E+00
         21   -1    0    0  503  502  0.00000000000E+00  0.00000000000E+00  0.72691476282E+03  0.72691476282E+03  0.00000000000E+00 0.  1.
         21   -1    0    0  501  503 -0.00000000000E+00 -0.00000000000E+00 -0.63165892801E+02  0.63165892801E+02  0.00000000000E+00 0.  1.
          6    2    1    2  501    0 -0.59525813148E+02  0.20138349873E+02  0.53733472917E+03  0.56684629303E+03  0.16922539165E+03 0.  0.
         24    2    3    3    0    0  0.12503801622E+02 -0.55855373876E+00  0.41294723142E+03  0.42155015811E+03  0.83800136240E+02 0.  0.
         -6    2    1    2    0  502  0.59525813148E+02 -0.20138349873E+02  0.12641414085E+03  0.22323436260E+03  0.17292822231E+03 0.  0.
        -24    2    5    5    0    0 -0.29128834837E+02 -0.32461172259E+02  0.57920235978E+02  0.11042920507E+03  0.83292489891E+02 0.  0.
          5    1    3    3  501    0 -0.72029614770E+02  0.20696903612E+02  0.12438749776E+03  0.14529613492E+03  0.47000000000E+01 0. -1.
        -13    1    4    4    0    0  0.27315027068E+02  0.30465900599E+02  0.31699764490E+03  0.31962757809E+03  0.00000000000E+00 0.  1.
         14    1    4    4    0    0 -0.14811225446E+02 -0.31024454337E+02  0.95949586516E+02  0.10192258002E+03  0.00000000000E+00 0. -1.
         -5    1    5    5    0  502  0.88654647985E+02  0.12322822386E+02  0.68493904872E+02  0.11280515753E+03  0.47000000000E+01 0.  1.
         13    1    6    6    0    0  0.19168942580E+02 -0.40664359509E+02  0.29922830646E+02  0.54003835862E+02  0.00000000000E+00 0. -1.
        -14    1    6    6    0    0 -0.48297777417E+02  0.82031872505E+01  0.27997405332E+02  0.56425369204E+02  0.00000000000E+00 0.  1.
</event>
<event>
12    1  0.8488291E-002  0.1784961E+03  0.7818608E-02  0.1169645E+00
         21   -1    0    0  503  502  0.00000000000E+00  0.00000000000E+00  0.24035229366E+02  0.24035229366E+02  0.00000000000E+00 0.  1.
         21   -1    0    0  501  503 -0.00000000000E+00 -0.00000000000E+00 -0.13185580588E+04  0.13185580588E+04  0.00000000000E+00 0.  1.
          6    2    1    2  501    0  0.28246399044E+02  0.30785049635E+02 -0.60577070046E+03  0.63108758603E+03  0.17195296263E+03 0.  0.
         24    2    3    3    0    0  0.66928776147E+02  0.11699072489E+02 -0.22131146559E+03  0.24418760657E+03  0.77669125326E+02 0.  0.
         -6    2    1    2    0  502 -0.28246399044E+02 -0.30785049635E+02 -0.68875212897E+03  0.71150570214E+03  0.17353757712E+03 0.  0.
        -24    2    5    5    0    0  0.64115060770E+01  0.48039018159E+02 -0.38542513891E+03  0.39615866006E+03  0.77719312643E+02 0.  0.
          5    1    3    3  501    0 -0.38682377103E+02  0.19085977147E+02 -0.38445923487E+03  0.38689997946E+03  0.47000000000E+01 0. -1.
        -13    1    4    4    0    0  0.67506954799E+02 -0.31816793887E+01 -0.21890834071E+03  0.22910297611E+03  0.00000000000E+00 0.  1.
         14    1    4    4    0    0 -0.57817865196E+00  0.14880751877E+02 -0.24031248775E+01  0.15084630462E+02  0.00000000000E+00 0. -1.
         -5    1    5    5    0  502 -0.34657905121E+02 -0.78824067794E+02 -0.30332699006E+03  0.31534704208E+03  0.47000000000E+01 0.  1.
         13    1    6    6    0    0  0.27525348371E+02 -0.10374242157E+02 -0.13092526118E+03  0.13418902234E+03  0.00000000000E+00 0. -1.
        -14    1    6    6    0    0 -0.21113842293E+02  0.58413260315E+02 -0.25449987773E+03  0.26196963771E+03  0.00000000000E+00 0.  1.
</event>
<event>
12    1  0.8488291E-002  0.1982086E+03  0.7818608E-02  0.1152121E+00
         21   -1    0    0  501  502  0.00000000000E+00  0.00000000000E+00  0.16256190769E+03  0.16256190769E+03  0.00000000000E+00 0. -1.
         21   -1    0    0  502  503 -0.00000000000E+00 -0.00000000000E+00 -0.12101310694E+04  0.12101310694E+04  0.00000000000E+00 0. -1.
         -6    2    1    2    0  503 -0.45314494249E+02 -0.85104768899E+02 -0.11403536313E+04  0.11574511098E+04  0.17317748732E+03 0.  0.
        -24    2    3    3    0    0  0.41782164075E+02 -0.30141956479E+02 -0.42749328034E+03  0.43717428206E+03  0.75607945201E+02 0.  0.
          6    2    1    2  501    0  0.45314494249E+02  0.85104768899E+02  0.92784469665E+02  0.21524186721E+03  0.16859382702E+03 0.  0.
         24    2    5    5    0    0  0.80269447209E+01 -0.20272387351E+02  0.20767684193E+02  0.82188442602E+02  0.76473798521E+02 0.  0.
          5    1    5    5  501    0  0.37287549528E+02  0.10537715625E+03  0.72016785472E+02  0.13305342460E+03  0.47000000000E+01 0. -1.
        -13    1    6    6    0    0  0.10539569695E+02  0.17743803043E+02 -0.18326155066E+02  0.27600236145E+02  0.00000000000E+00 0.  1.
         14    1    6    6    0    0 -0.25126249740E+01 -0.38016190394E+02  0.39093839258E+02  0.54588206457E+02  0.00000000000E+00 0. -1.
         -5    1    3    3    0  503 -0.87096658324E+02 -0.54962812419E+02 -0.71286035099E+03  0.72027682779E+03  0.47000000000E+01 0.  1.
         13    1    4    4    0    0  0.10257456596E+02 -0.51150404966E+02 -0.28475066442E+03  0.28949010386E+03  0.00000000000E+00 0. -1.
        -14    1    4    4    0    0  0.31524707480E+02  0.21008448487E+02 -0.14274261592E+03  0.14768417820E+03  0.00000000000E+00 0.  1.
</event>
<event>
12    1  0.8488291E-002  0.3005012E+03  0.7818608E-02  0.1085049E+00
         21   -1    0    0  501  502  0.00000000000E+00  0.00000000000E+00  0.10475525891E+03  0.10475525891E+03  0.00000000000E+00 0.  1.
         21   -1    0    0  502  503 -0.00000000000E+00 -0.00000000000E+00 -0.87049902100E+03  0.87049902100E+03  0.00000000000E+00 0. -1.
         -6    2    1    2    0  503  0.35110880882E+02  0.24365156064E+03 -0.43498618929E+03  0.52869081196E+03  0.17234306723E+03 0.  0.
        -24    2    3    3    0    0  0.83741175802E+02  0.20230798631E+03 -0.37242005539E+03  0.43918769563E+03  0.79044471565E+02 0.  0.
          6    2    1    2  501    0 -0.35110880882E+02 -0.24365156064E+03 -0.33075757280E+03  0.44656346795E+03  0.17152114151E+03 0.  0.
         24    2    5    5    0    0 -0.71275072093E+02 -0.16285074421E+03 -0.15300773513E+03  0.24793387435E+03  0.80370008386E+02 0.  0.
          5    1    5    5  501    0  0.36164191211E+02 -0.80800816423E+02 -0.17774983768E+03  0.19862959360E+03  0.47000000000E+01 0. -1.
        -11    1    6    6    0    0 -0.46784024453E+01 -0.10667721923E+03 -0.97741855218E+02  0.14475975550E+03  0.00000000000E+00 0.  1.
         12    1    6    6    0    0 -0.66596669647E+02 -0.56173524983E+02 -0.55265879908E+02  0.10317411884E+03  0.00000000000E+00 0. -1.
         -5    1    3    3    0  503 -0.48630294920E+02  0.41343574327E+02 -0.62566133901E+02  0.89503116333E+02  0.47000000000E+01 0.  1.
         13    1    4    4    0    0  0.95279947418E+02  0.14874491096E+03 -0.30323280862E+03  0.35093226289E+03  0.00000000000E+00 0. -1.
        -14    1    4    4    0    0 -0.11538771616E+02  0.53563075354E+02 -0.69187246773E+02  0.88255432738E+02  0.00000000000E+00 0.  1.
</event>
<event>
12    1  0.8488291E-002  0.1824285E+03  0.7818608E-02  0.1167508E+00
         21   -1    0    0  503  502  0.00000000000E+00  0.00000000000E+00  0.36571765121E+03  0.36571765121E+03  0.00000000000E+00 0. -1.
         21   -1    0    0  501  503 -0.00000000000E+00 -0.00000000000E+00 -0.87424827880E+02  0.87424827880E+02  0.00000000000E+00 0. -1.
          6    2    1    2  501    0 -0.62652877294E+02 -0.71645779166E+01  0.12456943286E+03  0.22090198797E+03  0.17118244793E+03 0.  0.
         24    2    3    3    0    0 -0.12886438883E+02  0.25661287140E+02  0.17709292783E+01  0.84315757738E+02  0.79255591902E+02 0.  0.
         -6    2    1    2    0  502  0.62652877294E+02  0.71645779166E+01  0.15372339047E+03  0.23224049112E+03  0.16225920844E+03 0.  0.
        -24    2    5    5    0    0  0.20168084946E+02  0.48834619674E+02  0.14286798975E+03  0.17156694098E+03  0.78945430603E+02 0.  0.
          5    1    3    3  501    0 -0.49766438411E+02 -0.32825865056E+02  0.12279850358E+03  0.13658623023E+03  0.47000000000E+01 0. -1.
        -13    1    4    4    0    0 -0.15915239017E+02  0.45060897049E+02  0.24973156293E+02  0.53920662191E+02  0.00000000000E+00 0.  1.
         14    1    4    4    0    0  0.30288001346E+01 -0.19399609910E+02 -0.23202227015E+02  0.30395095547E+02  0.00000000000E+00 0. -1.
         -5    1    5    5    0  502  0.42484792348E+02 -0.41670041757E+02  0.10855400721E+02  0.60673550133E+02  0.47000000000E+01 0.  1.
         13    1    6    6    0    0  0.50668149328E+02  0.28830883159E+02  0.93526160126E+02  0.11020718583E+03  0.00000000000E+00 0. -1.
        -14    1    6    6    0    0 -0.30500064382E+02  0.20003736514E+02  0.49341829628E+02  0.61359755156E+02  0.00000000000E+00 0.  1.
</event>
<event>
12    1  0.8488291E-002  0.2017586E+03  0.7818608E-02  0.1150417E+00
         21   -1    0    0  503  502  0.00000000000E+00  0.00000000000E+00  0.27802614452E+03  0.27802614452E+03  0.00000000000E+00 0. -1.
         21   -1    0    0  501  503 -0.00000000000E+00 -0.00000000000E+00 -0.15257904117E+03  0.15257904117E+03  0.00000000000E+00 0. -1.
          6    2    1    2  501    0 -0.98686825785E+02  0.31680044925E+02 -0.24467108313E+01  0.19172579548E+03  0.16127640692E+03 0.  0.
         24    2    3    3    0    0 -0.12234203124E+03  0.37681344047E+02  0.27131892264E+02  0.15309202661E+03  0.79457993531E+02 0.  0.
         -6    2    1    2    0  502  0.98686825785E+02 -0.31680044925E+02  0.12789381418E+03  0.23887939021E+03  0.17310060812E+03 0.  0.
        -24    2    5    5    0    0  0.39902416003E+02  0.30387929498E+02  0.11983832254E+03  0.15288508093E+03  0.80603941340E+02 0.  0.
          5    1    3    3  501    0  0.23655205454E+02 -0.60012991225E+01 -0.29578603095E+02  0.38633768873E+02  0.47000000000E+01 0. -1.
        -13    1    4    4    0    0 -0.97507057264E+02  0.20883389534E+01  0.43390039599E+02  0.10674588007E+03  0.00000000000E+00 0.  1.
         14    1    4    4    0    0 -0.24834973976E+02  0.35593005094E+02 -0.16258147335E+02  0.46346146536E+02  0.00000000000E+00 0. -1.
         -5    1    5    5    0  502  0.58784409782E+02 -0.62067974423E+02  0.80554916356E+01  0.85994309276E+02  0.47000000000E+01 0.  1.
         11    1    6    6    0    0  0.48850436709E+02 -0.81432986563E+01  0.92103909350E+02  0.10457441655E+03  0.00000000000E+00 0. -1.
        -12    1    6    6    0    0 -0.89480207054E+01  0.38531228155E+02  0.27734413191E+02  0.48310664379E+02  0.00000000000E+00 0.  1.
</event>
<event>
12    1  0.8488291E-002  0.1970069E+03  0.7818608E-02  0.1152347E+00
         21   -1    0    0  501  502  0.00000000000E+00  0.00000000000E+00  0.13060234916E+03  0.13060234916E+03  0.00000000000E+00 0.  1.
         21   -1    0    0  502  503 -0.00000000000E+00 -0.00000000000E+00 -0.40830206207E+03  0.40830206207E+03  0.00000000000E+00 0. -1.
         -6    2    1    2    0  503 -0.52341405405E+02  0.80631059986E+02 -0.27974506810E+03  0.34215349742E+03  0.17196139717E+03 0.  0.
        -24    2    3    3    0    0  0.11093373212E+02  0.48338913938E+02 -0.24727325745E+03  0.26377453136E+03  0.77286648334E+02 0.  0.
          6    2    1    2  501    0  0.52341405405E+02 -0.80631059986E+02  0.20453551966E+01  0.19675091381E+03  0.17165590014E+03 0.  0.
         24    2    5    5    0    0 -0.14436186578E+02 -0.16948816067E+02 -0.46955409772E+02  0.92166785235E+02  0.76119905049E+02 0.  0.
          5    1    5    5  501    0  0.66777591983E+02 -0.63682243919E+02  0.49000764969E+02  0.10458412857E+03  0.47000000000E+01 0. -1.
        -11    1    6    6    0    0 -0.10535515025E+02  0.21380059136E+01  0.19852558692E+02  0.22576364471E+02  0.00000000000E+00 0.  1.
         12    1    6    6    0    0 -0.39006715530E+01 -0.19086821981E+02 -0.66807968464E+02  0.69590420764E+02  0.00000000000E+00 0. -1.
         -5    1    3    3    0  503 -0.63434778617E+02  0.32292146048E+02 -0.32471810651E+02  0.78378966065E+02  0.47000000000E+01 0.  1.
         13    1    4    4    0    0 -0.92305524402E+01  0.64792109665E+02 -0.18494426723E+03  0.19618257455E+03  0.00000000000E+00 0. -1.
        -14    1    4    4    0    0  0.20323925652E+02 -0.16453195727E+02 -0.62328990219E+02  0.67591956809E+02  0.00000000000E+00 0.  1.
</event>
<event>
12    1  0.8488291E-002  0.1812611E+03  0.7818608E-02  0.1166615E+00
         21   -1    0    0  501  502  0.00000000000E+00  0.00000000000E+00  0.14179819149E+03  0.14179819149E+03  0.00000000000E+00 0. -1.
         21   -1    0    0  502  503 -0.00000000000E+00 -0.00000000000E+00 -0.96660001003E+03  0.96660001003E+03  0.00000000000E+00 0. -1.
         -6    2    1    2    0  503 -0.42343712986E+02  0.38389637620E+02 -0.89570986477E+03  0.91386637042E+03  0.17201403091E+03 0.  0.
        -24    2    3    3    0    0 -0.35746922350E+02 -0.44606620564E+02 -0.46167151091E+03  0.47188981092E+03  0.79194801691E+02 0.  0.
          6    2    1    2  501    0  0.42343712986E+02 -0.38389637620E+02  0.70908046239E+02  0.19453183110E+03  0.17189510750E+03 0.  0.
         24    2    5    5    0    0  0.12945682004E+02  0.44619817511E+02  0.45162770432E+02  0.10266386556E+03  0.79634632296E+02 0.  0.
          5    1    5    5  501    0  0.29398030982E+02 -0.83009455130E+02  0.25745275807E+02  0.91867965543E+02  0.47000000000E+01 0. -1.
        -11    1    6    6    0    0  0.31316034957E+02  0.52407568045E+02  0.94820345674E+01  0.61783138584E+02  0.00000000000E+00 0.  1.
         12    1    6    6    0    0 -0.18370352953E+02 -0.77877505344E+01  0.35680735865E+02  0.40880726973E+02  0.00000000000E+00 0. -1.
         -5    1    3    3    0  503 -0.65967906364E+01  0.82996258184E+02 -0.43403835387E+03  0.44197655950E+03  0.47000000000E+01 0.  1.
         13    1    4    4    0    0 -0.18860158870E+02  0.17201798408E+02 -0.60973171502E+02  0.66100946318E+02  0.00000000000E+00 0. -1.
        -14    1    4    4    0    0 -0.16886763480E+02 -0.61808418972E+02 -0.40069833941E+03  0.40578886461E+03  0.00000000000E+00 0.  1.
</event>
<event>
12    1  0.8488291E-002  0.1871345E+03  0.7818608E-02  0.1161561E+00
         21   -1    0    0  501  502  0.00000000000E+00  0.00000000000E+00  0.45238127614E+03  0.45238127614E+03  0.00000000000E+00 0. -1.
         21   -1    0    0  502  503 -0.00000000000E+00 -0.00000000000E+00 -0.77389377564E+02  0.77389377564E+02  0.00000000000E+00 0. -1.
         -6    2    1    2    0  503  0.47784404376E+02  0.47322196713E+02  0.21422372396E+03  0.28306084552E+03  0.17236269538E+03 0.  0.
        -24    2    3    3    0    0 -0.22636610470E+02  0.51342907929E+02  0.62688639001E+02  0.11584763605E+03  0.79638552158E+02 0.  0.
          6    2    1    2  501    0 -0.47784404376E+02 -0.47322196713E+02  0.16076817461E+03  0.24670980818E+03  0.17463271137E+03 0.  0.
         24    2    5    5    0    0  0.23804101922E+02 -0.36361936612E+02  0.14460962347E+03  0.17235773820E+03  0.83104879601E+02 0.  0.
          5    1    5    5  501    0 -0.71588506297E+02 -0.10960260101E+02  0.16158551144E+02  0.74352069981E+02  0.47000000000E+01 0. -1.
        -11    1    6    6    0    0 -0.12695260790E+02  0.11716361757E+02  0.18664893235E+01  0.17376034120E+02  0.00000000000E+00 0.  1.
         12    1    6    6    0    0  0.36499362712E+02 -0.48078298369E+02  0.14274313415E+03  0.15498170408E+03  0.00000000000E+00 0. -1.
         -5    1    3    3    0  503  0.70421014845E+02 -0.40207112164E+01  0.15153508496E+03  0.16721320948E+03  0.47000000000E+01 0.  1.
         13    1    4    4    0    0  0.20207043099E+02  0.41090510249E+02  0.54253034171E+02  0.70993988056E+02  0.00000000000E+00 0. -1.
        -14    1    4    4    0    0 -0.42843653568E+02  0.10252397680E+02  0.84356048300E+01  0.44853647991E+02  0.00000000000E+00 0.  1.
</event>
<event>
12    1  0.8488291E-002  0.2265676E+03  0.7818608E-02  0.1129523E+00
         21   -1    0    0  503  502  0.00000000000E+00  0.00000000000E+00  0.23559628673E+03  0.23559628673E+03  0.00000000000E+00 0. -1.
         21   -1    0    0  501  503 -0.00000000000E+00 -0.00000000000E+00 -0.57441353178E+03  0.57441353178E+03  0.00000000000E+00 0. -1.
          6    2    1    2  501    0 -0.62996163229E+02  0.12856972338E+03 -0.48988550000E+03  0.53974131964E+03  0.17559669321E+03 0.  0.
         24    2    3    3    0    0 -0.10788511934E+03  0.72048932120E+02 -0.35416521964E+03  0.38595021871E+03  0.81818829887E+02 0.  0.
         -6    2    1    2    0  502  0.62996163229E+02 -0.12856972338E+03  0.15106825495E+03  0.27026849887E+03  0.17240868156E+03 0.  0.
        -24    2    5    5    0    0  0.51663848615E+02 -0.16952764762E+02  0.11441583397E+03  0.15214882748E+03  0.84271781481E+02 0.  0.
          5    1    3    3  501    0  0.44888956110E+02  0.56520791260E+02 -0.13572028036E+03  0.15379110093E+03  0.47000000000E+01 0. -1.
        -11    1    4    4    0    0 -0.78057936798E+02  0.19294981699E+02 -0.12282287337E+03  0.14680189385E+03  0.00000000000E+00 0.  1.
         12    1    4    4    0    0 -0.29827182541E+02  0.52753950421E+02 -0.23134234627E+03  0.23914832486E+03  0.00000000000E+00 0. -1.
         -5    1    5    5    0  502  0.11332314614E+02 -0.11161695862E+03  0.36652420977E+02  0.11811967139E+03  0.47000000000E+01 0.  1.
         11    1    6    6    0    0  0.24156861046E+02 -0.46019089565E+02  0.33379417915E+02  0.61769701961E+02  0.00000000000E+00 0. -1.
        -12    1    6    6    0    0  0.27506987570E+02  0.29066324803E+02  0.81036416060E+02  0.90379125524E+02  0.00000000000E+00 0.  1.
</event>
<event>
12    1  0.8488291E-002  0.2050088E+03  0.7818608E-02  0.1146401E+00
         21   -1    0    0  501  502  0.00000000000E+00  0.00000000000E+00  0.86444075760E+02  0.86444075760E+02  0.00000000000E+00 0.  1.
         21   -1    0    0  502  503 -0.00000000000E+00 -0.00000000000E+00 -0.78844034778E+03  0.78844034778E+03  0.00000000000E+00 0.  1.
         -6    2    1    2    0  503  0.85671994788E+02 -0.69252472662E+02 -0.62808093949E+03  0.66069226688E+03  0.17289594937E+03 0.  0.
        -24    2    3    3    0    0  0.62288983898E+02  0.52262050374E+01 -0.49995668674E+03  0.51058646162E+03  0.82671733028E+02 0.  0.
          6    2    1    2  501    0 -0.85671994788E+02  0.69252472662E+02 -0.73915332534E+02  0.21419215666E+03  0.16816422904E+03 0.  0.
         24    2    5    5    0    0 -0.73561538851E+02  0.10057178374E+03 -0.93197803780E+02  0.17518618165E+03  0.80488408649E+02 0.  0.
          5    1    5    5  501    0 -0.12110455938E+02 -0.31319311080E+02  0.19282471246E+02  0.39005975015E+02  0.47000000000E+01 0. -1.
        -13    1    6    6    0    0 -0.29730200988E+02 -0.36888588458E+00  0.18296329942E+01  0.29788730831E+02  0.00000000000E+00 0.  1.
         14    1    6    6    0    0 -0.43831337862E+02  0.10094066963E+03 -0.95027436774E+02  0.14539745081E+03  0.00000000000E+00 0. -1.
         -5    1    3    3    0  503  0.23383010890E+02 -0.74478677700E+02 -0.12812425275E+03  0.15010580526E+03  0.47000000000E+01 0.  1.
         11    1    4    4    0    0  0.16028866239E+02  0.41481207483E+02 -0.19346904970E+03  0.19851420181E+03  0.00000000000E+00 0. -1.
        -12    1    4    4    0    0  0.46260117659E+02 -0.36255002445E+02 -0.30648763703E+03  0.31207225981E+03  0.00000000000E+00 0.  1.
</event>
<event>
12    1  0.8488291E-002  0.2087364E+03  0.7818608E-02  0.1144360E+00
         21   -1    0    0  501  502  0.00000000000E+00  0.00000000000E+00  0.41172262032E+03  0.41172262032E+03  0.00000000000E+00 0.  1.
         21   -1    0    0  502  503 -0.00000000000E+00 -0.00000000000E+00 -0.10359610601E+03  0.10359610601E+03  0.00000000000E+00 0.  1.
         -6    2    1    2    0  503 -0.11626818813E+03 -0.21592290573E+02  0.12003119753E+03  0.24078701856E+03  0.17200692237E+03 0.  0.
        -24    2    3    3    0    0 -0.13965087082E+03  0.16225213872E+02  0.77210838371E+02  0.17887913012E+03  0.79187160220E+02 0.  0.
          6    2    1    2  501    0  0.11626818813E+03  0.21592290573E+02  0.18809531679E+03  0.27453170778E+03  0.16125536207E+03 0.  0.
         24    2    5    5    0    0  0.14546095539E+03  0.54265132801E+01  0.14853518829E+03  0.22256398912E+03  0.79269732581E+02 0.  0.
          5    1    5    5  501    0 -0.29192767261E+02  0.16165777293E+02  0.39560128495E+02  0.51967718657E+02  0.47000000000E+01 0. -1.
        -11    1    6    6    0    0  0.21792970967E+02 -0.12976896821E+02  0.71120273830E+02  0.75507792872E+02  0.00000000000E+00 0.  1.
         12    1    6    6    0    0  0.12366798442E+03  0.18403410101E+02  0.77414914462E+02  0.14705619625E+03  0.00000000000E+00 0. -1.
         -5    1    3    3    0  503  0.23382682698E+02 -0.37817504445E+02  0.42820359156E+02  0.61907888438E+02  0.47000000000E+01 0.  1.
         13    1    4    4    0    0 -0.14265664118E+03  0.16441891525E+02  0.87499032857E+02  0.16815865670E+03  0.00000000000E+00 0. -1.
        -14    1    4    4    0    0  0.30057703609E+01 -0.21667765331E+00 -0.10288194486E+02  0.10720473424E+02  0.00000000000E+00 0.  1.
</event>
<event>
12    1  0.8488291E-002  0.1838362E+03  0.7818608E-02  0.1164299E+00
         21   -1    0    0  503  502  0.00000000000E+00  0.00000000000E+00  0.64573562927E+02  0.64573562927E+02  0.00000000000E+00 0.  1.
         21   -1    0    0  501  503 -0.00000000000E+00 -0.00000000000E+00 -0.53923785421E+03  0.53923785421E+03  0.00000000000E+00 0.  1.
          6    2    1    2  501    0 -0.63807185238E+02 -0.48137702527E+01 -0.18210227045E+03  0.25828531253E+03  0.17162615329E+03 0.  0.
         24    2    3    3    0    0 -0.58557561873E+02 -0.44723813578E+02 -0.46732575916E+02  0.11697921110E+03  0.77916587607E+02 0.  0.
         -6    2    1    2    0  502  0.63807185238E+02  0.48137702527E+01 -0.29256202084E+03  0.34552610461E+03  0.17234042955E+03 0.  0.
        -24    2    5    5    0    0  0.26928977561E+02 -0.44343518860E+02 -0.25831032007E+03  0.27501574877E+03  0.78853808555E+02 0.  0.
          5    1    3    3  501    0 -0.52496233645E+01  0.39910043325E+02 -0.13536969453E+03  0.14130610143E+03  0.47000000000E+01 0. -1.
        -11    1    4    4    0    0 -0.71962825748E+02 -0.26427693062E+02 -0.15228943383E+02  0.78160040729E+02  0.00000000000E+00 0.  1.
         12    1    4    4    0    0  0.13405263875E+02 -0.18296120515E+02 -0.31503632534E+02  0.38819170371E+02  0.00000000000E+00 0. -1.
         -5    1    5    5    0  502  0.36878207677E+02  0.49157289113E+02 -0.34251700771E+02  0.70510355835E+02  0.47000000000E+01 0.  1.
         11    1    6    6    0    0  0.15628057522E+02 -0.18921610552E+02 -0.24100674380E+03  0.24225299603E+03  0.00000000000E+00 0. -1.
        -12    1    6    6    0    0  0.11300920039E+02 -0.25421908308E+02 -0.17303576263E+02  0.32762752742E+02  0.00000000000E+00 0.  1.
</event>
<event>
12    1  0.8488291E-002  0.2495699E+03  0.7818608E-02  0.1113692E+00
         21   -1    0    0  503  502  0.00000000000E+00  0.00000000000E+00  0.11683888150E+04  0.11683888150E+04  0.00000000000E+00 0. -1.
         21   -1    0    0  501  503 -0.00000000000E+00 -0.00000000000E+00 -0.57622579872E+02  0.57622579872E+02  0.00000000000E+00 0. -1.
          6    2    1    2  501    0 -0.22273767772E+02  0.17847926912E+03  0.38541328818E+03  0.45916068565E+03  0.17301491931E+03 0.  0.
         24    2    3    3    0    0  0.26417482450E+01  0.96055265808E+02  0.33955963972E+03  0.36149213218E+03  0.78372315104E+02 0.  0.
         -6    2    1    2    0  502  0.22273767772E+02 -0.17847926912E+03  0.72535294699E+03  0.76685070926E+03  0.17196552664E+03 0.  0.
        -24    2    5    5    0    0 -0.49284977082E+02 -0.13174333142E+03  0.50335749602E+03  0.52892430869E+03  0.81282477719E+02 0.  0.
          5    1    3    3  501    0 -0.24915516017E+02  0.82424003316E+02  0.45853648458E+02  0.97668553475E+02  0.47000000000E+01 0. -1.
        -11    1    4    4    0    0 -0.22418318404E+02 -0.22201848631E+01  0.65803375451E+02  0.69552817640E+02  0.00000000000E+00 0.  1.
         12    1    4    4    0    0  0.25060066649E+02  0.98275450671E+02  0.27375626427E+03  0.29193931454E+03  0.00000000000E+00 0. -1.
         -5    1    5    5    0  502  0.71558744854E+02 -0.46735937704E+02  0.22199545097E+03  0.23792640057E+03  0.47000000000E+01 0.  1.
         13    1    6    6    0    0 -0.39823079210E+02 -0.12094353416E+03  0.49729650691E+03  0.51333910028E+03  0.00000000000E+00 0. -1.
        -14    1    6    6    0    0 -0.94618978720E+01 -0.10799797259E+02  0.60609891122E+01  0.15585208411E+02  0.00000000000E+00 0.  1.
</event>
<event>
12    1  0.8488291E-002  0.2656700E+03  0.7818608E-02  0.1103795E+00
         21   -1    0    0  501  502  0.00000000000E+00  0.00000000000E+00  0.21903378883E+03  0.21903378883E+03  0.00000000000E+00 0.  1.
         21   -1    0    0  502  503 -0.00000000000E+00 -0.00000000000E+00 -0.58939891071E+03  0.58939891071E+03  0.00000000000E+00 0.  1.
         -6    2    1    2    0  503 -0.19884413005E+03 -0.39676879293E+02 -0.45735983677E+03  0.52888194307E+03  0.17153672088E+03 0.  0.
        -24    2    3    3    0    0 -0.57772579450E+02 -0.61190281430E+02 -0.15573952549E+03  0.19517412022E+03  0.82196203821E+02 0.  0.
          6    2    1    2  501    0  0.19884413005E+03  0.39676879293E+02  0.86994714890E+02  0.27955075647E+03  0.17166042706E+03 0.  0.
         24    2    5    5    0    0  0.11759509234E+03  0.57709172433E+02  0.11502552380E+03  0.19160539858E+03  0.79516056967E+02 0.  0.
          5    1    5    5  501    0  0.81249037710E+02 -0.18032293140E+02 -0.28030808915E+02  0.87945357883E+02  0.47000000000E+01 0. -1.
        -13    1    6    6    0    0  0.93798582589E+02  0.87843303847E+01  0.49447074387E+02  0.10639714151E+03  0.00000000000E+00 0.  1.
         14    1    6    6    0    0  0.23796509747E+02  0.48924842048E+02  0.65578449417E+02  0.85208257074E+02  0.00000000000E+00 0. -1.
         -5    1    3    3    0  503 -0.14107155060E+03  0.21513402138E+02 -0.30162031128E+03  0.33370782286E+03  0.47000000000E+01 0.  1.
         11    1    4    4    0    0 -0.30644594546E+02  0.12957124039E+02 -0.22062078396E+02  0.39921341929E+02  0.00000000000E+00 0. -1.
        -12    1    4    4    0    0 -0.27127984904E+02 -0.74147405469E+02 -0.13367744710E+03  0.15525277829E+03  0.00000000000E+00 0.  1.
</event>
<event>
12    1  0.8488291E-002  0.2283558E+03  0.7818608E-02  0.1128055E+00
         21   -1    0    0  501  502  0.00000000000E+00  0.00000000000E+00  0.75276736035E+03  0.75276736035E+03  0.00000000000E+00 0.  1.
         21   -1    0    0  502  503 -0.00000000000E+00 -0.00000000000E+00 -0.77803934102E+02  0.77803934102E+02  0.00000000000E+00 0.  1.
         -6    2    1    2    0  503 -0.13083100002E+03  0.70084789152E+02  0.47934289145E+03  0.53095759810E+03  0.17354462009E+03 0.  0.
        -24    2    3    3    0    0  0.90820507188E+01 -0.11646440113E+02  0.10582119312E+03  0.12377679707E+03  0.62485577274E+02 0.  0.
          6    2    1    2  501    0  0.13083100002E+03 -0.70084789152E+02  0.19562053480E+03  0.29961369635E+03  0.17167511517E+03 0.  0.
         24    2    5    5    0    0  0.66411781156E+02 -0.10916774438E+03  0.12396670229E+03  0.19552875574E+03  0.80843243107E+02 0.  0.
          5    1    5    5  501    0  0.64419218866E+02  0.39082955228E+02  0.71653832510E+02  0.10408494061E+03  0.47000000000E+01 0. -1.
        -11    1    6    6    0    0  0.40070109519E+02 -0.73524753204E+01  0.13285130890E+02  0.42850522435E+02  0.00000000000E+00 0.  1.
         12    1    6    6    0    0  0.26341671638E+02 -0.10181526906E+03  0.11068157140E+03  0.15267823331E+03  0.00000000000E+00 0. -1.
         -5    1    3    3    0  503 -0.13991305074E+03  0.81731229264E+02  0.37352169833E+03  0.40718080103E+03  0.47000000000E+01 0.  1.
         11    1    4    4    0    0 -0.12559643675E+02 -0.24564872131E+02  0.19327661822E+02  0.33685844260E+02  0.00000000000E+00 0. -1.
        -12    1    4    4    0    0  0.21641694394E+02  0.12918432018E+02  0.86493531294E+02  0.90090952807E+02  0.00000000000E+00 0.  1.
</event>
<event>
12    1  0.8488291E-002  0.1793742E+03  0.7818608E-02  0.1168866E+00
         21   -1    0    0  503  502  0.00000000000E+00  0.00000000000E+00  0.91133719117E+03  0.91133719117E+03  0.00000000000E+00 0.  1.
         21   -1    0    0  501  503 -0.00000000000E+00 -0.00000000000E+00 -0.72270895736E+02  0.72270895736E+02  0.00000000000E+00 0.  1.
          6    2    1    2  501    0  0.16137179087E+02  0.28977325311E+02  0.67128087668E+02  0.19152361960E+03  0.17628109025E+03 0.  0.
         24    2    3    3    0    0  0.67116739180E+02  0.55621895285E+02  0.33530407810E+02  0.12474231422E+03  0.82691624705E+02 0.  0.
         -6    2    1    2    0  502 -0.16137179087E+02 -0.28977325311E+02  0.77193820776E+03  0.79208446730E+03  0.17438208855E+03 0.  0.
        -24    2    5    5    0    0 -0.19118313370E+01  0.49440662080E+02  0.48257304668E+03  0.49190780646E+03  0.81538398988E+02 0.  0.
          5    1    3    3  501    0 -0.50979560092E+02 -0.26644569974E+02  0.33597679858E+02  0.66781305379E+02  0.47000000000E+01 0. -1.
        -11    1    4    4    0    0  0.39369853054E+01  0.51093375059E+02 -0.35107650137E+01  0.51364952051E+02  0.00000000000E+00 0.  1.
         12    1    4    4    0    0  0.63179753874E+02  0.45285202258E+01  0.37041172824E+02  0.73377362171E+02  0.00000000000E+00 0. -1.
         -5    1    5    5    0  502 -0.14225347750E+02 -0.78417987391E+02  0.28936516108E+03  0.30017666084E+03  0.47000000000E+01 0.  1.
         11    1    6    6    0    0 -0.33615531139E+02  0.44562372578E+02  0.20416941118E+03  0.21166236662E+03  0.00000000000E+00 0. -1.
        -12    1    6    6    0    0  0.31703699802E+02  0.48782895019E+01  0.27840363550E+03  0.28024543984E+03  0.00000000000E+00 0.  1.
</event>
<event>
12    1  0.8488291E-002  0.2338650E+03  0.7818608E-02  0.1124145E+00
         21   -1    0    0  503  502  0.00000000000E+00  0.00000000000E+00  0.13407007652E+03  0.13407007652E+03  0.00000000000E+00 0. -1.
         21   -1    0    0  501  503 -0.00000000000E+00 -0.00000000000E+00 -0.65369482603E+03  0.65369482603E+03  0.00000000000E+00 0.  1.
          6    2    1    2  501    0 -0.12215712123E+02  0.15770719663E+03 -0.50268518299E+03  0.55442331460E+03  0.17225572582E+03 0.  0.
         24    2    3    3    0    0  0.30461486721E+01  0.15545044485E+03 -0.27369191704E+03  0.32486281457E+03  0.80339672689E+02 0.  0.
         -6    2    1    2    0  502  0.12215712123E+02 -0.15770719663E+03 -0.16939566526E+02  0.23334158795E+03  0.17070607565E+03 0.  0.
        -24    2    5    5    0    0 -0.53941172882E+02 -0.65836215877E+02 -0.27744793748E+02  0.11951780541E+03  0.79187592314E+02 0.  0.
          5    1    3    3  501    0 -0.15261860795E+02  0.22567517788E+01 -0.22899326595E+03  0.22956050003E+03  0.47000000000E+01 0. -1.
        -13    1    4    4    0    0  0.21345787814E+02  0.15233940927E+03 -0.22326180940E+03  0.27112501510E+03  0.00000000000E+00 0.  1.
         14    1    4    4    0    0 -0.18299639141E+02  0.31110355787E+01 -0.50430107638E+02  0.53737799466E+02  0.00000000000E+00 0. -1.
         -5    1    5    5    0  502  0.66156885005E+02 -0.91870980753E+02  0.10805227222E+02  0.11382378255E+03  0.47000000000E+01 0.  1.
         13    1    6    6    0    0 -0.20294500102E+02 -0.21567620995E+02  0.28019006042E+02  0.40768783516E+02  0.00000000000E+00 0. -1.
        -14    1    6    6    0    0 -0.33646672780E+02 -0.44268594882E+02 -0.55763799789E+02  0.78749021892E+02  0.00000000000E+00 0.  1.
</event>
<event>
12    1  0.8488291E-002  0.1781585E+03  0.7818608E-02  0.1169941E+00
         21   -1    0    0  501  502  0.00000000000E+00  0.00000000000E+00  0.60225281303E+03  0.60225281303E+03  0.00000000000E+00 0. -1.
         21   -1    0    0  502  503 -0.00000000000E+00 -0.00000000000E+00 -0.92025249247E+02  0.92025249247E+02  0.00000000000E+00 0. -1.
         -6    2    1    2    0  503  0.29739815455E+00  0.40725881651E+02  0.27580031627E+02  0.18028067713E+03  0.17344099435E+03 0.  0.
        -24    2    3    3    0    0  0.31237049705E+02 -0.39216064576E+02  0.21510795172E+02  0.94217314217E+02  0.76814939916E+02 0.  0.
          6    2    1    2  501    0 -0.29739815455E+00 -0.40725881651E+02  0.48264753216E+03  0.51399738515E+03  0.17200577246E+03 0.  0.
         24    2    5    5    0    0 -0.33528634467E+02  0.65830880379E+01  0.12375765179E+03  0.15045029066E+03  0.78433584681E+02 0.  0.
          5    1    5    5  501    0  0.33231236313E+02 -0.47308969689E+02  0.35888988037E+03  0.36354709449E+03  0.47000000000E+01 0. -1.
        -13    1    6    6    0    0 -0.44029967087E+02  0.32846174495E+02  0.97217695346E+02  0.11166373390E+03  0.00000000000E+00 0.  1.
         14    1    6    6    0    0  0.10501332620E+02 -0.26263086457E+02  0.26539956442E+02  0.38786556756E+02  0.00000000000E+00 0. -1.
         -5    1    3    3    0  503 -0.30939651550E+02  0.79941946227E+02  0.60692364550E+01  0.86063362913E+02  0.47000000000E+01 0.  1.
         11    1    4    4    0    0  0.32141046205E+02 -0.35852710656E+01 -0.21138186515E+02  0.38635785858E+02  0.00000000000E+00 0. -1.
        -12    1    4    4    0    0 -0.90399649953E+00 -0.35630793510E+02  0.42648981686E+02  0.55581528359E+02  0.00000000000E+00 0.  1.
</event>
<event>
12    1  0.8488291E-002  0.2249525E+03  0.7818608E-02  0.1132206E+00
         21   -1    0    0  501  502  0.00000000000E+00  0.00000000000E+00  0.19091567222E+04  0.19091567222E+04  0.00000000000E+00 0.  1.
         21   -1    0    0  502  503 -0.00000000000E+00 -0.00000000000E+00 -0.26539347199E+02  0.26539347199E+02  0.00000000000E+00 0. -1.
         -6    2    1    2    0  503  0.29927018671E+02 -0.14068350092E+03  0.11308664990E+04  0.11510094928E+04  0.15898534597E+03 0.  0.
        -24    2    3    3    0    0  0.80623889917E+01 -0.12096955763E+03  0.53262633909E+03  0.55202695512E+03  0.79651152561E+02 0.  0.
          6    2    1    2  501    0 -0.29927018671E+02  0.14068350092E+03  0.75175087599E+03  0.78468657652E+03  0.17296291492E+03 0.  0.
         24    2    5    5    0    0 -0.28341545135E+02  0.12095522491E+03  0.31977703413E+03  0.35223402577E+03  0.79862680503E+02 0.  0.
          5    1    5    5  501    0 -0.15854735355E+01  0.19728276013E+02  0.43197384186E+03  0.43245255075E+03  0.47000000000E+01 0. -1.
        -13    1    6    6    0    0  0.21529967575E+02  0.44555197517E+02  0.16808897756E+03  0.17522160114E+03  0.00000000000E+00 0.  1.
         14    1    6    6    0    0 -0.49871512711E+02  0.76400027394E+02  0.15168805658E+03  0.17701242463E+03  0.00000000000E+00 0. -1.
         -5    1    3    3    0  503  0.21864629679E+02 -0.19713943295E+02  0.59824015988E+03  0.59898253771E+03  0.47000000000E+01 0.  1.
         13    1    4    4    0    0  0.22607377115E+02 -0.11417041903E+03  0.51580575285E+03  0.52877363092E+03  0.00000000000E+00 0. -1.
        -14    1    4    4    0    0 -0.14544988124E+02 -0.67991386039E+01  0.16820586237E+02  0.23253324206E+02  0.00000000000E+00 0.  1.
</event>
<event>
12    1  0.8488291E-002  0.2184410E+03  0.7818608E-02  0.1135087E+00
         21   -1    0    0  501  502  0.00000000000E+00  0.00000000000E+00  0.78637351871E+03  0.78637351871E+03  0.00000000000E+00 0. -1.
         21   -1    0    0  502  503 -0.00000000000E+00 -0.00000000000E+00 -0.60651839716E+02  0.60651839716E+02  0.00000000000E+00 0.  1.
         -6    2    1    2    0  503  0.93504266330E+02 -0.96219970463E+02  0.37158813930E+03  0.43093998726E+03  0.17213424068E+03 0.  0.
        -24    2    3    3    0    0  0.72321590386E+02 -0.81106354446E+02  0.38017092677E+03  0.40313924285E+03  0.78629907815E+02 0.  0.
          6    2    1    2  501    0 -0.93504266330E+02  0.96219970463E+02  0.35413353969E+03  0.41608537116E+03  0.17238080410E+03 0.  0.
         24    2    5    5    0    0  0.26556327205E+01  0.75476697626E+02  0.12845802410E+03  0.16985674186E+03  0.81523398655E+02 0.  0.
          5    1    5    5  501    0 -0.96159899051E+02  0.20743272837E+02  0.22567551559E+03  0.24622862931E+03  0.47000000000E+01 0. -1.
        -11    1    6    6    0    0 -0.20876695274E+02  0.42332457020E+01  0.24404431064E+00  0.21302965342E+02  0.00000000000E+00 0.  1.
         12    1    6    6    0    0  0.23532327994E+02  0.71243451924E+02  0.12821397979E+03  0.14855377652E+03  0.00000000000E+00 0. -1.
         -5    1    3    3    0  503  0.21182675944E+02 -0.15113616017E+02 -0.85827874610E+01  0.27800744412E+02  0.47000000000E+01 0.  1.
         11    1    4    4    0    0  0.75581801188E+02 -0.58303042795E+02  0.20123998584E+03  0.22273164430E+03  0.00000000000E+00 0. -1.
        -12    1    4    4    0    0 -0.32602108014E+01 -0.22803311652E+02  0.17893094092E+03  0.18040759856E+03  0.00000000000E+00 0.  1.
</event>
<event>
12    1  0.8488291E-002  0.2879808E+03  0.7818608E-02  0.1092469E+00
         21   -1    0    0  501  502  0.00000000000E+00  0.00000000000E+00  0.98166762291E+03  0.98166762291E+03  0.00000000000E+00 0. -1.
         21   -1    0    0  502  503 -0.00000000000E+00 -0.00000000000E+00 -0.13766136650E+03  0.13766136650E+03  0.00000000000E+00 0.  1.
         -6    2    1    2    0  503 -0.20807644704E+03  0.74520252962E+02  0.70209344459E+02  0.29641573511E+03  0.18461814662E+03 0.  0.
        -24    2    3    3    0    0 -0.22947235136E+03  0.78202450938E+02  0.85779594174E+02  0.26928888532E+03  0.79907331399E+02 0.  0.
          6    2    1    2  501    0  0.20807644704E+03 -0.74520252962E+02  0.77379691195E+03  0.82291325429E+03  0.17197525177E+03 0.  0.
         24    2    5    5    0    0  0.19287266857E+03 -0.75139552241E+01  0.54415048694E+03  0.58316219728E+03  0.81988231427E+02 0.  0.
          5    1    5    5  501    0  0.15203778469E+02 -0.67006297738E+02  0.22964642501E+03  0.23975105701E+03  0.47000000000E+01 0. -1.
        -13    1    6    6    0    0  0.12058207647E+03 -0.21858110583E+02  0.23141737930E+03  0.26186221111E+03  0.00000000000E+00 0.  1.
         14    1    6    6    0    0  0.72290592103E+02  0.14344155359E+02  0.31273310764E+03  0.32129998617E+03  0.00000000000E+00 0. -1.
         -5    1    3    3    0  503  0.21395904317E+02 -0.36821979756E+01 -0.15570249715E+02  0.27126849793E+02  0.47000000000E+01 0.  1.
         11    1    4    4    0    0 -0.10563770043E+03  0.59754888626E+01  0.65662432715E+02  0.12452544033E+03  0.00000000000E+00 0. -1.
        -12    1    4    4    0    0 -0.12383465093E+03  0.72226962075E+02  0.20117161459E+02  0.14476344499E+03  0.00000000000E+00 0.  1.
</event>
<event>
12    1  0.8488291E-002  0.2272577E+03  0.7818608E-02  0.1128813E+00
         21   -1    0    0  503  502  0.00000000000E+00  0.00000000000E+00  0.11924656065E+03  0.11924656065E+03  0.00000000000E+00 0. -1.
         21   -1    0    0  501  503 -0.00000000000E+00 -0.00000000000E+00 -0.92083101835E+03  0.92083101835E+03  0.00000000000E+00 0. -1.
          6    2    1    2  501    0  0.11172935627E+03  0.96720327518E+02 -0.77967550058E+03  0.81176626556E+03  0.17097459723E+03 0.  0.
         24    2    3    3    0    0  0.23361508379E+02  0.85448951036E+02 -0.28075457378E+03  0.30493285934E+03  0.79458383442E+02 0.  0.
         -6    2    1    2    0  502 -0.11172935627E+03 -0.96720327518E+02 -0.21908957126E+02  0.22831131344E+03  0.17264930534E+03 0.  0.
        -24    2    5    5    0    0 -0.51936644169E+02 -0.21423822823E+02  0.40470312540E+02  0.11360300806E+03  0.90063322448E+02 0.  0.
          5    1    3    3  501    0  0.88367847892E+02  0.11271376483E+02 -0.49892092680E+03  0.50683340623E+03  0.47000000000E+01 0. -1.
        -11    1    4    4    0    0 -0.70366371937E+01 -0.11750230407E+02 -0.14895007414E+02  0.20234708386E+02  0.00000000000E+00 0.  1.
         12    1    4    4    0    0  0.30398145573E+02  0.97199181443E+02 -0.26585956637E+03  0.28469815095E+03  0.00000000000E+00 0. -1.
         -5    1    5    5    0  502 -0.59792712101E+02 -0.75296504696E+02 -0.62379269666E+02  0.11470830538E+03  0.47000000000E+01 0.  1.
         11    1    6    6    0    0 -0.65798023690E+02 -0.44230848993E+02  0.27386014689E+02  0.83879328351E+02  0.00000000000E+00 0. -1.
        -12    1    6    6    0    0  0.13861379521E+02  0.22807026170E+02  0.13084297851E+02  0.29723679705E+02  0.00000000000E+00 0.  1.
</event>
<event>
12    1  0.8488291E-002  0.2254800E+03  0.7818608E-02  0.1130287E+00
         21   -1    0    0  503  502  0.00000000000E+00  0.00000000000E+00  0.73867753428E+02  0.73867753428E+02  0.00000000000E+00 0. -1.
         21   -1    0    0  501  503 -0.00000000000E+00 -0.00000000000E+00 -0.12533565064E+04  0.12533565064E+04  0.00000000000E+00 0. -1.
          6    2    1    2  501    0 -0.13837934018E+03 -0.28773543511E+02 -0.10398049937E+04  0.10639716402E+04  0.17568286093E+03 0.  0.
         24    2    3    3    0    0 -0.64147416551E+02  0.24976536414E+02 -0.29894753435E+03  0.31745217317E+03  0.81654978621E+02 0.  0.
         -6    2    1    2    0  502  0.13837934018E+03  0.28773543511E+02 -0.13968375924E+03  0.26325261959E+03  0.17266624029E+03 0.  0.
        -24    2    5    5    0    0  0.13184674053E+03 -0.34292492530E+02 -0.94015499919E+02  0.18497312248E+03  0.82562726346E+02 0.  0.
          5    1    3    3  501    0 -0.74231923625E+02 -0.53750079926E+02 -0.74085745936E+03  0.74651946704E+03  0.47000000000E+01 0. -1.
        -11    1    4    4    0    0  0.17266933017E+02 -0.26253974640E+00 -0.92542632454E+02  0.94140080330E+02  0.00000000000E+00 0.  1.
         12    1    4    4    0    0 -0.81414349568E+02  0.25239076161E+02 -0.20640490190E+03  0.22331209284E+03  0.00000000000E+00 0. -1.
         -5    1    5    5    0  502  0.65325996475E+01  0.63066036041E+02 -0.45668259317E+02  0.78279497118E+02  0.47000000000E+01 0.  1.
         11    1    6    6    0    0  0.14436075944E+01 -0.21282288516E+02  0.35076435994E+01  0.21617663403E+02  0.00000000000E+00 0. -1.
        -12    1    6    6    0    0  0.13040313293E+03 -0.13010204014E+02 -0.97523143518E+02  0.16335545907E+03  0.00000000000E+00 0.  1.
</event>
<event>
12    1  0.8488291E-002  0.2054263E+03  0.7818608E-02  0.1145268E+00
         21   -1    0    0  501  502  0.00000000000E+00  0.00000000000E+00  0.13480432988E+03  0.13480432988E+03  0.00000000000E+00 0. -1.
         21   -1    0    0  502  503 -0.00000000000E+00 -0.00000000000E+00 -0.43367897380E+03  0.43367897380E+03  0.00000000000E+00 0. -1.
         -6    2    1    2    0  503 -0.11092938843E+03 -0.12135566442E+02 -0.29944415292E+03  0.36305626175E+03  0.17230916194E+03 0.  0.
        -24    2    3    3    0    0 -0.13670138681E+03 -0.13429719485E+02 -0.29706146336E+03  0.33671925467E+03  0.79162598063E+02 0.  0.
          6    2    1    2  501    0  0.11092938843E+03  0.12135566442E+02  0.56950899334E+00  0.20542704193E+03  0.17247418364E+03 0.  0.
         24    2    5    5    0    0  0.21619164084E+02 -0.28953353658E+02  0.43084480357E+02  0.98215902962E+02  0.80525810789E+02 0.  0.
          5    1    5    5  501    0  0.89310224348E+02  0.41088920101E+02 -0.42514971364E+02  0.10721113897E+03  0.47000000000E+01 0. -1.
        -11    1    6    6    0    0 -0.77315336230E+01  0.23594506212E+02  0.11435754203E+01  0.24855283146E+02  0.00000000000E+00 0.  1.
         12    1    6    6    0    0  0.29350697707E+02 -0.52547859870E+02  0.41940904937E+02  0.73360619816E+02  0.00000000000E+00 0. -1.
         -5    1    3    3    0  503  0.25771998378E+02  0.12941530428E+01 -0.23826895617E+01  0.26337007082E+02  0.47000000000E+01 0.  1.
         13    1    4    4    0    0 -0.52727989412E+02  0.10052230017E+02 -0.45140949960E+02  0.70135537062E+02  0.00000000000E+00 0. -1.
        -14    1    4    4    0    0 -0.83973397399E+02 -0.23481949502E+02 -0.25192051340E+03  0.26658371761E+03  0.00000000000E+00 0.  1.
</event>
<event>
12    1  0.8488291E-002  0.1748709E+03  0.7818608E-02  0.1173434E+00
         21   -1    0    0  503  502  0.00000000000E+00  0.00000000000E+00  0.67340312764E+02  0.67340312764E+02  0.00000000000E+00 0.  1.
         21   -1    0    0  501  503 -0.00000000000E+00 -0.00000000000E+00 -0.46177404726E+03  0.46177404726E+03  0.00000000000E+00 0.  1.
          6    2    1    2  501    0  0.15442220574E+02  0.21139954124E+02 -0.24373723663E+03  0.29997947936E+03  0.17290022464E+03 0.  0.
         24    2    3    3    0    0  0.52672249350E+02  0.18143022924E+02 -0.61588639329E+02  0.11398147362E+03  0.78070997831E+02 0.  0.
         -6    2    1    2    0  502 -0.15442220574E+02 -0.21139954124E+02 -0.15069649787E+03  0.22913488067E+03  0.17061066564E+03 0.  0.
        -24    2    5    5    0    0  0.55371874081E+01 -0.11287062023E+02  0.13093661191E+02  0.63646146166E+02  0.61002702767E+02 0.  0.
          5    1    3    3  501    0 -0.37230028776E+02  0.29969312001E+01 -0.18214859731E+03  0.18599800574E+03  0.47000000000E+01 0. -1.
        -13    1    4    4    0    0  0.61133375467E+02  0.22325708408E+02 -0.73897011004E+02  0.98470782912E+02  0.00000000000E+00 0.  1.
         14    1    4    4    0    0 -0.84611261169E+01 -0.41826854838E+01  0.12308371675E+02  0.15510690711E+02  0.00000000000E+00 0. -1.
         -5    1    5    5    0  502 -0.20979407982E+02 -0.98528921011E+01 -0.16379015906E+03  0.16548873450E+03  0.47000000000E+01 0.  1.
         13    1    6    6    0    0  0.11242980202E+02  0.13998955546E+02 -0.16444036623E+02  0.24347108671E+02  0.00000000000E+00 0. -1.
        -14    1    6    6    0    0 -0.57057927939E+01 -0.25286017569E+02  0.29537697813E+02  0.39299037495E+02  0.00000000000E+00 0.  1.
</event>
<event>
12    1  0.8488291E-002  0.1970902E+03  0.7818608E-02  0.1152698E+00
         21   -1    0    0  501  502  0.00000000000E+00  0.00000000000E+00  0.82648441743E+03  0.82648441743E+03  0.00000000000E+00 0.  1.
         21   -1    0    0  502  503 -0.00000000000E+00 -0.00000000000E+00 -0.46561676715E+02  0.46561676715E+02  0.00000000000E+00 0.  1.
         -6    2    1    2    0  503  0.21809142652E+00  0.93743036524E+02  0.37298826236E+03  0.42185875216E+03  0.17336885089E+03 0.  0.
        -24    2    3    3    0    0  0.39657177318E+02  0.16600820625E+02  0.97284448892E+02  0.13282407305E+03  0.79559357888E+02 0.  0.
          6    2    1    2  501    0 -0.21809142652E+00 -0.93743036524E+02  0.40693447836E+03  0.45118734198E+03  0.17084069605E+03 0.  0.
         24    2    5    5    0    0  0.31204196017E+02 -0.12170381583E+03  0.34855280422E+03  0.37907856858E+03  0.80162230418E+02 0.  0.
          5    1    5    5  501    0 -0.31422287444E+02  0.27960779302E+02  0.58381674134E+02  0.72108773405E+02  0.47000000000E+01 0. -1.
        -11    1    6    6    0    0  0.18482402311E+02 -0.36047801250E+02  0.22243223291E+03  0.22609100249E+03  0.00000000000E+00 0.  1.
         12    1    6    6    0    0  0.12721793706E+02 -0.85656014576E+02  0.12612057132E+03  0.15298756609E+03  0.00000000000E+00 0. -1.
         -5    1    3    3    0  503 -0.39439085891E+02  0.77142215900E+02  0.27570381346E+03  0.28903467911E+03  0.47000000000E+01 0.  1.
         11    1    4    4    0    0  0.59254603100E+02 -0.46039754230E+01  0.78163968544E+02  0.98193230708E+02  0.00000000000E+00 0. -1.
        -12    1    4    4    0    0 -0.19597425782E+02  0.21204796048E+02  0.19120480348E+02  0.34630842344E+02  0.00000000000E+00 0.  1.
</event>
<event>
12    1  0.8488291E-002  0.2293659E+03  0.7818608E-02  0.1127227E+00
         21   -1    0    0  503  502  0.00000000000E+00  0.00000000000E+00  0.11415821510E+04  0.11415821510E+04  0.00000000000E+00 0.  1.
         21   -1    0    0  501  503 -0.00000000000E+00 -0.00000000000E+00 -0.56711587210E+02  0.56711587210E+02  0.00000000000E+00 0. -1.
          6    2    1    2  501    0 -0.76342513939E+02 -0.13061813225E+03  0.28189810695E+03  0.36342160540E+03  0.17239328486E+03 0.  0.
         24    2    3    3    0    0 -0.11345860778E+03 -0.68606315664E+02  0.16466708392E+03  0.22562366427E+03  0.78810577499E+02 0.  0.
         -6    2    1    2    0  502  0.76342513939E+02  0.13061813225E+03  0.80297245686E+03  0.83487213283E+03  0.17134011728E+03 0.  0.
        -24    2    5    5    0    0 -0.19571997063E+02  0.46456468426E+02  0.46560735022E+03  0.47415051682E+03  0.74075917091E+02 0.  0.
          5    1    3    3  501    0  0.37116093842E+02 -0.62011816582E+02  0.11723102303E+03  0.13779794112E+03  0.47000000000E+01 0. -1.
        -11    1    4    4    0    0 -0.55296022729E+02 -0.29856448648E+01  0.10756697879E+03  0.12098437556E+03  0.00000000000E+00 0.  1.
         12    1    4    4    0    0 -0.58162585052E+02 -0.65620670800E+02  0.57100105132E+02  0.10463928871E+03  0.00000000000E+00 0. -1.
         -5    1    5    5    0  502  0.95914511002E+02  0.84161663820E+02  0.33736510664E+03  0.36072161601E+03  0.47000000000E+01 0.  1.
         13    1    6    6    0    0  0.59969242023E+01 -0.14418868610E+02  0.32707229382E+02  0.36244030209E+02  0.00000000000E+00 0. -1.
        -14    1    6    6    0    0 -0.25568921265E+02  0.60875337036E+02  0.43290012084E+03  0.43790648661E+03  0.00000000000E+00 0.  1.
</event>
<event>
12    1  0.8488291E-002  0.1777766E+03  0.7818608E-02  0.1169980E+00
         21   -1    0    0  503  502  0.00000000000E+00  0.00000000000E+00  0.34240523976E+03  0.34240523976E+03  0.00000000000E+00 0. -1.
         21   -1    0    0  501  503 -0.00000000000E+00 -0.00000000000E+00 -0.12062715776E+03  0.12062715776E+03  0.00000000000E+00 0. -1.
          6    2    1    2  501    0 -0.30635393076E+02  0.38326059024E+02 -0.13369911990E+01  0.17775208161E+03  0.17084086415E+03 0.  0.
         24    2    3    3    0    0  0.26491094383E+02  0.32096805655E+02 -0.48722577764E+02  0.10312150489E+03  0.80797104978E+02 0.  0.
         -6    2    1    2    0  502  0.30635393076E+02 -0.38326059024E+02  0.22311507319E+03  0.28528031591E+03  0.17087161452E+03 0.  0.
        -24    2    5    5    0    0  0.62830669106E+02  0.13928092717E+02  0.85728293988E+02  0.13473381388E+03  0.81622150581E+02 0.  0.
          5    1    3    3  501    0 -0.57126487459E+02  0.62292533690E+01  0.47385586565E+02  0.74630576717E+02  0.47000000000E+01 0. -1.
        -13    1    4    4    0    0 -0.65574469204E+01  0.51850703008E+02 -0.30657222685E+02  0.60591755341E+02  0.00000000000E+00 0.  1.
         14    1    4    4    0    0  0.33048541304E+02 -0.19753897353E+02 -0.18065355079E+02  0.42529749553E+02  0.00000000000E+00 0. -1.
         -5    1    5    5    0  502 -0.32195276030E+02 -0.52254151741E+02  0.13738677921E+03  0.15054650203E+03  0.47000000000E+01 0.  1.
         13    1    6    6    0    0  0.84570887264E+01  0.23170359439E+02  0.74462654476E+02  0.78441537579E+02  0.00000000000E+00 0. -1.
        -14    1    6    6    0    0  0.54373580380E+02 -0.92422667217E+01  0.11265639512E+02  0.56292276301E+02  0.00000000000E+00 0.  1.
</event>
<event>
12    1  0.8488291E-002  0.2265915E+03  0.7818608E-02  0.1129137E+00
         21   -1    0    0  503  502  0.00000000000E+00  0.00000000000E+00  0.10559655343E+04  0.10559655343E+04  0.00000000000E+00 0.  1.
         21   -1    0    0  501  503 -0.00000000000E+00 -0.00000000000E+00 -0.48561779780E+02  0.48561779780E+02  0.00000000000E+00 0.  1.
          6    2    1    2  501    0 -0.80589178208E+02 -0.12358305011E+03  0.48976392502E+03  0.53946561585E+03  0.17142655137E+03 0.  0.
         24    2    3    3    0    0 -0.64066111244E+02 -0.14538160852E+03  0.47729493074E+03  0.50903939839E+03  0.77912640147E+02 0.  0.
         -6    2    1    2    0  502  0.80589178208E+02  0.12358305011E+03  0.51763982946E+03  0.56506169819E+03  0.17197774217E+03 0.  0.
        -24    2    5    5    0    0 -0.13395428169E+02  0.70377755430E+02  0.34458228348E+03  0.36101534601E+03  0.80390696049E+02 0.  0.
          5    1    3    3  501    0 -0.16523066964E+02  0.21798558410E+02  0.12468994279E+02  0.30426217461E+02  0.47000000000E+01 0. -1.
        -11    1    4    4    0    0 -0.23672751772E+02 -0.25268813344E+02  0.21461077611E+03  0.21738605596E+03  0.00000000000E+00 0.  1.
         12    1    4    4    0    0 -0.40393359473E+02 -0.12011279517E+03  0.26268415463E+03  0.29165334243E+03  0.00000000000E+00 0. -1.
         -5    1    5    5    0  502  0.93984606377E+02  0.53205294676E+02  0.17305754598E+03  0.20404635218E+03  0.47000000000E+01 0.  1.
         11    1    6    6    0    0  0.22728553567E+02  0.48702054891E+02  0.27054354607E+03  0.27583017894E+03  0.00000000000E+00 0. -1.
        -12    1    6    6    0    0 -0.36123981736E+02  0.21675700539E+02  0.74038737413E+02  0.85185167066E+02  0.00000000000E+00 0.  1.
</event>
<event>
12    1  0.8488291E-002  0.1806713E+03  0.7818608E-02  0.1167569E+00
         21   -1    0    0  503  502  0.00000000000E+00  0.00000000000E+00  0.66710190474E+02  0.66710190474E+02  0.00000000000E+00 0. -1.
         21   -1    0    0  501  503 -0.00000000000E+00 -0.00000000000E+00 -0.63457515997E+03  0.63457515997E+03  0.00000000000E+00 0. -1.
          6    2    1    2  501    0 -0.53742451788E+02  0.32595006586E+01 -0.45331422678E+03  0.48736016087E+03  0.17066711089E+03 0.  0.
         24    2    3    3    0    0 -0.57226391782E+02 -0.44672332320E+02 -0.40336876639E+03  0.41788903404E+03  0.81574541847E+02 0.  0.
         -6    2    1    2    0  502  0.53742451788E+02 -0.32595006586E+01 -0.11455074272E+03  0.21392518957E+03  0.17246228169E+03 0.  0.
        -24    2    5    5    0    0  0.35309605640E+02  0.30210928068E+01 -0.15002751295E+03  0.17318323457E+03  0.78919470604E+02 0.  0.
          5    1    3    3  501    0  0.34839399932E+01  0.47931832979E+02 -0.49945460381E+02  0.69471126832E+02  0.47000000000E+01 0. -1.
        -11    1    4    4    0    0 -0.95761002202E+01 -0.54469937134E+02 -0.14951008180E+03  0.15941123018E+03  0.00000000000E+00 0.  1.
         12    1    4    4    0    0 -0.47650291561E+02  0.97976048136E+01 -0.25385868459E+03  0.25847780386E+03  0.00000000000E+00 0. -1.
         -5    1    5    5    0  502  0.18432846148E+02 -0.62805934654E+01  0.35476770232E+02  0.40741955004E+02  0.47000000000E+01 0.  1.
         11    1    6    6    0    0  0.28014282891E+02  0.20603505044E+02 -0.16832215002E+02  0.38634543195E+02  0.00000000000E+00 0. -1.
        -12    1    6    6    0    0  0.72953227496E+01 -0.17582412237E+02 -0.13319529795E+03  0.13454869137E+03  0.00000000000E+00 0.  1.
</event>
<event>
12    1  0.8488291E-002  0.2108201E+03  0.7818608E-02  0.1140937E+00
         21   -1    0    0  503  502  0.00000000000E+00  0.00000000000E+00  0.10604900311E+03  0.10604900311E+03  0.00000000000E+00 0.  1.
         21   -1    0    0  501  503 -0.00000000000E+00 -0.00000000000E+00 -0.57382970763E+03  0.57382970763E+03  0.00000000000E+00 0. -1.
          6    2    1    2  501    0  0.41410013601E+02 -0.11344561147E+03 -0.41048214752E+03  0.46141077490E+03  0.17268356544E+03 0.  0.
         24    2    3    3    0    0 -0.38602171422E+02 -0.33464464334E+02 -0.19280071651E+03  0.21604119843E+03  0.83016173852E+02 0.  0.
         -6    2    1    2    0  502 -0.41410013601E+02  0.11344561147E+03 -0.57298557006E+02  0.21846793584E+03  0.17280167351E+03 0.  0.
        -24    2    5    5    0    0 -0.21435229593E+02  0.15873849129E+02  0.26844036348E+02  0.88002205401E+02  0.79450221611E+02 0.  0.
          5    1    3    3  501    0  0.80012185023E+02 -0.79981147136E+02 -0.21768143101E+03  0.24536957647E+03  0.47000000000E+01 0. -1.
        -13    1    4    4    0    0 -0.99876084802E+01 -0.18196524219E+02 -0.23021977319E+00  0.20758584199E+02  0.00000000000E+00 0.  1.
         14    1    4    4    0    0 -0.28614562942E+02 -0.15267940116E+02 -0.19257049674E+03  0.19528261423E+03  0.00000000000E+00 0. -1.
         -5    1    5    5    0  502 -0.19974784008E+02  0.97571762342E+02 -0.84142593354E+02  0.13046573044E+03  0.47000000000E+01 0.  1.
         11    1    6    6    0    0  0.25858346006E+02 -0.93007376380E+01  0.20005879547E+02  0.33991072287E+02  0.00000000000E+00 0. -1.
        -12    1    6    6    0    0 -0.47293575599E+02  0.25174586767E+02  0.68381568007E+01  0.54011133114E+02  0.00000000000E+00 0.  1.
</event>
<event>
12    1  0.8488291E-002  0.2324999E+03  0.7818608E-02  0.1125152E+00
         21   -1    0    0  501  502  0.00000000000E+00  0.00000000000E+00  0.20966277654E+04  0.20966277654E+04  0.00000000000E+00 0. -1.
         21   -1    0    0  502  503 -0.00000000000E+00 -0.00000000000E+00 -0.61666289238E+02  0.61666289238E+02  0.00000000000E+00 0. -1.
         -6    2    1    2    0  503  0.15411445905E+03  0.18388621008E+02  0.19102517622E+03  0.29975772493E+03  0.17109841564E+03 0.  0.
        -24    2    3    3    0    0  0.92644580458E+02 -0.14152714286E+02  0.34582781602E+02  0.12848660270E+03  0.80805449564E+02 0.  0.
          6    2    1    2  501    0 -0.15411445905E+03 -0.18388621008E+02  0.18439363000E+04  0.18585363297E+04  0.17310922200E+03 0.  0.
         24    2    5    5    0    0 -0.77839459210E+02 -0.65321154242E+02  0.75709588786E+03  0.76800219012E+03  0.79418801394E+02 0.  0.
          5    1    5    5  501    0 -0.76274999837E+02  0.46932533234E+02  0.10868404121E+04  0.10905341396E+04  0.47000000000E+01 0. -1.
        -13    1    6    6    0    0  0.61246853106E+01  0.74477137213E+01  0.16444519398E+02  0.19063116956E+02  0.00000000000E+00 0.  1.
         14    1    6    6    0    0 -0.83964144521E+02 -0.72768867963E+02  0.74065136847E+03  0.74893907317E+03  0.00000000000E+00 0. -1.
         -5    1    3    3    0  503  0.61469878589E+02  0.32541335293E+02  0.15644239462E+03  0.17127112223E+03  0.47000000000E+01 0.  1.
         11    1    4    4    0    0  0.99322358627E+02 -0.28120727950E+01  0.47423760004E+02  0.11009928106E+03  0.00000000000E+00 0. -1.
        -12    1    4    4    0    0 -0.66777781691E+01 -0.11340641491E+02 -0.12840978402E+02  0.18387321638E+02  0.00000000000E+00 0.  1.
</event>
<event>
12    1  0.8488291E-002  0.1996739E+03  0.7818608E-02  0.1150284E+00
         21   -1    0    0  503  502  0.00000000000E+00  0.00000000000E+00  0.29529074997E+03  0.29529074997E+03  0.00000000000E+00 0.  1.
         21   -1    0    0  501  503 -0.00000000000E+00 -0.00000000000E+00 -0.18586797706E+03  0.18586797706E+03  0.00000000000E+00 0. -1.
          6    2    1    2  501    0 -0.73235054644E+02 -0.64688969979E+02 -0.72053254026E+02  0.21227657465E+03  0.17413109045E+03 0.  0.
         24    2    3    3    0    0 -0.45214291276E+02 -0.30404904734E+02 -0.11506802888E+03  0.15036598456E+03  0.80003047904E+02 0.  0.
         -6    2    1    2    0  502  0.73235054644E+02  0.64688969979E+02  0.18147602693E+03  0.26888215239E+03  0.17267318106E+03 0.  0.
        -24    2    5    5    0    0  0.54216596719E+02  0.69866083720E+02  0.20620240628E+03  0.23691360403E+03  0.76078343850E+02 0.  0.
          5    1    3    3  501    0 -0.28020763368E+02 -0.34284065245E+02  0.43014774854E+02  0.61910590089E+02  0.47000000000E+01 0. -1.
        -13    1    4    4    0    0 -0.53290798619E+02 -0.37193568319E+02 -0.43911316020E+02  0.78431335679E+02  0.00000000000E+00 0.  1.
         14    1    4    4    0    0  0.80765073429E+01  0.67886635856E+01 -0.71156712859E+02  0.71934648877E+02  0.00000000000E+00 0. -1.
         -5    1    5    5    0  502  0.19018457926E+02 -0.51771137409E+01 -0.24726379349E+02  0.31968548360E+02  0.47000000000E+01 0.  1.
         13    1    6    6    0    0  0.93942293592E+01 -0.16705775944E+02  0.34506505941E+02  0.39471932400E+02  0.00000000000E+00 0. -1.
        -14    1    6    6    0    0  0.44822367359E+02  0.86571859664E+02  0.17169590034E+03  0.19744167163E+03  0.00000000000E+00 0.  1.
</event>
<event>
12    1  0.8488291E-002  0.1948531E+03  0.7818608E-02  0.1154169E+00
         21   -1    0    0  501  502  0.00000000000E+00  0.00000000000E+00  0.25186914422E+03  0.25186914422E+03  0.00000000000E+00 0. -1.
         21   -1    0    0  502  503 -0.00000000000E+00 -0.00000000000E+00 -0.20015352669E+03  0.20015352669E+03  0.00000000000E+00 0. -1.
         -6    2    1    2    0  503  0.97146697830E+01 -0.91487944177E+02 -0.86487399134E+02  0.21318493815E+03  0.17176533092E+03 0.  0.
        -24    2    3    3    0    0  0.58060052647E+02 -0.71673563074E+02 -0.15999648441E+02  0.12531856950E+03  0.83310778134E+02 0.  0.
          6    2    1    2  501    0 -0.97146697830E+01  0.91487944177E+02  0.13820301666E+03  0.23883773276E+03  0.17169440887E+03 0.  0.
         24    2    5    5    0    0  0.71421763718E+00  0.12218174367E+03  0.71120742888E+02  0.16418525474E+03  0.83485023885E+02 0.  0.
          5    1    5    5  501    0 -0.10428887420E+02 -0.30693799492E+02  0.67082273773E+02  0.74652478020E+02  0.47000000000E+01 0. -1.
        -13    1    6    6    0    0 -0.85223214885E+01  0.60745973196E+02 -0.98501116792E+01  0.62126708613E+02  0.00000000000E+00 0.  1.
         14    1    6    6    0    0  0.92365391257E+01  0.61435770473E+02  0.80970854567E+02  0.10205854613E+03  0.00000000000E+00 0. -1.
         -5    1    3    3    0  503 -0.48345382864E+02 -0.19814381103E+02 -0.70487750693E+02  0.87866368654E+02  0.47000000000E+01 0.  1.
         13    1    4    4    0    0  0.42423880245E+02 -0.85556219101E+02  0.50740240174E+01  0.95631574083E+02  0.00000000000E+00 0. -1.
        -14    1    4    4    0    0  0.15636172402E+02  0.13882656028E+02 -0.21073672458E+02  0.29686995413E+02  0.00000000000E+00 0.  1.
</event>
<event>
12    1  0.8488291E-002  0.3006572E+03  0.7818608E-02  0.1084977E+00
         21   -1    0    0  503  502  0.00000000000E+00  0.00000000000E+00  0.63926863684E+03  0.63926863684E+03  0.00000000000E+00 0. -1.
         21   -1    0    0  501  503 -0.00000000000E+00 -0.00000000000E+00 -0.45023818154E+03  0.45023818154E+03  0.00000000000E+00 0.  1.
          6    2    1    2  501    0 -0.15736793226E+03  0.18928473584E+03 -0.35685999330E+03  0.46629647743E+03  0.17172644736E+03 0.  0.
         24    2    3    3    0    0 -0.63072142954E+02  0.11362728308E+03 -0.98175870611E+02  0.18071757175E+03  0.78301241962E+02 0.  0.
         -6    2    1    2    0  502  0.15736793226E+03 -0.18928473584E+03  0.54589044859E+03  0.62321034095E+03  0.17263073272E+03 0.  0.
        -24    2    5    5    0    0  0.42432874366E+02 -0.14534440067E+03  0.36604955251E+03  0.40525241269E+03  0.85508475979E+02 0.  0.
          5    1    3    3  501    0 -0.94295789311E+02  0.75657452759E+02 -0.25868412269E+03  0.28557890568E+03  0.47000000000E+01 0. -1.
        -13    1    4    4    0    0 -0.40683112451E+02  0.52893863558E+01 -0.24109145943E+02  0.47585125457E+02  0.00000000000E+00 0.  1.
         14    1    4    4    0    0 -0.22389030503E+02  0.10833789672E+03 -0.74066724668E+02  0.13313244629E+03  0.00000000000E+00 0. -1.
         -5    1    5    5    0  502  0.11493505790E+03 -0.43940335165E+02  0.17984089608E+03  0.21795792826E+03  0.47000000000E+01 0.  1.
         11    1    6    6    0    0  0.58270094505E+02 -0.14265475049E+03  0.29981447272E+03  0.33709716671E+03  0.00000000000E+00 0. -1.
        -12    1    6    6    0    0 -0.15837220140E+02 -0.26896501814E+01  0.66235079787E+02  0.68155245977E+02  0.00000000000E+00 0.  1.
</event>
<event>
12    1  0.8488291E-002  0.1830274E+03  0.7818608E-02  0.1165131E+00
         21   -1    0    0  503  502  0.00000000000E+00  0.00000000000E+00  0.36988706780E+03  0.36988706780E+03  0.00000000000E+00 0. -1.
         21   -1    0    0  501  503 -0.00000000000E+00 -0.00000000000E+00 -0.22534377535E+03  0.22534377535E+03  0.00000000000E+00 0. -1.
          6    2    1    2  501    0 -0.60386761908E+02 -0.10496324949E+02 -0.15822100989E+03  0.24193580355E+03  0.17245959300E+03 0.  0.
         24    2    3    3    0    0 -0.88484535956E+02  0.39859768243E+02 -0.84922700408E+02  0.14855511389E+03  0.73745797110E+02 0.  0.
         -6    2    1    2    0  502  0.60386761908E+02  0.10496324949E+02  0.30276430234E+03  0.35329503960E+03  0.17144803407E+03 0.  0.
        -24    2    5    5    0    0  0.68728888522E+01  0.57748088402E+02  0.23345779960E+03  0.25368607876E+03  0.80448766591E+02 0.  0.
          5    1    3    3  501    0  0.28097774048E+02 -0.50356093192E+02 -0.73298309480E+02  0.93380689656E+02  0.47000000000E+01 0. -1.
        -13    1    4    4    0    0 -0.91708020178E+02  0.14658626988E+02 -0.50324391406E+02  0.10563039658E+03  0.00000000000E+00 0.  1.
         14    1    4    4    0    0  0.32234842217E+01  0.25201141255E+02 -0.34598309002E+02  0.42924717318E+02  0.00000000000E+00 0. -1.
         -5    1    5    5    0  502  0.53513873056E+02 -0.47251763452E+02  0.69306502737E+02  0.99608960844E+02  0.47000000000E+01 0.  1.
         11    1    6    6    0    0 -0.19127003313E+02 -0.31224402894E+01  0.12597519816E+03  0.12745721808E+03  0.00000000000E+00 0. -1.
        -12    1    6    6    0    0  0.25999892166E+02  0.60870528691E+02  0.10748260144E+03  0.12622886068E+03  0.00000000000E+00 0.  1.
</event>
<event>
12    1  0.8488291E-002  0.2285573E+03  0.7818608E-02  0.1128110E+00
         21   -1    0    0  503  502  0.00000000000E+00  0.00000000000E+00  0.62546458194E+02  0.62546458194E+02  0.00000000000E+00 0. -1.
         21   -1    0    0  501  503 -0.00000000000E+00 -0.00000000000E+00 -0.83889385365E+03  0.83889385365E+03  0.00000000000E+00 0.  1.
          6    2    1    2  501    0 -0.21696982110E+01  0.14789476212E+03 -0.44617475531E+03  0.50130861916E+03  0.17424365445E+03 0.  0.
         24    2    3    3    0    0  0.44824839947E+02  0.30414237958E+02 -0.24842501643E+03  0.26649548196E+03  0.79815793999E+02 0.  0.
         -6    2    1    2    0  502  0.21696982110E+01 -0.14789476212E+03 -0.33017264014E+03  0.40013169268E+03  0.17092053982E+03 0.  0.
        -24    2    5    5    0    0 -0.54283706135E+01 -0.10724676297E+03 -0.11002874549E+03  0.17608836018E+03  0.85845502977E+02 0.  0.
          5    1    3    3  501    0 -0.46994538158E+02  0.11748052416E+03 -0.19774973888E+03  0.23481313720E+03  0.47000000000E+01 0. -1.
        -11    1    4    4    0    0  0.34901436447E+02  0.49859413040E+02 -0.23003862024E+03  0.23795343691E+03  0.00000000000E+00 0.  1.
         12    1    4    4    0    0  0.99234035000E+01 -0.19445175082E+02 -0.18386396189E+02  0.28542045054E+02  0.00000000000E+00 0. -1.
         -5    1    5    5    0  502  0.75980688245E+01 -0.40647999153E+02 -0.22014389465E+03  0.22404333250E+03  0.47000000000E+01 0.  1.
         11    1    6    6    0    0  0.23606648281E+02 -0.86671789160E+02 -0.10795702042E+03  0.14044212736E+03  0.00000000000E+00 0. -1.
        -12    1    6    6    0    0 -0.29035018894E+02 -0.20574973808E+02 -0.20717250703E+01  0.35646232819E+02  0.00000000000E+00 0.  1.
</event>
<event>
12    1  0.8488291E-002  0.1775081E+03  0.7818608E-02  0.1170267E+00
         21   -1    0    0  503  502  0.00000000000E+00  0.00000000000E+00  0.13546575347E+03  0.13546575347E+03  0.00000000000E+00 0. -1.
         21   -1    0    0  501  503 -0.00000000000E+00 -0.00000000000E+00 -0.23400589542E+03  0.23400589542E+03  0.00000000000E+00 0.  1.
          6    2    1    2  501    0 -0.45311422096E+02  0.23772132411E+02 -0.34172804498E+02  0.18076755813E+03  0.16997320451E+03 0.  0.
         24    2    3    3    0    0 -0.90267088656E+02  0.14152608563E+02  0.26460402705E+01  0.12168063466E+03  0.80316447248E+02 0.  0.
         -6    2    1    2    0  502  0.45311422096E+02 -0.23772132411E+02 -0.64367337447E+02  0.18870409076E+03  0.16984652039E+03 0.  0.
        -24    2    5    5    0    0 -0.91557414401E+01  0.20554323217E+02 -0.82718284115E+02  0.11596927231E+03  0.78104095848E+02 0.  0.
          5    1    3    3  501    0  0.44955666560E+02  0.96195238477E+01 -0.36818844768E+02  0.59086923469E+02  0.47000000000E+01 0. -1.
        -11    1    4    4    0    0  0.84161486823E+00 -0.41758371938E+00 -0.25266992232E+02  0.25284453488E+02  0.00000000000E+00 0.  1.
         12    1    4    4    0    0 -0.91108703524E+02  0.14570192282E+02  0.27913032502E+02  0.96396181172E+02  0.00000000000E+00 0. -1.
         -5    1    5    5    0  502  0.54467163536E+02 -0.44326455627E+02  0.18350946669E+02  0.72734818456E+02  0.47000000000E+01 0.  1.
         13    1    6    6    0    0  0.67787886466E+01  0.94904782027E+01  0.13485472447E+02  0.17829164847E+02  0.00000000000E+00 0. -1.
        -14    1    6    6    0    0 -0.15934530087E+02  0.11063845014E+02 -0.96203756562E+02  0.98140107460E+02  0.00000000000E+00 0.  1.
</event>
<event>
12    1  0.8488291E-002  0.1735022E+03  0.7818608E-02  0.1174275E+00
         21   -1    0    0  503  502  0.00000000000E+00  0.00000000000E+00  0.95593331422E+02  0.95593331422E+02  0.00000000000E+00 0. -1.
         21   -1    0    0  501  503 -0.00000000000E+00 -0.00000000000E+00 -0.44837035262E+03  0.44837035262E+03  0.00000000000E+00 0. -1.
          6    2    1    2  501    0  0.18038683593E+02  0.35836524734E+01 -0.27831430111E+02  0.17559884767E+03  0.17240107346E+03 0.  0.
         24    2    3    3    0    0 -0.20238566045E+02 -0.48017802868E+01 -0.77810871482E+02  0.11191605657E+03  0.77704667483E+02 0.  0.
         -6    2    1    2    0  502 -0.18038683593E+02 -0.35836524734E+01 -0.32494559108E+03  0.36836483637E+03  0.17252471949E+03 0.  0.
        -24    2    5    5    0    0  0.46012403992E+02  0.16836125081E+02 -0.12353311825E+03  0.15597702281E+03  0.81656621960E+02 0.  0.
          5    1    3    3  501    0  0.38277249638E+02  0.83854327602E+01  0.49979441371E+02  0.63682791099E+02  0.47000000000E+01 0. -1.
        -11    1    4    4    0    0 -0.18813773751E+02  0.48210379094E+01 -0.92379081031E+02  0.94398596925E+02  0.00000000000E+00 0.  1.
         12    1    4    4    0    0 -0.14247922946E+01 -0.96228181962E+01  0.14568209548E+02  0.17517459649E+02  0.00000000000E+00 0. -1.
         -5    1    5    5    0  502 -0.64051087585E+02 -0.20419777555E+02 -0.20141247283E+03  0.21238781356E+03  0.47000000000E+01 0.  1.
         11    1    6    6    0    0 -0.34096656686E+01 -0.26060162497E+02 -0.18194740783E+02  0.31965707899E+02  0.00000000000E+00 0. -1.
        -12    1    6    6    0    0  0.49422069660E+02  0.42896287578E+02 -0.10533837747E+03  0.12401131491E+03  0.00000000000E+00 0.  1.
</event>
<event>
12    1  0.8488291E-002  0.2127341E+03  0.7818608E-02  0.1139613E+00
         21   -1    0    0  501  502  0.00000000000E+00  0.00000000000E+00  0.34118513306E+02  0.34118513306E+02  0.00000000000E+00 0.  1.
         21   -1    0    0  502  503 -0.00000000000E+00 -0.00000000000E+00 -0.13276974635E+04  0.13276974635E+04  0.00000000000E+00 0. -1.
         -6    2    1    2    0  503 -0.17292393572E+01  0.12042196061E+03 -0.59728642012E+03  0.63404012656E+03  0.17536070129E+03 0.  0.
        -24    2    3    3    0    0 -0.25515387044E+02  0.51954398995E+02 -0.51409387881E+03  0.52360156108E+03  0.80720406226E+02 0.  0.
          6    2    1    2  501    0  0.17292393572E+01 -0.12042196061E+03 -0.69629253005E+03  0.72777585023E+03  0.17415499391E+03 0.  0.
         24    2    5    5    0    0  0.33672140350E+02  0.76146929502E+01 -0.28301356405E+03  0.29391489633E+03  0.71396724460E+02 0.  0.
          5    1    5    5  501    0 -0.31942900992E+02 -0.12803665356E+03 -0.41327896601E+03  0.43386095391E+03  0.47000000000E+01 0. -1.
        -11    1    6    6    0    0 -0.48801892666E+01 -0.22141469349E+02 -0.39196040239E+02  0.45281237645E+02  0.00000000000E+00 0.  1.
         12    1    6    6    0    0  0.38552329616E+02  0.29756162300E+02 -0.24381752381E+03  0.24863365868E+03  0.00000000000E+00 0. -1.
         -5    1    3    3    0  503  0.23786147687E+02  0.68467561615E+02 -0.83192541315E+02  0.11043856548E+03  0.47000000000E+01 0.  1.
         13    1    4    4    0    0 -0.94476952824E+01  0.53903256137E+00 -0.36418929422E+03  0.36431221710E+03  0.00000000000E+00 0. -1.
        -14    1    4    4    0    0 -0.16067691762E+02  0.51415366434E+02 -0.14990458458E+03  0.15928934397E+03  0.00000000000E+00 0.  1.
</event>
<event>
12    1  0.8488291E-002  0.2254762E+03  0.7818608E-02  0.1130221E+00
         21   -1    0    0  501  502  0.00000000000E+00  0.00000000000E+00  0.13603631176E+03  0.13603631176E+03  0.00000000000E+00 0. -1.
         21   -1    0    0  502  503 -0.00000000000E+00 -0.00000000000E+00 -0.41757510353E+03  0.41757510353E+03  0.00000000000E+00 0. -1.
         -6    2    1    2    0  503 -0.27472610062E+02  0.14053267992E+03 -0.23318616098E+03  0.32300895910E+03  0.17162407627E+03 0.  0.
        -24    2    3    3    0    0  0.13237674303E+01  0.92414291339E+02 -0.51723132792E+02  0.13302071926E+03  0.80480281334E+02 0.  0.
          6    2    1    2  501    0  0.27472610062E+02 -0.14053267992E+03 -0.48352630789E+02  0.23060245619E+03  0.17417042650E+03 0.  0.
         24    2    5    5    0    0 -0.23152551827E+02 -0.21138474829E+02  0.14670150392E+02  0.86339348729E+02  0.79097370704E+02 0.  0.
          5    1    5    5  501    0  0.50625161889E+02 -0.11939420510E+03 -0.63022781181E+02  0.14426310746E+03  0.47000000000E+01 0. -1.
        -13    1    6    6    0    0 -0.38078907008E+02 -0.29019807331E+01 -0.21003839698E+02  0.43584239504E+02  0.00000000000E+00 0.  1.
         14    1    6    6    0    0  0.14926355181E+02 -0.18236494096E+02  0.35673990090E+02  0.42755109225E+02  0.00000000000E+00 0. -1.
         -5    1    3    3    0  503 -0.28796377492E+02  0.48118388585E+02 -0.18146302819E+03  0.18998823983E+03  0.47000000000E+01 0.  1.
         11    1    4    4    0    0  0.44953045610E+01  0.51820584566E+02 -0.70964370300E+02  0.87985922737E+02  0.00000000000E+00 0. -1.
        -12    1    4    4    0    0 -0.31715371306E+01  0.40593706773E+02  0.19241237507E+02  0.45034796527E+02  0.00000000000E+00 0.  1.
</event>
<event>
12    1  0.8488291E-002  0.1908408E+03  0.7818608E-02  0.1157733E+00
         21   -1    0    0  501  502  0.00000000000E+00  0.00000000000E+00  0.11941178933E+04  0.11941178933E+04  0.00000000000E+00 0.  1.
         21   -1    0    0  502  503 -0.00000000000E+00 -0.00000000000E+00 -0.32675418807E+03  0.32675418807E+03  0.00000000000E+00 0.  1.
         -6    2    1    2    0  503 -0.79096064635E+02 -0.87419108108E+01 -0.29040581353E+03  0.34749925861E+03  0.17345774632E+03 0.  0.
        -24    2    3    3    0    0 -0.33570534072E+02  0.11459072552E+02 -0.46161656749E+02  0.98184293588E+02  0.79063049852E+02 0.  0.
          6    2    1    2  501    0  0.79096064635E+02  0.87419108108E+01  0.11577695188E+04  0.11733728228E+04  0.17332314947E+03 0.  0.
         24    2    5    5    0    0  0.19266703002E+02  0.50423654928E+02  0.38602195199E+03  0.39817393400E+03  0.81337466600E+02 0.  0.
          5    1    5    5  501    0  0.59829361633E+02 -0.41681744117E+02  0.77174756680E+03  0.77519888878E+03  0.47000000000E+01 0. -1.
        -11    1    6    6    0    0  0.27389594126E+02  0.55689507563E+02  0.38305391863E+03  0.38804872850E+03  0.00000000000E+00 0.  1.
         12    1    6    6    0    0 -0.81228911241E+01 -0.52658526346E+01  0.29680333661E+01  0.10125205491E+02  0.00000000000E+00 0. -1.
         -5    1    3    3    0  503 -0.45525530563E+02 -0.20200983363E+02 -0.24424415679E+03  0.24931496503E+03  0.47000000000E+01 0.  1.
         13    1    4    4    0    0  0.37252637274E+01  0.41105496240E+01  0.20613799879E+02  0.21347200133E+02  0.00000000000E+00 0. -1.
        -14    1    4    4    0    0 -0.37295797800E+02  0.73485229285E+01 -0.66775456628E+02  0.76837093455E+02  0.00000000000E+00 0.  1.
</event>
<event>
12    1  0.8488291E-002  0.2173167E+03  0.7818608E-02  0.1136266E+00
         21   -1    0    0  501  502  0.00000000000E+00  0.00000000000E+00  0.10126771189E+03  0.10126771189E+03  0.00000000000E+00 0. -1.
         21   -1    0    0  502  503 -0.00000000000E+00 -0.00000000000E+00 -0.57810270636E+03  0.57810270636E+03  0.00000000000E+00 0.  1.
         -6    2    1    2    0  503  0.12097929115E+02 -0.12956625111E+03 -0.38964731389E+03  0.44521611839E+03  0.17163504752E+03 0.  0.
        -24    2    3    3    0    0  0.23099483123E+01 -0.56694345988E+01 -0.22687972703E+03  0.24037080348E+03  0.79159549502E+02 0.  0.
          6    2    1    2  501    0 -0.12097929115E+02  0.12956625111E+03 -0.87187680582E+02  0.23415429986E+03  0.17404818638E+03 0.  0.
         24    2    5    5    0    0 -0.48486529400E+02  0.15383714832E+02 -0.40207276682E+02  0.10534812698E+03  0.83030118301E+02 0.  0.
          5    1    5    5  501    0  0.36388600284E+02  0.11418253628E+03 -0.46980403899E+02  0.12880617288E+03  0.47000000000E+01 0. -1.
        -13    1    6    6    0    0 -0.48749070523E+02  0.31123094583E+02 -0.57781535793E+02  0.81754662080E+02  0.00000000000E+00 0.  1.
         14    1    6    6    0    0  0.26254112365E+00 -0.15739379751E+02  0.17574259110E+02  0.23593464901E+02  0.00000000000E+00 0. -1.
         -5    1    3    3    0  503  0.97879808030E+01 -0.12389681651E+03 -0.16276758686E+03  0.20484531491E+03  0.47000000000E+01 0.  1.
         13    1    4    4    0    0  0.50090847368E+01 -0.13320297480E+02 -0.91489587616E+00  0.14260374796E+02  0.00000000000E+00 0. -1.
        -14    1    4    4    0    0 -0.26991364246E+01  0.76508628811E+01 -0.22596483115E+03  0.22611042868E+03  0.00000000000E+00 0.  1.
</event>
<event>
12    1  0.8488291E-002  0.2196763E+03  0.7818608E-02  0.1134670E+00
         21   -1    0    0  501  502  0.00000000000E+00  0.00000000000E+00  0.39886179481E+03  0.39886179481E+03  0.00000000000E+00 0. -1.
         21   -1    0    0  502  503 -0.00000000000E+00 -0.00000000000E+00 -0.31490771286E+03  0.31490771286E+03  0.00000000000E+00 0.  1.
         -6    2    1    2    0  503 -0.24452963558E+02  0.13101623423E+03 -0.23911891740E+03  0.32470835166E+03  0.17462661859E+03 0.  0.
        -24    2    3    3    0    0 -0.21489692958E+02  0.14159245646E+02 -0.35806300018E+02  0.90139711086E+02  0.78617970293E+02 0.  0.
          6    2    1    2  501    0  0.24452963558E+02 -0.13101623423E+03  0.32307299935E+03  0.38906115601E+03  0.17096554959E+03 0.  0.
         24    2    5    5    0    0 -0.35130108745E+02 -0.25771296933E+02  0.18153650152E+03  0.20283197046E+03  0.79290747070E+02 0.  0.
          5    1    5    5  501    0  0.59583072303E+02 -0.10524493730E+03  0.14153649783E+03  0.18622918555E+03  0.47000000000E+01 0. -1.
        -11    1    6    6    0    0  0.51453372705E+01 -0.10942063340E+02 -0.37343087832E+01  0.12654971665E+02  0.00000000000E+00 0.  1.
         12    1    6    6    0    0 -0.40275446016E+02 -0.14829233593E+02  0.18527081030E+03  0.19017699879E+03  0.00000000000E+00 0. -1.
         -5    1    3    3    0  503 -0.29632705999E+01  0.11685698859E+03 -0.20331261738E+03  0.23456864057E+03  0.47000000000E+01 0.  1.
         13    1    4    4    0    0 -0.30317757622E+02  0.42819245824E+02 -0.26242488066E+02  0.58662785649E+02  0.00000000000E+00 0. -1.
        -14    1    4    4    0    0  0.88280646642E+01 -0.28660000178E+02 -0.95638119522E+01  0.31476925437E+02  0.00000000000E+00 0.  1.
</event>
<event>
12    1  0.8488291E-002  0.1976830E+03  0.7818608E-02  0.1152124E+00
         21   -1    0    0  503  502  0.00000000000E+00  0.00000000000E+00  0.77181514681E+03  0.77181514681E+03  0.00000000000E+00 0. -1.
         21   -1    0    0  501  503 -0.00000000000E+00 -0.00000000000E+00 -0.50345077817E+02  0.50345077817E+02  0.00000000000E+00 0. -1.
          6    2    1    2  501    0  0.94417395276E+01 -0.94756576135E+02  0.33269033435E+03  0.38600859508E+03  0.17103163958E+03 0.  0.
         24    2    3    3    0    0 -0.12361782404E+02 -0.62706012712E+02  0.93374932020E+02  0.14352852584E+03  0.88298936038E+02 0.  0.
         -6    2    1    2    0  502 -0.94417395276E+01  0.94756576135E+02  0.38877973464E+03  0.43615162955E+03  0.17323569703E+03 0.  0.
        -24    2    5    5    0    0  0.52879052597E+02  0.11535959342E+02  0.17455828566E+03  0.19798683074E+03  0.76150623707E+02 0.  0.
          5    1    3    3  501    0  0.21803521932E+02 -0.32050563424E+02  0.23931540233E+03  0.24248006924E+03  0.47000000000E+01 0. -1.
        -13    1    4    4    0    0 -0.49144482373E+02 -0.43258467046E+02  0.43629884440E+02  0.78676819554E+02  0.00000000000E+00 0.  1.
         14    1    4    4    0    0  0.36782699968E+02 -0.19447545666E+02  0.49745047580E+02  0.64851706286E+02  0.00000000000E+00 0. -1.
         -5    1    5    5    0  502 -0.62320792124E+02  0.83220616793E+02  0.21422144898E+03  0.23816479881E+03  0.47000000000E+01 0.  1.
         13    1    6    6    0    0  0.17192648037E+02  0.33238342942E+02  0.13630689549E+03  0.14135043101E+03  0.00000000000E+00 0. -1.
        -14    1    6    6    0    0  0.35686404559E+02 -0.21702383600E+02  0.38251390173E+02  0.56636399731E+02  0.00000000000E+00 0.  1.
</event>
<event>
12    1  0.8488291E-002  0.2206968E+03  0.7818608E-02  0.1133369E+00
         21   -1    0    0  501  502  0.00000000000E+00  0.00000000000E+00  0.68232626192E+03  0.68232626192E+03  0.00000000000E+00 0. -1.
         21   -1    0    0  502  503 -0.00000000000E+00 -0.00000000000E+00 -0.84060447700E+02  0.84060447700E+02  0.00000000000E+00 0.  1.
         -6    2    1    2    0  503  0.10125222944E+03 -0.93367888951E+02  0.15026315568E+03  0.26697359780E+03  0.17241319357E+03 0.  0.
        -24    2    3    3    0    0  0.31870220174E+02 -0.19578797648E+02  0.14011661864E+03  0.16507298241E+03  0.78850380149E+02 0.  0.
          6    2    1    2  501    0 -0.10125222944E+03  0.93367888951E+02  0.44800265853E+03  0.49941311181E+03  0.17244563649E+03 0.  0.
         24    2    5    5    0    0 -0.38191066108E+02  0.85068790528E+02  0.40320238335E+03  0.42147249332E+03  0.79822578453E+02 0.  0.
          5    1    5    5  501    0 -0.63061163328E+02  0.82990984229E+01  0.44800275180E+02  0.77940618493E+02  0.47000000000E+01 0. -1.
        -13    1    6    6    0    0 -0.48716979673E+02  0.25691033959E+02  0.12168468682E+03  0.13356847061E+03  0.00000000000E+00 0.  1.
         14    1    6    6    0    0  0.10525913565E+02  0.59377756568E+02  0.28151769653E+03  0.28790402271E+03  0.00000000000E+00 0. -1.
         -5    1    3    3    0  503  0.69382009261E+02 -0.73789091302E+02  0.10146537041E+02  0.10190061540E+03  0.47000000000E+01 0.  1.
         13    1    4    4    0    0  0.65252202844E+01 -0.46756463944E+02  0.98818779542E+02  0.10951664992E+03  0.00000000000E+00 0. -1.
        -14    1    4    4    0    0  0.25344999890E+02  0.27177666295E+02  0.41297839101E+02  0.55556332484E+02  0.00000000000E+00 0.  1.
</event>
<event>
12    1  0.8488291E-002  0.1784287E+03  0.7818608E-02  0.1170011E+00
         21   -1    0    0  503  502  0.00000000000E+00  0.00000000000E+00  0.14239791575E+03  0.14239791575E+03  0.00000000000E+00 0.  1.
         21   -1    0    0  501  503 -0.00000000000E+00 -0.00000000000E+00 -0.22758099001E+03  0.22758099001E+03  0.00000000000E+00 0.  1.
          6    2    1    2  501    0  0.39326587966E+01  0.41389985824E+02 -0.94703001511E+01  0.17867980859E+03  0.17351711927E+03 0.  0.
         24    2    3    3    0    0  0.17719425533E+02 -0.39226602931E+02 -0.29894577538E+02  0.94250249628E+02  0.78337215741E+02 0.  0.
         -6    2    1    2    0  502 -0.39326587966E+01 -0.41389985824E+02 -0.75712774112E+02  0.19129909718E+03  0.17068779595E+03 0.  0.
        -24    2    5    5    0    0  0.31623317533E+02 -0.15438799952E+02  0.15703800177E+02  0.89727587612E+02  0.81031104416E+02 0.  0.
          5    1    3    3  501    0 -0.13786766736E+02  0.80616588755E+02  0.20424277386E+02  0.84429558960E+02  0.47000000000E+01 0. -1.
        -13    1    4    4    0    0  0.24510129890E+02 -0.12470947823E+02  0.22167823439E+02  0.35322562235E+02  0.00000000000E+00 0.  1.
         14    1    4    4    0    0 -0.67907043573E+01 -0.26755655109E+02 -0.52062400977E+02  0.58927687393E+02  0.00000000000E+00 0. -1.
         -5    1    5    5    0  502 -0.35555976330E+02 -0.25951185871E+02 -0.91416574289E+02  0.10157150957E+03  0.47000000000E+01 0.  1.
         13    1    6    6    0    0  0.48373647511E+01 -0.37555947237E+02  0.33624460446E+02  0.50640434544E+02  0.00000000000E+00 0. -1.
        -14    1    6    6    0    0  0.26785952782E+02  0.22117147285E+02 -0.17920660268E+02  0.39087153067E+02  0.00000000000E+00 0.  1.
</event>
<event>
12    1  0.8488291E-002  0.1937978E+03  0.7818608E-02  0.1155148E+00
         21   -1    0    0  501  502  0.00000000000E+00  0.00000000000E+00  0.32317263265E+03  0.32317263265E+03  0.00000000000E+00 0.  1.
         21   -1    0    0  502  503 -0.00000000000E+00 -0.00000000000E+00 -0.30553696148E+03  0.30553696148E+03  0.00000000000E+00 0.  1.
         -6    2    1    2    0  503  0.51790473071E+02  0.68006666415E+02  0.25639185471E+03  0.32139440737E+03  0.17392648491E+03 0.  0.
        -24    2    3    3    0    0 -0.22640396642E+01  0.19163660079E+02  0.22964095412E+03  0.24364332830E+03  0.79086862831E+02 0.  0.
          6    2    1    2  501    0 -0.51790473071E+02 -0.68006666415E+02 -0.23875618354E+03  0.30731518675E+03  0.17358268650E+03 0.  0.
         24    2    5    5    0    0 -0.75428113437E+02 -0.10256898536E+03 -0.18390255435E+03  0.23814653367E+03  0.81754663169E+02 0.  0.
          5    1    5    5  501    0  0.23637640366E+02  0.34562318950E+02 -0.54853629191E+02  0.69168653078E+02  0.47000000000E+01 0. -1.
        -11    1    6    6    0    0 -0.90643170837E+01 -0.79380636998E+02 -0.83363379411E+02  0.11546817917E+03  0.00000000000E+00 0.  1.
         12    1    6    6    0    0 -0.66363796354E+02 -0.23188348366E+02 -0.10053917494E+03  0.12267835450E+03  0.00000000000E+00 0. -1.
         -5    1    3    3    0  503  0.54054512735E+02  0.48843006336E+02  0.26750900584E+02  0.77751079073E+02  0.47000000000E+01 0.  1.
         11    1    4    4    0    0 -0.12430005386E+02 -0.72997327550E+01  0.20662629068E+03  0.20712849909E+03  0.00000000000E+00 0. -1.
        -12    1    4    4    0    0  0.10165965722E+02  0.26463392834E+02  0.23014663437E+02  0.36514829213E+02  0.00000000000E+00 0.  1.
</event>
<event>
12    1  0.8488291E-002  0.3656733E+03  0.7818608E-02  0.1056437E+00
         21   -1    0    0  503  502  0.00000000000E+00  0.00000000000E+00  0.27750664313E+03  0.27750664313E+03  0.00000000000E+00 0. -1.
         21   -1    0    0  501  503 -0.00000000000E+00 -0.00000000000E+00 -0.53601901849E+03  0.53601901849E+03  0.00000000000E+00 0.  1.
          6    2    1    2  501    0  0.65194647927E+02 -0.31520676729E+03  0.11707022075E+01  0.36567518927E+03  0.17352615146E+03 0.  0.
         24    2    3    3    0    0  0.56964649444E+02 -0.16136334807E+03 -0.59953377455E+02  0.19986272404E+03  0.84069016908E+02 0.  0.
         -6    2    1    2    0  502 -0.65194647927E+02  0.31520676729E+03 -0.25968307757E+03  0.44785047235E+03  0.17184032281E+03 0.  0.
        -24    2    5    5    0    0  0.20509189386E+02  0.21603553121E+03 -0.12820429835E+03  0.26213875710E+03  0.72030606441E+02 0.  0.
          5    1    3    3  501    0  0.82299984830E+01 -0.15384341922E+03  0.61124079663E+02  0.16581246523E+03  0.47000000000E+01 0. -1.
        -11    1    4    4    0    0 -0.16155325529E+02 -0.73043858158E+02 -0.12849951827E+02  0.75904683778E+02  0.00000000000E+00 0.  1.
         12    1    4    4    0    0  0.73119974973E+02 -0.88319489914E+02 -0.47103425629E+02  0.12395804026E+03  0.00000000000E+00 0. -1.
         -5    1    5    5    0  502 -0.85703837312E+02  0.99171236079E+02 -0.13147877922E+03  0.18571171525E+03  0.47000000000E+01 0.  1.
         13    1    6    6    0    0  0.37346294789E+01  0.54047864759E+01  0.82985132348E+01  0.10584162513E+02  0.00000000000E+00 0. -1.
        -14    1    6    6    0    0  0.16774559907E+02  0.21063074473E+03 -0.13650281159E+03  0.25155459459E+03  0.00000000000E+00 0.  1.
</event>
<event>
12    1  0.8488291E-002  0.2075982E+03  0.7818608E-02  0.1143579E+00
         21   -1    0    0  501  502  0.00000000000E+00  0.00000000000E+00  0.48510920629E+03  0.48510920629E+03  0.00000000000E+00 0. -1.
         21   -1    0    0  502  503 -0.00000000000E+00 -0.00000000000E+00 -0.21488669772E+03  0.21488669772E+03  0.00000000000E+00 0.  1.
         -6    2    1    2    0  503 -0.96746023851E+02 -0.61378703018E+02 -0.13309963456E+03  0.24660194238E+03  0.17311807228E+03 0.  0.
        -24    2    3    3    0    0 -0.96686921311E+01 -0.80136099926E+02 -0.46632624865E+02  0.12237257627E+03  0.79279048953E+02 0.  0.
          6    2    1    2  501    0  0.96746023851E+02  0.61378703018E+02  0.40332214313E+03  0.45339396163E+03  0.17254041552E+03 0.  0.
         24    2    5    5    0    0  0.94654884167E+00  0.66787274803E+02  0.15384894635E+03  0.18606315912E+03  0.80551628524E+02 0.  0.
          5    1    5    5  501    0  0.95799475009E+02 -0.54085717844E+01  0.24947319677E+03  0.26733080251E+03  0.47000000000E+01 0. -1.
        -11    1    6    6    0    0  0.26721590194E+02  0.26643134655E+02  0.17472967253E+02  0.41583705840E+02  0.00000000000E+00 0.  1.
         12    1    6    6    0    0 -0.25775041352E+02  0.40144140148E+02  0.13637597910E+03  0.14447945328E+03  0.00000000000E+00 0. -1.
         -5    1    3    3    0  503 -0.87077331720E+02  0.18757396907E+02 -0.86467009696E+02  0.12422936611E+03  0.47000000000E+01 0.  1.
         13    1    4    4    0    0  0.13960102297E+02  0.11098938687E+02 -0.15561924394E+01  0.17902307981E+02  0.00000000000E+00 0. -1.
        -14    1    4    4    0    0 -0.23628794428E+02 -0.91235038612E+02 -0.45076432425E+02  0.10447026829E+03  0.00000000000E+00 0.  1.
</event>
<event>
12    1  0.8488291E-002  0.3291089E+03  0.7818608E-02  0.1071638E+00
         21   -1    0    0  503  502  0.00000000000E+00  0.00000000000E+00  0.17444819026E+03  0.17444819026E+03  0.00000000000E+00 0. -1.
         21   -1    0    0  501  503 -0.00000000000E+00 -0.00000000000E+00 -0.93999014095E+03  0.93999014095E+03  0.00000000000E+00 0. -1.
          6    2    1    2  501    0  0.12782135461E+03 -0.24884991741E+03 -0.70797788873E+03  0.78033311699E+03  0.17152988791E+03 0.  0.
         24    2    3    3    0    0  0.14328401538E+03 -0.23390045693E+03 -0.70143262077E+03  0.75736551416E+03  0.79718678765E+02 0.  0.
         -6    2    1    2    0  502 -0.12782135461E+03  0.24884991741E+03 -0.57564061963E+02  0.33410521422E+03  0.17334385726E+03 0.  0.
        -24    2    5    5    0    0 -0.12848577014E+03  0.12426698938E+03 -0.72650456380E+02  0.20852242598E+03  0.79073608413E+02 0.  0.
          5    1    3    3  501    0 -0.15462660777E+02 -0.14949460482E+02 -0.65452679624E+01  0.22967602829E+02  0.47000000000E+01 0. -1.
        -13    1    4    4    0    0 -0.29504202404E+01 -0.47166473224E+02 -0.92514023373E+02  0.10388563759E+03  0.00000000000E+00 0.  1.
         14    1    4    4    0    0  0.14623443562E+03 -0.18673398370E+03 -0.60891859739E+03  0.65347987657E+03  0.00000000000E+00 0. -1.
         -5    1    5    5    0  502  0.66441553508E+00  0.12458292803E+03  0.15086394417E+02  0.12558278824E+03  0.47000000000E+01 0.  1.
         11    1    6    6    0    0 -0.14778365326E+02  0.49958632848E+02 -0.47248802801E+02  0.70332883091E+02  0.00000000000E+00 0. -1.
        -12    1    6    6    0    0 -0.11370740481E+03  0.74308356531E+02 -0.25401653579E+02  0.13818954289E+03  0.00000000000E+00 0.  1.
</event>
<event>
12    1  0.8488291E-002  0.3141665E+03  0.7818608E-02  0.1078384E+00
         21   -1    0    0  503  502  0.00000000000E+00  0.00000000000E+00  0.38906208917E+03  0.38906208917E+03  0.00000000000E+00 0.  1.
         21   -1    0    0  501  503 -0.00000000000E+00 -0.00000000000E+00 -0.25909288671E+03  0.25909288671E+03  0.00000000000E+00 0.  1.
          6    2    1    2  501    0 -0.11851634011E+03 -0.23420107639E+03  0.17666920966E+02  0.31466284716E+03  0.17263927777E+03 0.  0.
         24    2    3    3    0    0 -0.89113615342E+02 -0.97183993439E+02 -0.48288746108E+02  0.15970981794E+03  0.76088487470E+02 0.  0.
         -6    2    1    2    0  502  0.11851634011E+03  0.23420107639E+03  0.11230228149E+03  0.33349212873E+03  0.17236278728E+03 0.  0.
        -24    2    5    5    0    0  0.20060017625E+02  0.73706150017E+02  0.92369481164E+02  0.14409393613E+03  0.79974624237E+02 0.  0.
          5    1    3    3  501    0 -0.29402724772E+02 -0.13701708295E+03  0.65955667074E+02  0.15495302922E+03  0.47000000000E+01 0. -1.
        -11    1    4    4    0    0 -0.14859150003E+02 -0.69313215773E+02 -0.35816209172E+02  0.79422396458E+02  0.00000000000E+00 0.  1.
         12    1    4    4    0    0 -0.74254465339E+02 -0.27870777666E+02 -0.12472536936E+02  0.80287421481E+02  0.00000000000E+00 0. -1.
         -5    1    5    5    0  502  0.98456322489E+02  0.16049492637E+03  0.19932800325E+02  0.18939819259E+03  0.47000000000E+01 0.  1.
         13    1    6    6    0    0  0.87319885355E+01 -0.17023803824E+02  0.17192984259E+02  0.25722679257E+02  0.00000000000E+00 0. -1.
        -14    1    6    6    0    0  0.11328029090E+02  0.90729953841E+02  0.75176496905E+02  0.11837125687E+03  0.00000000000E+00 0.  1.
</event>
<event>
12    1  0.8488291E-002  0.3454792E+03  0.7818608E-02  0.1064577E+00
         21   -1    0    0  501  502  0.00000000000E+00  0.00000000000E+00  0.17770853198E+03  0.17770853198E+03  0.00000000000E+00 0.  1.
         21   -1    0    0  502  503 -0.00000000000E+00 -0.00000000000E+00 -0.72828495690E+03  0.72828495690E+03  0.00000000000E+00 0. -1.
         -6    2    1    2    0  503  0.29399352514E+03  0.54237316387E+02 -0.14676679593E+03  0.37456324646E+03  0.17141544241E+03 0.  0.
        -24    2    3    3    0    0  0.28276051158E+03  0.27412285912E+02 -0.86474881977E+02  0.30745909054E+03  0.79675886039E+02 0.  0.
          6    2    1    2  501    0 -0.29399352514E+03 -0.54237316387E+02 -0.40380962900E+03  0.53143024243E+03  0.17315313101E+03 0.  0.
         24    2    5    5    0    0 -0.23880596510E+03 -0.68273696901E+02 -0.39567190351E+03  0.47371543205E+03  0.78488653157E+02 0.  0.
          5    1    5    5  501    0 -0.55187560037E+02  0.14036380514E+02 -0.81377254888E+01  0.57714810378E+02  0.47000000000E+01 0. -1.
        -11    1    6    6    0    0 -0.10996178877E+03  0.47066403435E+01 -0.13788190561E+03  0.17642326193E+03  0.00000000000E+00 0.  1.
         12    1    6    6    0    0 -0.12884417633E+03 -0.72980337244E+02 -0.25778999790E+03  0.29729217012E+03  0.00000000000E+00 0. -1.
         -5    1    3    3    0  503  0.11233013567E+02  0.26825030475E+02 -0.60291913951E+02  0.67104155919E+02  0.47000000000E+01 0.  1.
         11    1    4    4    0    0  0.16410384324E+03 -0.33578278869E+01 -0.85061106531E+02  0.18486951673E+03  0.00000000000E+00 0. -1.
        -12    1    4    4    0    0  0.11865666834E+03  0.30770113799E+02 -0.14137754465E+01  0.12258957380E+03  0.00000000000E+00 0.  1.
</event>
<event>
12    1  0.8488291E-002  0.1986945E+03  0.7818608E-02  0.1153122E+00
         21   -1    0    0  501  502  0.00000000000E+00  0.00000000000E+00  0.13778808114E+04  0.13778808114E+04  0.00000000000E+00 0.  1.
         21   -1    0    0  502  503 -0.00000000000E+00 -0.00000000000E+00 -0.28523312734E+02  0.28523312734E+02  0.00000000000E+00 0.  1.
         -6    2    1    2    0  503 -0.90772070298E+02  0.40377537620E+02  0.81039956006E+03  0.83198688232E+03  0.15995252769E+03 0.  0.
        -24    2    3    3    0    0 -0.85777376884E+02 -0.26355568277E+02  0.52585080215E+03  0.53963719442E+03  0.81466932669E+02 0.  0.
          6    2    1    2  501    0  0.90772070298E+02 -0.40377537620E+02  0.53895793862E+03  0.57441724183E+03  0.17207438455E+03 0.  0.
         24    2    5    5    0    0  0.10342585813E+03 -0.21906699747E+02  0.53499663958E+03  0.55119931581E+03  0.80140313018E+02 0.  0.
          5    1    5    5  501    0 -0.12653787832E+02 -0.18470837873E+02  0.39612990396E+01  0.23217926012E+02  0.47000000000E+01 0. -1.
        -13    1    6    6    0    0  0.39464019079E+02 -0.37913759975E+02  0.13279852367E+03  0.14363255163E+03  0.00000000000E+00 0.  1.
         14    1    6    6    0    0  0.63961839051E+02  0.16007060228E+02  0.40219811591E+03  0.40756676419E+03  0.00000000000E+00 0. -1.
         -5    1    3    3    0  503 -0.49946934139E+01  0.66733105897E+02  0.28454875791E+03  0.29234968790E+03  0.47000000000E+01 0.  1.
         13    1    4    4    0    0  0.80706391129E+01 -0.15519459704E+02  0.18844672108E+03  0.18925685068E+03  0.00000000000E+00 0. -1.
        -14    1    4    4    0    0 -0.93848015997E+02 -0.10836108573E+02  0.33740408107E+03  0.35038034374E+03  0.00000000000E+00 0.  1.
</event>
<event>
12    1  0.8488291E-002  0.2218546E+03  0.7818608E-02  0.1133158E+00
         21   -1    0    0  501  502  0.00000000000E+00  0.00000000000E+00  0.12152139337E+03  0.12152139337E+03  0.00000000000E+00 0.  1.
         21   -1    0    0  502  503 -0.00000000000E+00 -0.00000000000E+00 -0.39879416339E+03  0.39879416339E+03  0.00000000000E+00 0.  1.
         -6    2    1    2    0  503 -0.78012714153E+02 -0.11320821965E+03 -0.14212057533E+03  0.26053567736E+03  0.16964226088E+03 0.  0.
        -24    2    3    3    0    0 -0.29780321913E+01 -0.79497477585E+02 -0.28315351224E+02  0.12003536895E+03  0.85311271627E+02 0.  0.
          6    2    1    2  501    0  0.78012714153E+02  0.11320821965E+03 -0.13515219469E+03  0.25977987941E+03  0.17411888309E+03 0.  0.
         24    2    5    5    0    0  0.11946248601E+03  0.62879157322E+02 -0.94060600909E+02  0.18256778721E+03  0.79110848152E+02 0.  0.
          5    1    5    5  501    0 -0.41449771853E+02  0.50329062331E+02 -0.41091593782E+02  0.77212092197E+02  0.47000000000E+01 0. -1.
        -13    1    6    6    0    0  0.10524938529E+02 -0.21526379367E+01 -0.45449398489E+02  0.46701777313E+02  0.00000000000E+00 0.  1.
         14    1    6    6    0    0  0.10893754748E+03  0.65031795258E+02 -0.48611202419E+02  0.13586600990E+03  0.00000000000E+00 0. -1.
         -5    1    3    3    0  503 -0.75034681961E+02 -0.33710742068E+02 -0.11380522411E+03  0.14050030841E+03  0.47000000000E+01 0.  1.
         13    1    4    4    0    0 -0.21965556828E+02 -0.26618650366E+02 -0.49197958003E+02  0.60095568104E+02  0.00000000000E+00 0. -1.
        -14    1    4    4    0    0  0.18987524637E+02 -0.52878827219E+02  0.20882606779E+02  0.59939800849E+02  0.00000000000E+00 0.  1.
</event>
<event>
12    1  0.8488291E-002  0.1950405E+03  0.7818608E-02  0.1154068E+00
         21   -1    0    0  501  502  0.00000000000E+00  0.00000000000E+00  0.54183276801E+03  0.54183276801E+03  0.00000000000E+00 0. -1.
         21   -1    0    0  502  503 -0.00000000000E+00 -0.00000000000E+00 -0.71127431688E+02  0.71127431688E+02  0.00000000000E+00 0. -1.
         -6    2    1    2    0  503  0.85240763193E+02  0.34016269220E+02  0.27269281887E+03  0.33526435571E+03  0.17209799670E+03 0.  0.
        -24    2    3    3    0    0  0.73893927249E+01  0.66022317580E+02  0.19497829676E+03  0.22060459833E+03  0.78970266912E+02 0.  0.
          6    2    1    2  501    0 -0.85240763193E+02 -0.34016269220E+02  0.19801251745E+03  0.27769584398E+03  0.17170594171E+03 0.  0.
         24    2    5    5    0    0 -0.84594945861E+02 -0.14332816155E+02  0.45992624078E+02  0.12433354945E+03  0.77341939232E+02 0.  0.
          5    1    5    5  501    0 -0.64581733188E+00 -0.19683453064E+02  0.15201989337E+03  0.15336229454E+03  0.47000000000E+01 0. -1.
        -11    1    6    6    0    0 -0.21743848354E+02 -0.69733733152E+01  0.55805644549E+02  0.60296706711E+02  0.00000000000E+00 0.  1.
         12    1    6    6    0    0 -0.62851097507E+02 -0.73594428403E+01 -0.98130204711E+01  0.64036842735E+02  0.00000000000E+00 0. -1.
         -5    1    3    3    0  503  0.77851370468E+02 -0.32006048360E+02  0.77714522111E+02  0.11465975738E+03  0.47000000000E+01 0.  1.
         13    1    4    4    0    0  0.36621062632E+02  0.41837865052E+02  0.15851543587E+03  0.16798408433E+03  0.00000000000E+00 0. -1.
        -14    1    4    4    0    0 -0.29231669907E+02  0.24184452528E+02  0.36462860891E+02  0.52620514004E+02  0.00000000000E+00 0.  1.
</event>
<event>
12    1  0.8488291E-002  0.2337134E+03  0.7818608E-02  0.1124146E+00
         21   -1    0    0  501  502  0.00000000000E+00  0.00000000000E+00  0.20281059411E+03  0.20281059411E+03  0.00000000000E+00 0.  1.
         21   -1    0    0  502  503 -0.00000000000E+00 -0.00000000000E+00 -0.42730140854E+03  0.42730140854E+03  0.00000000000E+00 0. -1.
         -6    2    1    2    0  503 -0.14227574806E+03 -0.67354412301E+02 -0.30410494955E+03  0.38321044136E+03  0.17202155876E+03 0.  0.
        -24    2    3    3    0    0 -0.11221929727E+03 -0.18896855890E+01 -0.10990624043E+03  0.17602875949E+03  0.79435514034E+02 0.  0.
          6    2    1    2  501    0  0.14227574806E+03  0.67354412301E+02  0.79614135119E+02  0.24690156130E+03  0.17275116531E+03 0.  0.
         24    2    5    5    0    0  0.90568091346E+02 -0.17686179245E+02  0.82833828894E+02  0.14721184066E+03  0.79337902125E+02 0.  0.
          5    1    5    5  501    0  0.51707656715E+02  0.85040591545E+02 -0.32196937751E+01  0.99689720640E+02  0.47000000000E+01 0. -1.
        -11    1    6    6    0    0  0.39777322685E+02 -0.48103866968E+02  0.39951493180E+02  0.74110317936E+02  0.00000000000E+00 0.  1.
         12    1    6    6    0    0  0.50790768661E+02  0.30417687723E+02  0.42882335714E+02  0.73101522719E+02  0.00000000000E+00 0. -1.
         -5    1    3    3    0  503 -0.30056450793E+02 -0.65464726712E+02 -0.19419870912E+03  0.20718168187E+03  0.47000000000E+01 0.  1.
         13    1    4    4    0    0 -0.89605924878E+02 -0.31112554391E+02 -0.99877386865E+02  0.13774144337E+03  0.00000000000E+00 0. -1.
        -14    1    4    4    0    0 -0.22613372391E+02  0.29222868802E+02 -0.10028853568E+02  0.38287316121E+02  0.00000000000E+00 0.  1.
</event>
<event>
12    1  0.8488291E-002  0.2035544E+03  0.7818608E-02  0.1146779E+00
         21   -1    0    0  503  502  0.00000000000E+00  0.00000000000E+00  0.75307076587E+02  0.75307076587E+02  0.00000000000E+00 0. -1.
         21   -1    0    0  501  503 -0.00000000000E+00 -0.00000000000E+00 -0.59495264280E+03  0.59495264280E+03  0.00000000000E+00 0. -1.
          6    2    1    2  501    0 -0.60544044999E+02 -0.89917011159E+02 -0.35181339331E+03  0.40645669615E+03  0.17228967425E+03 0.  0.
         24    2    3    3    0    0 -0.11645215165E+02  0.17160441610E+02 -0.96278736880E+02  0.12507310195E+03  0.77094707102E+02 0.  0.
         -6    2    1    2    0  502  0.60544044999E+02  0.89917011159E+02 -0.16783217290E+03  0.26380302323E+03  0.17226069350E+03 0.  0.
        -24    2    5    5    0    0  0.79389527970E+02  0.10195280104E+03 -0.18288830099E+03  0.23643900563E+03  0.75882817243E+02 0.  0.
          5    1    3    3  501    0 -0.48898829834E+02 -0.10707745277E+03 -0.25553465643E+03  0.28138359420E+03  0.47000000000E+01 0. -1.
        -13    1    4    4    0    0  0.24541613989E+01 -0.37118208523E+01  0.12577126859E+02  0.13341088495E+02  0.00000000000E+00 0.  1.
         14    1    4    4    0    0 -0.14099376564E+02  0.20872262463E+02 -0.10885586374E+03  0.11173201345E+03  0.00000000000E+00 0. -1.
         -5    1    5    5    0  502 -0.18845482970E+02 -0.12035789880E+02  0.15056128089E+02  0.27364017605E+02  0.47000000000E+01 0.  1.
         13    1    6    6    0    0  0.13654223272E+01  0.47424852909E+02 -0.98067971051E+02  0.10894176425E+03  0.00000000000E+00 0. -1.
        -14    1    6    6    0    0  0.78024105642E+02  0.54527948130E+02 -0.84820329941E+02  0.12749724138E+03  0.00000000000E+00 0.  1.
</event>
<event>
12    1  0.8488291E-002  0.2512038E+03  0.7818608E-02  0.1114328E+00
         21   -1    0    0  501  502  0.00000000000E+00  0.00000000000E+00  0.11983089125E+03  0.11983089125E+03  0.00000000000E+00 0. -1.
         21   -1    0    0  502  503 -0.00000000000E+00 -0.00000000000E+00 -0.50841334286E+03  0.50841334286E+03  0.00000000000E+00 0.  1.
         -6    2    1    2    0  503  0.88713513200E+02 -0.14402902281E+03 -0.16820291039E+03  0.30231700497E+03  0.18571188868E+03 0.  0.
        -24    2    3    3    0    0  0.52972854180E+02 -0.17783626979E+03 -0.13317855317E+03  0.24174374144E+03  0.79193733133E+02 0.  0.
          6    2    1    2  501    0 -0.88713513200E+02  0.14402902281E+03 -0.22037954123E+03  0.32592722914E+03  0.17043171555E+03 0.  0.
         24    2    5    5    0    0 -0.45901844295E+02  0.13733219793E+03 -0.89541984599E+02  0.18802058433E+03  0.79792613870E+02 0.  0.
          5    1    5    5  501    0 -0.42811668905E+02  0.66968248797E+01 -0.13083755663E+03  0.13790664481E+03  0.47000000000E+01 0. -1.
        -11    1    6    6    0    0  0.17663942072E+02  0.33616262627E+02 -0.17705548720E+01  0.38015823378E+02  0.00000000000E+00 0.  1.
         12    1    6    6    0    0 -0.63565786367E+02  0.10371593530E+03 -0.87771429727E+02  0.15000476095E+03  0.00000000000E+00 0. -1.
         -5    1    3    3    0  503  0.35740659020E+02  0.33807246989E+02 -0.35024357223E+02  0.60573263533E+02  0.47000000000E+01 0.  1.
         13    1    4    4    0    0  0.41128466678E+01 -0.33909140162E+01  0.96687905740E+01  0.11040802359E+02  0.00000000000E+00 0. -1.
        -14    1    4    4    0    0  0.48860007512E+02 -0.17444535578E+03 -0.14284734374E+03  0.23070293908E+03  0.00000000000E+00 0.  1.
</event>
<event>
12    1  0.8488291E-002  0.1839085E+03  0.7818608E-02  0.1164344E+00
         21   -1    0    0  501  502  0.00000000000E+00  0.00000000000E+00  0.28318008973E+04  0.28318008973E+04  0.00000000000E+00 0.  1.
         21   -1    0    0  502  503 -0.00000000000E+00 -0.00000000000E+00 -0.40750435471E+02  0.40750435471E+02  0.00000000000E+00 0.  1.
         -6    2    1    2    0  503  0.29582067654E+02 -0.56961093392E+02  0.18511027531E+03  0.26012974019E+03  0.17111984929E+03 0.  0.
        -24    2    3    3    0    0  0.36756879561E+02  0.26315494185E+02  0.58973937433E+02  0.10873973492E+03  0.79390372366E+02 0.  0.
          6    2    1    2  501    0 -0.29582067654E+02  0.56961093392E+02  0.26059401865E+04  0.26124215925E+04  0.17234458729E+03 0.  0.
         24    2    5    5    0    0 -0.38962756139E+02 -0.31602532198E+02  0.13578652368E+04  0.13611643516E+04  0.80334141126E+02 0.  0.
          5    1    5    5  501    0  0.93806884854E+01  0.88563625591E+02  0.12480749497E+04  0.12512572410E+04  0.47000000000E+01 0. -1.
        -13    1    6    6    0    0 -0.54763259909E+02 -0.58711510200E+01  0.55373020350E+03  0.55646259831E+03  0.00000000000E+00 0.  1.
         14    1    6    6    0    0  0.15800503770E+02 -0.25731381178E+02  0.80413503331E+03  0.80470175326E+03  0.00000000000E+00 0. -1.
         -5    1    3    3    0  503 -0.71748119076E+01 -0.83276587577E+02  0.12613633788E+03  0.15139000528E+03  0.47000000000E+01 0.  1.
         13    1    4    4    0    0 -0.56876224660E+01  0.37372106239E+02  0.52060067252E+02  0.64337189683E+02  0.00000000000E+00 0. -1.
        -14    1    4    4    0    0  0.42444502028E+02 -0.11056612054E+02  0.69138701819E+01  0.44402545235E+02  0.00000000000E+00 0.  1.
</event>
<event>
12    1  0.8488291E-002  0.1982122E+03  0.7818608E-02  0.1151339E+00
         21   -1    0    0  503  502  0.00000000000E+00  0.00000000000E+00  0.48719963113E+03  0.48719963113E+03  0.00000000000E+00 0. -1.
         21   -1    0    0  501  503 -0.00000000000E+00 -0.00000000000E+00 -0.15347960515E+03  0.15347960515E+03  0.00000000000E+00 0.  1.
          6    2    1    2  501    0  0.49508873389E+02  0.83299131318E+02  0.38786728570E+03  0.43557903987E+03  0.17291094481E+03 0.  0.
         24    2    3    3    0    0  0.84799223348E+02  0.67829118783E+02  0.36783151816E+03  0.39189549527E+03  0.80562744649E+02 0.  0.
         -6    2    1    2    0  502 -0.49508873389E+02 -0.83299131318E+02 -0.54147259716E+02  0.20510019641E+03  0.17246533278E+03 0.  0.
        -24    2    5    5    0    0  0.10568795262E+02 -0.10595599351E+03 -0.18286194826E+02  0.13140646771E+03  0.74799083142E+02 0.  0.
          5    1    3    3  501    0 -0.35290349959E+02  0.15470012535E+02  0.20035767546E+02  0.43683544604E+02  0.47000000000E+01 0. -1.
        -11    1    4    4    0    0  0.62498004173E+02  0.22038422576E+02  0.10492281461E+03  0.12409870918E+03  0.00000000000E+00 0.  1.
         12    1    4    4    0    0  0.22301219175E+02  0.45790696207E+02  0.26290870355E+03  0.26779678609E+03  0.00000000000E+00 0. -1.
         -5    1    5    5    0  502 -0.60077668651E+02  0.22656862197E+02 -0.35861064890E+02  0.73693728703E+02  0.47000000000E+01 0.  1.
         13    1    6    6    0    0  0.13772990419E+02  0.61080695222E+01 -0.11749145656E+02  0.19106182298E+02  0.00000000000E+00 0. -1.
        -14    1    6    6    0    0 -0.32041951572E+01 -0.11206406304E+03 -0.65370491703E+01  0.11230028541E+03  0.00000000000E+00 0.  1.
</event>
<event>
12    1  0.8488291E-002  0.2469407E+03  0.7818608E-02  0.1115259E+00
         21   -1    0    0  501  502  0.00000000000E+00  0.00000000000E+00  0.16757892421E+03  0.16757892421E+03  0.00000000000E+00 0. -1.
         21   -1    0    0  502  503 -0.00000000000E+00 -0.00000000000E+00 -0.40261976563E+03  0.40261976563E+03  0.00000000000E+00 0. -1.
         -6    2    1    2    0  503 -0.85564678463E+02  0.15448456776E+03 -0.20601607898E+03  0.32159346520E+03  0.17260630402E+03 0.  0.
        -24    2    3    3    0    0 -0.23991371639E+02  0.11151721186E+03 -0.20303511530E+03  0.24630440935E+03  0.80193076807E+02 0.  0.
          6    2    1    2  501    0  0.85564678463E+02 -0.15448456776E+03 -0.29024762443E+02  0.24860522464E+03  0.17255528101E+03 0.  0.
         24    2    5    5    0    0 -0.44290122096E+01 -0.41026032136E+02 -0.51619588118E+02  0.10196171195E+03  0.77645716970E+02 0.  0.
          5    1    5    5  501    0  0.89993690673E+02 -0.11345853562E+03  0.22594825675E+02  0.14664351269E+03  0.47000000000E+01 0. -1.
        -11    1    6    6    0    0 -0.38406070951E+02 -0.12582597251E+02 -0.11084897009E+02  0.41907314173E+02  0.00000000000E+00 0.  1.
         12    1    6    6    0    0  0.33977058741E+02 -0.28443434885E+02 -0.40534691110E+02  0.60054397775E+02  0.00000000000E+00 0. -1.
         -5    1    3    3    0  503 -0.61573306825E+02  0.42967355902E+02 -0.29809636828E+01  0.75289055851E+02  0.47000000000E+01 0.  1.
         11    1    4    4    0    0 -0.44155411453E+02  0.43009581786E+02 -0.57984143939E+02  0.84626741839E+02  0.00000000000E+00 0. -1.
        -12    1    4    4    0    0  0.20164039814E+02  0.68507630070E+02 -0.14505097136E+03  0.16167766751E+03  0.00000000000E+00 0.  1.
</event>
<event>
12    1  0.8488291E-002  0.2762876E+03  0.7818608E-02  0.1097783E+00
         21   -1    0    0  503  502  0.00000000000E+00  0.00000000000E+00  0.43037094998E+03  0.43037094998E+03  0.00000000000E+00 0. -1.
         21   -1    0    0  501  503 -0.00000000000E+00 -0.00000000000E+00 -0.22454238264E+03  0.22454238264E+03  0.00000000000E+00 0.  1.
          6    2    1    2  501    0  0.63421955769E+02  0.20658794656E+03 -0.47484833484E+02  0.28033841483E+03  0.17214497750E+03 0.  0.
         24    2    3    3    0    0  0.52926659647E+02  0.42482565961E+02 -0.48679698964E+02  0.11582627276E+03  0.80249689463E+02 0.  0.
         -6    2    1    2    0  502 -0.63421955769E+02 -0.20658794656E+03  0.25331340083E+03  0.37457491779E+03  0.17157437415E+03 0.  0.
        -24    2    5    5    0    0  0.39613706263E+01 -0.38422594042E+02  0.12100063715E+03  0.15018941047E+03  0.80148091914E+02 0.  0.
          5    1    3    3  501    0  0.10495296122E+02  0.16410538060E+03  0.11948654798E+01  0.16451214206E+03  0.47000000000E+01 0. -1.
        -11    1    4    4    0    0  0.39504191704E+02  0.63216582318E+02 -0.52021359706E+02  0.90901811356E+02  0.00000000000E+00 0.  1.
         12    1    4    4    0    0  0.13422467943E+02 -0.20734016356E+02  0.33416607416E+01  0.24924461407E+02  0.00000000000E+00 0. -1.
         -5    1    5    5    0  502 -0.67383326395E+02 -0.16816535252E+03  0.13231276368E+03  0.22438550732E+03  0.47000000000E+01 0.  1.
         13    1    6    6    0    0 -0.77990672001E+01 -0.41177579488E+02  0.12904309525E+03  0.13567807094E+03  0.00000000000E+00 0. -1.
        -14    1    6    6    0    0  0.11760437826E+02  0.27549854454E+01 -0.80424581039E+01  0.14511339532E+02  0.00000000000E+00 0.  1.
</event>
<event>
12    1  0.8488291E-002  0.1809514E+03  0.7818608E-02  0.1167123E+00
         21   -1    0    0  501  502  0.00000000000E+00  0.00000000000E+00  0.11510648886E+03  0.11510648886E+03  0.00000000000E+00 0. -1.
         21   -1    0    0  502  503 -0.00000000000E+00 -0.00000000000E+00 -0.34037557426E+03  0.34037557426E+03  0.00000000000E+00 0.  1.
         -6    2    1    2    0  503 -0.97212379993E+01  0.53250015403E+02 -0.20646269126E+03  0.27453642175E+03  0.17266539136E+03 0.  0.
        -24    2    3    3    0    0 -0.34108966771E+02 -0.14387609270E+01 -0.32984299109E+02  0.90954107470E+02  0.77583464931E+02 0.  0.
          6    2    1    2  501    0  0.97212379993E+01 -0.53250015403E+02 -0.18806394143E+02  0.18094564137E+03  0.17163210091E+03 0.  0.
         24    2    5    5    0    0  0.66397220474E+02 -0.22769650728E+02  0.22954580020E+02  0.10408675390E+03  0.73349108465E+02 0.  0.
          5    1    5    5  501    0 -0.56675982475E+02 -0.30480364676E+02 -0.41760974163E+02  0.76858887471E+02  0.47000000000E+01 0. -1.
        -13    1    6    6    0    0  0.33763928529E+02  0.16518793667E+02 -0.14983297299E+02  0.40464461097E+02  0.00000000000E+00 0.  1.
         14    1    6    6    0    0  0.32633291945E+02 -0.39288444394E+02  0.37937877319E+02  0.63622292803E+02  0.00000000000E+00 0. -1.
         -5    1    3    3    0  503  0.24387728772E+02  0.54688776330E+02 -0.17347839216E+03  0.18358231428E+03  0.47000000000E+01 0.  1.
         13    1    4    4    0    0 -0.34467299304E+02 -0.72693978922E+01 -0.56578186903E+02  0.66647806417E+02  0.00000000000E+00 0. -1.
        -14    1    4    4    0    0  0.35833253282E+00  0.58306369652E+01  0.23593887794E+02  0.24306301052E+02  0.00000000000E+00 0.  1.
</event>
<event>
12    1  0.8488291E-002  0.1886249E+03  0.7818608E-02  0.1159869E+00
         21   -1    0    0  501  502  0.00000000000E+00  0.00000000000E+00  0.76940613282E+03  0.76940613282E+03  0.00000000000E+00 0. -1.
         21   -1    0    0  502  503 -0.00000000000E+00 -0.00000000000E+00 -0.46559694556E+02  0.46559694556E+02  0.00000000000E+00 0.  1.
         -6    2    1    2    0  503  0.58651275676E+02 -0.49666916648E+02  0.32021318677E+03  0.37163939914E+03  0.17225731701E+03 0.  0.
        -24    2    3    3    0    0  0.92667943425E+02  0.68823858071E+01  0.19718539210E+03  0.23195086864E+03  0.79274281008E+02 0.  0.
          6    2    1    2  501    0 -0.58651275676E+02  0.49666916648E+02  0.40263325149E+03  0.44432642824E+03  0.17148080031E+03 0.  0.
         24    2    5    5    0    0 -0.92937419270E+02  0.24790063803E+02  0.19065963943E+03  0.22811056467E+03  0.80196137316E+02 0.  0.
          5    1    5    5  501    0  0.34286143594E+02  0.24876852845E+02  0.21197361206E+03  0.21621586357E+03  0.47000000000E+01 0. -1.
        -11    1    6    6    0    0 -0.10354003920E+02  0.39783924370E+02  0.68688454589E+02  0.80050420544E+02  0.00000000000E+00 0.  1.
         12    1    6    6    0    0 -0.82583415350E+02 -0.14993860568E+02  0.12197118484E+03  0.14806014412E+03  0.00000000000E+00 0. -1.
         -5    1    3    3    0  503 -0.34016667748E+02 -0.56549302455E+02  0.12302779467E+03  0.13968853050E+03  0.47000000000E+01 0.  1.
         13    1    4    4    0    0  0.24151838093E+02  0.26554171281E+02  0.12676395857E+03  0.13174800374E+03  0.00000000000E+00 0. -1.
        -14    1    4    4    0    0  0.68516105331E+02 -0.19671785473E+02  0.70421433528E+02  0.10020286490E+03  0.00000000000E+00 0.  1.
</event>
<event>
12    1  0.8488291E-002  0.2022134E+03  0.7818608E-02  0.1148810E+00
         21   -1    0    0  501  502  0.00000000000E+00  0.00000000000E+00  0.94900482204E+02  0.94900482204E+02  0.00000000000E+00 0.  1.
         21   -1    0    0  502  503 -0.00000000000E+00 -0.00000000000E+00 -0.45464863508E+03  0.45464863508E+03  0.00000000000E+00 0. -1.
         -6    2    1    2    0  503  0.38965318216E+02 -0.92073512017E+02 -0.25583495945E+03  0.32610088067E+03  0.17576811502E+03 0.  0.
        -24    2    3    3    0    0  0.71987682510E+02 -0.12777699933E+01 -0.14286494111E+03  0.17737745159E+03  0.76606199524E+02 0.  0.
          6    2    1    2  501    0 -0.38965318216E+02  0.92073512017E+02 -0.10391319342E+03  0.22344823661E+03  0.17069075850E+03 0.  0.
         24    2    5    5    0    0 -0.77574043099E+02  0.98065186680E+02 -0.11002995116E+03  0.18362313739E+03  0.77306878286E+02 0.  0.
          5    1    5    5  501    0  0.38608724883E+02 -0.59916746628E+01  0.61167577458E+01  0.39825099218E+02  0.47000000000E+01 0. -1.
        -11    1    6    6    0    0 -0.28477277628E+01  0.19119006049E+02  0.99352711667E+01  0.21733742404E+02  0.00000000000E+00 0.  1.
         12    1    6    6    0    0 -0.74726315336E+02  0.78946180631E+02 -0.11996522233E+03  0.16188939499E+03  0.00000000000E+00 0. -1.
         -5    1    3    3    0  503 -0.33022364295E+02 -0.90795742024E+02 -0.11297001834E+03  0.14872342908E+03  0.47000000000E+01 0.  1.
         13    1    4    4    0    0  0.32497066287E+02  0.16916744070E+02 -0.12519196619E+03  0.13044256953E+03  0.00000000000E+00 0. -1.
        -14    1    4    4    0    0  0.39490616224E+02 -0.18194514063E+02 -0.17672974923E+02  0.46934882064E+02  0.00000000000E+00 0.  1.
</event>
<event>
12    1  0.8488291E-002  0.2111872E+03  0.7818608E-02  0.1140674E+00
         21   -1    0    0  501  502  0.00000000000E+00  0.00000000000E+00  0.38871921381E+02  0.38871921381E+02  0.00000000000E+00 0.  1.
         21   -1    0    0  502  503 -0.00000000000E+00 -0.00000000000E+00 -0.11493888767E+04  0.11493888767E+04  0.00000000000E+00 0. -1.
         -6    2    1    2    0  503  0.77303039166E+02  0.95053313349E+02 -0.52332096568E+03  0.56424223325E+03  0.17173692797E+03 0.  0.
        -24    2    3    3    0    0  0.91838518441E+02  0.25120080730E+02 -0.42123921662E+03  0.43956380419E+03  0.81905606731E+02 0.  0.
          6    2    1    2  501    0 -0.77303039166E+02 -0.95053313349E+02 -0.58719598967E+03  0.62401856486E+03  0.17201496085E+03 0.  0.
         24    2    5    5    0    0 -0.81964899887E+02 -0.12087948839E+03 -0.56535989597E+03  0.58955656767E+03  0.81332889890E+02 0.  0.
          5    1    5    5  501    0  0.46618607201E+01  0.25826175038E+02 -0.21836093702E+02  0.34461997194E+02  0.47000000000E+01 0. -1.
        -11    1    6    6    0    0 -0.28764568830E+02 -0.84731387674E+02 -0.20763491386E+03  0.22609525853E+03  0.00000000000E+00 0.  1.
         12    1    6    6    0    0 -0.53200331056E+02 -0.36148100713E+02 -0.35772498211E+03  0.36346130913E+03  0.00000000000E+00 0. -1.
         -5    1    3    3    0  503 -0.14535479274E+02  0.69933232619E+02 -0.10208174906E+03  0.12467842906E+03  0.47000000000E+01 0.  1.
         11    1    4    4    0    0 -0.10215750896E+02  0.17763490989E+02 -0.41529363405E+02  0.46309731195E+02  0.00000000000E+00 0. -1.
        -12    1    4    4    0    0  0.10205426934E+03  0.73565897406E+01 -0.37970985321E+03  0.39325407300E+03  0.00000000000E+00 0.  1.
</event>
<event>
12    1  0.8488291E-002  0.1772575E+03  0.7818608E-02  0.1170525E+00
         21   -1    0    0  503  502  0.00000000000E+00  0.00000000000E+00  0.10403989129E+04  0.10403989129E+04  0.00000000000E+00 0.  1.
         21   -1    0    0  501  503 -0.00000000000E+00 -0.00000000000E+00 -0.35525346808E+02  0.35525346808E+02  0.00000000000E+00 0.  1.
          6    2    1    2  501    0  0.10667568713E+00  0.41508542467E+02  0.29339484571E+03  0.34269702411E+03  0.17215616275E+03 0.  0.
         24    2    3    3    0    0  0.17398204214E+01 -0.43429303752E+02  0.18747370640E+03  0.20683502562E+03  0.75797136057E+02 0.  0.
         -6    2    1    2    0  502 -0.10667568713E+00 -0.41508542467E+02  0.71147872041E+03  0.73322723562E+03  0.17232886867E+03 0.  0.
        -24    2    5    5    0    0 -0.58878544055E+02 -0.18842042562E+02  0.56025822577E+03  0.56934425685E+03  0.80261433769E+02 0.  0.
          5    1    3    3  501    0 -0.16331447343E+01  0.84937846219E+02  0.10592113931E+03  0.13586199849E+03  0.47000000000E+01 0. -1.
        -11    1    4    4    0    0  0.21736934573E+02  0.13746880435E+02  0.41922129191E+02  0.49182679494E+02  0.00000000000E+00 0.  1.
         12    1    4    4    0    0 -0.19997114151E+02 -0.57176184187E+02  0.14555157720E+03  0.15765234613E+03  0.00000000000E+00 0. -1.
         -5    1    5    5    0  502  0.58771868368E+02 -0.22666499905E+02  0.15122049464E+03  0.16388297877E+03  0.47000000000E+01 0.  1.
         13    1    6    6    0    0 -0.57083641022E+01 -0.33669670990E+02  0.97544430335E+02  0.10334963984E+03  0.00000000000E+00 0. -1.
        -14    1    6    6    0    0 -0.53170179953E+02  0.14827628428E+02  0.46271379543E+03  0.46599461701E+03  0.00000000000E+00 0.  1.
</event>
<event>
12    1  0.8488291E-002  0.2021376E+03  0.7818608E-02  0.1148440E+00
         21   -1    0    0  503  502  0.00000000000E+00  0.00000000000E+00  0.14659196577E+03  0.14659196577E+03  0.00000000000E+00 0. -1.
         21   -1    0    0  501  503 -0.00000000000E+00 -0.00000000000E+00 -0.38325123888E+03  0.38325123888E+03  0.00000000000E+00 0. -1.
          6    2    1    2  501    0 -0.72033256880E+02  0.77849206193E+02 -0.25830280264E+03  0.32655015469E+03  0.16930852510E+03 0.  0.
         24    2    3    3    0    0  0.84013778162E+01  0.59467610429E+02 -0.20563369492E+03  0.22855148924E+03  0.79646637764E+02 0.  0.
         -6    2    1    2    0  502  0.72033256880E+02 -0.77849206193E+02  0.21643529526E+02  0.20329304996E+03  0.17207653179E+03 0.  0.
        -24    2    5    5    0    0  0.90632255833E+02 -0.20968225222E+02 -0.28708808148E+02  0.12494244902E+03  0.78310584448E+02 0.  0.
          5    1    3    3  501    0 -0.80434634696E+02  0.18381595764E+02 -0.52669107714E+02  0.97998665444E+02  0.47000000000E+01 0. -1.
        -13    1    4    4    0    0  0.39585287816E+02  0.55319359475E+02 -0.13258289451E+03  0.14901493369E+03  0.00000000000E+00 0.  1.
         14    1    4    4    0    0 -0.31183910000E+02  0.41482509532E+01 -0.73050800411E+02  0.79536555555E+02  0.00000000000E+00 0. -1.
         -5    1    5    5    0  502 -0.18598998953E+02 -0.56880980971E+02  0.50352337674E+02  0.78350600939E+02  0.47000000000E+01 0.  1.
         13    1    6    6    0    0  0.63730837625E+02 -0.26071673737E+02 -0.54124769434E+02  0.87583346032E+02  0.00000000000E+00 0. -1.
        -14    1    6    6    0    0  0.26901418208E+02  0.51034485143E+01  0.25415961286E+02  0.37359102992E+02  0.00000000000E+00 0.  1.
</event>
<event>
12    1  0.8488291E-002  0.3976639E+03  0.7818608E-02  0.1044600E+00
         21   -1    0    0  501  502  0.00000000000E+00  0.00000000000E+00  0.80543989838E+02  0.80543989838E+02  0.00000000000E+00 0. -1.
         21   -1    0    0  502  503 -0.00000000000E+00 -0.00000000000E+00 -0.20513865166E+04  0.20513865166E+04  0.00000000000E+00 0. -1.
         -6    2    1    2    0  503 -0.35590736595E+03  0.46610569177E+02 -0.12067112451E+04  0.12705170165E+04  0.17093525614E+03 0.  0.
        -24    2    3    3    0    0 -0.30026170040E+03  0.93409737647E+02 -0.96732509561E+03  0.10202882795E+04  0.79924118803E+02 0.  0.
          6    2    1    2  501    0  0.35590736595E+03 -0.46610569177E+02 -0.76413128165E+03  0.86141348995E+03  0.17115486200E+03 0.  0.
         24    2    5    5    0    0  0.15341614887E+03 -0.75867690679E+02 -0.30759886124E+03  0.36111096844E+03  0.80570781721E+02 0.  0.
          5    1    5    5  501    0  0.20249121708E+03  0.29257121502E+02 -0.45653242041E+03  0.50030252152E+03  0.47000000000E+01 0. -1.
        -11    1    6    6    0    0 -0.94217500836E+00 -0.18309376527E+01  0.46083043757E+01  0.50474246555E+01  0.00000000000E+00 0.  1.
         12    1    6    6    0    0  0.15435832387E+03 -0.74036753027E+02 -0.31220716561E+03  0.35606354378E+03  0.00000000000E+00 0. -1.
         -5    1    3    3    0  503 -0.55645665551E+02 -0.46799168470E+02 -0.23938614950E+03  0.25022873703E+03  0.47000000000E+01 0.  1.
         11    1    4    4    0    0 -0.52278820842E+02  0.46991816629E+02 -0.25920005569E+03  0.26856279491E+03  0.00000000000E+00 0. -1.
        -12    1    4    4    0    0 -0.24798287956E+03  0.46417921018E+02 -0.70812503993E+03  0.75172548455E+03  0.00000000000E+00 0.  1.
</event>
<event>
12    1  0.8488291E-002  0.2029226E+03  0.7818608E-02  0.1147320E+00
         21   -1    0    0  503  502  0.00000000000E+00  0.00000000000E+00  0.20236926389E+03  0.20236926389E+03  0.00000000000E+00 0. -1.
         21   -1    0    0  501  503 -0.00000000000E+00 -0.00000000000E+00 -0.21721782267E+03  0.21721782267E+03  0.00000000000E+00 0. -1.
          6    2    1    2  501    0  0.10168434340E+03 -0.38105145893E+02 -0.60408607319E+02  0.21172335531E+03  0.17142307752E+03 0.  0.
         24    2    3    3    0    0  0.22099197759E+02 -0.77533970028E+02 -0.43415994264E+02  0.12117355421E+03  0.79361140571E+02 0.  0.
         -6    2    1    2    0  502 -0.10168434340E+03  0.38105145893E+02  0.45560048542E+02  0.20786373125E+03  0.17128895150E+03 0.  0.
        -24    2    5    5    0    0 -0.13567487170E+03  0.92991296256E+01  0.32643697440E+02  0.16123686439E+03  0.80234474095E+02 0.  0.
          5    1    3    3  501    0  0.79585145646E+02  0.39428824135E+02 -0.16992613056E+02  0.90549801097E+02  0.47000000000E+01 0. -1.
        -11    1    4    4    0    0  0.89852691578E+01 -0.99953738485E+00 -0.42569706589E+02  0.43519122876E+02  0.00000000000E+00 0.  1.
         12    1    4    4    0    0  0.13113928601E+02 -0.76534432643E+02 -0.84628767476E+00  0.77654431337E+02  0.00000000000E+00 0. -1.
         -5    1    5    5    0  502  0.33990528295E+02  0.28806016267E+02  0.12916351102E+02  0.46626866855E+02  0.47000000000E+01 0.  1.
         11    1    6    6    0    0 -0.10827875823E+03  0.86432446811E+01 -0.11550807587E+02  0.10923560005E+03  0.00000000000E+00 0. -1.
        -12    1    6    6    0    0 -0.27396113469E+02  0.65588494447E+00  0.44194505027E+02  0.52001264339E+02  0.00000000000E+00 0.  1.
</event>
<event>
12    1  0.8488291E-002  0.1910313E+03  0.7818608E-02  0.1158109E+00
         21   -1    0    0  501  502  0.00000000000E+00  0.00000000000E+00  0.52564544227E+03  0.52564544227E+03  0.00000000000E+00 0. -1.
         21   -1    0    0  502  503 -0.00000000000E+00 -0.00000000000E+00 -0.13642951014E+03  0.13642951014E+03  0.00000000000E+00 0. -1.
         -6    2    1    2    0  503  0.48415724904E+02  0.64888943846E+02 -0.38319246168E+02  0.19483662042E+03  0.17302683774E+03 0.  0.
        -24    2    3    3    0    0  0.72947019544E+02  0.45633275308E+02  0.21495135410E+02  0.12721698251E+03  0.91205571741E+02 0.  0.
          6    2    1    2  501    0 -0.48415724904E+02 -0.64888943846E+02  0.42753517830E+03  0.46723833199E+03  0.17020773409E+03 0.  0.
         24    2    5    5    0    0 -0.38335787984E+02 -0.49927737451E+02  0.43530474730E+03  0.44704182171E+03  0.79960963804E+02 0.  0.
          5    1    5    5  501    0 -0.10079936920E+02 -0.14961206396E+02 -0.77695689942E+01  0.20196510280E+02  0.47000000000E+01 0. -1.
        -13    1    6    6    0    0  0.21495169828E+02 -0.10113244046E+02  0.53570026044E+02  0.58600919117E+02  0.00000000000E+00 0.  1.
         14    1    6    6    0    0 -0.59830957812E+02 -0.39814493404E+02  0.38173472125E+03  0.38844090260E+03  0.00000000000E+00 0. -1.
         -5    1    3    3    0  503 -0.24531294640E+02  0.19255668538E+02 -0.59814381578E+02  0.67619637910E+02  0.47000000000E+01 0.  1.
         11    1    4    4    0    0  0.49854123113E+02  0.26317657597E+02 -0.32735949870E+02  0.65189685584E+02  0.00000000000E+00 0. -1.
        -12    1    4    4    0    0  0.23092896431E+02  0.19315617711E+02  0.54231085279E+02  0.62027296924E+02  0.00000000000E+00 0.  1.
</event>
<event>
12    1  0.8488291E-002  0.1913266E+03  0.7818608E-02  0.1157408E+00
         21   -1    0    0  503  502  0.00000000000E+00  0.00000000000E+00  0.12207915766E+03  0.12207915766E+03  0.00000000000E+00 0.  1.
         21   -1    0    0  501  503 -0.00000000000E+00 -0.00000000000E+00 -0.30063132708E+03  0.30063132708E+03  0.00000000000E+00 0.  1.
          6    2    1    2  501    0  0.73440257796E+02  0.36835272074E+02 -0.73062116277E+02  0.20422929636E+03  0.17210817506E+03 0.  0.
         24    2    3    3    0    0  0.24973118091E+02 -0.82133492013E+01  0.24950301303E+02  0.85878268017E+02  0.77855273747E+02 0.  0.
         -6    2    1    2    0  502 -0.73440257796E+02 -0.36835272074E+02 -0.10549005315E+03  0.21848118838E+03  0.17278764316E+03 0.  0.
        -24    2    5    5    0    0 -0.11756610474E+03 -0.30189420882E+02 -0.70826763287E+02  0.16178117629E+03  0.80146918152E+02 0.  0.
          5    1    3    3  501    0  0.48467139705E+02  0.45048621275E+02 -0.98012417580E+02  0.11835102834E+03  0.47000000000E+01 0. -1.
        -13    1    4    4    0    0  0.18748076430E+02 -0.21164858137E+01 -0.27145807162E+02  0.33058504632E+02  0.00000000000E+00 0.  1.
         14    1    4    4    0    0  0.62250416615E+01 -0.60968633876E+01  0.52096108465E+02  0.52819763385E+02  0.00000000000E+00 0. -1.
         -5    1    5    5    0  502  0.44125846941E+02 -0.66458511915E+01 -0.34663289862E+02  0.56700012084E+02  0.47000000000E+01 0.  1.
         13    1    6    6    0    0  0.16217891933E+01  0.16614462415E+02 -0.13576815091E+02  0.21517445702E+02  0.00000000000E+00 0. -1.
        -14    1    6    6    0    0 -0.11918789393E+03 -0.46803883297E+02 -0.57249948196E+02  0.14026373059E+03  0.00000000000E+00 0.  1.
</event>
<event>
12    1  0.8488291E-002  0.1904213E+03  0.7818608E-02  0.1158418E+00
         21   -1    0    0  503  502  0.00000000000E+00  0.00000000000E+00  0.55386931413E+03  0.55386931413E+03  0.00000000000E+00 0.  1.
         21   -1    0    0  501  503 -0.00000000000E+00 -0.00000000000E+00 -0.14763545841E+03  0.14763545841E+03  0.00000000000E+00 0.  1.
          6    2    1    2  501    0  0.65575704522E+02 -0.49966472118E+02 -0.59715457905E+02  0.19814699710E+03  0.16999845642E+03 0.  0.
         24    2    3    3    0    0  0.10861299827E+02 -0.14789564334E+02  0.30149789090E+02  0.87111266181E+02  0.79640842954E+02 0.  0.
         -6    2    1    2    0  502 -0.65575704522E+02  0.49966472118E+02  0.46594931363E+03  0.50335777545E+03  0.17164925247E+03 0.  0.
        -24    2    5    5    0    0  0.23276834759E+02  0.45374764165E+02  0.17537113271E+03  0.19942747629E+03  0.80097464707E+02 0.  0.
          5    1    3    3  501    0  0.54714404696E+02 -0.35176907784E+02 -0.89865246995E+02  0.11103573092E+03  0.47000000000E+01 0. -1.
        -13    1    4    4    0    0  0.20141071905E+02 -0.69045230606E+01 -0.23724609878E+02  0.31877771724E+02  0.00000000000E+00 0.  1.
         14    1    4    4    0    0 -0.92797720789E+01 -0.78850412737E+01  0.53874398969E+02  0.55233494457E+02  0.00000000000E+00 0. -1.
         -5    1    5    5    0  502 -0.88852539281E+02  0.45917079536E+01  0.29057818092E+03  0.30393029916E+03  0.47000000000E+01 0.  1.
         11    1    6    6    0    0 -0.23262609333E+02  0.37499310908E+02  0.57685035356E+02  0.72628579881E+02  0.00000000000E+00 0. -1.
        -12    1    6    6    0    0  0.46539444092E+02  0.78754532572E+01  0.11768609735E+03  0.12679889641E+03  0.00000000000E+00 0.  1.
</event>
<event>
12    1  0.8488291E-002  0.3228691E+03  0.7818608E-02  0.1074724E+00
         21   -1    0    0  501  502  0.00000000000E+00  0.00000000000E+00  0.22847992344E+03  0.22847992344E+03  0.00000000000E+00 0.  1.
         21   -1    0    0  502  503 -0.00000000000E+00 -0.00000000000E+00 -0.51882965701E+03  0.51882965701E+03  0.00000000000E+00 0. -1.
         -6    2    1    2    0  503 -0.24879774484E+03  0.10658529679E+03 -0.98814541247E+01  0.31963337526E+03  0.16972656867E+03 0.  0.
        -24    2    3    3    0    0 -0.86442638968E+02  0.24915117867E+01  0.32613635993E+02  0.12209193869E+03  0.79776279537E+02 0.  0.
          6    2    1    2  501    0  0.24879774484E+03 -0.10658529679E+03 -0.28046827944E+03  0.42767620520E+03  0.17602197985E+03 0.  0.
         24    2    5    5    0    0  0.11474423672E+03 -0.32437701938E+02 -0.20301743314E+03  0.25595278672E+03  0.10038578835E+03 0.  0.
          5    1    5    5  501    0  0.13405350812E+03 -0.74147594848E+02 -0.77450846304E+02  0.17172341848E+03  0.47000000000E+01 0. -1.
        -13    1    6    6    0    0 -0.16489965209E+02  0.71422354154E+01 -0.32853442959E+02  0.37447018487E+02  0.00000000000E+00 0.  1.
         14    1    6    6    0    0  0.13123420193E+03 -0.39579937353E+02 -0.17016399018E+03  0.21850576823E+03  0.00000000000E+00 0. -1.
         -5    1    3    3    0  503 -0.16235510587E+03  0.10409378500E+03 -0.42495090117E+02  0.19754143657E+03  0.47000000000E+01 0.  1.
         11    1    4    4    0    0 -0.93392209630E+02 -0.49211814439E+01  0.46850793651E+02  0.10460076344E+03  0.00000000000E+00 0. -1.
        -12    1    4    4    0    0  0.69495706616E+01  0.74126932307E+01 -0.14237157659E+02  0.17491175247E+02  0.00000000000E+00 0.  1.
</event>
<event>
12    1  0.8488291E-002  0.3087705E+03  0.7818608E-02  0.1080990E+00
         21   -1    0    0  503  502  0.00000000000E+00  0.00000000000E+00  0.17706116474E+03  0.17706116474E+03  0.00000000000E+00 0. -1.
         21   -1    0    0  501  503 -0.00000000000E+00 -0.00000000000E+00 -0.74289018964E+03  0.74289018964E+03  0.00000000000E+00 0. -1.
          6    2    1    2  501    0 -0.23986806187E+03  0.89816025058E+02 -0.52451986784E+03  0.60842985415E+03  0.17164553650E+03 0.  0.
         24    2    3    3    0    0 -0.20830404114E+03  0.10506596246E+03 -0.33689654957E+03  0.41750199460E+03  0.79869896428E+02 0.  0.
         -6    2    1    2    0  502  0.23986806187E+03 -0.89816025058E+02 -0.41309157055E+02  0.31152150022E+03  0.17244011477E+03 0.  0.
        -24    2    5    5    0    0  0.21972478962E+03 -0.54724837928E+02  0.16713551185E+02  0.24062814720E+03  0.79679177791E+02 0.  0.
          5    1    3    3  501    0 -0.31564020726E+02 -0.15249937402E+02 -0.18762331827E+03  0.19092785955E+03  0.47000000000E+01 0. -1.
        -11    1    4    4    0    0 -0.48249354548E+02  0.19117388675E+02 -0.27558998432E+02  0.58762004379E+02  0.00000000000E+00 0.  1.
         12    1    4    4    0    0 -0.16005468659E+03  0.85948573785E+02 -0.30933755114E+03  0.35873999022E+03  0.00000000000E+00 0. -1.
         -5    1    5    5    0  502  0.20143272251E+02 -0.35091187129E+02 -0.58022708240E+02  0.70893353021E+02  0.47000000000E+01 0.  1.
         11    1    6    6    0    0  0.27465579094E+01 -0.16622236365E+02 -0.85375526693E+01  0.18887353645E+02  0.00000000000E+00 0. -1.
        -12    1    6    6    0    0  0.21697823171E+03 -0.38102601563E+02  0.25251103854E+02  0.22174079356E+03  0.00000000000E+00 0.  1.
</event>
<event>
12    1  0.8488291E-002  0.2048648E+03  0.7818608E-02  0.1145701E+00
         21   -1    0    0  501  502  0.00000000000E+00  0.00000000000E+00  0.21846743120E+04  0.21846743120E+04  0.00000000000E+00 0.  1.
         21   -1    0    0  502  503 -0.00000000000E+00 -0.00000000000E+00 -0.26293518023E+02  0.26293518023E+02  0.00000000000E+00 0.  1.
         -6    2    1    2    0  503  0.78860415130E+02  0.79814925113E+02  0.50541535286E+03  0.54535701810E+03  0.17140656621E+03 0.  0.
        -24    2    3    3    0    0  0.73114742570E+02 -0.11306073341E+02  0.20539561423E+03  0.23171712478E+03  0.77665144674E+02 0.  0.
          6    2    1    2  501    0 -0.78860415130E+02 -0.79814925113E+02  0.16529654411E+04  0.16656108119E+04  0.17139206494E+03 0.  0.
         24    2    5    5    0    0  0.19627640131E+02 -0.45311141813E+02  0.91765612406E+03  0.92291821748E+03  0.85128904025E+02 0.  0.
          5    1    5    5  501    0 -0.98488055261E+02 -0.34503783300E+02  0.73530931704E+03  0.74269259443E+03  0.47000000000E+01 0. -1.
        -11    1    6    6    0    0 -0.16594620951E+01 -0.32073795070E+02  0.85252498152E+03  0.85312972417E+03  0.00000000000E+00 0.  1.
         12    1    6    6    0    0  0.21287102226E+02 -0.13237346743E+02  0.65131142542E+02  0.69788493312E+02  0.00000000000E+00 0. -1.
         -5    1    3    3    0  503  0.57456725600E+01  0.91120998454E+02  0.30001973862E+03  0.31363989331E+03  0.47000000000E+01 0.  1.
         13    1    4    4    0    0  0.64092235550E+02  0.22841904696E+02  0.10339397853E+03  0.12377351116E+03  0.00000000000E+00 0. -1.
        -14    1    4    4    0    0  0.90225070196E+01 -0.34147978038E+02  0.10200163570E+03  0.10794361363E+03  0.00000000000E+00 0.  1.
</event>
<event>
12    1  0.8488291E-002  0.2285833E+03  0.7818608E-02  0.1128131E+00
         21   -1    0    0  501  502  0.00000000000E+00  0.00000000000E+00  0.13012906869E+04  0.13012906869E+04  0.00000000000E+00 0. -1.
         21   -1    0    0  502  503 -0.00000000000E+00 -0.00000000000E+00 -0.43781654421E+02  0.43781654421E+02  0.00000000000E+00 0.  1.
         -6    2    1    2    0  503  0.67658159587E+02 -0.13196656954E+03  0.41926160135E+03  0.47621729011E+03  0.17032267905E+03 0.  0.
        -24    2    3    3    0    0  0.10123616013E+03 -0.61368472314E+02  0.21707677211E+03  0.25939393199E+03  0.78409421957E+02 0.  0.
          6    2    1    2  501    0 -0.67658159587E+02  0.13196656954E+03  0.83824743109E+03  0.86885505117E+03  0.17394695221E+03 0.  0.
         24    2    5    5    0    0 -0.11284333034E+03  0.88459190698E+02  0.55180077576E+03  0.57558321819E+03  0.79077805434E+02 0.  0.
          5    1    5    5  501    0  0.45185170757E+02  0.43507378844E+02  0.28644665533E+03  0.29327183298E+03  0.47000000000E+01 0. -1.
        -11    1    6    6    0    0 -0.14028539485E+02  0.27883929716E+02  0.39550176352E+02  0.50383825837E+02  0.00000000000E+00 0.  1.
         12    1    6    6    0    0 -0.98814790859E+02  0.60575260981E+02  0.51225059941E+03  0.52519939235E+03  0.00000000000E+00 0. -1.
         -5    1    3    3    0  503 -0.33578000538E+02 -0.70598097227E+02  0.20218482924E+03  0.21682335812E+03  0.47000000000E+01 0.  1.
         13    1    4    4    0    0  0.53632529922E+02  0.14148409316E+01  0.13664957163E+03  0.14680448041E+03  0.00000000000E+00 0. -1.
        -14    1    4    4    0    0  0.47603630203E+02 -0.62783313246E+02  0.80427200483E+02  0.11258945158E+03  0.00000000000E+00 0.  1.
</event>
<event>
12    1  0.8488291E-002  0.2860123E+03  0.7818608E-02  0.1093660E+00
         21   -1    0    0  503  502  0.00000000000E+00  0.00000000000E+00  0.11087103802E+04  0.11087103802E+04  0.00000000000E+00 0. -1.
         21   -1    0    0  501  503 -0.00000000000E+00 -0.00000000000E+00 -0.91344902263E+02  0.91344902263E+02  0.00000000000E+00 0. -1.
          6    2    1    2  501    0 -0.17063733578E+03  0.13760008677E+03  0.78206943219E+03  0.82969426226E+03  0.16943756318E+03 0.  0.
         24    2    3    3    0    0 -0.25898028622E+02  0.94349525712E+02  0.30445257557E+03  0.32873515235E+03  0.76176694156E+02 0.  0.
         -6    2    1    2    0  502  0.17063733578E+03 -0.13760008677E+03  0.23529604569E+03  0.37036102015E+03  0.18371764174E+03 0.  0.
        -24    2    5    5    0    0  0.14799933096E+03 -0.50951734447E+02  0.11674510404E+03  0.22171098823E+03  0.10500696062E+03 0.  0.
          5    1    3    3  501    0 -0.14473930716E+03  0.43250561059E+02  0.47761685662E+03  0.50095910991E+03  0.47000000000E+01 0. -1.
        -11    1    4    4    0    0  0.36891329638E+01  0.43841250213E+02  0.22926304713E+03  0.23344637436E+03  0.00000000000E+00 0.  1.
         12    1    4    4    0    0 -0.29587161586E+02  0.50508275498E+02  0.75189528444E+02  0.95288777997E+02  0.00000000000E+00 0. -1.
         -5    1    5    5    0  502  0.22638004824E+02 -0.86648352324E+02  0.11855094165E+03  0.14865003192E+03  0.47000000000E+01 0.  1.
         11    1    6    6    0    0  0.10917108596E+03 -0.73536465626E+02  0.11799726447E+03  0.17677469335E+03  0.00000000000E+00 0. -1.
        -12    1    6    6    0    0  0.38828245004E+02  0.22584731179E+02 -0.12521604271E+01  0.44936294888E+02  0.00000000000E+00 0.  1.
</event>
<event>
12    1  0.8488291E-002  0.2078589E+03  0.7818608E-02  0.1143616E+00
         21   -1    0    0  503  502  0.00000000000E+00  0.00000000000E+00  0.24261488653E+02  0.24261488653E+02  0.00000000000E+00 0. -1.
         21   -1    0    0  501  503 -0.00000000000E+00 -0.00000000000E+00 -0.18380728354E+04  0.18380728354E+04  0.00000000000E+00 0.  1.
          6    2    1    2  501    0 -0.99290565432E+02  0.59880037520E+02 -0.72642830015E+03  0.75558150283E+03  0.17251404838E+03 0.  0.
         24    2    3    3    0    0 -0.12040909251E+03  0.83127045241E+01 -0.43687306941E+03  0.46067557942E+03  0.82440645793E+02 0.  0.
         -6    2    1    2    0  502  0.99290565432E+02 -0.59880037520E+02 -0.10873830466E+04  0.11067528213E+04  0.17045727317E+03 0.  0.
        -24    2    5    5    0    0  0.12836332321E+03 -0.42868714624E+02 -0.66287609039E+03  0.68088563979E+03  0.76718145331E+02 0.  0.
          5    1    3    3  501    0  0.21118527077E+02  0.51567332996E+02 -0.28955523074E+03  0.29490592341E+03  0.47000000000E+01 0. -1.
        -13    1    4    4    0    0 -0.10338914359E+02  0.11411267242E+02 -0.18679101472E+03  0.18742463378E+03  0.00000000000E+00 0.  1.
         14    1    4    4    0    0 -0.11007017815E+03 -0.30985627180E+01 -0.25008205469E+03  0.27325094563E+03  0.00000000000E+00 0. -1.
         -5    1    5    5    0  502 -0.29072757774E+02 -0.17011322896E+02 -0.42450695625E+03  0.42586718147E+03  0.47000000000E+01 0.  1.
         13    1    6    6    0    0  0.61260723194E+01  0.99383517375E+01 -0.12850571770E+02  0.17361935149E+02  0.00000000000E+00 0. -1.
        -14    1    6    6    0    0  0.12223725089E+03 -0.52807066361E+02 -0.65002551862E+03  0.66352370464E+03  0.00000000000E+00 0.  1.
</event>
<event>
12    1  0.8488291E-002  0.2201138E+03  0.7818608E-02  0.1134124E+00
         21   -1    0    0  503  502  0.00000000000E+00  0.00000000000E+00  0.39596842578E+02  0.39596842578E+02  0.00000000000E+00 0.  1.
         21   -1    0    0  501  503 -0.00000000000E+00 -0.00000000000E+00 -0.12723229205E+04  0.12723229205E+04  0.00000000000E+00 0. -1.
          6    2    1    2  501    0  0.11735913938E+03 -0.67694854170E+02 -0.75923405866E+03  0.79049758626E+03  0.17347713733E+03 0.  0.
         24    2    3    3    0    0  0.10087259941E+03 -0.28814227113E+02 -0.27886612293E+03  0.30825392084E+03  0.79048239688E+02 0.  0.
         -6    2    1    2    0  502 -0.11735913938E+03  0.67694854170E+02 -0.47349201922E+03  0.52142217678E+03  0.17126188511E+03 0.  0.
        -24    2    5    5    0    0 -0.14484266625E+02 -0.12663878334E+02 -0.12981854183E+03  0.15376158003E+03  0.80122418198E+02 0.  0.
          5    1    3    3  501    0  0.16486539970E+02 -0.38880627056E+02 -0.48036793573E+03  0.48224366542E+03  0.47000000000E+01 0. -1.
        -13    1    4    4    0    0  0.63009223055E+02 -0.35193778917E+02 -0.25002081339E+03  0.26022907484E+03  0.00000000000E+00 0.  1.
         14    1    4    4    0    0  0.37863376360E+02  0.63795518031E+01 -0.28845309537E+02  0.48024845996E+02  0.00000000000E+00 0. -1.
         -5    1    5    5    0  502 -0.10287487276E+03  0.80358732504E+02 -0.34367347739E+03  0.36766059674E+03  0.47000000000E+01 0.  1.
         13    1    6    6    0    0 -0.26640556770E+02 -0.27183393275E+02 -0.12933474050E+03  0.13481888308E+03  0.00000000000E+00 0. -1.
        -14    1    6    6    0    0  0.12156290146E+02  0.14519514941E+02 -0.48380133153E+00  0.18942696956E+02  0.00000000000E+00 0.  1.
</event>
<event>
12    1  0.8488291E-002  0.1971611E+03  0.7818608E-02  0.1152232E+00
         21   -1    0    0  503  502  0.00000000000E+00  0.00000000000E+00  0.13091850902E+03  0.13091850902E+03  0.00000000000E+00 0. -1.
         21   -1    0    0  501  503 -0.00000000000E+00 -0.00000000000E+00 -0.66192003622E+03  0.66192003622E+03  0.00000000000E+00 0. -1.
          6    2    1    2  501    0 -0.42724393031E+02  0.93025378146E+02 -0.56019224796E+03  0.59387528715E+03  0.16850343401E+03 0.  0.
         24    2    3    3    0    0 -0.97876044625E+01  0.38654738786E+02 -0.11973965155E+03  0.14883419001E+03  0.78892622780E+02 0.  0.
         -6    2    1    2    0  502  0.42724393031E+02 -0.93025378146E+02  0.29190720764E+02  0.19896325809E+03  0.16809278733E+03 0.  0.
        -24    2    5    5    0    0  0.29389111301E+02 -0.12255757701E+03  0.54769546560E+02  0.15741392792E+03  0.76781260256E+02 0.  0.
          5    1    3    3  501    0 -0.32936788569E+02  0.54370639360E+02 -0.44045259641E+03  0.44504109714E+03  0.47000000000E+01 0. -1.
        -11    1    4    4    0    0  0.23742946347E+02 -0.12054772975E+02 -0.47159229333E+02  0.54157529153E+02  0.00000000000E+00 0.  1.
         12    1    4    4    0    0 -0.33530550809E+02  0.50709511761E+02 -0.72580422221E+02  0.94676660854E+02  0.00000000000E+00 0. -1.
         -5    1    5    5    0  502  0.13335281731E+02  0.29532198868E+02 -0.25578825796E+02  0.41549330174E+02  0.47000000000E+01 0.  1.
         13    1    6    6    0    0  0.53197154756E+02 -0.92918738730E+02  0.52711850928E+02  0.11934139479E+03  0.00000000000E+00 0. -1.
        -14    1    6    6    0    0 -0.23808043455E+02 -0.29638838284E+02  0.20576956322E+01  0.38072533134E+02  0.00000000000E+00 0.  1.
</event>
<event>
12    1  0.8488291E-002  0.2351466E+03  0.7818608E-02  0.1123112E+00
         21   -1    0    0  501  502  0.00000000000E+00  0.00000000000E+00  0.95806023527E+03  0.95806023527E+03  0.00000000000E+00 0.  1.
         21   -1    0    0  502  503 -0.00000000000E+00 -0.00000000000E+00 -0.66504142571E+02  0.66504142571E+02  0.00000000000E+00 0.  1.
         -6    2    1    2    0  503  0.36332932933E+02  0.15592590080E+03  0.63246521555E+03  0.67467581400E+03  0.17187855176E+03 0.  0.
        -24    2    3    3    0    0  0.36817181564E+02  0.12537562963E+03  0.26760954626E+03  0.30851286806E+03  0.80565297396E+02 0.  0.
          6    2    1    2  501    0 -0.36332932933E+02 -0.15592590080E+03  0.25909087714E+03  0.34988856384E+03  0.17222356381E+03 0.  0.
         24    2    5    5    0    0 -0.34975861501E+02 -0.18567185685E+03  0.23058137793E+03  0.30839705760E+03  0.79016605698E+02 0.  0.
          5    1    5    5  501    0 -0.13570714321E+01  0.29745956053E+02  0.28509499218E+02  0.41491506239E+02  0.47000000000E+01 0. -1.
        -13    1    6    6    0    0 -0.10255343628E+02 -0.62593526322E+01 -0.34251689866E+01  0.12493332257E+02  0.00000000000E+00 0.  1.
         14    1    6    6    0    0 -0.24720517873E+02 -0.17941250422E+03  0.23400654691E+03  0.29590372534E+03  0.00000000000E+00 0. -1.
         -5    1    3    3    0  503 -0.48424863057E+00  0.30550271165E+02  0.36485566929E+03  0.36616294594E+03  0.47000000000E+01 0.  1.
         13    1    4    4    0    0 -0.11849694087E+02  0.78652777910E+02  0.18817492368E+03  0.20429507244E+03  0.00000000000E+00 0. -1.
        -14    1    4    4    0    0  0.48666875651E+02  0.46722851721E+02  0.79434622589E+02  0.10421779562E+03  0.00000000000E+00 0.  1.
</event>
<event>
12    1  0.8488291E-002  0.2462103E+03  0.7818608E-02  0.1116262E+00
         21   -1    0    0  503  502  0.00000000000E+00  0.00000000000E+00  0.15935346692E+03  0.15935346692E+03  0.00000000000E+00 0.  1.
         21   -1    0    0  501  503 -0.00000000000E+00 -0.00000000000E+00 -0.40076003179E+03  0.40076003179E+03  0.00000000000E+00 0.  1.
          6    2    1    2  501    0  0.62635976111E+02  0.16013866547E+03 -0.19205903294E+03  0.31225981586E+03  0.17621538747E+03 0.  0.
         24    2    3    3    0    0  0.78701172745E+02  0.89119121364E+02 -0.19182667854E+03  0.23929400073E+03  0.79549052806E+02 0.  0.
         -6    2    1    2    0  502 -0.62635976111E+02 -0.16013866547E+03 -0.49347531939E+02  0.24785368286E+03  0.17154769458E+03 0.  0.
        -24    2    5    5    0    0  0.17225613659E+01 -0.15588894518E+03 -0.54539010563E+02  0.18297592920E+03  0.78748692361E+02 0.  0.
          5    1    3    3  501    0 -0.16065196634E+02  0.71019544110E+02 -0.23235439794E+00  0.72965815126E+02  0.47000000000E+01 0. -1.
        -11    1    4    4    0    0  0.13402339818E+02  0.25927090084E+01 -0.88467783029E+02  0.89514766864E+02  0.00000000000E+00 0.  1.
         12    1    4    4    0    0  0.65298832926E+02  0.86526412356E+02 -0.10335889551E+03  0.14977923387E+03  0.00000000000E+00 0. -1.
         -5    1    5    5    0  502 -0.64358537477E+02 -0.42497202963E+01  0.51914786245E+01  0.64877753653E+02  0.47000000000E+01 0.  1.
         11    1    6    6    0    0  0.44235065661E+00 -0.11368021617E+03 -0.74857279578E+02  0.13611392114E+03  0.00000000000E+00 0. -1.
        -12    1    6    6    0    0  0.12802107093E+01 -0.42208729013E+02  0.20318269015E+02  0.46862008067E+02  0.00000000000E+00 0.  1.
</event>
<event>
12    1  0.8488291E-002  0.2050267E+03  0.7818608E-02  0.1146383E+00
         21   -1    0    0  501  502  0.00000000000E+00  0.00000000000E+00  0.13514330863E+03  0.13514330863E+03  0.00000000000E+00 0.  1.
         21   -1    0    0  502  503 -0.00000000000E+00 -0.00000000000E+00 -0.83148740062E+03  0.83148740062E+03  0.00000000000E+00 0.  1.
         -6    2    1    2    0  503 -0.93279124967E+02 -0.53677350509E+02 -0.73397370701E+03  0.76207174568E+03  0.17450985609E+03 0.  0.
        -24    2    3    3    0    0 -0.94299678719E+02  0.25320054555E+02 -0.42640080845E+03  0.44447953944E+03  0.78809117275E+02 0.  0.
          6    2    1    2  501    0  0.93279124967E+02  0.53677350509E+02  0.37629615017E+02  0.20455896357E+03  0.16984148062E+03 0.  0.
         24    2    5    5    0    0  0.12545219808E+03  0.16135225527E+02  0.13904021211E+02  0.14951796446E+03  0.78509237589E+02 0.  0.
          5    1    5    5  501    0 -0.32173073109E+02  0.37542124982E+02  0.23725593806E+02  0.55040999108E+02  0.47000000000E+01 0. -1.
        -13    1    6    6    0    0  0.23130494658E+02  0.17919725220E+02  0.34387100771E+02  0.45150958290E+02  0.00000000000E+00 0.  1.
         14    1    6    6    0    0  0.10232170342E+03 -0.17844996932E+01 -0.20483079560E+02  0.10436700617E+03  0.00000000000E+00 0. -1.
         -5    1    3    3    0  503  0.10205537515E+01 -0.78997405064E+02 -0.30757289856E+03  0.31759220624E+03  0.47000000000E+01 0.  1.
         11    1    4    4    0    0 -0.32446135522E+02 -0.23846268017E+02 -0.85010935089E+02  0.94065165143E+02  0.00000000000E+00 0. -1.
        -12    1    4    4    0    0 -0.61853543197E+02  0.49166322572E+02 -0.34138987336E+03  0.35041437430E+03  0.00000000000E+00 0.  1.
</event>
<event>
12    1  0.8488291E-002  0.2177722E+03  0.7818608E-02  0.1135616E+00
         21   -1    0    0  501  502  0.00000000000E+00  0.00000000000E+00  0.65518549351E+02  0.65518549351E+02  0.00000000000E+00 0. -1.
         21   -1    0    0  502  503 -0.00000000000E+00 -0.00000000000E+00 -0.81793751897E+03  0.81793751897E+03  0.00000000000E+00 0. -1.
         -6    2    1    2    0  503 -0.33310174548E+02  0.12991005658E+03 -0.52713938030E+03  0.57035135406E+03  0.17157666010E+03 0.  0.
        -24    2    3    3    0    0 -0.26967883369E+02  0.16218953000E+03 -0.46731008913E+03  0.50191289160E+03  0.80654330219E+02 0.  0.
          6    2    1    2  501    0  0.33310174548E+02 -0.12991005658E+03 -0.22527958932E+03  0.31310471426E+03  0.17116506126E+03 0.  0.
         24    2    5    5    0    0  0.87041362058E+02 -0.91904691232E+02 -0.12811421135E+03  0.19565409066E+03  0.76449990612E+02 0.  0.
          5    1    5    5  501    0 -0.53731187510E+02 -0.38005365348E+02 -0.97165377974E+02  0.11745062360E+03  0.47000000000E+01 0. -1.
        -13    1    6    6    0    0  0.67778051226E+01 -0.21581572546E+01  0.10098783499E+02  0.12352397062E+02  0.00000000000E+00 0.  1.
         14    1    6    6    0    0  0.80263556935E+02 -0.89746533977E+02 -0.13821299484E+03  0.18330169360E+03  0.00000000000E+00 0. -1.
         -5    1    3    3    0  503 -0.63422911797E+01 -0.32279473420E+02 -0.59829291169E+02  0.68438462457E+02  0.47000000000E+01 0.  1.
         11    1    4    4    0    0 -0.27866842679E+02  0.40753806052E+02 -0.64690098800E+02  0.81377162099E+02  0.00000000000E+00 0. -1.
        -12    1    4    4    0    0  0.89895931048E+00  0.12143572395E+03 -0.40261999033E+03  0.42053572951E+03  0.00000000000E+00 0.  1.
</event>
<event>
12    1  0.8488291E-002  0.1824847E+03  0.7818608E-02  0.1165775E+00
         21   -1    0    0  501  502  0.00000000000E+00  0.00000000000E+00  0.10811575750E+03  0.10811575750E+03  0.00000000000E+00 0. -1.
         21   -1    0    0  502  503 -0.00000000000E+00 -0.00000000000E+00 -0.31413496246E+03  0.31413496246E+03  0.00000000000E+00 0.  1.
         -6    2    1    2    0  503  0.28090467751E+01 -0.58809464906E+02 -0.13841578569E+03  0.22904062870E+03  0.17272589835E+03 0.  0.
        -24    2    3    3    0    0 -0.63880053270E+02 -0.43133126226E+02 -0.11441897205E+03  0.15630053849E+03  0.73464477015E+02 0.  0.
          6    2    1    2  501    0 -0.28090467751E+01  0.58809464906E+02 -0.67603419267E+02  0.19321009125E+03  0.17115336152E+03 0.  0.
         24    2    5    5    0    0  0.33859571475E+01 -0.64741494460E+01 -0.92650553276E+02  0.12285543754E+03  0.80348952668E+02 0.  0.
          5    1    5    5  501    0 -0.61950039226E+01  0.65283614352E+02  0.25047134009E+02  0.70354653709E+02  0.47000000000E+01 0. -1.
        -13    1    6    6    0    0  0.25984653819E+01 -0.56872386718E+01  0.14452233482E+02  0.15746865043E+02  0.00000000000E+00 0.  1.
         14    1    6    6    0    0  0.78749176553E+00 -0.78691077417E+00 -0.10710278676E+03  0.10710857250E+03  0.00000000000E+00 0. -1.
         -5    1    3    3    0  503  0.66689100045E+02 -0.15676338680E+02 -0.23996813636E+02  0.72740090211E+02  0.47000000000E+01 0.  1.
         13    1    4    4    0    0 -0.76938560967E+01 -0.28355446861E+02 -0.16273872274E+01  0.29425757042E+02  0.00000000000E+00 0. -1.
        -14    1    4    4    0    0 -0.56186197173E+02 -0.14777679365E+02 -0.11279158483E+03  0.12687478145E+03  0.00000000000E+00 0.  1.
</event>
<event>
12    1  0.8488291E-002  0.1911346E+03  0.7818608E-02  0.1158088E+00
         21   -1    0    0  503  502  0.00000000000E+00  0.00000000000E+00  0.13084304465E+04  0.13084304465E+04  0.00000000000E+00 0. -1.
         21   -1    0    0  501  503 -0.00000000000E+00 -0.00000000000E+00 -0.31098771122E+02  0.31098771122E+02  0.00000000000E+00 0. -1.
          6    2    1    2  501    0  0.57072039472E+02 -0.55348375851E+02  0.41522344397E+03  0.45710279071E+03  0.17381539763E+03 0.  0.
         24    2    3    3    0    0  0.31906956371E+01  0.28382458061E+02  0.18325875589E+03  0.20462752800E+03  0.86445989743E+02 0.  0.
         -6    2    1    2    0  502 -0.57072039472E+02  0.55348375851E+02  0.86210823140E+03  0.88242642690E+03  0.17066087968E+03 0.  0.
        -24    2    5    5    0    0 -0.96021076027E+02  0.62621060305E+02  0.53801070753E+03  0.55588207407E+03  0.80049451116E+02 0.  0.
          5    1    3    3  501    0  0.53881343835E+02 -0.83730833912E+02  0.23196468808E+03  0.25247526271E+03  0.47000000000E+01 0. -1.
        -11    1    4    4    0    0 -0.20504379219E+02 -0.71333312241E+01  0.14705683000E+03  0.14865068190E+03  0.00000000000E+00 0.  1.
         12    1    4    4    0    0  0.23695074856E+02  0.35515789285E+02  0.36201925891E+02  0.55976846099E+02  0.00000000000E+00 0. -1.
         -5    1    5    5    0  502  0.38949036555E+02 -0.72726844537E+01  0.32409752387E+03  0.32654435283E+03  0.47000000000E+01 0.  1.
         11    1    6    6    0    0 -0.37826725466E+02 -0.92162607264E+01  0.26008677669E+03  0.26298466120E+03  0.00000000000E+00 0. -1.
        -12    1    6    6    0    0 -0.58194350562E+02  0.71837321031E+02  0.27792393084E+03  0.29289741287E+03  0.00000000000E+00 0.  1.
</event>
<event>
12    1  0.8488291E-002  0.1839140E+03  0.7818608E-02  0.1164218E+00
         21   -1    0    0  501  502  0.00000000000E+00  0.00000000000E+00  0.26855342180E+03  0.26855342180E+03  0.00000000000E+00 0. -1.
         21   -1    0    0  502  503 -0.00000000000E+00 -0.00000000000E+00 -0.40742933826E+03  0.40742933826E+03  0.00000000000E+00 0. -1.
         -6    2    1    2    0  503  0.88444175353E+01  0.62561336290E+02 -0.35055042090E+03  0.39557156683E+03  0.17204395475E+03 0.  0.
        -24    2    3    3    0    0  0.40700507036E+02  0.92691110864E+02 -0.30835118753E+03  0.33453486433E+03  0.81147688185E+02 0.  0.
          6    2    1    2  501    0 -0.88444175353E+01 -0.62561336290E+02  0.21167450445E+03  0.28041119323E+03  0.17271999577E+03 0.  0.
         24    2    5    5    0    0 -0.60665891174E+01  0.34373941837E+02  0.86257654936E+02  0.12180589503E+03  0.78599756033E+02 0.  0.
          5    1    5    5  501    0 -0.27778284179E+01 -0.96935278127E+02  0.12541684951E+03  0.15860529820E+03  0.47000000000E+01 0. -1.
        -11    1    6    6    0    0 -0.30153125902E+02  0.31731503412E+02  0.14570948502E+02  0.46134714160E+02  0.00000000000E+00 0.  1.
         12    1    6    6    0    0  0.24086536784E+02  0.26424384252E+01  0.71686706434E+02  0.75671180871E+02  0.00000000000E+00 0. -1.
         -5    1    3    3    0  503 -0.31856089500E+02 -0.30129774574E+02 -0.42199233375E+02  0.61036702496E+02  0.47000000000E+01 0.  1.
         11    1    4    4    0    0  0.66817339133E+01  0.41062219388E+02 -0.23476055260E+03  0.23841826374E+03  0.00000000000E+00 0. -1.
        -12    1    4    4    0    0  0.34018773122E+02  0.51628891476E+02 -0.73590634929E+02  0.96116600590E+02  0.00000000000E+00 0.  1.
</event>
<event>
12    1  0.8488291E-002  0.3898180E+03  0.7818608E-02  0.1047396E+00
         21   -1    0    0  503  502  0.00000000000E+00  0.00000000000E+00  0.15793454666E+03  0.15793454666E+03  0.00000000000E+00 0. -1.
         21   -1    0    0  501  503 -0.00000000000E+00 -0.00000000000E+00 -0.14730352948E+04  0.14730352948E+04  0.00000000000E+00 0.  1.
          6    2    1    2  501    0 -0.34492939493E+03  0.52423862940E+02 -0.11380243911E+04  0.12028178502E+04  0.17305119806E+03 0.  0.
         24    2    3    3    0    0 -0.12947999675E+03  0.28057829545E+02 -0.30356640934E+03  0.34063784576E+03  0.79556682451E+02 0.  0.
         -6    2    1    2    0  502  0.34492939493E+03 -0.52423862940E+02 -0.17707635698E+03  0.42815199120E+03  0.17387795280E+03 0.  0.
        -24    2    5    5    0    0  0.30207645794E+03 -0.12537962263E+02 -0.19276816242E+03  0.36736069215E+03  0.79918250454E+02 0.  0.
          5    1    3    3  501    0 -0.21544939818E+03  0.24366033395E+02 -0.83445798177E+03  0.86218000446E+03  0.47000000000E+01 0. -1.
        -13    1    4    4    0    0 -0.93696025193E+02  0.32536647675E+02 -0.28125379141E+03  0.29823023617E+03  0.00000000000E+00 0.  1.
         14    1    4    4    0    0 -0.35783971558E+02 -0.44788181299E+01 -0.22312617929E+02  0.42407609590E+02  0.00000000000E+00 0. -1.
         -5    1    5    5    0  502  0.42852936994E+02 -0.39885900677E+02  0.15691805437E+02  0.60791299047E+02  0.47000000000E+01 0.  1.
         11    1    6    6    0    0 -0.31156636175E+01  0.63016529265E+00  0.31348788213E+01  0.44645193804E+01  0.00000000000E+00 0. -1.
        -12    1    6    6    0    0  0.30519212156E+03 -0.13168127555E+02 -0.19590304124E+03  0.36289617277E+03  0.00000000000E+00 0.  1.
</event>
<event>
12    1  0.8488291E-002  0.2498678E+03  0.7818608E-02  0.1113461E+00
         21   -1    0    0  503  502  0.00000000000E+00  0.00000000000E+00  0.11960571862E+03  0.11960571862E+03  0.00000000000E+00 0.  1.
         21   -1    0    0  501  503 -0.00000000000E+00 -0.00000000000E+00 -0.11427485440E+04  0.11427485440E+04  0.00000000000E+00 0. -1.
          6    2    1    2  501    0 -0.12053795426E+03 -0.13445866468E+03 -0.97691001831E+03  0.10082452780E+04  0.17203728015E+03 0.  0.
         24    2    3    3    0    0 -0.84093251864E+02 -0.11926809656E+03 -0.45608564355E+03  0.48590526511E+03  0.82421226309E+02 0.  0.
         -6    2    1    2    0  502  0.12053795426E+03  0.13445866468E+03 -0.46232807076E+02  0.25410898465E+03  0.17270023946E+03 0.  0.
        -24    2    5    5    0    0  0.59895057030E+02  0.15276820802E+03 -0.14088687928E+02  0.18291815127E+03  0.79592811857E+02 0.  0.
          5    1    3    3  501    0 -0.36444702394E+02 -0.15190568112E+02 -0.52082437476E+03  0.52234001286E+03  0.47000000000E+01 0.  1.
        -11    1    4    4    0    0 -0.41940191713E+02 -0.53262256452E+02 -0.96771021964E+02  0.11815446811E+03  0.00000000000E+00 0.  1.
         12    1    4    4    0    0 -0.42153060151E+02 -0.66005840111E+02 -0.35931462159E+03  0.36775079700E+03  0.00000000000E+00 0. -1.
         -5    1    5    5    0  502  0.60642897228E+02 -0.18309543344E+02 -0.32144119147E+02  0.71190833381E+02  0.47000000000E+01 0.  1.
         11    1    6    6    0    0 -0.13789140281E+02  0.59300875817E+01 -0.10984367529E+02  0.18600071463E+02  0.00000000000E+00 0. -1.
        -12    1    6    6    0    0  0.73684197311E+02  0.14683812044E+03 -0.31043203999E+01  0.16431807981E+03  0.00000000000E+00 0.  1.
</event>
<event>
12    1  0.8488291E-002  0.1778601E+03  0.7818608E-02  0.1170105E+00
         21   -1    0    0  503  502  0.00000000000E+00  0.00000000000E+00  0.29554992215E+03  0.29554992215E+03  0.00000000000E+00 0. -1.
         21   -1    0    0  501  503 -0.00000000000E+00 -0.00000000000E+00 -0.15076206787E+03  0.15076206787E+03  0.00000000000E+00 0. -1.
          6    2    1    2  501    0  0.40100918816E+02  0.62661596421E+01 -0.48380561631E+02  0.18432277331E+03  0.17316713768E+03 0.  0.
         24    2    3    3    0    0 -0.41150979221E+02  0.48839823851E-01 -0.67153573869E+01  0.92678868739E+02  0.82769989790E+02 0.  0.
         -6    2    1    2    0  502 -0.40100918816E+02 -0.62661596421E+01  0.19316841591E+03  0.26198921671E+03  0.17227003314E+03 0.  0.
        -24    2    5    5    0    0 -0.27120145938E+02 -0.59360383556E+02  0.73055110667E+02  0.12994076661E+03  0.85372104227E+02 0.  0.
          5    1    3    3  501    0  0.81251898038E+02  0.62173198183E+01 -0.41665204244E+02  0.91643904572E+02  0.47000000000E+01 0. -1.
        -11    1    4    4    0    0 -0.32043849366E+02  0.36660070017E+02 -0.20060606049E+02  0.52661152009E+02  0.00000000000E+00 0.  1.
         12    1    4    4    0    0 -0.91071298558E+01 -0.36611230193E+02  0.13345248662E+02  0.40017716731E+02  0.00000000000E+00 0. -1.
         -5    1    5    5    0  502 -0.12980772878E+02  0.53094223914E+02  0.12011330524E+03  0.13204845010E+03  0.47000000000E+01 0.  1.
         11    1    6    6    0    0 -0.23640728969E+02  0.87258248175E+01 -0.56386451046E+01  0.25822827180E+02  0.00000000000E+00 0. -1.
        -12    1    6    6    0    0 -0.34794169692E+01 -0.68086208374E+02  0.78693755771E+02  0.10411793943E+03  0.00000000000E+00 0.  1.
</event>
<event>
12    1  0.8488291E-002  0.1892932E+03  0.7818608E-02  0.1159628E+00
         21   -1    0    0  503  502  0.00000000000E+00  0.00000000000E+00  0.33860143399E+03  0.33860143399E+03  0.00000000000E+00 0. -1.
         21   -1    0    0  501  503 -0.00000000000E+00 -0.00000000000E+00 -0.26802860562E+03  0.26802860562E+03  0.00000000000E+00 0. -1.
          6    2    1    2  501    0  0.64872985283E+02  0.32189420154E+02 -0.20152106936E+03  0.27648267401E+03  0.17489215146E+03 0.  0.
         24    2    3    3    0    0  0.13628877372E+02  0.64148169721E+02 -0.52319867926E+02  0.11545345685E+03  0.79318334211E+02 0.  0.
         -6    2    1    2    0  502 -0.64872985283E+02 -0.32189420154E+02  0.27209389773E+03  0.33014736560E+03  0.17238773402E+03 0.  0.
        -24    2    5    5    0    0 -0.50900607666E+02 -0.88179483496E+02  0.19947245655E+03  0.23727068259E+03  0.78368505926E+02 0.  0.
          5    1    3    3  501    0  0.51244107910E+02 -0.31958749567E+02 -0.14920120144E+03  0.16102921716E+03  0.47000000000E+01 0. -1.
        -13    1    4    4    0    0 -0.15552824075E+02  0.26928219646E+02 -0.59960273819E+02  0.67544457851E+02  0.00000000000E+00 0.  1.
         14    1    4    4    0    0  0.29181701447E+02  0.37219950075E+02  0.76404058928E+01  0.47908999000E+02  0.00000000000E+00 0. -1.
         -5    1    5    5    0  502 -0.13972377616E+02  0.55990063342E+02  0.72621441179E+02  0.92876683017E+02  0.47000000000E+01 0.  1.
         11    1    6    6    0    0 -0.51242760617E+02 -0.12509578390E+02  0.78220682505E+02  0.94343972986E+02  0.00000000000E+00 0. -1.
        -12    1    6    6    0    0  0.34215295072E+00 -0.75669905106E+02  0.12125177405E+03  0.14292670960E+03  0.00000000000E+00 0.  1.
</event>
<event>
12    1  0.8488291E-002  0.1823344E+03  0.7818608E-02  0.1165922E+00
         21   -1    0    0  503  502  0.00000000000E+00  0.00000000000E+00  0.38402358469E+02  0.38402358469E+02  0.00000000000E+00 0.  1.
         21   -1    0    0  501  503 -0.00000000000E+00 -0.00000000000E+00 -0.10268446515E+04  0.10268446515E+04  0.00000000000E+00 0.  1.
          6    2    1    2  501    0 -0.38296652299E+02  0.46147262299E+02 -0.71153212620E+03  0.73452283285E+03  0.17219065587E+03 0.  0.
         24    2    3    3    0    0 -0.24420436909E+02  0.75732839355E+02 -0.28771291047E+03  0.30941970025E+03  0.81424881686E+02 0.  0.
         -6    2    1    2    0  502  0.38296652299E+02 -0.46147262299E+02 -0.27691016680E+03  0.33072417709E+03  0.17059612375E+03 0.  0.
        -24    2    5    5    0    0  0.59295599005E+01  0.32738465891E+01 -0.46735705369E+02  0.93042778217E+02  0.80167665987E+02 0.  0.
          5    1    3    3  501    0 -0.13876215391E+02 -0.29585577056E+02 -0.42381921572E+03  0.42510313259E+03  0.47000000000E+01 0. -1.
        -11    1    4    4    0    0 -0.40103478130E+02  0.75755714902E+01 -0.14271413640E+03  0.14843518104E+03  0.00000000000E+00 0.  1.
         12    1    4    4    0    0  0.15683041222E+02  0.68157267865E+02 -0.14499877407E+03  0.16098451922E+03  0.00000000000E+00 0. -1.
         -5    1    5    5    0  502  0.32367092399E+02 -0.49421108888E+02 -0.23017446143E+03  0.23768139887E+03  0.47000000000E+01 0.  1.
         11    1    6    6    0    0 -0.28147546227E+02 -0.14839565219E+02 -0.44072681185E+02  0.54358976088E+02  0.00000000000E+00 0. -1.
        -12    1    6    6    0    0  0.34077106127E+02  0.18113411808E+02 -0.26630241844E+01  0.38683802129E+02  0.00000000000E+00 0.  1.
</event>
<event>
12    1  0.8488291E-002  0.1886147E+03  0.7818608E-02  0.1159922E+00
         21   -1    0    0  503  502  0.00000000000E+00  0.00000000000E+00  0.87310301621E+02  0.87310301621E+02  0.00000000000E+00 0. -1.
         21   -1    0    0  501  503 -0.00000000000E+00 -0.00000000000E+00 -0.47132361298E+03  0.47132361298E+03  0.00000000000E+00 0. -1.
          6    2    1    2  501    0 -0.19207941382E+02 -0.74418438611E+02 -0.29597728320E+03  0.35048527966E+03  0.17126099984E+03 0.  0.
         24    2    3    3    0    0 -0.50493809831E+02 -0.60113436535E+02 -0.29446682183E+03  0.31573171664E+03  0.82538219318E+02 0.  0.
         -6    2    1    2    0  502  0.19207941382E+02  0.74418438611E+02 -0.88036028157E+02  0.20814863494E+03  0.17224535685E+03 0.  0.
        -24    2    5    5    0    0 -0.17392453251E+02  0.81418830428E+01  0.12623554351E+02  0.82106529851E+02  0.78824745037E+02 0.  0.
          5    1    3    3  501    0  0.31285868449E+02 -0.14305002076E+02 -0.15104613711E+01  0.34753563020E+02  0.47000000000E+01 0. -1.
        -11    1    4    4    0    0 -0.45350629762E+02 -0.59896681493E+01 -0.62339168839E+02  0.77322232999E+02  0.00000000000E+00 0.  1.
         12    1    4    4    0    0 -0.51431800694E+01 -0.54123768385E+02 -0.23212765299E+03  0.23840948364E+03  0.00000000000E+00 0. -1.
         -5    1    5    5    0  502  0.36600394633E+02  0.66276555568E+02 -0.10065958251E+03  0.12604210509E+03  0.47000000000E+01 0.  1.
         13    1    6    6    0    0 -0.44771951270E+01  0.40508149051E+02  0.21594481741E+02  0.46122413829E+02  0.00000000000E+00 0. -1.
        -14    1    6    6    0    0 -0.12915258124E+02 -0.32366266008E+02 -0.89709273895E+01  0.35984116023E+02  0.00000000000E+00 0.  1.
</event>
<event>
12    1  0.8488291E-002  0.1939020E+03  0.7818608E-02  0.1155468E+00
         21   -1    0    0  501  502  0.00000000000E+00  0.00000000000E+00  0.24187522623E+03  0.24187522623E+03  0.00000000000E+00 0.  1.
         21   -1    0    0  502  503 -0.00000000000E+00 -0.00000000000E+00 -0.55876729099E+03  0.55876729099E+03  0.00000000000E+00 0.  1.
         -6    2    1    2    0  503  0.38550622785E+01 -0.88413131007E+02 -0.49904096955E+03  0.53460452385E+03  0.17008340420E+03 0.  0.
        -24    2    3    3    0    0  0.20034752276E+02 -0.26913677159E+01 -0.11785735902E+03  0.14353798474E+03  0.79398748281E+02 0.  0.
          6    2    1    2  501    0 -0.38550622785E+01  0.88413131007E+02  0.18214890479E+03  0.26603799337E+03  0.17252897485E+03 0.  0.
         24    2    5    5    0    0  0.53683050041E+02  0.84167985053E+02  0.15953875875E+03  0.20389328855E+03  0.78445764728E+02 0.  0.
          5    1    5    5  501    0 -0.57538112319E+02  0.42451459537E+01  0.22610146045E+02  0.62144704824E+02  0.47000000000E+01 0. -1.
        -13    1    6    6    0    0  0.22507915717E+01  0.68937505549E+02  0.11533631024E+03  0.13438716528E+03  0.00000000000E+00 0.  1.
         14    1    6    6    0    0  0.51432258469E+02  0.15230479504E+02  0.44202448509E+02  0.69506123265E+02  0.00000000000E+00 0. -1.
         -5    1    3    3    0  503 -0.16179689998E+02 -0.85721763291E+02 -0.38118361054E+03  0.39106653911E+03  0.47000000000E+01 0.  1.
         13    1    4    4    0    0  0.43868218238E+02 -0.20829002283E+02 -0.51774993962E+02  0.70985335861E+02  0.00000000000E+00 0. -1.
        -14    1    4    4    0    0 -0.23833465962E+02  0.18137634567E+02 -0.66082365056E+02  0.72552648875E+02  0.00000000000E+00 0.  1.
</event>
<event>
12    1  0.8488291E-002  0.1988775E+03  0.7818608E-02  0.1151515E+00
         21   -1    0    0  501  502  0.00000000000E+00  0.00000000000E+00  0.78262542875E+02  0.78262542875E+02  0.00000000000E+00 0. -1.
         21   -1    0    0  502  503 -0.00000000000E+00 -0.00000000000E+00 -0.11712909913E+04  0.11712909913E+04  0.00000000000E+00 0. -1.
         -6    2    1    2    0  503 -0.64242501172E+02  0.59006287609E+02 -0.10232773566E+04  0.10424244947E+04  0.17872727198E+03 0.  0.
        -24    2    3    3    0    0  0.29772249423E+02  0.45114198006E+02 -0.35425594501E+03  0.36667046948E+03  0.77642004824E+02 0.  0.
          6    2    1    2  501    0  0.64242501172E+02 -0.59006287609E+02 -0.69751091783E+02  0.20712903940E+03  0.17443733323E+03 0.  0.
         24    2    5    5    0    0 -0.11989490564E+01  0.96206517306E+01  0.12887661234E+02  0.81258098708E+02  0.79641649750E+02 0.  0.
          5    1    5    5  501    0  0.65441450229E+02 -0.68626939339E+02 -0.82638753017E+02  0.12587094069E+03  0.47000000000E+01 0. -1.
        -11    1    6    6    0    0 -0.52107485651E+01  0.23376053011E+02 -0.28636397062E+02  0.37331420971E+02  0.00000000000E+00 0.  1.
         12    1    6    6    0    0  0.40117995087E+01 -0.13755401281E+02  0.41524058295E+02  0.43926677737E+02  0.00000000000E+00 0. -1.
         -5    1    3    3    0  503 -0.94014750596E+02  0.13892089603E+02 -0.66902141159E+03  0.67575402526E+03  0.47000000000E+01 0.  1.
         11    1    4    4    0    0  0.33897238157E+02  0.26359279452E+02 -0.34013389010E+03  0.34283362957E+03  0.00000000000E+00 0. -1.
        -12    1    4    4    0    0 -0.41249887334E+01  0.18754918554E+02 -0.14122054916E+02  0.23836839914E+02  0.00000000000E+00 0.  1.
</event>
<event>
12    1  0.8488291E-002  0.1828086E+03  0.7818608E-02  0.1165268E+00
         21   -1    0    0  501  502  0.00000000000E+00  0.00000000000E+00  0.42377293444E+03  0.42377293444E+03  0.00000000000E+00 0. -1.
         21   -1    0    0  502  503 -0.00000000000E+00 -0.00000000000E+00 -0.19724387252E+03  0.19724387252E+03  0.00000000000E+00 0. -1.
         -6    2    1    2    0  503  0.54952541360E+02  0.23288610026E+02 -0.12766029255E+03  0.22243297699E+03  0.17209630385E+03 0.  0.
        -24    2    3    3    0    0  0.13115592533E+02  0.34390886976E+00  0.60314259350E+01  0.80403560356E+02  0.79096253883E+02 0.  0.
          6    2    1    2  501    0 -0.54952541360E+02 -0.23288610026E+02  0.35418935447E+03  0.39858382997E+03  0.17279128896E+03 0.  0.
         24    2    5    5    0    0 -0.47815772278E+01 -0.73551520243E+02  0.24569896874E+03  0.26883122083E+03  0.80433528083E+02 0.  0.
          5    1    5    5  501    0 -0.50170964132E+02  0.50262910216E+02  0.10849038572E+03  0.12975260914E+03  0.47000000000E+01 0. -1.
        -11    1    6    6    0    0  0.19235114803E+00  0.17521281243E+02  0.32035203464E+02  0.36514196641E+02  0.00000000000E+00 0.  1.
         12    1    6    6    0    0 -0.49739283758E+01 -0.91072801486E+02  0.21366376528E+03  0.23231702419E+03  0.00000000000E+00 0. -1.
         -5    1    3    3    0  503  0.41836948827E+02  0.22944701157E+02 -0.13369171848E+03  0.14202941663E+03  0.47000000000E+01 0.  1.
         11    1    4    4    0    0 -0.25178047166E+02  0.13959360071E+02 -0.17254117261E+02  0.33563407979E+02  0.00000000000E+00 0. -1.
        -12    1    4    4    0    0  0.38293639699E+02 -0.13615451201E+02  0.23285543196E+02  0.46840152378E+02  0.00000000000E+00 0.  1.
</event>
<event>
12    1  0.8488291E-002  0.2418693E+03  0.7818608E-02  0.1118589E+00
         21   -1    0    0  501  502  0.00000000000E+00  0.00000000000E+00  0.16855485989E+03  0.16855485989E+03  0.00000000000E+00 0. -1.
         21   -1    0    0  502  503 -0.00000000000E+00 -0.00000000000E+00 -0.41636638604E+03  0.41636638604E+03  0.00000000000E+00 0.  1.
         -6    2    1    2    0  503 -0.16896785229E+03  0.20678559629E+02 -0.24343444440E+03  0.34301238839E+03  0.17152093731E+03 0.  0.
        -24    2    3    3    0    0 -0.72822287263E+02  0.45432580059E+02 -0.53622649158E+02  0.12875240890E+03  0.79590134066E+02 0.  0.
          6    2    1    2  501    0  0.16896785229E+03 -0.20678559629E+02 -0.43770817505E+01  0.24190885754E+03  0.17182257877E+03 0.  0.
         24    2    5    5    0    0  0.38626251748E+02 -0.46347447943E+02 -0.97939596819E+01  0.10887030213E+03  0.90092995201E+02 0.  0.
          5    1    5    5  501    0  0.13034160054E+03  0.25668888315E+02  0.54168779314E+01  0.13303855541E+03  0.47000000000E+01 0. -1.
        -13    1    6    6    0    0  0.20380826091E+02 -0.58876782816E+02  0.25409842553E+02  0.67286802016E+02  0.00000000000E+00 0.  1.
         14    1    6    6    0    0  0.18245425657E+02  0.12529334873E+02 -0.35203802235E+02  0.41583500112E+02  0.00000000000E+00 0. -1.
         -5    1    3    3    0  503 -0.96145565026E+02 -0.24754020430E+02 -0.18981179524E+03  0.21425997950E+03  0.47000000000E+01 0.  1.
         13    1    4    4    0    0 -0.50190728465E+02  0.10594369992E+01  0.65614180980E+01  0.50628883437E+02  0.00000000000E+00 0. -1.
        -14    1    4    4    0    0 -0.22631558799E+02  0.44373143060E+02 -0.60184067257E+02  0.78123525459E+02  0.00000000000E+00 0.  1.
</event>
<event>
12    1  0.8488291E-002  0.2680136E+03  0.7818608E-02  0.1102449E+00
         21   -1    0    0  503  502  0.00000000000E+00  0.00000000000E+00  0.10992453299E+03  0.10992453299E+03  0.00000000000E+00 0. -1.
         21   -1    0    0  501  503 -0.00000000000E+00 -0.00000000000E+00 -0.80095929396E+03  0.80095929396E+03  0.00000000000E+00 0.  1.
          6    2    1    2  501    0  0.20107721364E+03 -0.43044145039E+02 -0.54136939035E+03  0.60407956890E+03  0.17189085052E+03 0.  0.
         24    2    3    3    0    0  0.10471158432E+03 -0.41107924576E+02 -0.45334605889E+03  0.47346456078E+03  0.77405838638E+02 0.  0.
         -6    2    1    2    0  502 -0.20107721364E+03  0.43044145039E+02 -0.14966537062E+03  0.30680425805E+03  0.17159337202E+03 0.  0.
        -24    2    5    5    0    0 -0.34012881662E+02  0.18551265399E+02 -0.10543000678E+02  0.87972094063E+02  0.78274573801E+02 0.  0.
          5    1    3    3  501    0  0.96365629326E+02 -0.19362204625E+01 -0.88023331462E+02  0.13061500812E+03  0.47000000000E+01 0. -1.
        -11    1    4    4    0    0  0.60739218490E+02  0.17325590705E+02 -0.22467078856E+03  0.23338035904E+03  0.00000000000E+00 0.  1.
         12    1    4    4    0    0  0.43972365829E+02 -0.58433515281E+02 -0.22867527033E+03  0.24008420174E+03  0.00000000000E+00 0. -1.
         -5    1    5    5    0  502 -0.16706433198E+03  0.24492879640E+02 -0.13912236994E+03  0.21883216398E+03  0.47000000000E+01 0.  1.
         13    1    6    6    0    0 -0.53802787731E+02  0.27372366567E+02 -0.20999883773E+02  0.63913860293E+02  0.00000000000E+00 0. -1.
        -14    1    6    6    0    0  0.19789906070E+02 -0.88211011678E+01  0.10456883095E+02  0.24058233770E+02  0.00000000000E+00 0.  1.
</event>
<event>
12    1  0.8488291E-002  0.2299315E+03  0.7818608E-02  0.1126868E+00
         21   -1    0    0  501  502  0.00000000000E+00  0.00000000000E+00  0.31441391733E+03  0.31441391733E+03  0.00000000000E+00 0. -1.
         21   -1    0    0  502  503 -0.00000000000E+00 -0.00000000000E+00 -0.22774444087E+03  0.22774444087E+03  0.00000000000E+00 0.  1.
         -6    2    1    2    0  503 -0.85630576961E+02  0.12429712557E+03 -0.96127429265E+02  0.24921672712E+03  0.17345351909E+03 0.  0.
        -24    2    3    3    0    0  0.15952836609E+02  0.75141173103E+02 -0.76504663230E+02  0.13457537105E+03  0.79730032643E+02 0.  0.
          6    2    1    2  501    0  0.85630576961E+02 -0.12429712557E+03  0.18279690573E+03  0.29294163107E+03  0.17209799341E+03 0.  0.
         24    2    5    5    0    0  0.27547745782E+02 -0.23017435920E+02  0.16092613337E+02  0.89364613913E+02  0.80239524935E+02 0.  0.
          5    1    5    5  501    0  0.58082831179E+02 -0.10127968965E+03  0.16670429239E+03  0.20357701716E+03  0.47000000000E+01 0. -1.
        -11    1    6    6    0    0  0.47930721225E+02  0.10088679738E+02  0.10390286318E+02  0.50070885211E+02  0.00000000000E+00 0.  1.
         12    1    6    6    0    0 -0.20382975443E+02 -0.33106115659E+02  0.57023270189E+01  0.39293728703E+02  0.00000000000E+00 0. -1.
         -5    1    3    3    0  503 -0.10158341357E+03  0.49155952471E+02 -0.19622766035E+02  0.11464135607E+03  0.47000000000E+01 0.  1.
         13    1    4    4    0    0  0.32155331415E+02  0.37629922677E+02 -0.79451510740E+02  0.93608327503E+02  0.00000000000E+00 0. -1.
        -14    1    4    4    0    0 -0.16202494806E+02  0.37511250426E+02  0.29468475095E+01  0.40967043544E+02  0.00000000000E+00 0.  1.
</event>
<event>
12    1  0.8488291E-002  0.1932780E+03  0.7818608E-02  0.1155636E+00
         21   -1    0    0  501  502  0.00000000000E+00  0.00000000000E+00  0.19296032043E+03  0.19296032043E+03  0.00000000000E+00 0.  1.
         21   -1    0    0  502  503 -0.00000000000E+00 -0.00000000000E+00 -0.19534802446E+03  0.19534802446E+03  0.00000000000E+00 0.  1.
         -6    2    1    2    0  503  0.15358761732E+02  0.87004033671E+02  0.19402037207E+02  0.19424941640E+03  0.17190347084E+03 0.  0.
        -24    2    3    3    0    0  0.26073224131E+02  0.12248199926E+03 -0.74839337906E+01  0.14822299808E+03  0.78945517515E+02 0.  0.
          6    2    1    2  501    0 -0.15358761732E+02 -0.87004033671E+02 -0.21789741237E+02  0.19405892850E+03  0.17140152120E+03 0.  0.
         24    2    5    5    0    0 -0.43046571266E+02  0.12218646743E+02 -0.10230793772E+02  0.90292583416E+02  0.77754606634E+02 0.  0.
          5    1    5    5  501    0  0.27687809534E+02 -0.99222680413E+02 -0.11558947465E+02  0.10376634508E+03  0.47000000000E+01 0. -1.
        -11    1    6    6    0    0 -0.33031062467E+02 -0.17019753007E+02  0.23952454238E+02  0.44209084407E+02  0.00000000000E+00 0.  1.
         12    1    6    6    0    0 -0.10015508799E+02  0.29238399750E+02 -0.34183248009E+02  0.46083499009E+02  0.00000000000E+00 0. -1.
         -5    1    3    3    0  503 -0.10714462399E+02 -0.35477965589E+02  0.26885970998E+02  0.46026418319E+02  0.47000000000E+01 0.  1.
         11    1    4    4    0    0 -0.18675034557E+02  0.54745472455E+02  0.21951814220E+02  0.61868455756E+02  0.00000000000E+00 0. -1.
        -12    1    4    4    0    0  0.44748258688E+02  0.67736526804E+02 -0.29435748011E+02  0.86354542324E+02  0.00000000000E+00 0.  1.
</event>
<event>
12    1  0.8488291E-002  0.1912675E+03  0.7818608E-02  0.1157521E+00
         21   -1    0    0  503  502  0.00000000000E+00  0.00000000000E+00  0.35084705934E+02  0.35084705934E+02  0.00000000000E+00 0.  1.
         21   -1    0    0  501  503 -0.00000000000E+00 -0.00000000000E+00 -0.13337989192E+04  0.13337989192E+04  0.00000000000E+00 0.  1.
          6    2    1    2  501    0 -0.78768708668E+02  0.20919435092E+02 -0.97056410710E+03  0.98906032516E+03  0.17205670165E+03 0.  0.
         24    2    3    3    0    0 -0.12132128322E+03  0.62809251373E+01 -0.71606237637E+03  0.73056810377E+03  0.78905789451E+02 0.  0.
         -6    2    1    2    0  502  0.78768708668E+02 -0.20919435092E+02 -0.32815010615E+03  0.37982329996E+03  0.17303501032E+03 0.  0.
        -24    2    5    5    0    0  0.45026904351E+02 -0.51708056915E+02 -0.31305557383E+03  0.33148714891E+03  0.84727754131E+02 0.  0.
          5    1    3    3  501    0  0.42552574550E+02  0.14638509955E+02 -0.25450173074E+03  0.25849222140E+03  0.47000000000E+01 0. -1.
        -13    1    4    4    0    0 -0.84038844052E+02  0.31608658411E+02 -0.58777879322E+03  0.59459695959E+03  0.00000000000E+00 0.  1.
         14    1    4    4    0    0 -0.37282439166E+02 -0.25327733274E+02 -0.12828358315E+03  0.13597114417E+03  0.00000000000E+00 0. -1.
         -5    1    5    5    0  502  0.33741804317E+02  0.30788621823E+02 -0.15094532316E+02  0.48336151049E+02  0.47000000000E+01 0.  1.
         11    1    6    6    0    0  0.56461452914E+01 -0.50551975052E+02 -0.77782104366E+02  0.92937811993E+02  0.00000000000E+00 0. -1.
        -12    1    6    6    0    0  0.39380759060E+02 -0.11560818624E+01 -0.23527346947E+03  0.23854933692E+03  0.00000000000E+00 0.  1.
</event>
<event>
12    1  0.8488291E-002  0.2115546E+03  0.7818608E-02  0.1140393E+00
         21   -1    0    0  501  502  0.00000000000E+00  0.00000000000E+00  0.65631597142E+03  0.65631597142E+03  0.00000000000E+00 0. -1.
         21   -1    0    0  502  503 -0.00000000000E+00 -0.00000000000E+00 -0.21249780835E+03  0.21249780835E+03  0.00000000000E+00 0. -1.
         -6    2    1    2    0  503 -0.10434631560E+03  0.66300332988E+02 -0.13613495280E+03  0.25157120491E+03  0.17167253139E+03 0.  0.
        -24    2    3    3    0    0 -0.26711467857E+01 -0.11860847386E+02 -0.42260389611E+02  0.92569526665E+02  0.81457731438E+02 0.  0.
          6    2    1    2  501    0  0.10434631560E+03 -0.66300332988E+02  0.57995311587E+03  0.61724257486E+03  0.17134436635E+03 0.  0.
         24    2    5    5    0    0  0.91602574769E+02 -0.13328359209E+02  0.52738270713E+03  0.54138632389E+03  0.79987218041E+02 0.  0.
          5    1    5    5  501    0  0.12743740834E+02 -0.52971973778E+02  0.52570408733E+02  0.75856250967E+02  0.47000000000E+01 0. -1.
        -11    1    6    6    0    0 -0.11767812274E+02 -0.41643778580E+00  0.18348441764E+02  0.21801838026E+02  0.00000000000E+00 0.  1.
         12    1    6    6    0    0  0.10337038704E+03 -0.12911921424E+02  0.50903426537E+03  0.51958448587E+03  0.00000000000E+00 0. -1.
         -5    1    3    3    0  503 -0.10167516882E+03  0.78161180374E+02 -0.93874563187E+02  0.15900167825E+03  0.47000000000E+01 0.  1.
         13    1    4    4    0    0 -0.24783136902E+02  0.14494540959E+02 -0.49676651804E+02  0.57376522436E+02  0.00000000000E+00 0. -1.
        -14    1    4    4    0    0  0.22111990117E+02 -0.26355388345E+02  0.74162621938E+01  0.35193004229E+02  0.00000000000E+00 0.  1.
</event>
<event>
12    1  0.8488291E-002  0.1826606E+03  0.7818608E-02  0.1165544E+00
         21   -1    0    0  503  502  0.00000000000E+00  0.00000000000E+00  0.13394335259E+04  0.13394335259E+04  0.00000000000E+00 0.  1.
         21   -1    0    0  501  503 -0.00000000000E+00 -0.00000000000E+00 -0.32377947310E+02  0.32377947310E+02  0.00000000000E+00 0.  1.
          6    2    1    2  501    0 -0.29118420495E+02 -0.51743049367E+02  0.31878233246E+03  0.36679958410E+03  0.17144834160E+03 0.  0.
         24    2    3    3    0    0 -0.72557677198E+02 -0.70019847953E+02  0.26873840455E+03  0.29789751512E+03  0.79719532149E+02 0.  0.
         -6    2    1    2    0  502  0.29118420495E+02  0.51743049367E+02  0.98827324618E+03  0.10050118892E+04  0.17274160664E+03 0.  0.
        -24    2    5    5    0    0 -0.22669102175E+01  0.86743436437E+02  0.86584191785E+03  0.87378084772E+03  0.79253898951E+02 0.  0.
          5    1    3    3  501    0  0.43439256703E+02  0.18276798586E+02  0.50043927910E+02  0.68902068983E+02  0.47000000000E+01 0. -1.
        -11    1    4    4    0    0 -0.20948102724E+02  0.15651804699E+02  0.81903130802E+02  0.85976303906E+02  0.00000000000E+00 0.  1.
         12    1    4    4    0    0 -0.51609574474E+02 -0.85671652652E+02  0.18683527374E+03  0.21192121121E+03  0.00000000000E+00 0. -1.
         -5    1    5    5    0  502  0.31385330713E+02 -0.35000387070E+02  0.12243132834E+03  0.13123104144E+03  0.47000000000E+01 0.  1.
         11    1    6    6    0    0 -0.20573155151E+02  0.71745139101E+02  0.37426106856E+03  0.38163066850E+03  0.00000000000E+00 0. -1.
        -12    1    6    6    0    0  0.18306244934E+02  0.14998297337E+02  0.49158084928E+03  0.49215017922E+03  0.00000000000E+00 0.  1.
</event>
<event>
12    1  0.8488291E-002  0.1949357E+03  0.7818608E-02  0.1156000E+00
         21   -1    0    0  503  502  0.00000000000E+00  0.00000000000E+00  0.20325616429E+04  0.20325616429E+04  0.00000000000E+00 0.  1.
         21   -1    0    0  501  503 -0.00000000000E+00 -0.00000000000E+00 -0.18117477314E+02  0.18117477314E+02  0.00000000000E+00 0.  1.
          6    2    1    2  501    0 -0.31939808388E+02 -0.65455265205E+02  0.11017096856E+04  0.11173602307E+04  0.17153749082E+03 0.  0.
         24    2    3    3    0    0 -0.49482110205E+02 -0.86495298985E+02  0.10568555151E+04  0.10645927977E+04  0.80525332653E+02 0.  0.
         -6    2    1    2    0  502  0.31939808388E+02  0.65455265205E+02  0.91273447996E+03  0.93331888946E+03  0.18081862575E+03 0.  0.
        -24    2    5    5    0    0  0.11925043945E+02  0.62533781125E+02  0.25431468449E+03  0.27457171267E+03  0.81614865047E+02 0.  0.
          5    1    3    3  501    0  0.17542301817E+02  0.21040033780E+02  0.44854170545E+02  0.52767433042E+02  0.47000000000E+01 0. -1.
        -11    1    4    4    0    0  0.68137504079E+01 -0.68480037519E+02  0.53938893827E+03  0.54376131663E+03  0.00000000000E+00 0.  1.
         12    1    4    4    0    0 -0.56295860613E+02 -0.18015261467E+02  0.51746657678E+03  0.52083148105E+03  0.00000000000E+00 0. -1.
         -5    1    5    5    0  502  0.20014764444E+02  0.29214840798E+01  0.65841979547E+03  0.65874717679E+03  0.47000000000E+01 0.  1.
         11    1    6    6    0    0 -0.54761546898E+01 -0.13162165640E+02  0.80993267047E+01  0.16396035118E+02  0.00000000000E+00 0. -1.
        -12    1    6    6    0    0  0.17401198634E+02  0.75695946765E+02  0.24621535778E+03  0.25817567755E+03  0.00000000000E+00 0.  1.
</event>
<event>
12    1  0.8488291E-002  0.2045299E+03  0.7818608E-02  0.1146088E+00
         21   -1    0    0  501  502  0.00000000000E+00  0.00000000000E+00  0.15048907925E+03  0.15048907925E+03  0.00000000000E+00 0.  1.
         21   -1    0    0  502  503 -0.00000000000E+00 -0.00000000000E+00 -0.35609566185E+03  0.35609566185E+03  0.00000000000E+00 0.  1.
         -6    2    1    2    0  503  0.49836754066E+02 -0.97919761020E+02 -0.22191010011E+03  0.30140609230E+03  0.17184166633E+03 0.  0.
        -24    2    3    3    0    0 -0.91315869833E+01 -0.93723847607E+02 -0.79865974459E+02  0.14747917922E+03  0.80647312024E+02 0.  0.
          6    2    1    2  501    0 -0.49836754066E+02  0.97919761020E+02  0.16303517516E+02  0.20517864880E+03  0.17251229401E+03 0.  0.
         24    2    5    5    0    0  0.12720945920E+02  0.98055879930E+02 -0.26453794684E+02  0.12925920397E+03  0.78938966963E+02 0.  0.
          5    1    5    5  501    0 -0.62557699985E+02 -0.13611890973E+00  0.42757312200E+02  0.75919444824E+02  0.47000000000E+01 0. -1.
        -11    1    6    6    0    0 -0.27633918165E+02  0.47350798988E+02 -0.33219037442E+02  0.64103323210E+02  0.00000000000E+00 0.  1.
         12    1    6    6    0    0  0.40354864085E+02  0.50705080942E+02  0.67652427583E+01  0.65155880765E+02  0.00000000000E+00 0. -1.
         -5    1    3    3    0  503  0.58968341049E+02 -0.41959134127E+01 -0.14204412565E+03  0.15392691307E+03  0.47000000000E+01 0.  1.
         13    1    4    4    0    0 -0.51536523799E+00  0.10532743254E+02 -0.29590201571E+02  0.31413123226E+02  0.00000000000E+00 0. -1.
        -14    1    4    4    0    0 -0.86162217453E+01 -0.10425659086E+03 -0.50275772888E+02  0.11606605600E+03  0.00000000000E+00 0.  1.
</event>
<event>
12    1  0.8488291E-002  0.1872625E+03  0.7818608E-02  0.1161684E+00
         21   -1    0    0  503  502  0.00000000000E+00  0.00000000000E+00  0.68242056341E+02  0.68242056341E+02  0.00000000000E+00 0.  1.
         21   -1    0    0  501  503 -0.00000000000E+00 -0.00000000000E+00 -0.51458813847E+03  0.51458813847E+03  0.00000000000E+00 0.  1.
          6    2    1    2  501    0  0.68477027075E+02 -0.33954706276E+00 -0.18208266724E+03  0.25894380272E+03  0.17090516882E+03 0.  0.
         24    2    3    3    0    0  0.47425650903E+01 -0.29853842553E+01 -0.17755395073E+03  0.19482140903E+03  0.79991071726E+02 0.  0.
         -6    2    1    2    0  502 -0.68477027075E+02  0.33954706276E+00 -0.26426341490E+03  0.32388639210E+03  0.17429292586E+03 0.  0.
        -24    2    5    5    0    0 -0.29714535345E+02  0.42006771947E+02 -0.24626380428E+03  0.26401349024E+03  0.80060847036E+02 0.  0.
          5    1    3    3  501    0  0.63734461985E+02  0.26458371925E+01 -0.45287165102E+01  0.64122393687E+02  0.47000000000E+01 0. -1.
        -13    1    4    4    0    0  0.25620016695E+02 -0.21570162079E+02 -0.15591938139E+03  0.15947573684E+03  0.00000000000E+00 0.  1.
         14    1    4    4    0    0 -0.20877451605E+02  0.18584777824E+02 -0.21634569333E+02  0.35345672189E+02  0.00000000000E+00 0. -1.
         -5    1    5    5    0  502 -0.38762491731E+02 -0.41667224884E+02 -0.17999610614E+02  0.59872901858E+02  0.47000000000E+01 0.  1.
         13    1    6    6    0    0 -0.22274855681E+02  0.59563455558E+02 -0.11534597063E+03  0.13171434005E+03  0.00000000000E+00 0. -1.
        -14    1    6    6    0    0 -0.74396796637E+01 -0.17556683611E+02 -0.13091783365E+03  0.13229915019E+03  0.00000000000E+00 0.  1.
</event>
<event>
12    1  0.8488291E-002  0.2234516E+03  0.7818608E-02  0.1131430E+00
         21   -1    0    0  501  502  0.00000000000E+00  0.00000000000E+00  0.67503924174E+03  0.67503924174E+03  0.00000000000E+00 0.  1.
         21   -1    0    0  502  503 -0.00000000000E+00 -0.00000000000E+00 -0.12590180020E+03  0.12590180020E+03  0.00000000000E+00 0. -1.
         -6    2    1    2    0  503  0.10598223861E+03 -0.94482941548E+02  0.17125980614E+02  0.22410688599E+03  0.17254372197E+03 0.  0.
        -24    2    3    3    0    0  0.11849171833E+03 -0.10669589318E+03  0.51517130967E+02  0.18524193400E+03  0.78969984136E+02 0.  0.
          6    2    1    2  501    0 -0.10598223861E+03  0.94482941548E+02  0.53201146093E+03  0.57683415595E+03  0.17187840984E+03 0.  0.
         24    2    5    5    0    0 -0.22703368188E+02  0.10587503401E+03  0.37463339309E+03  0.39835419555E+03  0.81307565070E+02 0.  0.
          5    1    5    5  501    0 -0.83278870427E+02 -0.11392092459E+02  0.15737806784E+03  0.17847996040E+03  0.47000000000E+01 0. -1.
        -13    1    6    6    0    0  0.77664357432E+00  0.55901635014E+01  0.16190482002E+03  0.16200316000E+03  0.00000000000E+00 0.  1.
         14    1    6    6    0    0 -0.23480011762E+02  0.10028487051E+03  0.21272857307E+03  0.23635103555E+03  0.00000000000E+00 0. -1.
         -5    1    3    3    0  503 -0.12509479718E+02  0.12212951636E+02 -0.34391150353E+02  0.38864951989E+02  0.47000000000E+01 0.  1.
         13    1    4    4    0    0  0.37806049773E+02 -0.79035691859E+02  0.47942227323E+02  0.99871893682E+02  0.00000000000E+00 0. -1.
        -14    1    4    4    0    0  0.80685668560E+02 -0.27660201324E+02  0.35749036447E+01  0.85370040320E+02  0.00000000000E+00 0.  1.
</event>
<event>
12    1  0.8488291E-002  0.2315042E+03  0.7818608E-02  0.1125713E+00
         21   -1    0    0  503  502  0.00000000000E+00  0.00000000000E+00  0.14752715111E+03  0.14752715111E+03  0.00000000000E+00 0.  1.
         21   -1    0    0  501  503 -0.00000000000E+00 -0.00000000000E+00 -0.45366632358E+03  0.45366632358E+03  0.00000000000E+00 0. -1.
          6    2    1    2  501    0  0.15406549121E+03  0.15369076270E+02 -0.28828300863E+03  0.36973134518E+03  0.17210982093E+03 0.  0.
         24    2    3    3    0    0  0.13995756844E+03  0.49658301894E+02 -0.28557199546E+03  0.33225836730E+03  0.82402610057E+02 0.  0.
         -6    2    1    2    0  502 -0.15406549121E+03 -0.15369076270E+02 -0.17856163839E+02  0.23146212951E+03  0.17112419678E+03 0.  0.
        -24    2    5    5    0    0 -0.16535663314E+03 -0.44078695726E+02  0.10821734703E+02  0.18908001063E+03  0.79676803019E+02 0.  0.
          5    1    3    3  501    0  0.14107922769E+02 -0.34289225624E+02 -0.27110131711E+01  0.37472977879E+02  0.47000000000E+01 0. -1.
        -11    1    4    4    0    0  0.14290228643E+02  0.40801956112E+02 -0.61040392735E+02  0.74799330228E+02  0.00000000000E+00 0.  1.
         12    1    4    4    0    0  0.12566733979E+03  0.88563457824E+01 -0.22453160272E+03  0.25745903708E+03  0.00000000000E+00 0. -1.
         -5    1    5    5    0  502  0.11291141933E+02  0.28709619456E+02 -0.28677898542E+02  0.42382118874E+02  0.47000000000E+01 0.  1.
         11    1    6    6    0    0 -0.91641250101E+01 -0.19499728972E+02 -0.18345108087E+02  0.28297766836E+02  0.00000000000E+00 0. -1.
        -12    1    6    6    0    0 -0.15619250813E+03 -0.24578966754E+02  0.29166842790E+02  0.16078224380E+03  0.00000000000E+00 0.  1.
</event>
<event>
12    1  0.8488291E-002  0.1928593E+03  0.7818608E-02  0.1155959E+00
         21   -1    0    0  503  502  0.00000000000E+00  0.00000000000E+00  0.20895545941E+03  0.20895545941E+03  0.00000000000E+00 0.  1.
         21   -1    0    0  501  503 -0.00000000000E+00 -0.00000000000E+00 -0.31929956277E+03  0.31929956277E+03  0.00000000000E+00 0.  1.
          6    2    1    2  501    0  0.84100971981E+02  0.20889080355E+02 -0.23099062211E+03  0.30076808180E+03  0.17203326527E+03 0.  0.
         24    2    3    3    0    0  0.66349569054E+02  0.24821437825E+02 -0.42996802497E+02  0.11183861889E+03  0.75105143374E+02 0.  0.
         -6    2    1    2    0  502 -0.84100971981E+02 -0.20889080355E+02  0.12064651875E+03  0.22748694038E+03  0.17229451062E+03 0.  0.
        -24    2    5    5    0    0 -0.85148545244E+02 -0.70323751946E+02  0.11283655162E+03  0.17720802082E+03  0.80466703786E+02 0.  0.
          5    1    3    3  501    0  0.17751402927E+02 -0.39323574699E+01 -0.18799381962E+03  0.18892946291E+03  0.47000000000E+01 0. -1.
        -13    1    4    4    0    0 -0.65994079713E+01 -0.11489670204E+02 -0.25140713234E+02  0.28418658815E+02  0.00000000000E+00 0.  1.
         14    1    4    4    0    0  0.72948977025E+02  0.36311108029E+02 -0.17856089263E+02  0.83419960076E+02  0.00000000000E+00 0. -1.
         -5    1    5    5    0  502  0.10475732627E+01  0.49434671591E+02  0.78099671359E+01  0.50278919556E+02  0.47000000000E+01 0.  1.
         11    1    6    6    0    0 -0.74912162120E+02 -0.24252547930E+02  0.34971649840E+02  0.86157033416E+02  0.00000000000E+00 0. -1.
        -12    1    6    6    0    0 -0.10236383124E+02 -0.46071204016E+02  0.77864901777E+02  0.91050987407E+02  0.00000000000E+00 0.  1.
</event>
<event>
12    1  0.8488291E-002  0.2513617E+03  0.7818608E-02  0.1112528E+00
         21   -1    0    0  501  502  0.00000000000E+00  0.00000000000E+00  0.18320380750E+03  0.18320380750E+03  0.00000000000E+00 0.  1.
         21   -1    0    0  502  503 -0.00000000000E+00 -0.00000000000E+00 -0.34767079976E+03  0.34767079976E+03  0.00000000000E+00 0.  1.
         -6    2    1    2    0  503 -0.69519425209E+02 -0.16884903275E+03 -0.55677030232E+02  0.25745413682E+03  0.17274187253E+03 0.  0.
        -24    2    3    3    0    0 -0.35552301107E+02 -0.24794858260E+02  0.13571806341E+02  0.93982848586E+02  0.82278981464E+02 0.  0.
          6    2    1    2  501    0  0.69519425209E+02  0.16884903275E+03 -0.10878996203E+03  0.27342047045E+03  0.17198997493E+03 0.  0.
         24    2    5    5    0    0 -0.15842384042E+02  0.13144231881E+03 -0.53905890046E+02  0.16516035737E+03  0.82728679168E+02 0.  0.
          5    1    5    5  501    0  0.85361809251E+02  0.37406713942E+02 -0.54884071987E+02  0.10826011308E+03  0.47000000000E+01 0. -1.
        -13    1    6    6    0    0 -0.23135444698E+02  0.17887791181E+02 -0.41399446928E+02  0.50686645979E+02  0.00000000000E+00 0.  1.
         14    1    6    6    0    0  0.72930606559E+01  0.11355452763E+03 -0.12506443118E+02  0.11447371139E+03  0.00000000000E+00 0. -1.
         -5    1    3    3    0  503 -0.33967124102E+02 -0.14405417449E+03 -0.69248836573E+02  0.16347128823E+03  0.47000000000E+01 0.  1.
         13    1    4    4    0    0  0.29577444778E+01  0.25266142352E+02  0.17218500217E+02  0.30718120897E+02  0.00000000000E+00 0. -1.
        -14    1    4    4    0    0 -0.38510045585E+02 -0.50061000612E+02 -0.36466938757E+01  0.63264727688E+02  0.00000000000E+00 0.  1.
</event>
<event>
12    1  0.8488291E-002  0.2286924E+03  0.7818608E-02  0.1127769E+00
         21   -1    0    0  501  502  0.00000000000E+00  0.00000000000E+00  0.22862782946E+03  0.22862782946E+03  0.00000000000E+00 0. -1.
         21   -1    0    0  502  503 -0.00000000000E+00 -0.00000000000E+00 -0.30654404793E+03  0.30654404793E+03  0.00000000000E+00 0. -1.
         -6    2    1    2    0  503  0.60020048886E+02  0.13653817766E+03 -0.17482370637E+03  0.28786026345E+03  0.17336413336E+03 0.  0.
        -24    2    3    3    0    0  0.85913671168E+02  0.15226176658E+03 -0.11847150422E+03  0.22370910125E+03  0.73793361606E+02 0.  0.
          6    2    1    2  501    0 -0.60020048886E+02 -0.13653817766E+03  0.96907487909E+02  0.24731161394E+03  0.17183391095E+03 0.  0.
         24    2    5    5    0    0 -0.45856642515E+02 -0.16840521373E+03  0.83394972789E+02  0.20961827059E+03  0.80758592132E+02 0.  0.
          5    1    5    5  501    0 -0.14163406371E+02  0.31867036076E+02  0.13512515119E+02  0.37693343353E+02  0.47000000000E+01 0. -1.
        -11    1    6    6    0    0  0.33117480618E+00 -0.66506681478E+02 -0.54842018149E+01  0.66733236304E+02  0.00000000000E+00 0.  1.
         12    1    6    6    0    0 -0.46187817321E+02 -0.10189853226E+03  0.88879174604E+02  0.14288503429E+03  0.00000000000E+00 0. -1.
         -5    1    3    3    0  503 -0.25893622282E+02 -0.15723588918E+02 -0.56352202154E+02  0.64151162194E+02  0.47000000000E+01 0.  1.
         13    1    4    4    0    0  0.14997289856E+02  0.89182385241E+01 -0.43921035095E+02  0.47260036027E+02  0.00000000000E+00 0. -1.
        -14    1    4    4    0    0  0.70916381312E+02  0.14334352805E+03 -0.74550469124E+02  0.17644906523E+03  0.00000000000E+00 0.  1.
</event>
<event>
12    1  0.8488291E-002  0.1816236E+03  0.7818608E-02  0.1166661E+00
         21   -1    0    0  503  502  0.00000000000E+00  0.00000000000E+00  0.93518435125E+02  0.93518435125E+02  0.00000000000E+00 0.  1.
         21   -1    0    0  501  503 -0.00000000000E+00 -0.00000000000E+00 -0.66454930025E+03  0.66454930025E+03  0.00000000000E+00 0.  1.
          6    2    1    2  501    0  0.46908311203E+02 -0.26682190562E+02 -0.54582826605E+03  0.57470385674E+03  0.17159166057E+03 0.  0.
         24    2    3    3    0    0  0.54046010313E+02 -0.55649468888E+02 -0.52796040392E+03  0.53961254073E+03  0.80135331719E+02 0.  0.
         -6    2    1    2    0  502 -0.46908311203E+02  0.26682190562E+02 -0.25202599076E+02  0.18336387864E+03  0.17342091003E+03 0.  0.
        -24    2    5    5    0    0  0.40070073678E+02  0.12254402820E+01  0.22808470598E+02  0.80697241493E+02  0.66217112177E+02 0.  0.
          5    1    3    3  501    0 -0.71376991097E+01  0.28967278325E+02 -0.17867862138E+02  0.35091316013E+02  0.47000000000E+01 0. -1.
        -13    1    4    4    0    0  0.20189487040E+02 -0.66409103812E+02 -0.25234163285E+03  0.26171374462E+03  0.00000000000E+00 0.  1.
         14    1    4    4    0    0  0.33856523273E+02  0.10759634924E+02 -0.27561877107E+03  0.27789879611E+03  0.00000000000E+00 0. -1.
         -5    1    5    5    0  502 -0.86978384881E+02  0.25456750280E+02 -0.48011069675E+02  0.10266663715E+03  0.47000000000E+01 0.  1.
         13    1    6    6    0    0  0.14779591415E+02  0.27394503267E+02 -0.89581066967E+01  0.32390474020E+02  0.00000000000E+00 0. -1.
        -14    1    6    6    0    0  0.25290482264E+02 -0.26169062985E+02  0.31766577295E+02  0.48306767473E+02  0.00000000000E+00 0.  1.
</event>
<event>
12    1  0.8488291E-002  0.2030909E+03  0.7818608E-02  0.1147311E+00
         21   -1    0    0  501  502  0.00000000000E+00  0.00000000000E+00  0.64518164734E+03  0.64518164734E+03  0.00000000000E+00 0.  1.
         21   -1    0    0  502  503 -0.00000000000E+00 -0.00000000000E+00 -0.63701270349E+02  0.63701270349E+02  0.00000000000E+00 0.  1.
         -6    2    1    2    0  503  0.56872793823E+02  0.92660048895E+02  0.29341677262E+03  0.35642502354E+03  0.17066046881E+03 0.  0.
        -24    2    3    3    0    0  0.42467756580E+02 -0.13536937071E+02  0.11128769028E+03  0.14505237261E+03  0.81660772583E+02 0.  0.
          6    2    1    2  501    0 -0.56872793823E+02 -0.92660048895E+02  0.28806360437E+03  0.35245789414E+03  0.17153870597E+03 0.  0.
         24    2    5    5    0    0 -0.57251577970E+02 -0.54251566658E+01  0.77119685739E+02  0.12413904537E+03  0.78459423600E+02 0.  0.
          5    1    5    5  501    0  0.37878414718E+00 -0.87234892229E+02  0.21094391863E+03  0.22831884877E+03  0.47000000000E+01 0. -1.
        -13    1    6    6    0    0 -0.42675384504E+02  0.13242478027E+02  0.87524138925E+02  0.98270171270E+02  0.00000000000E+00 0.  1.
         14    1    6    6    0    0 -0.14576193467E+02 -0.18667634693E+02 -0.10404453186E+02  0.25868874098E+02  0.00000000000E+00 0. -1.
         -5    1    3    3    0  503  0.14405037243E+02  0.10619698597E+03  0.18212908234E+03  0.21137265093E+03  0.47000000000E+01 0.  1.
         11    1    4    4    0    0 -0.21922654515E+02  0.30461390225E+01  0.10977631224E+02  0.24706074784E+02  0.00000000000E+00 0. -1.
        -12    1    4    4    0    0  0.64390411094E+02 -0.16583076093E+02  0.10031005906E+03  0.12034629783E+03  0.00000000000E+00 0.  1.
</event>
<event>
12    1  0.8488291E-002  0.1999921E+03  0.7818608E-02  0.1151023E+00
         21   -1    0    0  503  502  0.00000000000E+00  0.00000000000E+00  0.12687632616E+03  0.12687632616E+03  0.00000000000E+00 0. -1.
         21   -1    0    0  501  503 -0.00000000000E+00 -0.00000000000E+00 -0.30592020666E+03  0.30592020666E+03  0.00000000000E+00 0. -1.
          6    2    1    2  501    0  0.92364004311E+02  0.16801480387E+02 -0.91126837373E+02  0.21977478750E+03  0.17658838494E+03 0.  0.
         24    2    3    3    0    0  0.63504457446E+02 -0.49974928627E+02 -0.93271737512E+02  0.14684569288E+03  0.79584740315E+02 0.  0.
         -6    2    1    2    0  502 -0.92364004311E+02 -0.16801480387E+02 -0.87917043127E+02  0.21302174532E+03  0.16981006588E+03 0.  0.
        -24    2    5    5    0    0 -0.11088925676E+02 -0.49704738998E+02 -0.95381700255E+01  0.95320425947E+02  0.80009259237E+02 0.  0.
          5    1    3    3  501    0  0.28859546865E+02  0.66776409014E+02  0.21449001397E+01  0.72929094624E+02  0.47000000000E+01 0. -1.
        -13    1    4    4    0    0  0.74445292954E+02 -0.14215970664E+02 -0.66826533638E+02  0.10104445093E+03  0.00000000000E+00 0.  1.
         14    1    4    4    0    0 -0.10940835508E+02 -0.35758957963E+02 -0.26445203874E+02  0.45801241950E+02  0.00000000000E+00 0. -1.
         -5    1    5    5    0  502 -0.81275078635E+02  0.32903258612E+02 -0.78378873102E+02  0.11770131938E+03  0.47000000000E+01 0.  1.
         11    1    6    6    0    0 -0.10287198999E+01 -0.42365558983E+02 -0.42540658659E+02  0.60046702588E+02  0.00000000000E+00 0. -1.
        -12    1    6    6    0    0 -0.10060205777E+02 -0.73391800158E+01  0.33002488634E+02  0.35273723359E+02  0.00000000000E+00 0.  1.
</event>
<event>
12    1  0.8488291E-002  0.1723113E+03  0.7818608E-02  0.1175587E+00
         21   -1    0    0  501  502  0.00000000000E+00  0.00000000000E+00  0.10449969690E+03  0.10449969690E+03  0.00000000000E+00 0.  1.
         21   -1    0    0  502  503 -0.00000000000E+00 -0.00000000000E+00 -0.28352016701E+03  0.28352016701E+03  0.00000000000E+00 0.  1.
         -6    2    1    2    0  503 -0.11009617787E+02  0.74175460284E+01 -0.84276398722E+02  0.19181686429E+03  0.17179920364E+03 0.  0.
        -24    2    3    3    0    0 -0.17172331775E+01  0.19462791118E+02 -0.12413098561E+03  0.14889933364E+03  0.79879664750E+02 0.  0.
          6    2    1    2  501    0  0.11009617787E+02 -0.74175460284E+01 -0.94744071380E+02  0.19620299962E+03  0.17129782931E+03 0.  0.
         24    2    5    5    0    0  0.62586225122E+02  0.27590409390E+02 -0.79812052596E+02  0.13193202210E+03  0.79735992188E+02 0.  0.
          5    1    5    5  501    0 -0.51576607334E+02 -0.35007955418E+02 -0.14932018784E+02  0.64270977522E+02  0.47000000000E+01 0. -1.
        -13    1    6    6    0    0 -0.31709870197E+01  0.25032118160E+02 -0.56911656907E+02  0.62254307402E+02  0.00000000000E+00 0.  1.
         14    1    6    6    0    0  0.65757212141E+02  0.25582912298E+01 -0.22900395689E+02  0.69677714697E+02  0.00000000000E+00 0. -1.
         -5    1    3    3    0  503 -0.92923846100E+01 -0.12045245090E+02  0.39854586890E+02  0.42917530651E+02  0.47000000000E+01 0.  1.
         13    1    4    4    0    0 -0.30977016423E+02 -0.48943719941E+01 -0.18029899031E+02  0.36174682898E+02  0.00000000000E+00 0. -1.
        -14    1    4    4    0    0  0.29259783246E+02  0.24357163113E+02 -0.10610108658E+03  0.11272465074E+03  0.00000000000E+00 0.  1.
</event>
<event>
12    1  0.8488291E-002  0.2134126E+03  0.7818608E-02  0.1139357E+00
         21   -1    0    0  503  502  0.00000000000E+00  0.00000000000E+00  0.68714177673E+03  0.68714177673E+03  0.00000000000E+00 0. -1.
         21   -1    0    0  501  503 -0.00000000000E+00 -0.00000000000E+00 -0.15436638235E+03  0.15436638235E+03  0.00000000000E+00 0. -1.
          6    2    1    2  501    0  0.12223762216E+03  0.45250079294E+01 -0.53410832017E+02  0.21768189032E+03  0.17195981051E+03 0.  0.
         24    2    3    3    0    0  0.53108443318E+02  0.12510033736E+02 -0.96519439566E+02  0.13568770730E+03  0.78218565590E+02 0.  0.
         -6    2    1    2    0  502 -0.12223762216E+03 -0.45250079294E+01  0.58618622640E+03  0.62382626875E+03  0.17487827078E+03 0.  0.
        -24    2    5    5    0    0 -0.14298706084E+03 -0.31639082658E+02  0.38202850738E+03  0.41677995391E+03  0.79457022421E+02 0.  0.
          5    1    3    3  501    0  0.69129178843E+02 -0.79850258068E+01  0.43108607550E+02  0.81994183022E+02  0.47000000000E+01 0. -1.
        -11    1    4    4    0    0  0.26337668428E+02 -0.24831656911E+02 -0.97240484381E+01  0.37481209708E+02  0.00000000000E+00 0.  1.
         12    1    4    4    0    0  0.26770774890E+02  0.37341690647E+02 -0.86795391128E+02  0.98206497594E+02  0.00000000000E+00 0. -1.
         -5    1    5    5    0  502  0.20749438674E+02  0.27114074728E+02  0.20415771901E+03  0.20704631483E+03  0.47000000000E+01 0.  1.
         11    1    6    6    0    0 -0.12565360169E+03 -0.26951001488E+02  0.22812416687E+03  0.26183166274E+03  0.00000000000E+00 0. -1.
        -12    1    6    6    0    0 -0.17333459145E+02 -0.46880811692E+01  0.15390434051E+03  0.15494829118E+03  0.00000000000E+00 0.  1.
</event>
<event>
12    1  0.8488291E-002  0.2083184E+03  0.7818608E-02  0.1143343E+00
         21   -1    0    0  501  502  0.00000000000E+00  0.00000000000E+00  0.21338101334E+02  0.21338101334E+02  0.00000000000E+00 0.  1.
         21   -1    0    0  502  503 -0.00000000000E+00 -0.00000000000E+00 -0.24736057811E+04  0.24736057811E+04  0.00000000000E+00 0.  1.
         -6    2    1    2    0  503 -0.67771189685E+02  0.92798563333E+02 -0.17594607980E+04  0.17714952416E+04  0.17113907812E+03 0.  0.
        -24    2    3    3    0    0  0.23111220259E+01  0.96833109656E+02 -0.79500113041E+03  0.80447282808E+03  0.75945647395E+02 0.  0.
          6    2    1    2  501    0  0.67771189685E+02 -0.92798563333E+02 -0.69280688174E+03  0.72344864074E+03  0.17375860522E+03 0.  0.
         24    2    5    5    0    0  0.56972753951E+02 -0.13327771906E+03 -0.58279184760E+03  0.60563282686E+03  0.78332229932E+02 0.  0.
          5    1    5    5  501    0  0.10798435734E+02  0.40479155730E+02 -0.11001503414E+03  0.11781581388E+03  0.47000000000E+01 0. -1.
        -13    1    6    6    0    0  0.35057342657E+02 -0.13159234215E+02 -0.81593135838E+02  0.89775400501E+02  0.00000000000E+00 0.  1.
         14    1    6    6    0    0  0.21915411295E+02 -0.12011848485E+03 -0.50119871176E+03  0.51585742636E+03  0.00000000000E+00 0. -1.
         -5    1    3    3    0  503 -0.70082311711E+02 -0.40345463230E+01 -0.96445966757E+03  0.96702241357E+03  0.47000000000E+01 0.  1.
         13    1    4    4    0    0 -0.25615138534E+02  0.31034085236E+02 -0.14264139343E+03  0.14820869370E+03  0.00000000000E+00 0. -1.
        -14    1    4    4    0    0  0.27926260560E+02  0.65799024421E+02 -0.65235973698E+03  0.65626413439E+03  0.00000000000E+00 0.  1.
</event>
<event>
12    1  0.8488291E-002  0.2086590E+03  0.7818608E-02  0.1142695E+00
         21   -1    0    0  503  502  0.00000000000E+00  0.00000000000E+00  0.21130871897E+03  0.21130871897E+03  0.00000000000E+00 0. -1.
         21   -1    0    0  501  503 -0.00000000000E+00 -0.00000000000E+00 -0.25405456889E+03  0.25405456889E+03  0.00000000000E+00 0. -1.
          6    2    1    2  501    0  0.37447252467E+02  0.11257446077E+03 -0.12286219069E+03  0.24214391663E+03  0.17164863100E+03 0.  0.
         24    2    3    3    0    0  0.63283759676E+02  0.85073454822E+02 -0.14634261533E+03  0.19745330493E+03  0.79557021117E+02 0.  0.
         -6    2    1    2    0  502 -0.37447252467E+02 -0.11257446077E+03  0.80116340774E+02  0.22321937122E+03  0.17126865940E+03 0.  0.
        -24    2    5    5    0    0  0.17933990618E+02 -0.12535202199E+03  0.48749635441E+02  0.15813244197E+03  0.81207049012E+02 0.  0.
          5    1    3    3  501    0 -0.25836507210E+02  0.27501005953E+02  0.23480424642E+02  0.44690611705E+02  0.47000000000E+01 0. -1.
        -11    1    4    4    0    0  0.27241084412E+02  0.21630855065E+02 -0.11110736528E+03  0.11642515704E+03  0.00000000000E+00 0.  1.
         12    1    4    4    0    0  0.36042675265E+02  0.63442599757E+02 -0.35235250050E+02  0.81028147889E+02  0.00000000000E+00 0. -1.
         -5    1    5    5    0  502 -0.55381243085E+02  0.12777561220E+02  0.31366705332E+02  0.65086929255E+02  0.47000000000E+01 0.  1.
         13    1    6    6    0    0  0.10930304934E+02 -0.20177834369E+02 -0.21511852549E+02  0.31454353686E+02  0.00000000000E+00 0. -1.
        -14    1    6    6    0    0  0.70036856846E+01 -0.10517418763E+03  0.70261487990E+02  0.12667808828E+03  0.00000000000E+00 0.  1.
</event>
<event>
12    1  0.8488291E-002  0.1771344E+03  0.7818608E-02  0.1171219E+00
         21   -1    0    0  501  502  0.00000000000E+00  0.00000000000E+00  0.18023701790E+04  0.18023701790E+04  0.00000000000E+00 0.  1.
         21   -1    0    0  502  503 -0.00000000000E+00 -0.00000000000E+00 -0.23231333469E+02  0.23231333469E+02  0.00000000000E+00 0.  1.
         -6    2    1    2    0  503  0.30608776964E+02 -0.21563770837E+02  0.41860314132E+03  0.45358329177E+03  0.17060867275E+03 0.  0.
        -24    2    3    3    0    0  0.47688071228E+02 -0.65982177552E+02  0.36444448036E+03  0.38133408621E+03  0.77253518698E+02 0.  0.
          6    2    1    2  501    0 -0.30608776964E+02  0.21563770837E+02  0.13605357042E+04  0.13720182207E+04  0.17313203643E+03 0.  0.
         24    2    5    5    0    0  0.82318089706E+01  0.65396794199E+02  0.46239675605E+03  0.47195956413E+03  0.67753721633E+02 0.  0.
          5    1    5    5  501    0 -0.38840585935E+02 -0.43833023362E+02  0.89813894817E+03  0.90005865657E+03  0.47000000000E+01 0. -1.
        -13    1    6    6    0    0 -0.16386304349E+02  0.23338350261E+02  0.32363426563E+03  0.32488817684E+03  0.00000000000E+00 0.  1.
         14    1    6    6    0    0  0.24618113320E+02  0.42058443937E+02  0.13876249042E+03  0.14707138729E+03  0.00000000000E+00 0. -1.
         -5    1    3    3    0  503 -0.17079294264E+02  0.44418406715E+02  0.54158660960E+02  0.72249205564E+02  0.47000000000E+01 0.  1.
         11    1    4    4    0    0  0.24085039791E+02  0.14629184797E+02  0.96861372999E+02  0.10087729065E+03  0.00000000000E+00 0. -1.
        -12    1    4    4    0    0  0.23603031437E+02 -0.80611362349E+02  0.26758310736E+03  0.28045679556E+03  0.00000000000E+00 0.  1.
</event>
<event>
12    1  0.8488291E-002  0.2044744E+03  0.7818608E-02  0.1146154E+00
         21   -1    0    0  501  502  0.00000000000E+00  0.00000000000E+00  0.23165039142E+03  0.23165039142E+03  0.00000000000E+00 0.  1.
         21   -1    0    0  502  503 -0.00000000000E+00 -0.00000000000E+00 -0.31309938274E+03  0.31309938274E+03  0.00000000000E+00 0.  1.
         -6    2    1    2    0  503 -0.51095515898E+02 -0.98814511251E+02 -0.21834001523E+03  0.29868284978E+03  0.17077477310E+03 0.  0.
        -24    2    3    3    0    0 -0.19761751431E+02  0.16305451305E+02 -0.88355709033E+02  0.12218236698E+03  0.80407741661E+02 0.  0.
          6    2    1    2  501    0  0.51095515898E+02  0.98814511251E+02  0.13689102390E+03  0.24606692438E+03  0.17156549616E+03 0.  0.
         24    2    5    5    0    0  0.36471212611E+01  0.46932137320E+02  0.14773521206E+03  0.17477304460E+03  0.80647363427E+02 0.  0.
          5    1    5    5  501    0  0.47448394637E+02  0.51882373931E+02 -0.10844188157E+02  0.71293879787E+02  0.47000000000E+01 0. -1.
        -11    1    6    6    0    0 -0.24316873717E+02  0.55455915082E+02  0.75071083917E+02  0.96448621066E+02  0.00000000000E+00 0.  1.
         12    1    6    6    0    0  0.27963994979E+02 -0.85237777617E+01  0.72664128144E+02  0.78324423531E+02  0.00000000000E+00 0. -1.
         -5    1    3    3    0  503 -0.31333764468E+02 -0.11511996256E+03 -0.12998430619E+03  0.17650048281E+03  0.47000000000E+01 0.  1.
         11    1    4    4    0    0 -0.21055549831E+02  0.30281206810E+02 -0.98293230470E+02  0.10498498379E+03  0.00000000000E+00 0. -1.
        -12    1    4    4    0    0  0.12937984004E+01 -0.13975755504E+02  0.99375214366E+01  0.17197383188E+02  0.00000000000E+00 0.  1.
</event>
<event>
12    1  0.8488291E-002  0.1958104E+03  0.7818608E-02  0.1153683E+00
         21   -1    0    0  503  502  0.00000000000E+00  0.00000000000E+00  0.65100464460E+03  0.65100464460E+03  0.00000000000E+00 0.  1.
         21   -1    0    0  501  503 -0.00000000000E+00 -0.00000000000E+00 -0.83457281250E+02  0.83457281250E+02  0.00000000000E+00 0.  1.
          6    2    1    2  501    0 -0.89025435334E+02  0.30229638124E+02  0.83394356438E+02  0.21282936187E+03  0.17176250881E+03 0.  0.
         24    2    3    3    0    0 -0.51052444705E+02  0.38874529790E+02 -0.17728268326E+02  0.10436481740E+03  0.80375011265E+02 0.  0.
         -6    2    1    2    0  502  0.89025435334E+02 -0.30229638124E+02  0.48415300692E+03  0.52163256398E+03  0.16987359577E+03 0.  0.
        -24    2    5    5    0    0  0.10541819785E+03 -0.16073737674E+02  0.48000824876E+03  0.49908525370E+03  0.85479881269E+02 0.  0.
          5    1    3    3  501    0 -0.37972990630E+02 -0.86448916660E+01  0.10112262476E+03  0.10846454448E+03  0.47000000000E+01 0. -1.
        -13    1    4    4    0    0 -0.68373905429E+02  0.31191743965E+02  0.43397108346E+01  0.75277811640E+02  0.00000000000E+00 0.  1.
         14    1    4    4    0    0  0.17321460725E+02  0.76827858248E+01 -0.22067979161E+02  0.29087005757E+02  0.00000000000E+00 0. -1.
         -5    1    5    5    0  502 -0.16392762520E+02 -0.14155900449E+02  0.41447581529E+01  0.22547310277E+02  0.47000000000E+01 0.  1.
         13    1    6    6    0    0  0.32402634806E+01  0.24357300177E+02  0.57688844385E+02  0.62703908537E+02  0.00000000000E+00 0. -1.
        -14    1    6    6    0    0  0.10217793437E+03 -0.40431037852E+02  0.42231940438E+03  0.43638134517E+03  0.00000000000E+00 0.  1.
</event>
<event>
12    1  0.8488291E-002  0.1725477E+03  0.7818608E-02  0.1176316E+00
         21   -1    0    0  503  502  0.00000000000E+00  0.00000000000E+00  0.28563619303E+03  0.28563619303E+03  0.00000000000E+00 0.  1.
         21   -1    0    0  501  503 -0.00000000000E+00 -0.00000000000E+00 -0.11775477855E+03  0.11775477855E+03  0.00000000000E+00 0.  1.
          6    2    1    2  501    0  0.40645681745E+01 -0.17320341553E+02  0.85391326499E+01  0.16852363223E+03  0.16736422224E+03 0.  0.
         24    2    3    3    0    0  0.42568582615E+01 -0.27961202472E+02 -0.56195922012E+02  0.10275143294E+03  0.81239926360E+02 0.  0.
         -6    2    1    2    0  502 -0.40645681745E+01  0.17320341553E+02  0.15934228183E+03  0.23486733936E+03  0.17162805532E+03 0.  0.
        -24    2    5    5    0    0 -0.21597042177E+02 -0.41502595317E+02  0.14441968598E+03  0.17152462539E+03  0.79842055123E+02 0.  0.
          5    1    3    3  501    0 -0.19229008696E+00  0.10640860920E+02  0.64735054662E+02  0.65772199284E+02  0.47000000000E+01 0. -1.
        -13    1    4    4    0    0 -0.25147476740E+02  0.11174770994E+02  0.91332688658E+00  0.27533711322E+02  0.00000000000E+00 0.  1.
         14    1    4    4    0    0  0.29404335002E+02 -0.39135973466E+02 -0.57109248899E+02  0.75217721621E+02  0.00000000000E+00 0. -1.
         -5    1    5    5    0  502  0.17532474002E+02  0.58822936870E+02  0.14922595851E+02  0.63342713974E+02  0.47000000000E+01 0.  1.
         11    1    6    6    0    0 -0.45328504615E+02 -0.10874577114E+01  0.78268716859E+02  0.90453567832E+02  0.00000000000E+00 0. -1.
        -12    1    6    6    0    0  0.23731462438E+02 -0.40415137606E+02  0.66150969122E+02  0.81071057554E+02  0.00000000000E+00 0.  1.
</event>
<event>
12    1  0.8488291E-002  0.2186431E+03  0.7818608E-02  0.1134931E+00
         21   -1    0    0  501  502  0.00000000000E+00  0.00000000000E+00  0.64425287450E+03  0.64425287450E+03  0.00000000000E+00 0. -1.
         21   -1    0    0  502  503 -0.00000000000E+00 -0.00000000000E+00 -0.81058700205E+02  0.81058700205E+02  0.00000000000E+00 0. -1.
         -6    2    1    2    0  503  0.13578721206E+03 -0.20040519062E+01  0.17577798889E+03  0.28054004476E+03  0.17135528049E+03 0.  0.
        -24    2    3    3    0    0  0.11214133178E+03  0.66246790946E+01  0.43541330152E+02  0.14584703616E+03  0.82194561000E+02 0.  0.
          6    2    1    2  501    0 -0.13578721206E+03  0.20040519062E+01  0.38741618540E+03  0.44477152994E+03  0.17113804355E+03 0.  0.
         24    2    5    5    0    0 -0.18283734610E+02  0.56124924944E+01  0.24864682815E+03  0.26283991485E+03  0.83028794193E+02 0.  0.
          5    1    5    5  501    0 -0.11750347745E+03 -0.36084405882E+01  0.13876935725E+03  0.18193161509E+03  0.47000000000E+01 0. -1.
        -13    1    6    6    0    0 -0.44193269096E+02 -0.19565347649E+02  0.12481555272E+03  0.13384606854E+03  0.00000000000E+00 0.  1.
         14    1    6    6    0    0  0.25909534486E+02  0.25177840143E+02  0.12383127543E+03  0.12899384631E+03  0.00000000000E+00 0. -1.
         -5    1    3    3    0  503  0.23645880287E+02 -0.86287310008E+01  0.13223665874E+03  0.13469300861E+03  0.47000000000E+01 0.  1.
         11    1    4    4    0    0  0.69634271852E+02 -0.18228152589E+02  0.60230971975E+02  0.93856099153E+02  0.00000000000E+00 0. -1.
        -12    1    4    4    0    0  0.42507059926E+02  0.24852831683E+02 -0.16689641823E+02  0.51990937003E+02  0.00000000000E+00 0.  1.
</event>
<event>
12    1  0.8488291E-002  0.2010288E+03  0.7818608E-02  0.1148880E+00
         21   -1    0    0  503  502  0.00000000000E+00  0.00000000000E+00  0.13026593043E+04  0.13026593043E+04  0.00000000000E+00 0.  1.
         21   -1    0    0  501  503 -0.00000000000E+00 -0.00000000000E+00 -0.31701539832E+02  0.31701539832E+02  0.00000000000E+00 0.  1.
          6    2    1    2  501    0 -0.46315356640E+02 -0.93114011532E+02  0.73336110464E+03  0.76040721779E+03  0.17200376641E+03 0.  0.
         24    2    3    3    0    0 -0.95489634115E+02 -0.73229266978E+02  0.58908471642E+03  0.60661749502E+03  0.80518236310E+02 0.  0.
         -6    2    1    2    0  502  0.46315356640E+02  0.93114011532E+02  0.53759665979E+03  0.57395362630E+03  0.17203855710E+03 0.  0.
        -24    2    5    5    0    0 -0.20063059529E+01  0.32463898672E+02  0.44568577602E+03  0.45360779206E+03  0.77886379347E+02 0.  0.
          5    1    3    3  501    0  0.49174277474E+02 -0.19884744554E+02  0.14427638822E+03  0.15378972277E+03  0.47000000000E+01 0. -1.
        -13    1    4    4    0    0 -0.53299348226E+01 -0.16188960483E+02  0.26240159589E+03  0.26295453632E+03  0.00000000000E+00 0.  1.
         14    1    4    4    0    0 -0.90159699292E+02 -0.57040306495E+02  0.32668312054E+03  0.34366295870E+03  0.00000000000E+00 0. -1.
         -5    1    5    5    0  502  0.48321662593E+02  0.60650112860E+02  0.91910883764E+02  0.12034583424E+03  0.47000000000E+01 0.  1.
         11    1    6    6    0    0 -0.35740417486E+02  0.32595278469E+00  0.14538089084E+03  0.14971001005E+03  0.00000000000E+00 0. -1.
        -12    1    6    6    0    0  0.33734111533E+02  0.32137945888E+02  0.30030488518E+03  0.30389778201E+03  0.00000000000E+00 0.  1.
</event>
<event>
12    1  0.8488291E-002  0.1964502E+03  0.7818608E-02  0.1153119E+00
         21   -1    0    0  501  502  0.00000000000E+00  0.00000000000E+00  0.11887004924E+04  0.11887004924E+04  0.00000000000E+00 0. -1.
         21   -1    0    0  502  503 -0.00000000000E+00 -0.00000000000E+00 -0.32694717566E+02  0.32694717566E+02  0.00000000000E+00 0. -1.
         -6    2    1    2    0  503 -0.18919542209E+02 -0.93279955057E+02  0.50056044773E+03  0.53714288413E+03  0.17000769705E+03 0.  0.
        -24    2    3    3    0    0  0.12094784530E+02 -0.80011307795E+02  0.16869890583E+03  0.20353815027E+03  0.80127177672E+02 0.  0.
          6    2    1    2  501    0  0.18919542209E+02  0.93279955057E+02  0.65544532711E+03  0.68425232583E+03  0.17185333713E+03 0.  0.
         24    2    5    5    0    0 -0.45178896894E+02  0.11013015419E+02  0.30349742324E+03  0.31714760468E+03  0.79432348627E+02 0.  0.
          5    1    5    5  501    0  0.64098439103E+02  0.82266939638E+02  0.35194790386E+03  0.36710472114E+03  0.47000000000E+01 0. -1.
        -13    1    6    6    0    0  0.16032340453E+02 -0.78042847336E+00  0.14921862329E+02  0.21915907108E+02  0.00000000000E+00 0.  1.
         14    1    6    6    0    0 -0.61211237348E+02  0.11793443892E+02  0.28857556091E+03  0.29523169758E+03  0.00000000000E+00 0. -1.
         -5    1    3    3    0  503 -0.31014326739E+02 -0.13268647262E+02  0.33186154190E+03  0.33360473386E+03  0.47000000000E+01 0.  1.
         11    1    4    4    0    0  0.77253490898E+01 -0.94596673910E+02  0.15991651570E+03  0.18596102744E+03  0.00000000000E+00 0. -1.
        -12    1    4    4    0    0  0.43694354406E+01  0.14585366114E+02  0.87823901294E+01  0.17577122835E+02  0.00000000000E+00 0.  1.
</event>
<event>
12    1  0.8488291E-002  0.1987192E+03  0.7818608E-02  0.1151305E+00
         21   -1    0    0  501  502  0.00000000000E+00  0.00000000000E+00  0.42636640253E+03  0.42636640253E+03  0.00000000000E+00 0.  1.
         21   -1    0    0  502  503 -0.00000000000E+00 -0.00000000000E+00 -0.10736553073E+03  0.10736553073E+03  0.00000000000E+00 0. -1.
         -6    2    1    2    0  503 -0.57856082907E+02  0.81389676235E+02  0.57926878510E+02  0.20698992883E+03  0.17180716416E+03 0.  0.
        -24    2    3    3    0    0 -0.77096873804E+02  0.61861520324E+02  0.97712460360E+02  0.15844572803E+03  0.76069364237E+02 0.  0.
          6    2    1    2  501    0  0.57856082907E+02 -0.81389676235E+02  0.26107399328E+03  0.32674200443E+03  0.16920136455E+03 0.  0.
         24    2    5    5    0    0  0.33701210959E+02 -0.85606742832E+02  0.27305014704E+03  0.29905157742E+03  0.80069826516E+02 0.  0.
          5    1    5    5  501    0  0.24154871948E+02  0.42170665970E+01 -0.11976153758E+02  0.27690427017E+02  0.47000000000E+01 0. -1.
        -11    1    6    6    0    0  0.15970609249E+02  0.11551886988E+01  0.12877596878E+03  0.12976765759E+03  0.00000000000E+00 0.  1.
         12    1    6    6    0    0  0.17730601710E+02 -0.86761931531E+02  0.14427417826E+03  0.16928391983E+03  0.00000000000E+00 0. -1.
         -5    1    3    3    0  503  0.19240790897E+02  0.19528155911E+02 -0.39785581850E+02  0.48544200795E+02  0.47000000000E+01 0.  1.
         11    1    4    4    0    0 -0.75429088370E+02  0.15096218500E+02  0.70321536245E+02  0.10422361366E+03  0.00000000000E+00 0. -1.
        -12    1    4    4    0    0 -0.16677854347E+01  0.46765301824E+02  0.27390924116E+02  0.54222114371E+02  0.00000000000E+00 0.  1.
</event>
<event>
12    1  0.8488291E-002  0.2019811E+03  0.7818608E-02  0.1148462E+00
         21   -1    0    0  501  502  0.00000000000E+00  0.00000000000E+00  0.40401982752E+03  0.40401982752E+03  0.00000000000E+00 0.  1.
         21   -1    0    0  502  503 -0.00000000000E+00 -0.00000000000E+00 -0.11209038949E+03  0.11209038949E+03  0.00000000000E+00 0.  1.
         -6    2    1    2    0  503 -0.37711086023E+02 -0.97975474164E+02  0.23109665126E+03  0.30692349825E+03  0.17255448996E+03 0.  0.
        -24    2    3    3    0    0 -0.17823683128E+02  0.15314345505E+02  0.75495391997E+02  0.11336747556E+03  0.81242953189E+02 0.  0.
          6    2    1    2  501    0  0.37711086023E+02  0.97975474164E+02  0.60832786770E+02  0.20918671877E+03  0.17040286329E+03 0.  0.
         24    2    5    5    0    0 -0.19814929342E+02  0.48677219710E+01  0.37321619636E+02  0.97145829169E+02  0.87338895634E+02 0.  0.
          5    1    5    5  501    0  0.57526015365E+02  0.93107752193E+02  0.23511167134E+02  0.11204088960E+03  0.47000000000E+01 0. -1.
        -11    1    6    6    0    0  0.17871290047E+02  0.34783385971E+02  0.55781074121E+01  0.39501673760E+02  0.00000000000E+00 0.  1.
         12    1    6    6    0    0 -0.37686219389E+02 -0.29915664000E+02  0.31743512224E+02  0.57644155408E+02  0.00000000000E+00 0. -1.
         -5    1    3    3    0  503 -0.19887402895E+02 -0.11328981967E+03  0.15560125927E+03  0.19355602269E+03  0.47000000000E+01 0.  1.
         11    1    4    4    0    0 -0.29851311563E+02 -0.14078186803E+02  0.74624564087E+02  0.81597314360E+02  0.00000000000E+00 0. -1.
        -12    1    4    4    0    0  0.12027628434E+02  0.29392532308E+02  0.87082791057E+00  0.31770161197E+02  0.00000000000E+00 0.  1.
</event>
<event>
12    1  0.8488291E-002  0.2798658E+03  0.7818608E-02  0.1096487E+00
         21   -1    0    0  503  502  0.00000000000E+00  0.00000000000E+00  0.18848916938E+03  0.18848916938E+03  0.00000000000E+00 0.  1.
         21   -1    0    0  501  503 -0.00000000000E+00 -0.00000000000E+00 -0.47844297157E+03  0.47844297157E+03  0.00000000000E+00 0.  1.
          6    2    1    2  501    0  0.38922638926E+02  0.21312840329E+03 -0.27195214144E+03  0.38648799477E+03  0.16874926595E+03 0.  0.
         24    2    3    3    0    0 -0.11090103905E+02  0.16817244229E+03 -0.25688051004E+03  0.31741153751E+03  0.79734101562E+02 0.  0.
         -6    2    1    2    0  502 -0.38922638926E+02 -0.21312840329E+03 -0.18001660747E+02  0.28044414618E+03  0.17716142703E+03 0.  0.
        -24    2    5    5    0    0  0.48031579262E+02 -0.11280132322E+03  0.17637809087E+01  0.14613360401E+03  0.79503133080E+02 0.  0.
          5    1    3    3  501    0  0.50012742831E+02  0.44955960998E+02 -0.15071631393E+02  0.69076457260E+02  0.47000000000E+01 0. -1.
        -13    1    4    4    0    0  0.82220231651E+01  0.15913683286E+03 -0.24693161621E+03  0.29388323586E+03  0.00000000000E+00 0.  1.
         14    1    4    4    0    0 -0.19312127070E+02  0.90356094317E+01 -0.99488938343E+01  0.23528301645E+02  0.00000000000E+00 0. -1.
         -5    1    5    5    0  502 -0.86954218188E+02 -0.10032708007E+03 -0.19765441656E+02  0.13431054218E+03  0.47000000000E+01 0.  1.
         13    1    6    6    0    0  0.28100676266E+02 -0.66114925089E+02 -0.38350120531E+02  0.81434409624E+02  0.00000000000E+00 0. -1.
        -14    1    6    6    0    0  0.19930902996E+02 -0.46686398134E+02  0.40113901439E+02  0.64699194381E+02  0.00000000000E+00 0.  1.
</event>
<event>
12    1  0.8488291E-002  0.2210231E+03  0.7818608E-02  0.1133603E+00
         21   -1    0    0  501  502  0.00000000000E+00  0.00000000000E+00  0.35349701679E+02  0.35349701679E+02  0.00000000000E+00 0.  1.
         21   -1    0    0  502  503 -0.00000000000E+00 -0.00000000000E+00 -0.20644113488E+04  0.20644113488E+04  0.00000000000E+00 0.  1.
         -6    2    1    2    0  503  0.53565131806E+02 -0.12690501882E+03 -0.16212977922E+04  0.16359479944E+04  0.16954410102E+03 0.  0.
        -24    2    3    3    0    0  0.38380298997E+02 -0.98211328190E+02 -0.61611585172E+03  0.63023097131E+03  0.80460065403E+02 0.  0.
          6    2    1    2  501    0 -0.53565131806E+02  0.12690501882E+03 -0.40776385490E+03  0.46381305608E+03  0.17284988422E+03 0.  0.
         24    2    5    5    0    0 -0.29967460557E+02  0.14375695427E+03 -0.22620944385E+03  0.27989749940E+03  0.74885159341E+02 0.  0.
          5    1    5    5  501    0 -0.23597671249E+02 -0.16851935446E+02 -0.18155441105E+03  0.18391555668E+03  0.47000000000E+01 0. -1.
        -13    1    6    6    0    0 -0.41960141611E+02  0.14450370899E+03 -0.21953201068E+03  0.26615085780E+03  0.00000000000E+00 0.  1.
         14    1    6    6    0    0  0.11992681054E+02 -0.74675471932E+00 -0.66774331740E+01  0.13746641600E+02  0.00000000000E+00 0. -1.
         -5    1    3    3    0  503  0.15184832809E+02 -0.28693690630E+02 -0.10051819405E+04  0.10057170231E+04  0.47000000000E+01 0.  1.
         13    1    4    4    0    0 -0.22552977449E+02 -0.30260698883E+02 -0.12017811693E+03  0.12596478269E+03  0.00000000000E+00 0. -1.
        -14    1    4    4    0    0  0.60933276445E+02 -0.67950629307E+02 -0.49593773479E+03  0.50426618862E+03  0.00000000000E+00 0.  1.
</event>
<event>
12    1  0.8488291E-002  0.1847833E+03  0.7818608E-02  0.1163825E+00
         21   -1    0    0  503  502  0.00000000000E+00  0.00000000000E+00  0.60325613094E+02  0.60325613094E+02  0.00000000000E+00 0. -1.
         21   -1    0    0  501  503 -0.00000000000E+00 -0.00000000000E+00 -0.59455917976E+03  0.59455917976E+03  0.00000000000E+00 0. -1.
          6    2    1    2  501    0 -0.41529428705E+02 -0.39990104296E+02 -0.34932734743E+03  0.39518916671E+03  0.17555904972E+03 0.  0.
         24    2    3    3    0    0 -0.79287886554E+02  0.19064221525E+02 -0.22130580972E+03  0.24915931136E+03  0.80337335815E+02 0.  0.
         -6    2    1    2    0  502  0.41529428705E+02  0.39990104296E+02 -0.18490621924E+03  0.25969562614E+03  0.17299597230E+03 0.  0.
        -24    2    5    5    0    0  0.64415284225E+02 -0.27993166798E+02 -0.81379523906E+02  0.13365851185E+03  0.79429368939E+02 0.  0.
          5    1    3    3  501    0  0.37758457849E+02 -0.59054325821E+02 -0.12802153771E+03  0.14602985535E+03  0.47000000000E+01 0. -1.
        -11    1    4    4    0    0 -0.29977153714E+02  0.23510806119E+02 -0.22422319801E+02  0.44205748206E+02  0.00000000000E+00 0.  1.
         12    1    4    4    0    0 -0.49310732840E+02 -0.44465845940E+01 -0.19888348992E+03  0.20495356316E+03  0.00000000000E+00 0. -1.
         -5    1    5    5    0  502 -0.22885855520E+02  0.67983271094E+02 -0.10352669534E+03  0.12603711429E+03  0.47000000000E+01 0.  1.
         13    1    6    6    0    0  0.40707463456E+02  0.24088025080E+02 -0.25767247757E+02  0.53863546023E+02  0.00000000000E+00 0. -1.
        -14    1    6    6    0    0  0.23707820769E+02 -0.52081191878E+02 -0.55612276149E+02  0.79794965828E+02  0.00000000000E+00 0.  1.
</event>
<event>
12    1  0.8488291E-002  0.1749949E+03  0.7818608E-02  0.1172838E+00
         21   -1    0    0  503  502  0.00000000000E+00  0.00000000000E+00  0.15541164557E+03  0.15541164557E+03  0.00000000000E+00 0. -1.
         21   -1    0    0  501  503 -0.00000000000E+00 -0.00000000000E+00 -0.19731140718E+03  0.19731140718E+03  0.00000000000E+00 0. -1.
          6    2    1    2  501    0 -0.26295081608E+02  0.18035954113E+01 -0.31614012925E+02  0.17782764647E+03  0.17299867561E+03 0.  0.
         24    2    3    3    0    0  0.47212625289E+02  0.23869451656E+02 -0.29157759784E+02  0.10089645537E+03  0.80815450515E+02 0.  0.
         -6    2    1    2    0  502  0.26295081608E+02 -0.18035954113E+01 -0.10285748690E+02  0.17489540627E+03  0.17259177917E+03 0.  0.
        -24    2    5    5    0    0  0.13461427347E+02  0.64552059183E+02 -0.29319827176E+02  0.10452380886E+03  0.75613464294E+02 0.  0.
          5    1    3    3  501    0 -0.73507706896E+02 -0.22065856244E+02 -0.24562531412E+01  0.76931191102E+02  0.47000000000E+01 0. -1.
        -11    1    4    4    0    0  0.43428495929E+02  0.18736764494E+02 -0.56003287337E+02  0.73303948017E+02  0.00000000000E+00 0.  1.
         12    1    4    4    0    0  0.37841293596E+01  0.51326871615E+01  0.26845527553E+02  0.27592507354E+02  0.00000000000E+00 0. -1.
         -5    1    5    5    0  502  0.12833654261E+02 -0.66355654594E+02  0.19034078486E+02  0.70371597411E+02  0.47000000000E+01 0.  1.
         13    1    6    6    0    0 -0.68911243701E+01  0.29598509685E+02 -0.50445166293E+02  0.58892055262E+02  0.00000000000E+00 0. -1.
        -14    1    6    6    0    0  0.20352551717E+02  0.34953549498E+02  0.21125339117E+02  0.45631753601E+02  0.00000000000E+00 0.  1.
</event>
<event>
12    1  0.8488291E-002  0.2256045E+03  0.7818608E-02  0.1130409E+00
         21   -1    0    0  501  502  0.00000000000E+00  0.00000000000E+00  0.69116001657E+03  0.69116001657E+03  0.00000000000E+00 0.  1.
         21   -1    0    0  502  503 -0.00000000000E+00 -0.00000000000E+00 -0.94053073467E+02  0.94053073467E+02  0.00000000000E+00 0.  1.
         -6    2    1    2    0  503  0.12267364299E+02 -0.14081993675E+03  0.10882759509E+03  0.24733382588E+03  0.17131793006E+03 0.  0.
        -24    2    3    3    0    0 -0.27052400425E+01 -0.25443388249E+02 -0.64662640079E+01  0.83472022006E+02  0.79190160742E+02 0.  0.
          6    2    1    2  501    0 -0.12267364299E+02  0.14081993675E+03  0.48827934801E+03  0.53787926415E+03  0.17583127792E+03 0.  0.
         24    2    5    5    0    0 -0.28644433929E+02  0.14567395402E+03  0.49162001942E+03  0.51985095367E+03  0.80705427682E+02 0.  0.
          5    1    5    5  501    0  0.16377069630E+02 -0.48540172720E+01 -0.33406714100E+01  0.18028310481E+02  0.47000000000E+01 0. -1.
        -13    1    6    6    0    0 -0.40998372028E+02  0.30416200716E+02  0.18952298440E+03  0.19627779648E+03  0.00000000000E+00 0.  1.
         14    1    6    6    0    0  0.12353938099E+02  0.11525775331E+03  0.30209703502E+03  0.32357315718E+03  0.00000000000E+00 0. -1.
         -5    1    3    3    0  503  0.14972604342E+02 -0.11537654850E+03  0.11529385909E+03  0.16386180388E+03  0.47000000000E+01 0.  1.
         13    1    4    4    0    0 -0.10230434768E+02 -0.21657317900E+02  0.34305116875E+02  0.41839482047E+02  0.00000000000E+00 0. -1.
        -14    1    4    4    0    0  0.75251947258E+01 -0.37860703486E+01 -0.40771380883E+02  0.41632539959E+02  0.00000000000E+00 0.  1.
</event>
<event>
12    1  0.8488291E-002  0.2027843E+03  0.7818608E-02  0.1147651E+00
         21   -1    0    0  501  502  0.00000000000E+00  0.00000000000E+00  0.31281211192E+03  0.31281211192E+03  0.00000000000E+00 0. -1.
         21   -1    0    0  502  503 -0.00000000000E+00 -0.00000000000E+00 -0.21399392221E+03  0.21399392221E+03  0.00000000000E+00 0. -1.
         -6    2    1    2    0  503 -0.63727206280E+02  0.85660817021E+02 -0.11500197648E+03  0.23211887132E+03  0.17104029769E+03 0.  0.
        -24    2    3    3    0    0 -0.48568043835E+02  0.12081465485E+03 -0.60384748194E+02  0.16525539738E+03  0.81902337208E+02 0.  0.
          6    2    1    2  501    0  0.63727206280E+02 -0.85660817021E+02  0.21382016619E+03  0.29468716282E+03  0.17240222755E+03 0.  0.
         24    2    5    5    0    0  0.71261215263E+01 -0.11091674651E+03  0.17319795973E+03  0.22043220724E+03  0.78990622679E+02 0.  0.
          5    1    5    5  501    0  0.56601084753E+02  0.25255929487E+02  0.40622206462E+02  0.74254955574E+02  0.47000000000E+01 0. -1.
        -13    1    6    6    0    0  0.49046894818E+01 -0.26266107795E+02 -0.10042279403E+01  0.26738976632E+02  0.00000000000E+00 0.  1.
         14    1    6    6    0    0  0.22214320444E+01 -0.84650638713E+02  0.17420218767E+03  0.19369323061E+03  0.00000000000E+00 0. -1.
         -5    1    3    3    0  503 -0.15159162445E+02 -0.35153837834E+02 -0.54617228289E+02  0.66863473933E+02  0.47000000000E+01 0.  1.
         11    1    4    4    0    0 -0.12485223581E+02  0.31648435300E+01 -0.38070008683E+02  0.40189832092E+02  0.00000000000E+00 0. -1.
        -12    1    4    4    0    0 -0.36082820254E+02  0.11764981132E+03 -0.22314739511E+02  0.12506556529E+03  0.00000000000E+00 0.  1.
</event>
<event>
12    1  0.8488291E-002  0.3714121E+03  0.7818608E-02  0.1054162E+00
         21   -1    0    0  503  502  0.00000000000E+00  0.00000000000E+00  0.53926742724E+03  0.53926742724E+03  0.00000000000E+00 0. -1.
         21   -1    0    0  501  503 -0.00000000000E+00 -0.00000000000E+00 -0.44389766845E+03  0.44389766845E+03  0.00000000000E+00 0.  1.
          6    2    1    2  501    0 -0.32802368660E+03  0.26613268441E+02 -0.27235887021E+03  0.46050715861E+03  0.17198745280E+03 0.  0.
         24    2    3    3    0    0 -0.19704288515E+03 -0.20418612185E+02 -0.97858901467E+02  0.23725775271E+03  0.86441068437E+02 0.  0.
         -6    2    1    2    0  502  0.32802368660E+03 -0.26613268441E+02  0.36772862900E+03  0.52265793707E+03  0.17216030196E+03 0.  0.
        -24    2    5    5    0    0  0.12410253868E+03  0.29889467867E+02  0.94871714324E+02  0.17733290227E+03  0.78431471045E+02 0.  0.
          5    1    3    3  501    0 -0.13098080146E+03  0.47031880626E+02 -0.17449996875E+03  0.22324940591E+03  0.47000000000E+01 0. -1.
        -13    1    4    4    0    0 -0.70520473241E+02 -0.18569576822E+02 -0.81993580177E+02  0.10973109641E+03  0.00000000000E+00 0.  1.
         14    1    4    4    0    0 -0.12652241190E+03 -0.18490353625E+01 -0.15865321290E+02  0.12752665629E+03  0.00000000000E+00 0. -1.
         -5    1    5    5    0  502  0.20392114792E+03 -0.56502736308E+02  0.27285691468E+03  0.34532503481E+03  0.47000000000E+01 0.  1.
         13    1    6    6    0    0  0.10689535978E+03  0.15357466219E+02  0.10676818945E+03  0.15186150265E+03  0.00000000000E+00 0. -1.
        -14    1    6    6    0    0  0.17207178906E+02  0.14532001648E+02 -0.11896475124E+02  0.25471399611E+02  0.00000000000E+00 0.  1.
</event>
<event>
12    1  0.8488291E-002  0.1779314E+03  0.7818608E-02  0.1170180E+00
         21   -1    0    0  501  502  0.00000000000E+00  0.00000000000E+00  0.36873572775E+03  0.36873572775E+03  0.00000000000E+00 0.  1.
         21   -1    0    0  502  503 -0.00000000000E+00 -0.00000000000E+00 -0.90733468238E+02  0.90733468238E+02  0.00000000000E+00 0.  1.
         -6    2    1    2    0  503  0.32141796163E+02  0.27697968516E+02  0.81512729451E+02  0.19438859515E+03  0.17129602547E+03 0.  0.
        -24    2    3    3    0    0  0.46496003918E+02  0.78992928694E+02  0.49303359021E+02  0.13196464331E+03  0.81130048132E+02 0.  0.
          6    2    1    2  501    0 -0.32141796163E+02 -0.27697968516E+02  0.19648953006E+03  0.26508060084E+03  0.17279848667E+03 0.  0.
         24    2    5    5    0    0 -0.32962003877E+02 -0.84229301922E+02  0.13551164906E+03  0.18179280840E+03  0.80648305333E+02 0.  0.
          5    1    5    5  501    0  0.82020771426E+00  0.56531333406E+02  0.60977881003E+02  0.83287792436E+02  0.47000000000E+01 0. -1.
        -11    1    6    6    0    0  0.12317666449E+02 -0.51665519635E+01 -0.50544294534E+01  0.14281646370E+02  0.00000000000E+00 0.  1.
         12    1    6    6    0    0 -0.45279670326E+02 -0.79062749958E+02  0.14056607851E+03  0.16751116203E+03  0.00000000000E+00 0. -1.
         -5    1    3    3    0  503 -0.14354207755E+02 -0.51294960178E+02  0.32209370429E+02  0.62423951841E+02  0.47000000000E+01 0.  1.
         13    1    4    4    0    0 -0.18440854965E+02  0.45099359191E+02  0.14287533996E+02  0.50775495655E+02  0.00000000000E+00 0. -1.
        -14    1    4    4    0    0  0.64936858883E+02  0.33893569504E+02  0.35015825025E+02  0.81189147659E+02  0.00000000000E+00 0.  1.
</event>
<event>
12    1  0.8488291E-002  0.1846335E+03  0.7818608E-02  0.1164615E+00
         21   -1    0    0  503  502  0.00000000000E+00  0.00000000000E+00  0.22383091964E+03  0.22383091964E+03  0.00000000000E+00 0.  1.
         21   -1    0    0  501  503 -0.00000000000E+00 -0.00000000000E+00 -0.25112250814E+03  0.25112250814E+03  0.00000000000E+00 0. -1.
          6    2    1    2  501    0 -0.45882768192E+02 -0.26389954373E+02 -0.16586560871E+03  0.24819531895E+03  0.17688374173E+03 0.  0.
         24    2    3    3    0    0 -0.28049714760E+02  0.90424197841E+01 -0.18664817456E+03  0.20316781651E+03  0.74639592337E+02 0.  0.
         -6    2    1    2    0  502  0.45882768192E+02  0.26389954373E+02  0.13857402021E+03  0.22675810882E+03  0.17150750051E+03 0.  0.
        -24    2    5    5    0    0 -0.25928080591E+02  0.43284652645E+02  0.11099588516E+03  0.14786024849E+03  0.83646518407E+02 0.  0.
          5    1    3    3  501    0 -0.17833053431E+02 -0.35432374157E+02  0.20782565849E+02  0.45027502444E+02  0.47000000000E+01 0. -1.
        -13    1    4    4    0    0 -0.87421822746E+01  0.20874506157E+02 -0.94439982855E+01  0.24522639781E+02  0.00000000000E+00 0.  1.
         14    1    4    4    0    0 -0.19307532486E+02 -0.11832086373E+02 -0.17720417627E+03  0.17864517673E+03  0.00000000000E+00 0. -1.
         -5    1    5    5    0  502  0.71810848783E+02 -0.16894698272E+02  0.27578135049E+02  0.78897860334E+02  0.47000000000E+01 0.  1.
         11    1    6    6    0    0  0.20046238347E+02  0.31367833052E+02  0.13837268124E+02  0.39714765659E+02  0.00000000000E+00 0. -1.
        -12    1    6    6    0    0 -0.45974318938E+02  0.11916819593E+02  0.97158617039E+02  0.10814548283E+03  0.00000000000E+00 0.  1.
</event>
<event>
12    1  0.8488291E-002  0.1873583E+03  0.7818608E-02  0.1161045E+00
         21   -1    0    0  501  502  0.00000000000E+00  0.00000000000E+00  0.72110449072E+03  0.72110449072E+03  0.00000000000E+00 0. -1.
         21   -1    0    0  502  503 -0.00000000000E+00 -0.00000000000E+00 -0.82927994887E+02  0.82927994887E+02  0.00000000000E+00 0. -1.
         -6    2    1    2    0  503 -0.55418905502E+02  0.45902185903E+02  0.60363922971E+02  0.19684237267E+03  0.17298800746E+03 0.  0.
        -24    2    3    3    0    0 -0.51125107103E+02  0.75475244483E+02 -0.88729564334E+01  0.12128552011E+03  0.79505716317E+02 0.  0.
          6    2    1    2  501    0  0.55418905502E+02 -0.45902185903E+02  0.57781257286E+03  0.60719011294E+03  0.17214586297E+03 0.  0.
         24    2    5    5    0    0  0.37692779045E+02 -0.94945913748E+01  0.69183025618E+02  0.96929557117E+02  0.55661073936E+02 0.  0.
          5    1    5    5  501    0  0.17726126456E+02 -0.36407594528E+02  0.50862954725E+03  0.51026055582E+03  0.47000000000E+01 0. -1.
        -13    1    6    6    0    0  0.41980237449E+02  0.11579564774E+02  0.32242531058E+02  0.54184937627E+02  0.00000000000E+00 0.  1.
         14    1    6    6    0    0 -0.42874584041E+01 -0.21074156149E+02  0.36940494561E+02  0.42744619490E+02  0.00000000000E+00 0. -1.
         -5    1    3    3    0  503 -0.42937983988E+01 -0.29573058581E+02  0.69236879405E+02  0.75556852556E+02  0.47000000000E+01 0.  1.
         11    1    4    4    0    0 -0.74770478387E+00  0.83769973447E+01 -0.32940253953E+02  0.33996962768E+02  0.00000000000E+00 0. -1.
        -12    1    4    4    0    0 -0.50377402319E+02  0.67098247139E+02  0.24067297519E+02  0.87288557345E+02  0.00000000000E+00 0.  1.
</event>
<event>
12    1  0.8488291E-002  0.2339973E+03  0.7818608E-02  0.1124544E+00
         21   -1    0    0  503  502  0.00000000000E+00  0.00000000000E+00  0.42352982437E+02  0.42352982437E+02  0.00000000000E+00 0.  1.
         21   -1    0    0  501  503 -0.00000000000E+00 -0.00000000000E+00 -0.21576389669E+04  0.21576389669E+04  0.00000000000E+00 0.  1.
          6    2    1    2  501    0  0.11783884050E+03  0.96416338381E+02 -0.17680405718E+04  0.17834579336E+04  0.17768690162E+03 0.  0.
         24    2    3    3    0    0  0.45965175591E+02 -0.17184394118E+02 -0.94131419556E+03  0.94586045200E+03  0.78558762246E+02 0.  0.
         -6    2    1    2    0  502 -0.11783884050E+03 -0.96416338381E+02 -0.34724541269E+03  0.41653401569E+03  0.17245030286E+03 0.  0.
        -24    2    5    5    0    0 -0.51586798683E+02 -0.29061623116E+02 -0.28985300206E+03  0.30589058159E+03  0.77772163158E+02 0.  0.
          5    1    3    3  501    0  0.71873664909E+02  0.11360073250E+03 -0.82672637619E+03  0.83759748162E+03  0.47000000000E+01 0. -1.
        -13    1    4    4    0    0  0.48613856050E+02 -0.81653068648E+01 -0.92929728537E+03  0.93060379530E+03  0.00000000000E+00 0.  1.
         14    1    4    4    0    0 -0.26486804589E+01 -0.90190872536E+01 -0.12016910193E+02  0.15256656700E+02  0.00000000000E+00 0. -1.
         -5    1    5    5    0  502 -0.66252041817E+02 -0.67354715265E+02 -0.57392410632E+02  0.11064343411E+03  0.47000000000E+01 0.  1.
         13    1    6    6    0    0 -0.26618619006E+02  0.16070305055E+02 -0.19902749255E+03  0.20144167486E+03  0.00000000000E+00 0. -1.
        -14    1    6    6    0    0 -0.24968179676E+02 -0.45131928172E+02 -0.90825509514E+02  0.10444890672E+03  0.00000000000E+00 0.  1.
</event>
<event>
12    1  0.8488291E-002  0.2174697E+03  0.7818608E-02  0.1135818E+00
         21   -1    0    0  501  502  0.00000000000E+00  0.00000000000E+00  0.88681842196E+03  0.88681842196E+03  0.00000000000E+00 0. -1.
         21   -1    0    0  502  503 -0.00000000000E+00 -0.00000000000E+00 -0.13670735637E+03  0.13670735637E+03  0.00000000000E+00 0. -1.
         -6    2    1    2    0  503  0.54405520698E+02 -0.12273283757E+03 -0.24657757208E+02  0.21886310265E+03  0.17108402207E+03 0.  0.
        -24    2    3    3    0    0 -0.21764378697E+02 -0.32323553077E+02 -0.44238547850E+02  0.98941504681E+02  0.79459876473E+02 0.  0.
          6    2    1    2  501    0 -0.54405520698E+02  0.12273283757E+03  0.77476882281E+03  0.80466267568E+03  0.17085661458E+03 0.  0.
         24    2    5    5    0    0  0.26943962760E+02  0.21721432275E+02  0.23237094138E+03  0.24695433413E+03  0.76107759133E+02 0.  0.
          5    1    5    5  501    0 -0.81349483458E+02  0.10101140529E+03  0.54239788143E+03  0.55770834156E+03  0.47000000000E+01 0. -1.
        -11    1    6    6    0    0 -0.10082372799E+02  0.15990892566E+02  0.98789666819E+01  0.21329717978E+02  0.00000000000E+00 0.  1.
         12    1    6    6    0    0  0.37026335559E+02  0.57305397090E+01  0.22249197469E+03  0.22562461615E+03  0.00000000000E+00 0. -1.
         -5    1    3    3    0  503  0.76169899395E+02 -0.90409284492E+02  0.19580790642E+02  0.11992159796E+03  0.47000000000E+01 0.  1.
         11    1    4    4    0    0  0.91494065195E+01  0.21569601634E+02 -0.24141958828E+02  0.33642139206E+02  0.00000000000E+00 0. -1.
        -12    1    4    4    0    0 -0.30913785216E+02 -0.53893154711E+02 -0.20096589021E+02  0.65299365475E+02  0.00000000000E+00 0.  1.
</event>
<event>
12    1  0.8488291E-002  0.1895142E+03  0.7818608E-02  0.1159198E+00
         21   -1    0    0  501  502  0.00000000000E+00  0.00000000000E+00  0.35992585086E+03  0.35992585086E+03  0.00000000000E+00 0. -1.
         21   -1    0    0  502  503 -0.00000000000E+00 -0.00000000000E+00 -0.35528066951E+03  0.35528066951E+03  0.00000000000E+00 0. -1.
         -6    2    1    2    0  503  0.57019637665E+02 -0.53909785214E+02 -0.30134186523E+03  0.35528472690E+03  0.17106377001E+03 0.  0.
        -24    2    3    3    0    0  0.77520245404E+02 -0.85246206072E+02 -0.27729153172E+03  0.31053257911E+03  0.79142814143E+02 0.  0.
          6    2    1    2  501    0 -0.57019637665E+02  0.53909785214E+02  0.30598704658E+03  0.35992179346E+03  0.17250542226E+03 0.  0.
         24    2    5    5    0    0 -0.66863931187E+02 -0.25627070467E+02  0.14458723766E+03  0.17965807041E+03  0.79019117534E+02 0.  0.
          5    1    5    5  501    0  0.98442935217E+01  0.79536855681E+02  0.16139980892E+03  0.18026372305E+03  0.47000000000E+01 0. -1.
        -13    1    6    6    0    0 -0.17060913689E+02 -0.45498836631E+02  0.94602717604E+02  0.10635268256E+03  0.00000000000E+00 0.  1.
         14    1    6    6    0    0 -0.49803017498E+02  0.19871766163E+02  0.49984520055E+02  0.73305387847E+02  0.00000000000E+00 0. -1.
         -5    1    3    3    0  503 -0.20500607738E+02  0.31336420859E+02 -0.24050333514E+02  0.44752147792E+02  0.47000000000E+01 0.  1.
         13    1    4    4    0    0 -0.60085744935E+01 -0.28736873332E+02 -0.12113744730E+03  0.12464426178E+03  0.00000000000E+00 0. -1.
        -14    1    4    4    0    0  0.83528819897E+02 -0.56509332740E+02 -0.15615408442E+03  0.18588831733E+03  0.00000000000E+00 0.  1.
</event>
<event>
12    1  0.8488291E-002  0.1831014E+03  0.7818608E-02  0.1165306E+00
         21   -1    0    0  501  502  0.00000000000E+00  0.00000000000E+00  0.12535642915E+03  0.12535642915E+03  0.00000000000E+00 0. -1.
         21   -1    0    0  502  503 -0.00000000000E+00 -0.00000000000E+00 -0.29319378753E+03  0.29319378753E+03  0.00000000000E+00 0. -1.
         -6    2    1    2    0  503 -0.24884611691E+02 -0.55330595696E+02 -0.14972513804E+03  0.23652426551E+03  0.17275819081E+03 0.  0.
        -24    2    3    3    0    0 -0.82487501314E+02 -0.23681847893E+02 -0.11566615828E+03  0.16234987483E+03  0.74925322103E+02 0.  0.
          6    2    1    2  501    0  0.24884611691E+02  0.55330595696E+02 -0.18112220347E+02  0.18202595118E+03  0.17065953140E+03 0.  0.
         24    2    5    5    0    0  0.46386690288E+02  0.47916941096E+02 -0.70419377623E+02  0.12479457551E+03  0.78530497591E+02 0.  0.
          5    1    5    5  501    0 -0.21502078597E+02  0.74136546007E+01  0.52307157276E+02  0.57231375668E+02  0.47000000000E+01 0. -1.
        -13    1    6    6    0    0 -0.20053798393E+02  0.51233546109E+01 -0.29987510317E+01  0.20914016836E+02  0.00000000000E+00 0.  1.
         14    1    6    6    0    0  0.66440488681E+02  0.42793586485E+02 -0.67420626591E+02  0.10388055867E+03  0.00000000000E+00 0. -1.
         -5    1    3    3    0  503  0.57602889623E+02 -0.31648747803E+02 -0.34058979758E+02  0.74174390679E+02  0.47000000000E+01 0.  1.
         13    1    4    4    0    0 -0.65281300139E+02 -0.44456192162E+02 -0.10892433923E+03  0.13454557907E+03  0.00000000000E+00 0. -1.
        -14    1    4    4    0    0 -0.17206201175E+02  0.20774344269E+02 -0.67418190512E+01  0.27804295762E+02  0.00000000000E+00 0.  1.
</event>
<event>
12    1  0.8488291E-002  0.2308639E+03  0.7818608E-02  0.1126094E+00
         21   -1    0    0  501  502  0.00000000000E+00  0.00000000000E+00  0.60143441160E+03  0.60143441160E+03  0.00000000000E+00 0.  1.
         21   -1    0    0  502  503 -0.00000000000E+00 -0.00000000000E+00 -0.10225875378E+03  0.10225875378E+03  0.00000000000E+00 0.  1.
         -6    2    1    2    0  503 -0.14959481281E+03  0.36391089506E+02  0.12061768543E+03  0.26047411719E+03  0.17203261398E+03 0.  0.
        -24    2    3    3    0    0 -0.12652265365E+03  0.63633292420E+02  0.32142918996E+02  0.16495272460E+03  0.78224397210E+02 0.  0.
          6    2    1    2  501    0  0.14959481281E+03 -0.36391089506E+02  0.37855797240E+03  0.44321904820E+03  0.17156359405E+03 0.  0.
         24    2    5    5    0    0  0.17032554387E+03 -0.24914144500E+02  0.25851799399E+03  0.32077244803E+03  0.80199156501E+02 0.  0.
          5    1    5    5  501    0 -0.20730731066E+02 -0.11476945006E+02  0.12003997841E+03  0.12244660017E+03  0.47000000000E+01 0. -1.
        -13    1    6    6    0    0  0.85157366408E+02  0.89371198082E+01  0.18291586976E+03  0.20196500829E+03  0.00000000000E+00 0.  1.
         14    1    6    6    0    0  0.85168177463E+02 -0.33851264308E+02  0.75602124229E+02  0.11880743973E+03  0.00000000000E+00 0. -1.
         -5    1    3    3    0  503 -0.23072159152E+02 -0.27242202914E+02  0.88474766429E+02  0.95521392590E+02  0.47000000000E+01 0.  1.
         11    1    4    4    0    0 -0.17997092346E+02  0.47796612852E+02  0.15721262551E+01  0.51096801407E+02  0.00000000000E+00 0. -1.
        -12    1    4    4    0    0 -0.10852556131E+03  0.15836679568E+02  0.30570792741E+02  0.11385592319E+03  0.00000000000E+00 0.  1.
</event>
<event>
12    1  0.8488291E-002  0.1807766E+03  0.7818608E-02  0.1167224E+00
         21   -1    0    0  501  502  0.00000000000E+00  0.00000000000E+00  0.63008224083E+02  0.63008224083E+02  0.00000000000E+00 0. -1.
         21   -1    0    0  502  503 -0.00000000000E+00 -0.00000000000E+00 -0.51819047183E+03  0.51819047183E+03  0.00000000000E+00 0. -1.
         -6    2    1    2    0  503 -0.89516226874E+01 -0.52625240439E+02 -0.24390382574E+03  0.30359387179E+03  0.17271541708E+03 0.  0.
        -24    2    3    3    0    0 -0.47192018610E+02  0.22027477987E+02 -0.14762685667E+03  0.17581789196E+03  0.80037153343E+02 0.  0.
          6    2    1    2  501    0  0.89516226874E+01  0.52625240439E+02 -0.21127842202E+03  0.27760482413E+03  0.17197767091E+03 0.  0.
         24    2    5    5    0    0  0.66501261827E+02  0.65480894279E+02 -0.14515362825E+03  0.18888161887E+03  0.76788832606E+02 0.  0.
          5    1    5    5  501    0 -0.57549639140E+02 -0.12855653840E+02 -0.66124793763E+02  0.88723205256E+02  0.47000000000E+01 0. -1.
        -13    1    6    6    0    0  0.76795125396E+01 -0.11299510246E+02  0.91459171757E+00  0.13692710567E+02  0.00000000000E+00 0.  1.
         14    1    6    6    0    0  0.58821749287E+02  0.76780404525E+02 -0.14606821997E+03  0.17518890831E+03  0.00000000000E+00 0. -1.
         -5    1    3    3    0  503  0.38240395922E+02 -0.74652718426E+02 -0.96276969062E+02  0.12777597983E+03  0.47000000000E+01 0.  1.
         13    1    4    4    0    0  0.88301493293E+01  0.24929674505E+02 -0.96012024704E+02  0.99587996746E+02  0.00000000000E+00 0. -1.
        -14    1    4    4    0    0 -0.56022167939E+02 -0.29021965172E+01 -0.51614831969E+02  0.76229895214E+02  0.00000000000E+00 0.  1.
</event>
<event>
12    1  0.8488291E-002  0.1993801E+03  0.7818608E-02  0.1150540E+00
         21   -1    0    0  503  502  0.00000000000E+00  0.00000000000E+00  0.83091749053E+02  0.83091749053E+02  0.00000000000E+00 0. -1.
         21   -1    0    0  501  503 -0.00000000000E+00 -0.00000000000E+00 -0.48216355189E+03  0.48216355189E+03  0.00000000000E+00 0.  1.
          6    2    1    2  501    0  0.60497531355E+02  0.76661434816E+02 -0.16516617820E+03  0.25790489801E+03  0.17233149192E+03 0.  0.
         24    2    3    3    0    0  0.14001155072E+02  0.52282706952E+02 -0.17916021555E+03  0.20336905236E+03  0.79568051584E+02 0.  0.
         -6    2    1    2    0  502 -0.60497531355E+02 -0.76661434816E+02 -0.23390562463E+03  0.30735040293E+03  0.17382606841E+03 0.  0.
        -24    2    5    5    0    0  0.22445803075E+02 -0.82064841124E+02 -0.13781108005E+03  0.18020857258E+03  0.79023943356E+02 0.  0.
          5    1    3    3  501    0  0.46496376282E+02  0.24378727864E+02  0.13994037343E+02  0.54535845650E+02  0.47000000000E+01 0. -1.
        -11    1    4    4    0    0 -0.21904235555E+02  0.42048990598E+02 -0.49932567664E+02  0.68856186789E+02  0.00000000000E+00 0.  1.
         12    1    4    4    0    0  0.35905390627E+02  0.10233716354E+02 -0.12922764788E+03  0.13451286557E+03  0.00000000000E+00 0. -1.
         -5    1    5    5    0  502 -0.82943334430E+02  0.54034063085E+01 -0.96094544586E+02  0.12714183035E+03  0.47000000000E+01 0.  1.
         11    1    6    6    0    0 -0.90574712224E+01 -0.24859594032E+01  0.71925757099E+01  0.11830085564E+02  0.00000000000E+00 0. -1.
        -12    1    6    6    0    0  0.31503274298E+02 -0.79578881721E+02 -0.14500365576E+03  0.16837848702E+03  0.00000000000E+00 0.  1.
</event>
<event>
12    1  0.8488291E-002  0.2095697E+03  0.7818608E-02  0.1143245E+00
         21   -1    0    0  503  502  0.00000000000E+00  0.00000000000E+00  0.16180987404E+03  0.16180987404E+03  0.00000000000E+00 0. -1.
         21   -1    0    0  501  503 -0.00000000000E+00 -0.00000000000E+00 -0.42976027958E+03  0.42976027958E+03  0.00000000000E+00 0. -1.
          6    2    1    2  501    0  0.86721140822E+02  0.64553482580E+02 -0.31694215762E+03  0.37635010254E+03  0.17175377733E+03 0.  0.
         24    2    3    3    0    0  0.16080095872E+02  0.62437770606E+02 -0.67781420509E+02  0.11731767912E+03  0.70795989897E+02 0.  0.
         -6    2    1    2    0  502 -0.86721140822E+02 -0.64553482580E+02  0.48991752080E+02  0.21522005108E+03  0.17953208693E+03 0.  0.
        -24    2    5    5    0    0 -0.80636009204E+02  0.15170503045E+02  0.54667816230E+02  0.13492527905E+03  0.92108363640E+02 0.  0.
          5    1    3    3  501    0  0.70641044950E+02  0.21157119743E+01 -0.24916073711E+03  0.25903242343E+03  0.47000000000E+01 0. -1.
        -13    1    4    4    0    0 -0.21195115208E+02  0.52876569159E+02 -0.45018850840E+02  0.72607585042E+02  0.00000000000E+00 0.  1.
         14    1    4    4    0    0  0.37275211080E+02  0.95612014471E+01 -0.22762569669E+02  0.44710094074E+02  0.00000000000E+00 0. -1.
         -5    1    5    5    0  502 -0.60851316177E+01 -0.79723985625E+02 -0.56760641502E+01  0.80294772028E+02  0.47000000000E+01 0.  1.
         11    1    6    6    0    0 -0.25900073172E+02 -0.33948553015E+02  0.42749054642E+02  0.60421847993E+02  0.00000000000E+00 0. -1.
        -12    1    6    6    0    0 -0.54735936032E+02  0.49119056060E+02  0.11918761588E+02  0.74503431058E+02  0.00000000000E+00 0.  1.
</event>
<event>
12    1  0.8488291E-002  0.1990875E+03  0.7818608E-02  0.1150594E+00
         21   -1    0    0  503  502  0.00000000000E+00  0.00000000000E+00  0.17269702426E+03  0.17269702426E+03  0.00000000000E+00 0.  1.
         21   -1    0    0  501  503 -0.00000000000E+00 -0.00000000000E+00 -0.29216508371E+03  0.29216508371E+03  0.00000000000E+00 0.  1.
          6    2    1    2  501    0  0.41396841680E+02 -0.90746983251E+02 -0.16770979332E+03  0.26001313205E+03  0.17184743405E+03 0.  0.
         24    2    3    3    0    0 -0.13042623778E+02 -0.55864849794E+02 -0.16854238951E+03  0.19518102696E+03  0.79988153777E+02 0.  0.
         -6    2    1    2    0  502 -0.41396841680E+02  0.90746983251E+02  0.48241733869E+02  0.20484897593E+03  0.17229951997E+03 0.  0.
        -24    2    5    5    0    0 -0.79123156734E+02  0.10671475952E+03  0.27434403670E+02  0.15866153482E+03  0.82294120660E+02 0.  0.
          5    1    3    3  501    0  0.54439465457E+02 -0.34882133457E+02  0.83259619138E+00  0.64832105088E+02  0.47000000000E+01 0. -1.
        -13    1    4    4    0    0  0.27318923703E+02  0.23030212213E+01 -0.53038248675E+02  0.59704968985E+02  0.00000000000E+00 0.  1.
         14    1    4    4    0    0 -0.40361547480E+02 -0.58167871015E+02 -0.11550414084E+03  0.13547605797E+03  0.00000000000E+00 0. -1.
         -5    1    5    5    0  502  0.37726315054E+02 -0.15967776265E+02  0.20807330199E+02  0.46187441112E+02  0.47000000000E+01 0.  1.
         11    1    6    6    0    0 -0.23445634798E+02  0.57115172139E+02 -0.25933004599E+02  0.66965374688E+02  0.00000000000E+00 0. -1.
        -12    1    6    6    0    0 -0.55677521935E+02  0.49599587377E+02  0.53367408269E+02  0.91696160127E+02  0.00000000000E+00 0.  1.
</event>
<event>
12    1  0.8488291E-002  0.1951984E+03  0.7818608E-02  0.1154837E+00
         21   -1    0    0  503  502  0.00000000000E+00  0.00000000000E+00  0.61720637019E+02  0.61720637019E+02  0.00000000000E+00 0.  1.
         21   -1    0    0  501  503 -0.00000000000E+00 -0.00000000000E+00 -0.94071604172E+03  0.94071604172E+03  0.00000000000E+00 0. -1.
          6    2    1    2  501    0 -0.27516638598E+02 -0.82052988740E+02 -0.74290955391E+03  0.76812564309E+03  0.17496439618E+03 0.  0.
         24    2    3    3    0    0 -0.28340861892E+01  0.17362894285E+02 -0.46634777668E+03  0.47316589530E+03  0.78078252575E+02 0.  0.
         -6    2    1    2    0  502  0.27516638598E+02  0.82052988740E+02 -0.13608585080E+03  0.23431103565E+03  0.16997777584E+03 0.  0.
        -24    2    5    5    0    0  0.61541516050E+02  0.10197076462E+03 -0.77954329689E+02  0.16391377840E+03  0.81273945380E+02 0.  0.
          5    1    3    3  501    0 -0.24682552409E+02 -0.99415883026E+02 -0.27656177723E+03  0.29495974779E+03  0.47000000000E+01 0. -1.
        -11    1    4    4    0    0  0.29795939144E+02 -0.13178867397E+02 -0.13819846934E+03  0.14198696230E+03  0.00000000000E+00 0.  1.
         12    1    4    4    0    0 -0.32630025334E+02  0.30541761682E+02 -0.32814930734E+03  0.33117893301E+03  0.00000000000E+00 0. -1.
         -5    1    5    5    0  502 -0.34024877452E+02 -0.19917775878E+02 -0.58131521107E+02  0.70397257246E+02  0.47000000000E+01 0.  1.
         13    1    6    6    0    0  0.32792931172E+02  0.60093370806E+02 -0.88647984975E+02  0.11200470878E+03  0.00000000000E+00 0. -1.
        -14    1    6    6    0    0  0.28748584878E+02  0.41877393813E+02  0.10693655286E+02  0.51909069617E+02  0.00000000000E+00 0.  1.
</event>
<event>
12    1  0.8488291E-002  0.1755961E+03  0.7818608E-02  0.1173923E+00
         21   -1    0    0  501  502  0.00000000000E+00  0.00000000000E+00  0.33400562193E+03  0.33400562193E+03  0.00000000000E+00 0. -1.
         21   -1    0    0  502  503 -0.00000000000E+00 -0.00000000000E+00 -0.89556460077E+02  0.89556460077E+02  0.00000000000E+00 0. -1.
         -6    2    1    2    0  503  0.29111594135E+02 -0.52183245429E+01  0.14080915635E+03  0.21966201521E+03  0.16598031989E+03 0.  0.
        -24    2    3    3    0    0  0.35761889914E+02 -0.62631914559E+02  0.11063891056E+03  0.15429474142E+03  0.79776119286E+02 0.  0.
          6    2    1    2  501    0 -0.29111594135E+02  0.52183245429E+01  0.10364000551E+03  0.20390006680E+03  0.17308746539E+03 0.  0.
         24    2    5    5    0    0  0.26041902326E+02  0.54063074988E+02  0.43831913465E+02  0.10889051100E+03  0.79592147821E+02 0.  0.
          5    1    5    5  501    0 -0.55153496461E+02 -0.48844750445E+02  0.59808092042E+02  0.95009555791E+02  0.47000000000E+01 0. -1.
        -13    1    6    6    0    0  0.10961920861E+02 -0.20400840715E+02  0.15184758032E+02  0.27693589282E+02  0.00000000000E+00 0.  1.
         14    1    6    6    0    0  0.15079981465E+02  0.74463915703E+02  0.28647155434E+02  0.81196921722E+02  0.00000000000E+00 0. -1.
         -5    1    3    3    0  503 -0.66502957783E+01  0.57413590016E+02  0.30170245790E+02  0.65367273796E+02  0.47000000000E+01 0.  1.
         13    1    4    4    0    0  0.48092039714E+01 -0.71844828493E+02  0.57651974562E+02  0.92241845141E+02  0.00000000000E+00 0. -1.
        -14    1    4    4    0    0  0.30952685942E+02  0.92129139343E+01  0.52986935996E+02  0.62052896278E+02  0.00000000000E+00 0.  1.
</event>
<event>
12    1  0.8488291E-002  0.1745628E+03  0.7818608E-02  0.1173183E+00
         21   -1    0    0  501  502  0.00000000000E+00  0.00000000000E+00  0.28795778187E+03  0.28795778187E+03  0.00000000000E+00 0. -1.
         21   -1    0    0  502  503 -0.00000000000E+00 -0.00000000000E+00 -0.17204230581E+03  0.17204230581E+03  0.00000000000E+00 0. -1.
         -6    2    1    2    0  503  0.18830293433E+02 -0.23334731572E+02 -0.84772102911E+02  0.19401575225E+03  0.17192065914E+03 0.  0.
        -24    2    3    3    0    0  0.10215176092E+02  0.87611081585E+01 -0.12016184813E+03  0.14524191457E+03  0.80468858345E+02 0.  0.
          6    2    1    2  501    0 -0.18830293433E+02  0.23334731572E+02  0.20068757897E+03  0.26598433543E+03  0.17196823164E+03 0.  0.
         24    2    5    5    0    0  0.36175850026E+02 -0.25716926738E+02  0.14785579200E+03  0.17518219495E+03  0.82809502801E+02 0.  0.
          5    1    5    5  501    0 -0.55006143460E+02  0.49051658310E+02  0.52831786967E+02  0.90802140478E+02  0.47000000000E+01 0. -1.
        -13    1    6    6    0    0 -0.80779659583E+01 -0.71871608372E+01 -0.71226217269E+01  0.12947608088E+02  0.00000000000E+00 0.  1.
         14    1    6    6    0    0  0.44253815985E+02 -0.18529765901E+02  0.15497841373E+03  0.16223458687E+03  0.00000000000E+00 0. -1.
         -5    1    3    3    0  503  0.86151173416E+01 -0.32095839731E+02  0.35389745221E+02  0.48773837676E+02  0.47000000000E+01 0.  1.
         11    1    4    4    0    0 -0.19195322897E+01 -0.11329621274E+02 -0.12120426048E+03  0.12174776253E+03  0.00000000000E+00 0. -1.
        -12    1    4    4    0    0  0.12134708381E+02  0.20090729433E+02  0.10424123492E+01  0.23494152041E+02  0.00000000000E+00 0.  1.
</event>
<event>
12    1  0.8488291E-002  0.1833570E+03  0.7818608E-02  0.1165094E+00
         21   -1    0    0  501  502  0.00000000000E+00  0.00000000000E+00  0.14397272013E+04  0.14397272013E+04  0.00000000000E+00 0.  1.
         21   -1    0    0  502  503 -0.00000000000E+00 -0.00000000000E+00 -0.25711162649E+02  0.25711162649E+02  0.00000000000E+00 0.  1.
         -6    2    1    2    0  503  0.42018117435E+02  0.44483609722E+02  0.94489197945E+03  0.96251786413E+03  0.17284522620E+03 0.  0.
        -24    2    3    3    0    0  0.80775225463E+02  0.64285409363E+02  0.81452418231E+03  0.82499667586E+03  0.80700809883E+02 0.  0.
          6    2    1    2  501    0 -0.42018117435E+02 -0.44483609722E+02  0.46912405923E+03  0.50292049984E+03  0.17060871164E+03 0.  0.
         24    2    5    5    0    0  0.17996519259E+02 -0.70453827409E+02  0.21586114817E+03  0.24130933620E+03  0.79665199091E+02 0.  0.
          5    1    5    5  501    0 -0.60014636694E+02  0.25970217686E+02  0.25326291106E+03  0.26161116365E+03  0.47000000000E+01 0. -1.
        -13    1    6    6    0    0 -0.25617569983E+02 -0.53792918129E+02  0.14114905550E+03  0.15320898734E+03  0.00000000000E+00 0.  1.
         14    1    6    6    0    0  0.43614089242E+02 -0.16660909280E+02  0.74712092665E+02  0.88100348857E+02  0.00000000000E+00 0. -1.
         -5    1    3    3    0  503 -0.38757108027E+02 -0.19801799640E+02  0.13036779714E+03  0.13752118827E+03  0.47000000000E+01 0.  1.
         13    1    4    4    0    0  0.40155701366E+02 -0.11571470090E+02  0.35829404249E+03  0.36072288555E+03  0.00000000000E+00 0. -1.
        -14    1    4    4    0    0  0.40619524096E+02  0.75856879452E+02  0.45623013982E+03  0.46427379032E+03  0.00000000000E+00 0.  1.
</event>
<event>
12    1  0.8488291E-002  0.2377129E+03  0.7818608E-02  0.1121335E+00
         21   -1    0    0  503  502  0.00000000000E+00  0.00000000000E+00  0.81304835959E+03  0.81304835959E+03  0.00000000000E+00 0.  1.
         21   -1    0    0  501  503 -0.00000000000E+00 -0.00000000000E+00 -0.14275199678E+03  0.14275199678E+03  0.00000000000E+00 0. -1.
          6    2    1    2  501    0  0.16311180714E+03  0.18084294625E+02 -0.72434722710E+01  0.23776996618E+03  0.17189992900E+03 0.  0.
         24    2    3    3    0    0  0.15924587647E+03  0.25515510442E+02  0.51464423009E+02  0.17828151893E+03  0.55905480143E+02 0.  0.
         -6    2    1    2    0  502 -0.16311180714E+03 -0.18084294625E+02  0.67753983508E+03  0.71803039019E+03  0.17197357288E+03 0.  0.
        -24    2    5    5    0    0 -0.14144679127E+03 -0.71160631148E+02  0.46160585074E+03  0.49456664368E+03  0.80281837385E+02 0.  0.
          5    1    3    3  501    0  0.38659306665E+01 -0.74312158170E+01 -0.58707895280E+02  0.59488447254E+02  0.47000000000E+01 0. -1.
        -11    1    4    4    0    0  0.93377157897E+02 -0.68874909799E+01  0.46931273259E+02  0.10473430937E+03  0.00000000000E+00 0.  1.
         12    1    4    4    0    0  0.65868718574E+02  0.32403001422E+02  0.45331497502E+01  0.73547209563E+02  0.00000000000E+00 0. -1.
         -5    1    5    5    0  502 -0.21665015872E+02  0.53076336523E+02  0.21593398434E+03  0.22346374651E+03  0.47000000000E+01 0.  1.
         11    1    6    6    0    0 -0.13701185847E+02 -0.21528637945E+02  0.17532687179E+03  0.17717425523E+03  0.00000000000E+00 0. -1.
        -12    1    6    6    0    0 -0.12774560542E+03 -0.49631993203E+02  0.28627897895E+03  0.31739238845E+03  0.00000000000E+00 0.  1.
</event>
<event>
12    1  0.8488291E-002  0.1918263E+03  0.7818608E-02  0.1156883E+00
         21   -1    0    0  501  502  0.00000000000E+00  0.00000000000E+00  0.33491486701E+03  0.33491486701E+03  0.00000000000E+00 0.  1.
         21   -1    0    0  502  503 -0.00000000000E+00 -0.00000000000E+00 -0.15528214433E+03  0.15528214433E+03  0.00000000000E+00 0. -1.
         -6    2    1    2    0  503 -0.82434229383E+01 -0.84718566265E+02 -0.42989729575E+02  0.19632953222E+03  0.17161578855E+03 0.  0.
        -24    2    3    3    0    0  0.45707054764E+02 -0.10375465299E+03 -0.27995445455E+02  0.13700040616E+03  0.71632418998E+02 0.  0.
          6    2    1    2  501    0  0.82434229383E+01  0.84718566265E+02  0.22262245226E+03  0.29386747912E+03  0.17190738653E+03 0.  0.
         24    2    5    5    0    0 -0.44958948575E+02  0.87751415477E+02  0.10234449838E+03  0.16222946524E+03  0.78245671246E+02 0.  0.
          5    1    5    5  501    0  0.53202371513E+02 -0.30328492120E+01  0.12027795388E+03  0.13163801388E+03  0.47000000000E+01 0.  1.
        -11    1    6    6    0    0 -0.41730384183E+02  0.16077275633E+02  0.71054958367E+02  0.83956601077E+02  0.00000000000E+00 0.  1.
         12    1    6    6    0    0 -0.32285643917E+01  0.71674139844E+02  0.31289540016E+02  0.78272864167E+02  0.00000000000E+00 0. -1.
         -5    1    3    3    0  503 -0.53950477702E+02  0.19036086721E+02 -0.14994284120E+02  0.59329126053E+02  0.47000000000E+01 0.  1.
         13    1    4    4    0    0  0.23124738953E+02 -0.56924402789E+02 -0.51283667373E+02  0.80032216786E+02  0.00000000000E+00 0. -1.
        -14    1    4    4    0    0  0.22582315811E+02 -0.46830250197E+02  0.23288221918E+02  0.56968189378E+02  0.00000000000E+00 0.  1.
</event>
<event>
12    1  0.8488291E-002  0.3413516E+03  0.7818608E-02  0.1066302E+00
         21   -1    0    0  503  502  0.00000000000E+00  0.00000000000E+00  0.11844420075E+03  0.11844420075E+03  0.00000000000E+00 0.  1.
         21   -1    0    0  501  503 -0.00000000000E+00 -0.00000000000E+00 -0.12127396262E+04  0.12127396262E+04  0.00000000000E+00 0. -1.
          6    2    1    2  501    0 -0.29356399937E+03 -0.22573433799E+02 -0.83822629978E+03  0.90506588974E+03  0.17271813308E+03 0.  0.
         24    2    3    3    0    0 -0.23214268440E+03 -0.42356671939E+02 -0.48731809002E+03  0.54824294188E+03  0.86064446111E+02 0.  0.
         -6    2    1    2    0  502  0.29356399937E+03  0.22573433799E+02 -0.25606912564E+03  0.42611793717E+03  0.17121833323E+03 0.  0.
        -24    2    5    5    0    0  0.13773307731E+03  0.65573396449E+02 -0.92496986742E+02  0.19609574763E+03  0.81409942727E+02 0.  0.
          5    1    3    3  501    0 -0.61421314977E+02  0.19783238139E+02 -0.35090820977E+03  0.35682294787E+03  0.47000000000E+01 0. -1.
        -11    1    4    4    0    0 -0.93796868173E+01  0.13527682445E+02 -0.69921705589E+02  0.71833290539E+02  0.00000000000E+00 0.  1.
         12    1    4    4    0    0 -0.22276299758E+03 -0.55884354384E+02 -0.41739638443E+03  0.47640965134E+03  0.00000000000E+00 0. -1.
         -5    1    5    5    0  502  0.15583092206E+03 -0.42999962649E+02 -0.16357213889E+03  0.23002218954E+03  0.47000000000E+01 0.  1.
         11    1    6    6    0    0  0.15864027623E+02 -0.29261639830E+01  0.13193280390E+02  0.20839684631E+02  0.00000000000E+00 0. -1.
        -12    1    6    6    0    0  0.12186904969E+03  0.68499560432E+02 -0.10569026713E+03  0.17525606300E+03  0.00000000000E+00 0.  1.
</event>
<event>
12    1  0.8488291E-002  0.1767890E+03  0.7818608E-02  0.1171210E+00
         21   -1    0    0  501  502  0.00000000000E+00  0.00000000000E+00  0.21235121476E+03  0.21235121476E+03  0.00000000000E+00 0. -1.
         21   -1    0    0  502  503 -0.00000000000E+00 -0.00000000000E+00 -0.14716969797E+03  0.14716969797E+03  0.00000000000E+00 0. -1.
         -6    2    1    2    0  503  0.96072720701E+01 -0.32874828803E+02  0.18698635879E+02  0.17672315709E+03  0.17236119408E+03 0.  0.
        -24    2    3    3    0    0  0.64846868640E+02  0.11637634855E+02  0.10349783501E+02  0.10513708452E+03  0.81278149620E+02 0.  0.
          6    2    1    2  501    0 -0.96072720701E+01  0.32874828803E+02  0.46482880906E+02  0.18279775564E+03  0.17343963562E+03 0.  0.
         24    2    5    5    0    0  0.28920425055E+02 -0.35648841111E+02  0.41351389456E+02  0.10387818272E+03  0.83507536057E+02 0.  0.
          5    1    5    5  501    0 -0.38527697125E+02  0.68523669914E+02  0.51314914499E+01  0.78919572913E+02  0.47000000000E+01 0. -1.
        -13    1    6    6    0    0  0.36416927743E+02  0.14533768150E+02  0.12923004194E+01  0.39231276849E+02  0.00000000000E+00 0.  1.
         14    1    6    6    0    0 -0.74965026877E+01 -0.50182609261E+02  0.40059089037E+02  0.64646905875E+02  0.00000000000E+00 0. -1.
         -5    1    3    3    0  503 -0.55239596570E+02 -0.44512463658E+02  0.83488523779E+01  0.71586072571E+02  0.47000000000E+01 0.  1.
         11    1    4    4    0    0  0.36267058287E+02 -0.10308333634E+02 -0.32056268022E+02  0.49489045036E+02  0.00000000000E+00 0. -1.
        -12    1    4    4    0    0  0.28579810353E+02  0.21945968489E+02  0.42406051523E+02  0.55648039485E+02  0.00000000000E+00 0.  1.
</event>
<event>
12    1  0.8488291E-002  0.2058887E+03  0.7818608E-02  0.1145241E+00
         21   -1    0    0  501  502  0.00000000000E+00  0.00000000000E+00  0.39063257865E+03  0.39063257865E+03  0.00000000000E+00 0.  1.
         21   -1    0    0  502  503 -0.00000000000E+00 -0.00000000000E+00 -0.12612228089E+03  0.12612228089E+03  0.00000000000E+00 0.  1.
         -6    2    1    2    0  503 -0.10365511666E+03 -0.46409162402E+02  0.23192806221E+03  0.31013028052E+03  0.17173226630E+03 0.  0.
        -24    2    3    3    0    0 -0.14044625743E+03 -0.24044307044E+02  0.18437687136E+03  0.24581091683E+03  0.78261716126E+02 0.  0.
          6    2    1    2  501    0  0.10365511666E+03  0.46409162402E+02  0.32582235546E+02  0.20662457902E+03  0.16951082861E+03 0.  0.
         24    2    5    5    0    0  0.37414873345E+02  0.32150545298E+02 -0.45645104473E+02  0.10302590758E+03  0.78085413238E+02 0.  0.
          5    1    5    5  501    0  0.66240243316E+02  0.14258617104E+02  0.78227340018E+02  0.10359867143E+03  0.47000000000E+01 0. -1.
        -13    1    6    6    0    0 -0.19823409346E+02  0.25248095368E+02 -0.50035958073E+01  0.32487995457E+02  0.00000000000E+00 0.  1.
         14    1    6    6    0    0  0.57238282691E+02  0.69024499301E+01 -0.40641508665E+02  0.70537912126E+02  0.00000000000E+00 0. -1.
         -5    1    3    3    0  503  0.36791140771E+02 -0.22364855358E+02  0.47551190849E+02  0.64319363690E+02  0.47000000000E+01 0.  1.
         13    1    4    4    0    0 -0.98627104826E+02  0.21122377260E+02  0.11958269997E+03  0.15644002928E+03  0.00000000000E+00 0. -1.
        -14    1    4    4    0    0 -0.41819152606E+02 -0.45166684304E+02  0.64794171392E+02  0.89370887553E+02  0.00000000000E+00 0.  1.
</event>
<event>
12    1  0.8488291E-002  0.3035294E+03  0.7818608E-02  0.1083651E+00
         21   -1    0    0  503  502  0.00000000000E+00  0.00000000000E+00  0.92308830377E+02  0.92308830377E+02  0.00000000000E+00 0. -1.
         21   -1    0    0  501  503 -0.00000000000E+00 -0.00000000000E+00 -0.12617016934E+04  0.12617016934E+04  0.00000000000E+00 0.  1.
          6    2    1    2  501    0  0.24727797724E+03 -0.38575590092E+02 -0.89568017827E+03  0.94529457190E+03  0.16942364578E+03 0.  0.
         24    2    3    3    0    0  0.66104720408E+02 -0.64471405987E+01 -0.47098279093E+03  0.48242747751E+03  0.80623086184E+02 0.  0.
         -6    2    1    2    0  502 -0.24727797724E+03  0.38575590092E+02 -0.27371268479E+03  0.40871595190E+03  0.17174289316E+03 0.  0.
        -24    2    5    5    0    0 -0.18813168309E+03  0.79297346218E+02 -0.25123648671E+03  0.33332487144E+03  0.79398352421E+02 0.  0.
          5    1    3    3  501    0  0.18117325683E+03 -0.32128449493E+02 -0.42469738734E+03  0.46286709439E+03  0.47000000000E+01 0. -1.
        -11    1    4    4    0    0  0.29302641548E+02  0.15207307695E+02 -0.54199441679E+02  0.63462480942E+02  0.00000000000E+00 0.  1.
         12    1    4    4    0    0  0.36802078860E+02 -0.21654448293E+02 -0.41678334925E+03  0.41896499657E+03  0.00000000000E+00 0. -1.
         -5    1    5    5    0  502 -0.59146294149E+02 -0.40721756126E+02 -0.22476198076E+02  0.75391080464E+02  0.47000000000E+01 0.  1.
         11    1    6    6    0    0 -0.18393384469E+03  0.86189342603E+02 -0.21332396855E+03  0.29456302816E+03  0.00000000000E+00 0. -1.
        -12    1    6    6    0    0 -0.41978384019E+01 -0.68919963846E+01 -0.37912518160E+02  0.38761843283E+02  0.00000000000E+00 0.  1.
</event>
<event>
12    1  0.8488291E-002  0.1985963E+03  0.7818608E-02  0.1151623E+00
         21   -1    0    0  503  502  0.00000000000E+00  0.00000000000E+00  0.85192928292E+02  0.85192928292E+02  0.00000000000E+00 0. -1.
         21   -1    0    0  501  503 -0.00000000000E+00 -0.00000000000E+00 -0.50688534265E+03  0.50688534265E+03  0.00000000000E+00 0. -1.
          6    2    1    2  501    0 -0.89854739733E+02 -0.23613153084E+02 -0.30670641746E+03  0.36538927184E+03  0.17552503588E+03 0.  0.
         24    2    3    3    0    0 -0.85578461092E+02  0.15131055984E+02 -0.99167552812E+02  0.15416931390E+03  0.79883364730E+02 0.  0.
         -6    2    1    2    0  502  0.89854739733E+02  0.23613153084E+02 -0.11498599690E+03  0.22668899909E+03  0.17185653196E+03 0.  0.
        -24    2    5    5    0    0  0.12916696050E+03  0.56063735411E+01 -0.83310675156E+02  0.17288276508E+03  0.78944580282E+02 0.  0.
          5    1    3    3  501    0 -0.42762786410E+01 -0.38744209068E+02 -0.20753886464E+03  0.21121995794E+03  0.47000000000E+01 0. -1.
        -11    1    4    4    0    0  0.33611204130E+01 -0.17920682222E+02 -0.19713948350E+01  0.18339421456E+02  0.00000000000E+00 0.  1.
         12    1    4    4    0    0 -0.88939581505E+02  0.33051738206E+02 -0.97196157977E+02  0.13582989245E+03  0.00000000000E+00 0. -1.
         -5    1    5    5    0  502 -0.39312220771E+02  0.18006779543E+02 -0.31675321742E+02  0.53806234015E+02  0.47000000000E+01 0.  1.
         13    1    6    6    0    0  0.51063665057E+02  0.15913966014E+02  0.59649880809E+01  0.53817592720E+02  0.00000000000E+00 0. -1.
        -14    1    6    6    0    0  0.78103295447E+02 -0.10307592473E+02 -0.89275663237E+02  0.11906517236E+03  0.00000000000E+00 0.  1.
</event>
<event>
12    1  0.8488291E-002  0.1996561E+03  0.7818608E-02  0.1150423E+00
         21   -1    0    0  501  502  0.00000000000E+00  0.00000000000E+00  0.11316663401E+03  0.11316663401E+03  0.00000000000E+00 0. -1.
         21   -1    0    0  502  503 -0.00000000000E+00 -0.00000000000E+00 -0.36179231797E+03  0.36179231797E+03  0.00000000000E+00 0.  1.
         -6    2    1    2    0  503  0.98647236000E+02 -0.31553272344E+01 -0.16843187772E+03  0.25979944012E+03  0.17142117253E+03 0.  0.
        -24    2    3    3    0    0 -0.80115868074E+00 -0.38055174312E+02 -0.10172625501E+03  0.13498072104E+03  0.80141911304E+02 0.  0.
          6    2    1    2  501    0 -0.98647236000E+02  0.31553272344E+01 -0.80193806245E+02  0.21515951186E+03  0.17355499337E+03 0.  0.
         24    2    5    5    0    0 -0.64356950308E+02 -0.61232098793E+02 -0.22702894689E+02  0.12216026866E+03  0.80724982734E+02 0.  0.
          5    1    5    5  501    0 -0.34290285691E+02  0.64387426027E+02 -0.57490911555E+02  0.92999243194E+02  0.47000000000E+01 0. -1.
        -13    1    6    6    0    0 -0.57732317466E+02 -0.30975603869E+01 -0.26347987627E+02  0.63536067020E+02  0.00000000000E+00 0.  1.
         14    1    6    6    0    0 -0.66246328422E+01 -0.58134538406E+02  0.36450929376E+01  0.58624201645E+02  0.00000000000E+00 0. -1.
         -5    1    3    3    0  503  0.99448394680E+02  0.34899847077E+02 -0.66705622708E+02  0.12481871907E+03  0.47000000000E+01 0.  1.
         13    1    4    4    0    0  0.18388214574E+02 -0.27122528591E+02 -0.19901228645E+01  0.32828624421E+02  0.00000000000E+00 0. -1.
        -14    1    4    4    0    0 -0.19189373254E+02 -0.10932645721E+02 -0.99736132150E+02  0.10215209662E+03  0.00000000000E+00 0.  1.
</event>
<event>
12    1  0.8488291E-002  0.2567591E+03  0.7818608E-02  0.1109314E+00
         21   -1    0    0  503  502  0.00000000000E+00  0.00000000000E+00  0.43069028284E+03  0.43069028284E+03  0.00000000000E+00 0. -1.
         21   -1    0    0  501  503 -0.00000000000E+00 -0.00000000000E+00 -0.44750046346E+03  0.44750046346E+03  0.00000000000E+00 0.  1.
          6    2    1    2  501    0  0.79306763235E+02  0.17348856366E+03 -0.36506737601E+03  0.44631764673E+03  0.17186450576E+03 0.  0.
         24    2    3    3    0    0  0.11236258202E+03  0.16293453644E+03 -0.34646764386E+03  0.40666774531E+03  0.78522696325E+02 0.  0.
         -6    2    1    2    0  502 -0.79306763235E+02 -0.17348856366E+03  0.34825719539E+03  0.43187309957E+03  0.16983361145E+03 0.  0.
        -24    2    5    5    0    0 -0.55911311326E+02 -0.19766399625E+03  0.29044098021E+03  0.36481638143E+03  0.80857275629E+02 0.  0.
          5    1    3    3  501    0 -0.33055818783E+02  0.10554027224E+02 -0.18599732152E+02  0.39649901415E+02  0.47000000000E+01 0. -1.
        -13    1    4    4    0    0  0.53884181921E+02  0.14016566162E+03 -0.24271804240E+03  0.28541542682E+03  0.00000000000E+00 0.  1.
         14    1    4    4    0    0  0.58478400097E+02  0.22768874812E+02 -0.10374960146E+03  0.12125231849E+03  0.00000000000E+00 0. -1.
         -5    1    5    5    0  502 -0.23395451908E+02  0.24175432590E+02  0.57816215177E+02  0.67056718145E+02  0.47000000000E+01 0.  1.
         13    1    6    6    0    0 -0.56150030222E+02 -0.11347134657E+03  0.11868922304E+03  0.17353876815E+03  0.00000000000E+00 0. -1.
        -14    1    6    6    0    0  0.23871889564E+00 -0.84192649675E+02  0.17175175718E+03  0.19127761327E+03  0.00000000000E+00 0.  1.
</event>
<event>
12    1  0.8488291E-002  0.2032435E+03  0.7818608E-02  0.1147456E+00
         21   -1    0    0  501  502  0.00000000000E+00  0.00000000000E+00  0.27045547509E+03  0.27045547509E+03  0.00000000000E+00 0.  1.
         21   -1    0    0  502  503 -0.00000000000E+00 -0.00000000000E+00 -0.15168567935E+03  0.15168567935E+03  0.00000000000E+00 0.  1.
         -6    2    1    2    0  503 -0.63009542618E+02  0.84742479224E+02  0.71023746416E+02  0.21336475165E+03  0.17125610776E+03 0.  0.
        -24    2    3    3    0    0 -0.10043171408E+03  0.94464852663E+02  0.71246509597E+02  0.17441500087E+03  0.79588879981E+02 0.  0.
          6    2    1    2  501    0  0.63009542618E+02 -0.84742479224E+02  0.47746049320E+02  0.20877640279E+03  0.17365601311E+03 0.  0.
         24    2    5    5    0    0  0.50120913160E+02  0.78816847730E+01 -0.20762204905E+02  0.92755614038E+02  0.74821841011E+02 0.  0.
          5    1    5    5  501    0  0.12888629458E+02 -0.92624163997E+02  0.68508254225E+02  0.11602078875E+03  0.47000000000E+01 0. -1.
        -13    1    6    6    0    0  0.63256332001E+02 -0.10905731694E+02 -0.25975914145E+02  0.69246275262E+02  0.00000000000E+00 0.  1.
         14    1    6    6    0    0 -0.13135418842E+02  0.18787416467E+02  0.52137092400E+01  0.23509338776E+02  0.00000000000E+00 0. -1.
         -5    1    3    3    0  503  0.37422171464E+02 -0.97223734394E+01 -0.22276318053E+00  0.38949750780E+02  0.47000000000E+01 0.  1.
         13    1    4    4    0    0 -0.88777823590E+02  0.57852705728E+02  0.16065771031E+02  0.10717530742E+03  0.00000000000E+00 0. -1.
        -14    1    4    4    0    0 -0.11653890491E+02  0.36612146935E+02  0.55180738565E+02  0.67239693451E+02  0.00000000000E+00 0.  1.
</event>
<event>
12    1  0.8488291E-002  0.1760216E+03  0.7818608E-02  0.1172409E+00
         21   -1    0    0  501  502  0.00000000000E+00  0.00000000000E+00  0.45953088005E+02  0.45953088005E+02  0.00000000000E+00 0.  1.
         21   -1    0    0  502  503 -0.00000000000E+00 -0.00000000000E+00 -0.95606842963E+03  0.95606842963E+03  0.00000000000E+00 0.  1.
         -6    2    1    2    0  503  0.17054916751E+02  0.20220935909E+02 -0.72962536743E+03  0.74990999225E+03  0.17120766122E+03 0.  0.
        -24    2    3    3    0    0  0.51755891828E+02  0.28851855213E+02 -0.69243174192E+03  0.69810163176E+03  0.66129185336E+02 0.  0.
          6    2    1    2  501    0 -0.17054916751E+02 -0.20220935909E+02 -0.18048997420E+03  0.25211152538E+03  0.17402251006E+03 0.  0.
         24    2    5    5    0    0  0.26154962231E+02 -0.28369088346E+02 -0.27559279522E+02  0.92915503431E+02  0.79905504611E+02 0.  0.
          5    1    5    5  501    0 -0.43209878982E+02  0.81481524361E+01 -0.15293069468E+03  0.15919602195E+03  0.47000000000E+01 0. -1.
        -13    1    6    6    0    0  0.24341117389E+02  0.21066077278E+02  0.65196532104E+01  0.32844717773E+02  0.00000000000E+00 0.  1.
         14    1    6    6    0    0  0.18138448420E+01 -0.49435165624E+02 -0.34078932732E+02  0.60070785658E+02  0.00000000000E+00 0. -1.
         -5    1    3    3    0  503 -0.34700975077E+02 -0.86309193037E+01 -0.37193625501E+02  0.51808360495E+02  0.47000000000E+01 0.  1.
         13    1    4    4    0    0  0.28181894772E+02 -0.11550206850E+02 -0.46014488159E+03  0.46115175216E+03  0.00000000000E+00 0. -1.
        -14    1    4    4    0    0  0.23573997055E+02  0.40402062063E+02 -0.23228686034E+03  0.23694987960E+03  0.00000000000E+00 0.  1.
</event>
<event>
12    1  0.8488291E-002  0.1944365E+03  0.7818608E-02  0.1154634E+00
         21   -1    0    0  501  502  0.00000000000E+00  0.00000000000E+00  0.34029710894E+03  0.34029710894E+03  0.00000000000E+00 0.  1.
         21   -1    0    0  502  503 -0.00000000000E+00 -0.00000000000E+00 -0.12775205740E+03  0.12775205740E+03  0.00000000000E+00 0.  1.
         -6    2    1    2    0  503 -0.14214095586E+02 -0.87880569571E+02  0.20894127373E+02  0.19503705900E+03  0.17227261769E+03 0.  0.
        -24    2    3    3    0    0  0.93970104612E+01 -0.10662919985E+03  0.58474769745E+02  0.14662848386E+03  0.81378888640E+02 0.  0.
          6    2    1    2  501    0  0.14214095586E+02  0.87880569571E+02  0.19165092417E+03  0.27301210734E+03  0.17285976685E+03 0.  0.
         24    2    5    5    0    0  0.50550885789E+02  0.41506956587E+02  0.87544903081E+02  0.15329983591E+03  0.10751051175E+03 0.  0.
          5    1    5    5  501    0 -0.36336790202E+02  0.46373612984E+02  0.10410602109E+03  0.11971227143E+03  0.47000000000E+01 0. -1.
        -13    1    6    6    0    0  0.62859550377E+01  0.50146009094E+02  0.94982163392E+02  0.10759064467E+03  0.00000000000E+00 0.  1.
         14    1    6    6    0    0  0.44264930751E+02 -0.86390525063E+01 -0.74372603115E+01  0.45709191237E+02  0.00000000000E+00 0. -1.
         -5    1    3    3    0  503 -0.23611106047E+02  0.18748630280E+02 -0.37580642371E+02  0.48408575141E+02  0.47000000000E+01 0.  1.
         11    1    4    4    0    0  0.38890169660E+02 -0.80410238289E+02  0.20038869988E+02  0.91541291384E+02  0.00000000000E+00 0. -1.
        -12    1    4    4    0    0 -0.29493159199E+02 -0.26218961562E+02  0.38435899757E+02  0.55087192477E+02  0.00000000000E+00 0.  1.
</event>
<event>
12    1  0.8488291E-002  0.2031375E+03  0.7818608E-02  0.1147199E+00
         21   -1    0    0  503  502  0.00000000000E+00  0.00000000000E+00  0.75207832587E+03  0.75207832587E+03  0.00000000000E+00 0. -1.
         21   -1    0    0  501  503 -0.00000000000E+00 -0.00000000000E+00 -0.99476158938E+03  0.99476158938E+03  0.00000000000E+00 0.  1.
          6    2    1    2  501    0 -0.58648144582E+02  0.90453631094E+02 -0.97037356925E+03  0.99132814243E+03  0.17171242768E+03 0.  0.
         24    2    3    3    0    0  0.22611655362E+02  0.33186891152E+02 -0.64295581627E+03  0.64911898189E+03  0.79690741391E+02 0.  0.
         -6    2    1    2    0  502  0.58648144582E+02 -0.90453631094E+02  0.72769030574E+03  0.75551177283E+03  0.17217256917E+03 0.  0.
        -24    2    5    5    0    0  0.25320202883E+02 -0.48764800972E+02  0.66949772011E+03  0.67640945126E+03  0.79268089639E+02 0.  0.
          5    1    3    3  501    0 -0.81259799944E+02  0.57266739943E+02 -0.32741775298E+03  0.34220916054E+03  0.47000000000E+01 0. -1.
        -13    1    4    4    0    0 -0.74709296446E+01  0.52789557479E+02 -0.39017027086E+03  0.39379613054E+03  0.00000000000E+00 0.  1.
         14    1    4    4    0    0  0.30082585007E+02 -0.19602666327E+02 -0.25278554542E+03  0.25532285134E+03  0.00000000000E+00 0. -1.
         -5    1    5    5    0  502  0.33327941699E+02 -0.41688830123E+02  0.58192585625E+02  0.79102321562E+02  0.47000000000E+01 0.  1.
         13    1    6    6    0    0  0.34921344281E+02 -0.66632117456E+02  0.48493050138E+03  0.49073101647E+03  0.00000000000E+00 0. -1.
        -14    1    6    6    0    0 -0.96011413975E+01  0.17867316484E+02  0.18456721873E+03  0.18567843479E+03  0.00000000000E+00 0.  1.
</event>
<event>
12    1  0.8488291E-002  0.1817199E+03  0.7818608E-02  0.1166254E+00
         21   -1    0    0  503  502  0.00000000000E+00  0.00000000000E+00  0.22028000202E+03  0.22028000202E+03  0.00000000000E+00 0. -1.
         21   -1    0    0  501  503 -0.00000000000E+00 -0.00000000000E+00 -0.14971413129E+03  0.14971413129E+03  0.00000000000E+00 0. -1.
          6    2    1    2  501    0  0.28201324176E+02  0.50011758316E+02  0.29043018207E+02  0.18359065609E+03  0.17194633302E+03 0.  0.
         24    2    3    3    0    0  0.19300807772E+02 -0.11786720979E+02 -0.39013518772E+02  0.91113342863E+02  0.79171577151E+02 0.  0.
         -6    2    1    2    0  502 -0.28201324176E+02 -0.50011758316E+02  0.41522852525E+02  0.18640347723E+03  0.17241118985E+03 0.  0.
        -24    2    5    5    0    0  0.39463608490E+02 -0.87973286670E+01  0.39197383664E+02  0.10700152430E+03  0.90984185051E+02 0.  0.
          5    1    3    3  501    0  0.89005164042E+01  0.61798479295E+02  0.68056536979E+02  0.92477313224E+02  0.47000000000E+01 0. -1.
        -13    1    4    4    0    0  0.44073799470E+02 -0.79277343443E+01 -0.50982594020E-01  0.44781149726E+02  0.00000000000E+00 0.  1.
         14    1    4    4    0    0 -0.24772991697E+02 -0.38589866348E+01 -0.38962536178E+02  0.46332193137E+02  0.00000000000E+00 0. -1.
         -5    1    5    5    0  502 -0.67664932666E+02 -0.41214429649E+02  0.23254688615E+01  0.79401952932E+02  0.47000000000E+01 0.  1.
         13    1    6    6    0    0  0.20101149204E+02  0.26351741626E+02  0.54720028673E+02  0.63974620155E+02  0.00000000000E+00 0. -1.
        -14    1    6    6    0    0  0.19362459286E+02 -0.35149070293E+02 -0.15522645009E+02  0.43026904143E+02  0.00000000000E+00 0.  1.
</event>
<event>
12    1  0.8488291E-002  0.3766787E+03  0.7818608E-02  0.1052230E+00
         21   -1    0    0  503  502  0.00000000000E+00  0.00000000000E+00  0.33921447600E+03  0.33921447600E+03  0.00000000000E+00 0. -1.
         21   -1    0    0  501  503 -0.00000000000E+00 -0.00000000000E+00 -0.42339213474E+03  0.42339213474E+03  0.00000000000E+00 0. -1.
          6    2    1    2  501    0  0.33469637193E+03 -0.15660440110E+02  0.26897206858E+01  0.37668831501E+03  0.17210444881E+03 0.  0.
         24    2    3    3    0    0  0.16139491091E+03 -0.62812838665E+02  0.33154460008E+02  0.19446061288E+03  0.81987448886E+02 0.  0.
         -6    2    1    2    0  502 -0.33469637193E+03  0.15660440110E+02 -0.86867379417E+02  0.38591829573E+03  0.17064606238E+03 0.  0.
        -24    2    5    5    0    0 -0.34540343948E+03  0.27886238143E+02 -0.76334472697E+02  0.36598983475E+03  0.89668440010E+02 0.  0.
          5    1    3    3  501    0  0.17330146102E+03  0.47152398555E+02 -0.30464739322E+02  0.18222770213E+03  0.47000000000E+01 0. -1.
        -13    1    4    4    0    0  0.14991405334E+03 -0.25922755923E+02  0.33677926586E+02  0.15582174239E+03  0.00000000000E+00 0.  1.
         14    1    4    4    0    0  0.11480857568E+02 -0.36890082742E+02 -0.52346657763E+00  0.38638870486E+02  0.00000000000E+00 0. -1.
         -5    1    5    5    0  502  0.10707067552E+02 -0.12225798033E+02 -0.10532906720E+02  0.19928460981E+02  0.47000000000E+01 0.  1.
         13    1    6    6    0    0 -0.32869435476E+03  0.40846938633E+01 -0.72904797427E+02  0.33670725128E+03  0.00000000000E+00 0. -1.
        -14    1    6    6    0    0 -0.16709084724E+02  0.23801544279E+02 -0.34296752698E+01  0.29282583473E+02  0.00000000000E+00 0.  1.
</event>
<event>
12    1  0.8488291E-002  0.2049311E+03  0.7818608E-02  0.1145668E+00
         21   -1    0    0  501  502  0.00000000000E+00  0.00000000000E+00  0.13008249159E+03  0.13008249159E+03  0.00000000000E+00 0.  1.
         21   -1    0    0  502  503 -0.00000000000E+00 -0.00000000000E+00 -0.32297972994E+03  0.32297972994E+03  0.00000000000E+00 0. -1.
         -6    2    1    2    0  503 -0.80807606432E+02  0.75887836724E+02 -0.89361135603E+02  0.22356696316E+03  0.17235991832E+03 0.  0.
        -24    2    3    3    0    0 -0.26937828462E+02  0.80573154632E+02 -0.10935623816E+03  0.16572407848E+03  0.91038472717E+02 0.  0.
          6    2    1    2  501    0  0.80807606432E+02 -0.75887836724E+02 -0.10353610275E+03  0.22949525836E+03  0.17221938340E+03 0.  0.
         24    2    5    5    0    0  0.12172237036E+03 -0.42898624243E+02 -0.72778580574E+02  0.16841808408E+03  0.80070605391E+02 0.  0.
          5    1    5    5  501    0 -0.40914763928E+02 -0.32989212481E+02 -0.30757522174E+02  0.61077174277E+02  0.47000000000E+01 0. -1.
        -11    1    6    6    0    0  0.23736220768E+02 -0.32911012244E+02 -0.54974245670E+02  0.68327963458E+02  0.00000000000E+00 0.  1.
         12    1    6    6    0    0  0.97986149592E+02 -0.99876119991E+01 -0.17804334903E+02  0.10009012062E+03  0.00000000000E+00 0. -1.
         -5    1    3    3    0  503 -0.53869777970E+02 -0.46853179087E+01  0.19995102554E+02  0.57842884684E+02  0.47000000000E+01 0.  1.
         11    1    4    4    0    0  0.16964713618E+02  0.66403454943E+02 -0.31959707507E+02  0.75621711436E+02  0.00000000000E+00 0. -1.
        -12    1    4    4    0    0 -0.43902542079E+02  0.14169699689E+02 -0.77396530651E+02  0.90102367045E+02  0.00000000000E+00 0.  1.
</event>
<event>
12    1  0.8488291E-002  0.1963719E+03  0.7818608E-02  0.1152986E+00
         21   -1    0    0  501  502  0.00000000000E+00  0.00000000000E+00  0.18428167168E+04  0.18428167168E+04  0.00000000000E+00 0.  1.
         21   -1    0    0  502  503 -0.00000000000E+00 -0.00000000000E+00 -0.21390659444E+02  0.21390659444E+02  0.00000000000E+00 0. -1.
         -6    2    1    2    0  503 -0.42807473573E+02 -0.84993544178E+02  0.76128113542E+03  0.78602874013E+03  0.17098488477E+03 0.  0.
        -24    2    3    3    0    0 -0.14361031632E+02 -0.37119667653E+02  0.68910721824E+03  0.69474745819E+03  0.78874352397E+02 0.  0.
          6    2    1    2  501    0  0.42807473573E+02  0.84993544178E+02  0.10601449220E+04  0.10781786361E+04  0.17177174832E+03 0.  0.
         24    2    5    5    0    0  0.71099870403E+02  0.11336507973E+03  0.82470041460E+03  0.83930291575E+03  0.79948593856E+02 0.  0.
          5    1    5    5  501    0 -0.28292396831E+02 -0.28371535553E+02  0.23544450736E+03  0.23887572040E+03  0.47000000000E+01 0. -1.
        -11    1    6    6    0    0  0.36077058280E+01  0.41021155147E+02  0.44580656641E+03  0.44770441741E+03  0.00000000000E+00 0.  1.
         12    1    6    6    0    0  0.67492164575E+02  0.72343924583E+02  0.37889384819E+03  0.39159849834E+03  0.00000000000E+00 0. -1.
         -5    1    3    3    0  503 -0.28446441940E+02 -0.47873876524E+02  0.72173917171E+02  0.91281281938E+02  0.47000000000E+01 0.  1.
         11    1    4    4    0    0 -0.11205011642E+02 -0.55932617465E+02  0.31292243990E+03  0.31807933504E+03  0.00000000000E+00 0. -1.
        -12    1    4    4    0    0 -0.31560199906E+01  0.18812949812E+02  0.37618477834E+03  0.37666812315E+03  0.00000000000E+00 0.  1.
</event>
<event>
12    1  0.8488291E-002  0.2653663E+03  0.7818608E-02  0.1104100E+00
         21   -1    0    0  501  502  0.00000000000E+00  0.00000000000E+00  0.24402228049E+03  0.24402228049E+03  0.00000000000E+00 0.  1.
         21   -1    0    0  502  503 -0.00000000000E+00 -0.00000000000E+00 -0.69869009581E+03  0.69869009581E+03  0.00000000000E+00 0.  1.
         -6    2    1    2    0  503  0.20025999772E+03 -0.16808647831E+02 -0.58874420447E+03  0.64539814757E+03  0.17185003131E+03 0.  0.
        -24    2    3    3    0    0  0.21195744855E+02  0.75376266896E+01 -0.19571708466E+03  0.21279075669E+03  0.80427939730E+02 0.  0.
          6    2    1    2  501    0 -0.20025999772E+03  0.16808647831E+02  0.13407638915E+03  0.29731422873E+03  0.17329938011E+03 0.  0.
         24    2    5    5    0    0 -0.73178792834E+02 -0.16642843100E+02  0.13846471999E+03  0.16574682270E+03  0.51646980616E+02 0.  0.
          5    1    5    5  501    0 -0.12708120489E+03  0.33451490931E+02 -0.43883308365E+01  0.13156740603E+03  0.47000000000E+01 0. -1.
        -11    1    6    6    0    0 -0.17521859301E+02  0.17689484590E+02  0.48602898713E+02  0.54609295745E+02  0.00000000000E+00 0.  1.
         12    1    6    6    0    0 -0.55656933532E+02 -0.34332327690E+02  0.89861821275E+02  0.11113752696E+03  0.00000000000E+00 0. -1.
         -5    1    3    3    0  503  0.17906425287E+03 -0.24346274520E+02 -0.39302711981E+03  0.43260739088E+03  0.47000000000E+01 0.  1.
         11    1    4    4    0    0  0.71438765941E+00  0.11145278902E+02 -0.19117873441E+03  0.19150466334E+03  0.00000000000E+00 0. -1.
        -12    1    4    4    0    0  0.20481357195E+02 -0.36076522121E+01 -0.45383502508E+01  0.21286093349E+02  0.00000000000E+00 0.  1.
</event>
<event>
12    1  0.8488291E-002  0.1811635E+03  0.7818608E-02  0.1167377E+00
         21   -1    0    0  503  502  0.00000000000E+00  0.00000000000E+00  0.21874119937E+02  0.21874119937E+02  0.00000000000E+00 0.  1.
         21   -1    0    0  501  503 -0.00000000000E+00 -0.00000000000E+00 -0.19051143934E+04  0.19051143934E+04  0.00000000000E+00 0.  1.
          6    2    1    2  501    0 -0.36027511348E+02  0.32617500496E+02 -0.13926687163E+04  0.14040347348E+04  0.17153862565E+03 0.  0.
         24    2    3    3    0    0 -0.82414638251E+02  0.40223194768E+02 -0.76862005156E+03  0.77820054097E+03  0.80057606224E+02 0.  0.
         -6    2    1    2    0  502  0.36027511348E+02 -0.32617500496E+02 -0.49057155718E+03  0.52295377862E+03  0.17452311863E+03 0.  0.
        -24    2    5    5    0    0 -0.22502507010E+02 -0.57111339198E+02 -0.40149032344E+03  0.41348566732E+03  0.77510317918E+02 0.  0.
          5    1    3    3  501    0  0.46387126903E+02 -0.76056942719E+01 -0.62404866477E+03  0.62583419380E+03  0.47000000000E+01 0. -1.
        -11    1    4    4    0    0 -0.47068606712E+02  0.21865179880E+02 -0.66756988918E+03  0.66958427160E+03  0.00000000000E+00 0.  1.
         12    1    4    4    0    0 -0.35346031539E+02  0.18358014888E+02 -0.10105016238E+03  0.10861626937E+03  0.00000000000E+00 0. -1.
         -5    1    5    5    0  502  0.58530018359E+02  0.24493838702E+02 -0.89081233749E+02  0.10946811129E+03  0.47000000000E+01 0.  1.
         13    1    6    6    0    0 -0.23510253463E+02 -0.75564389460E+02 -0.29639968684E+03  0.30678246908E+03  0.00000000000E+00 0. -1.
        -14    1    6    6    0    0  0.10077464526E+01  0.18453050262E+02 -0.10509063659E+03  0.10670319825E+03  0.00000000000E+00 0.  1.
</event>
<event>
12    1  0.8488291E-002  0.1984762E+03  0.7818608E-02  0.1151261E+00
         21   -1    0    0  501  502  0.00000000000E+00  0.00000000000E+00  0.60035880320E+03  0.60035880320E+03  0.00000000000E+00 0.  1.
         21   -1    0    0  502  503 -0.00000000000E+00 -0.00000000000E+00 -0.90646528408E+02  0.90646528408E+02  0.00000000000E+00 0.  1.
         -6    2    1    2    0  503 -0.62894241696E+02  0.73502099882E+02  0.72512767175E+02  0.21130762078E+03  0.17330483222E+03 0.  0.
        -24    2    3    3    0    0 -0.75908661146E+02 -0.12665788582E+02  0.44487078406E+02  0.11964623662E+03  0.80084797274E+02 0.  0.
          6    2    1    2  501    0  0.62894241696E+02 -0.73502099882E+02  0.43719950762E+03  0.47969771083E+03  0.17207045065E+03 0.  0.
         24    2    5    5    0    0  0.10357915012E+03 -0.41019903984E+02  0.22625521895E+03  0.26237321211E+03  0.72367157369E+02 0.  0.
          5    1    5    5  501    0 -0.40684908422E+02 -0.32482195898E+02  0.21094428867E+03  0.21732449872E+03  0.47000000000E+01 0. -1.
        -13    1    6    6    0    0  0.19679524326E+02 -0.37286447949E+02  0.11836369638E+03  0.12564842816E+03  0.00000000000E+00 0.  1.
         14    1    6    6    0    0  0.83899625793E+02 -0.37334560348E+01  0.10789152257E+03  0.13672478395E+03  0.00000000000E+00 0. -1.
         -5    1    3    3    0  503  0.13014419450E+02  0.86167888464E+02  0.28025688770E+02  0.91661384164E+02  0.47000000000E+01 0.  1.
         11    1    4    4    0    0 -0.59827501479E+02  0.21141176678E+02  0.51297739734E+02  0.81594959320E+02  0.00000000000E+00 0. -1.
        -12    1    4    4    0    0 -0.16081159667E+02 -0.33806965260E+02 -0.68106613281E+01  0.38051277298E+02  0.00000000000E+00 0.  1.
</event>
<event>
12    1  0.8488291E-002  0.2138839E+03  0.7818608E-02  0.1139335E+00
         21   -1    0    0  501  502  0.00000000000E+00  0.00000000000E+00  0.11818602609E+03  0.11818602609E+03  0.00000000000E+00 0. -1.
         21   -1    0    0  502  503 -0.00000000000E+00 -0.00000000000E+00 -0.48423139545E+03  0.48423139545E+03  0.00000000000E+00 0. -1.
         -6    2    1    2    0  503  0.12062325550E+03  0.24343773805E+01 -0.32442217711E+03  0.38858212487E+03  0.17660810517E+03 0.  0.
        -24    2    3    3    0    0  0.34041756031E+02  0.62663562986E+02 -0.16821222037E+03  0.20004154188E+03  0.81459831322E+02 0.  0.
          6    2    1    2  501    0 -0.12062325550E+03 -0.24343773805E+01 -0.41623192250E+02  0.21383529667E+03  0.17157257359E+03 0.  0.
         24    2    5    5    0    0 -0.93341677114E+02 -0.33245794649E+02  0.30267809610E+02  0.13086521712E+03  0.79947565342E+02 0.  0.
          5    1    5    5  501    0 -0.27281578385E+02  0.30811417269E+02 -0.71891001860E+02  0.82970079557E+02  0.47000000000E+01 0. -1.
        -11    1    6    6    0    0 -0.43790090892E+02  0.21983194899E+02 -0.39467151670E+01  0.49156988098E+02  0.00000000000E+00 0.  1.
         12    1    6    6    0    0 -0.49551586222E+02 -0.55228989548E+02  0.34214524777E+02  0.81708229018E+02  0.00000000000E+00 0. -1.
         -5    1    3    3    0  503  0.86581499468E+02 -0.60229185606E+02 -0.15620995674E+03  0.18854058299E+03  0.47000000000E+01 0.  1.
         13    1    4    4    0    0  0.61383030858E+01  0.66667265557E+02 -0.15513900558E+03  0.16896838200E+03  0.00000000000E+00 0. -1.
        -14    1    4    4    0    0  0.27903452945E+02 -0.40037025709E+01 -0.13073214783E+02  0.31073159886E+02  0.00000000000E+00 0.  1.
</event>
<event>
12    1  0.8488291E-002  0.1777054E+03  0.7818608E-02  0.1170364E+00
         21   -1    0    0  503  502  0.00000000000E+00  0.00000000000E+00  0.32500329939E+03  0.32500329939E+03  0.00000000000E+00 0.  1.
         21   -1    0    0  501  503 -0.00000000000E+00 -0.00000000000E+00 -0.40829403915E+03  0.40829403915E+03  0.00000000000E+00 0.  1.
          6    2    1    2  501    0  0.27958397408E+02  0.34355772049E+02 -0.36210825826E+03  0.40336288365E+03  0.17209658376E+03 0.  0.
         24    2    3    3    0    0  0.30118790843E+02 -0.36491539137E+02 -0.11387908884E+03  0.14516950776E+03  0.76596116848E+02 0.  0.
         -6    2    1    2    0  502 -0.27958397408E+02 -0.34355772049E+02  0.27881751850E+03  0.32993445489E+03  0.17074994830E+03 0.  0.
        -24    2    5    5    0    0 -0.21781944459E+01 -0.74528856709E+02  0.11186628335E+03  0.15622981905E+03  0.79588918800E+02 0.  0.
          5    1    3    3  501    0 -0.21603934351E+01  0.70847311186E+02 -0.24822916942E+03  0.25819337589E+03  0.47000000000E+01 0. -1.
        -11    1    4    4    0    0  0.18534074795E+02  0.37340978544E+01 -0.98928951838E+02  0.10071937712E+03  0.00000000000E+00 0.  1.
         12    1    4    4    0    0  0.11584716048E+02 -0.40225636991E+02 -0.14950137003E+02  0.44450130637E+02  0.00000000000E+00 0. -1.
         -5    1    5    5    0  502 -0.25780202962E+02  0.40173084660E+02  0.16695123515E+03  0.17370463585E+03  0.47000000000E+01 0.  1.
         13    1    6    6    0    0 -0.66942448368E+01  0.99560195276E+01 -0.41021655728E+01  0.12679235038E+02  0.00000000000E+00 0. -1.
        -14    1    6    6    0    0  0.45160503909E+01 -0.84484876237E+02  0.11596844892E+03  0.14355058401E+03  0.00000000000E+00 0.  1.
</event>
<event>
12    1  0.8488291E-002  0.1784238E+03  0.7818608E-02  0.1169593E+00
         21   -1    0    0  501  502  0.00000000000E+00  0.00000000000E+00  0.18603920757E+04  0.18603920757E+04  0.00000000000E+00 0.  1.
         21   -1    0    0  502  503 -0.00000000000E+00 -0.00000000000E+00 -0.22336315168E+02  0.22336315168E+02  0.00000000000E+00 0.  1.
         -6    2    1    2    0  503  0.46654396720E+02  0.11589569210E+01  0.13806683889E+04  0.13921495136E+04  0.17221234604E+03 0.  0.
        -24    2    3    3    0    0  0.40247132710E+02  0.50588691092E+02  0.52156860415E+03  0.53159220473E+03  0.79858724859E+02 0.  0.
          6    2    1    2  501    0 -0.46654396720E+02 -0.11589569210E+01  0.45738737167E+03  0.49057887732E+03  0.17113284665E+03 0.  0.
         24    2    5    5    0    0  0.10895434656E+02  0.53905779749E+02  0.22987684742E+03  0.24948296911E+03  0.79836353305E+02 0.  0.
          5    1    5    5  501    0 -0.57549831376E+02 -0.55064736670E+02  0.22751052424E+03  0.24109590821E+03  0.47000000000E+01 0. -1.
        -13    1    6    6    0    0 -0.27394925876E+02  0.25606342855E+02  0.45013736124E+02  0.58586715201E+02  0.00000000000E+00 0.  1.
         14    1    6    6    0    0  0.38290360532E+02  0.28299436894E+02  0.18486311130E+03  0.19089625391E+03  0.00000000000E+00 0. -1.
         -5    1    3    3    0  503  0.64072640096E+01 -0.49429734171E+02  0.85909978473E+03  0.86055730883E+03  0.47000000000E+01 0.  1.
         13    1    4    4    0    0 -0.18099731131E+02  0.39043792354E+02  0.20154035664E+03  0.20608380175E+03  0.00000000000E+00 0. -1.
        -14    1    4    4    0    0  0.58346863841E+02  0.11544898737E+02  0.32002824751E+03  0.32550840298E+03  0.00000000000E+00 0.  1.
</event>
<event>
12    1  0.8488291E-002  0.2029964E+03  0.7818608E-02  0.1147438E+00
         21   -1    0    0  501  502  0.00000000000E+00  0.00000000000E+00  0.13506348256E+03  0.13506348256E+03  0.00000000000E+00 0.  1.
         21   -1    0    0  502  503 -0.00000000000E+00 -0.00000000000E+00 -0.33699419969E+03  0.33699419969E+03  0.00000000000E+00 0. -1.
         -6    2    1    2    0  503 -0.57866392154E+02  0.89771345242E+02 -0.17545448492E+03  0.26831286777E+03  0.17262706904E+03 0.  0.
        -24    2    3    3    0    0 -0.57265742635E+02 -0.10392795268E+02 -0.77053867441E+02  0.12782092016E+03  0.83746723334E+02 0.  0.
          6    2    1    2  501    0  0.57866392154E+02 -0.89771345242E+02 -0.26476232211E+02  0.20374481449E+03  0.17147461850E+03 0.  0.
         24    2    5    5    0    0  0.13279125732E+02  0.20346107400E+02 -0.87291775739E+00  0.82124514313E+02  0.78443448415E+02 0.  0.
          5    1    5    5  501    0  0.44587266422E+02 -0.11011745264E+03 -0.25603314453E+02  0.12162030017E+03  0.47000000000E+01 0. -1.
        -13    1    6    6    0    0  0.28523299816E+02  0.15172982984E+02  0.32030294057E+02  0.45494370887E+02  0.00000000000E+00 0.  1.
         14    1    6    6    0    0 -0.15244174083E+02  0.51731244160E+01 -0.32903211815E+02  0.36630143426E+02  0.00000000000E+00 0. -1.
         -5    1    3    3    0  503 -0.60064951861E+00  0.10016414051E+03 -0.98400617478E+02  0.14049194761E+03  0.47000000000E+01 0.  1.
         13    1    4    4    0    0 -0.21081552045E+02  0.41671208305E+01 -0.85291344757E+02  0.87956865696E+02  0.00000000000E+00 0. -1.
        -14    1    4    4    0    0 -0.36184190591E+02 -0.14559916099E+02  0.82374773164E+01  0.39864054461E+02  0.00000000000E+00 0.  1.
</event>
<event>
12    1  0.8488291E-002  0.1745565E+03  0.7818608E-02  0.1174067E+00
         21   -1    0    0  503  502  0.00000000000E+00  0.00000000000E+00  0.40882559040E+02  0.40882559040E+02  0.00000000000E+00 0.  1.
         21   -1    0    0  501  503 -0.00000000000E+00 -0.00000000000E+00 -0.20549649554E+04  0.20549649554E+04  0.00000000000E+00 0.  1.
          6    2    1    2  501    0 -0.77332875241E+01 -0.41750066781E+00 -0.18447131248E+04  0.18526276348E+04  0.17088786481E+03 0.  0.
         24    2    3    3    0    0 -0.57772309927E+02  0.15705942768E+02 -0.15562676478E+04  0.15593926567E+04  0.78435640224E+02 0.  0.
         -6    2    1    2    0  502  0.77332875241E+01  0.41750066781E+00 -0.16936927152E+03  0.24321987961E+03  0.17438457976E+03 0.  0.
        -24    2    5    5    0    0 -0.22734903586E+02  0.13473072544E+02 -0.15776235295E+02  0.86020422221E+02  0.80325736313E+02 0.  0.
          5    1    3    3  501    0  0.50039022403E+02 -0.16123443436E+02 -0.28844547700E+03  0.29323497812E+03  0.47000000000E+01 0. -1.
        -11    1    4    4    0    0 -0.50550367237E+02  0.10331400879E+02 -0.42934451704E+03  0.43243356922E+03  0.00000000000E+00 0.  1.
         12    1    4    4    0    0 -0.72219426905E+01  0.53745418897E+01 -0.11269231308E+04  0.11269590875E+04  0.00000000000E+00 0. -1.
         -5    1    5    5    0  502  0.30468191110E+02 -0.13055571877E+02 -0.15359303623E+03  0.15719945739E+03  0.47000000000E+01 0.  1.
         11    1    6    6    0    0 -0.21815279259E+02 -0.11846280184E+02 -0.42485333782E+02  0.49206141384E+02  0.00000000000E+00 0. -1.
        -12    1    6    6    0    0 -0.91962432642E+00  0.25319352729E+02  0.26709098488E+02  0.36814280837E+02  0.00000000000E+00 0.  1.
</event>
<event>
12    1  0.8488291E-002  0.2379051E+03  0.7818608E-02  0.1121237E+00
         21   -1    0    0  501  502  0.00000000000E+00  0.00000000000E+00  0.28540293800E+03  0.28540293800E+03  0.00000000000E+00 0.  1.
         21   -1    0    0  502  503 -0.00000000000E+00 -0.00000000000E+00 -0.22489951172E+03  0.22489951172E+03  0.00000000000E+00 0. -1.
         -6    2    1    2    0  503 -0.12541414477E+03  0.10636159568E+03 -0.57821876198E+02  0.24459638078E+03  0.17158823788E+03 0.  0.
        -24    2    3    3    0    0  0.55473174072E+01  0.28570424646E+02 -0.14878218256E+02  0.86265655320E+02  0.79833326465E+02 0.  0.
          6    2    1    2  501    0  0.12541414477E+03 -0.10636159568E+03  0.11832530248E+03  0.26570606895E+03  0.17192248580E+03 0.  0.
         24    2    5    5    0    0  0.55957894718E+02 -0.22021356982E+02  0.12148294880E+03  0.15630082563E+03  0.77817832765E+02 0.  0.
          5    1    5    5  501    0  0.69456250052E+02 -0.84340238703E+02 -0.31576463256E+01  0.10940524332E+03  0.47000000000E+01 0. -1.
        -11    1    6    6    0    0  0.22986103397E+02 -0.46394749906E+02  0.92782393869E+02  0.10625161825E+03  0.00000000000E+00 0.  1.
         12    1    6    6    0    0  0.32971791321E+02  0.24373392924E+02  0.28700554935E+02  0.50049207377E+02  0.00000000000E+00 0. -1.
         -5    1    3    3    0  503 -0.13096146218E+03  0.77791171039E+02 -0.42943657942E+02  0.15833072546E+03  0.47000000000E+01 0.  1.
         11    1    4    4    0    0 -0.11701477886E+02  0.11556836256E+02 -0.44824260905E+02  0.47746197908E+02  0.00000000000E+00 0. -1.
        -12    1    4    4    0    0  0.17248795293E+02  0.17013588389E+02  0.29946042650E+02  0.38519457412E+02  0.00000000000E+00 0.  1.
</event>
<event>
12    1  0.8488291E-002  0.2196086E+03  0.7818608E-02  0.1134264E+00
         21   -1    0    0  501  502  0.00000000000E+00  0.00000000000E+00  0.32454040641E+04  0.32454040641E+04  0.00000000000E+00 0. -1.
         21   -1    0    0  502  503 -0.00000000000E+00 -0.00000000000E+00 -0.21252743989E+02  0.21252743989E+02  0.00000000000E+00 0. -1.
         -6    2    1    2    0  503  0.12980735648E+03 -0.38281027344E+02  0.71527507567E+03  0.74822882565E+03  0.17295246403E+03 0.  0.
        -24    2    3    3    0    0  0.14340573748E+03  0.68554451623E+01  0.62612278538E+03  0.64727122079E+03  0.79486402704E+02 0.  0.
          6    2    1    2  501    0 -0.12980735648E+03  0.38281027344E+02  0.25088762445E+04  0.25184279825E+04  0.17234879156E+03 0.  0.
         24    2    5    5    0    0 -0.58187240195E+02  0.65529014244E+01  0.21030066741E+04  0.21050415856E+04  0.71654099687E+02 0.  0.
          5    1    5    5  501    0 -0.71620116282E+02  0.31728125919E+02  0.40586957032E+03  0.41338639690E+03  0.47000000000E+01 0. -1.
        -13    1    6    6    0    0 -0.86588455257E+01  0.34488350722E+02  0.75881003170E+03  0.75964273586E+03  0.00000000000E+00 0.  1.
         14    1    6    6    0    0 -0.49528394669E+02 -0.27935449298E+02  0.13441966424E+04  0.13453988497E+04  0.00000000000E+00 0. -1.
         -5    1    3    3    0  503 -0.13598381008E+02 -0.45136472506E+02  0.89152290292E+02  0.10095760487E+03  0.47000000000E+01 0.  1.
         11    1    4    4    0    0  0.68690645428E+02 -0.20826311392E+02  0.17470608438E+03  0.18887656270E+03  0.00000000000E+00 0. -1.
        -12    1    4    4    0    0  0.74715092057E+02  0.27681756554E+02  0.45141670099E+03  0.45839465809E+03  0.00000000000E+00 0.  1.
</event>
<event>
12    1  0.8488291E-002  0.1738582E+03  0.7818608E-02  0.1173897E+00
         21   -1    0    0  501  502  0.00000000000E+00  0.00000000000E+00  0.30066456086E+03  0.30066456086E+03  0.00000000000E+00 0. -1.
         21   -1    0    0  502  503 -0.00000000000E+00 -0.00000000000E+00 -0.10761615462E+03  0.10761615462E+03  0.00000000000E+00 0. -1.
         -6    2    1    2    0  503  0.21811556918E+02 -0.89478546604E+01  0.14902554837E+03  0.22898751514E+03  0.17225231466E+03 0.  0.
        -24    2    3    3    0    0  0.15936785452E+02  0.20837934844E+02  0.17154839811E+03  0.19089453735E+03  0.79521511788E+02 0.  0.
          6    2    1    2  501    0 -0.21811556918E+02  0.89478546604E+01  0.44022857867E+02  0.17929320034E+03  0.17219823331E+03 0.  0.
         24    2    5    5    0    0  0.54446090833E+02  0.48665784933E+01  0.29781971243E+02  0.10146789271E+03  0.80129314531E+02 0.  0.
          5    1    5    5  501    0 -0.76257647752E+02  0.40812761672E+01  0.14240886624E+02  0.77825307630E+02  0.47000000000E+01 0. -1.
        -11    1    6    6    0    0  0.20057448239E+02 -0.36060860757E+02  0.23907719094E+02  0.47689264417E+02  0.00000000000E+00 0.  1.
         12    1    6    6    0    0  0.34388642595E+02  0.40927439250E+02  0.58742521488E+01  0.53778628296E+02  0.00000000000E+00 0. -1.
         -5    1    3    3    0  503  0.58747714660E+01 -0.29785789504E+02 -0.22522849745E+02  0.38092977789E+02  0.47000000000E+01 0.  1.
         11    1    4    4    0    0 -0.10781913828E+02 -0.25719742206E+02  0.80573695453E+02  0.85263563166E+02  0.00000000000E+00 0. -1.
        -12    1    4    4    0    0  0.26718699281E+02  0.46557677049E+02  0.90974702658E+02  0.10563097419E+03  0.00000000000E+00 0.  1.
</event>
<event>
12    1  0.8488291E-002  0.1800020E+03  0.7818608E-02  0.1168726E+00
         21   -1    0    0  501  502  0.00000000000E+00  0.00000000000E+00  0.11288577347E+03  0.11288577347E+03  0.00000000000E+00 0.  1.
         21   -1    0    0  502  503 -0.00000000000E+00 -0.00000000000E+00 -0.33892985389E+03  0.33892985389E+03  0.00000000000E+00 0.  1.
         -6    2    1    2    0  503 -0.44690176021E+02 -0.26129748800E+02 -0.20738547163E+03  0.27460784881E+03  0.17239710316E+03 0.  0.
        -24    2    3    3    0    0  0.25004654234E+02  0.24715091930E+02 -0.65456273552E+02  0.10844962764E+03  0.78998287870E+02 0.  0.
          6    2    1    2  501    0  0.44690176021E+02  0.26129748800E+02 -0.18658608794E+02  0.17720777855E+03  0.16844725433E+03 0.  0.
         24    2    5    5    0    0  0.15959287959E+02  0.75943579076E+02 -0.53867842530E+02  0.10961590214E+03  0.55603736108E+02 0.  0.
          5    1    5    5  501    0  0.28730888062E+02 -0.49813830276E+02  0.35209233736E+02  0.67591876405E+02  0.47000000000E+01 0. -1.
        -11    1    6    6    0    0  0.29831862699E+02  0.47139643976E+02 -0.12214435684E+02  0.57107604619E+02  0.00000000000E+00 0.  1.
         12    1    6    6    0    0 -0.13872574740E+02  0.28803935100E+02 -0.41653406846E+02  0.52508297526E+02  0.00000000000E+00 0. -1.
         -5    1    3    3    0  503 -0.69694830255E+02 -0.50844840729E+02 -0.14192919808E+03  0.16615822117E+03  0.47000000000E+01 0.  1.
         11    1    4    4    0    0  0.13927610365E+02 -0.68846218209E+01 -0.72572476143E+02  0.74216848772E+02  0.00000000000E+00 0. -1.
        -12    1    4    4    0    0  0.11077043869E+02  0.31599713751E+02  0.71162025913E+01  0.34232778872E+02  0.00000000000E+00 0.  1.
</event>
<event>
12    1  0.8488291E-002  0.1887350E+03  0.7818608E-02  0.1159646E+00
         21   -1    0    0  501  502  0.00000000000E+00  0.00000000000E+00  0.49804464307E+03  0.49804464307E+03  0.00000000000E+00 0.  1.
         21   -1    0    0  502  503 -0.00000000000E+00 -0.00000000000E+00 -0.15412671252E+03  0.15412671252E+03  0.00000000000E+00 0.  1.
         -6    2    1    2    0  503 -0.66724742923E+02  0.35783554141E+02 -0.66895121794E+02  0.20007814271E+03  0.17269525704E+03 0.  0.
        -24    2    3    3    0    0 -0.17151807287E+02 -0.59834728159E+01  0.27156327336E+02  0.85755242235E+02  0.79287508577E+02 0.  0.
          6    2    1    2  501    0  0.66724742923E+02 -0.35783554141E+02  0.41081305235E+03  0.45209321289E+03  0.17288220004E+03 0.  0.
         24    2    5    5    0    0  0.78587846698E+02 -0.50599108149E+02  0.41438293640E+03  0.43221689673E+03  0.79761572465E+02 0.  0.
          5    1    5    5  501    0 -0.11863103776E+02  0.14815554008E+02 -0.35698840546E+01  0.19876316155E+02  0.47000000000E+01 0. -1.
        -13    1    6    6    0    0 -0.14794742700E+02 -0.15830406994E+02  0.10392295189E+03  0.10615774172E+03  0.00000000000E+00 0.  1.
         14    1    6    6    0    0  0.93382589398E+02 -0.34768701155E+02  0.31045998451E+03  0.32605915501E+03  0.00000000000E+00 0. -1.
         -5    1    3    3    0  503 -0.49572935636E+02  0.41767026957E+02 -0.94051449130E+02  0.11432290047E+03  0.47000000000E+01 0.  1.
         11    1    4    4    0    0  0.26787751667E+02  0.14080707663E+02  0.21497050932E+02  0.37121060955E+02  0.00000000000E+00 0. -1.
        -12    1    4    4    0    0 -0.43939558954E+02 -0.20064180479E+02  0.56592764039E+01  0.48634181280E+02  0.00000000000E+00 0.  1.
</event>
<event>
12    1  0.8488291E-002  0.2504671E+03  0.7818608E-02  0.1115512E+00
         21   -1    0    0  501  502  0.00000000000E+00  0.00000000000E+00  0.16329205597E+03  0.16329205597E+03  0.00000000000E+00 0.  1.
         21   -1    0    0  502  503 -0.00000000000E+00 -0.00000000000E+00 -0.37448492301E+03  0.37448492301E+03  0.00000000000E+00 0.  1.
         -6    2    1    2    0  503  0.16266424294E+02  0.16029168532E+03 -0.15981321802E+03  0.29710947609E+03  0.19177005810E+03 0.  0.
        -24    2    3    3    0    0  0.88407444544E+02  0.76634173217E+02 -0.81628126021E+02  0.16169195600E+03  0.76108244779E+02 0.  0.
          6    2    1    2  501    0 -0.16266424294E+02 -0.16029168532E+03 -0.51379649017E+02  0.24066750289E+03  0.17123947463E+03 0.  0.
         24    2    5    5    0    0 -0.67621714915E+02 -0.95819584315E+02 -0.59654132852E+02  0.15769416521E+03  0.86918036730E+02 0.  0.
          5    1    5    5  501    0  0.51355290621E+02 -0.64472101005E+02  0.82744838343E+01  0.82973337678E+02  0.47000000000E+01 0. -1.
        -13    1    6    6    0    0 -0.15187197064E+02 -0.32728980498E+02  0.21745543550E+02  0.42127257012E+02  0.00000000000E+00 0.  1.
         14    1    6    6    0    0 -0.52434517851E+02 -0.63090603817E+02 -0.81399676402E+02  0.11556690820E+03  0.00000000000E+00 0. -1.
         -5    1    3    3    0  503 -0.72141020249E+02  0.83657512104E+02 -0.78185092004E+02  0.13541752008E+03  0.47000000000E+01 0.  1.
         11    1    4    4    0    0  0.61575133720E+02  0.90227941264E+02 -0.67974265258E+02  0.12865877045E+03  0.00000000000E+00 0. -1.
        -12    1    4    4    0    0  0.26832310824E+02 -0.13593768047E+02 -0.13653860763E+02  0.33033185550E+02  0.00000000000E+00 0.  1.
</event>
<event>
12    1  0.8488291E-002  0.1945414E+03  0.7818608E-02  0.1154667E+00
         21   -1    0    0  501  502  0.00000000000E+00  0.00000000000E+00  0.14521688651E+03  0.14521688651E+03  0.00000000000E+00 0. -1.
         21   -1    0    0  502  503 -0.00000000000E+00 -0.00000000000E+00 -0.69489596873E+03  0.69489596873E+03  0.00000000000E+00 0. -1.
         -6    2    1    2    0  503 -0.84201406868E+02 -0.16648031575E+02 -0.60775568559E+03  0.63813268651E+03  0.17458327054E+03 0.  0.
        -24    2    3    3    0    0  0.16357147914E+02 -0.39658245728E+02 -0.31534716453E+03  0.32802572741E+03  0.79477738535E+02 0.  0.
          6    2    1    2  501    0  0.84201406868E+02  0.16648031575E+02  0.58076603371E+02  0.20198016873E+03  0.17336684466E+03 0.  0.
         24    2    5    5    0    0  0.11684631233E+03 -0.16749387175E+02  0.30139866058E+02  0.14735756605E+03  0.82898963021E+02 0.  0.
          5    1    5    5  501    0 -0.32644905463E+02  0.33397418750E+02  0.27936737313E+02  0.54622602680E+02  0.47000000000E+01 0. -1.
        -11    1    6    6    0    0 -0.32031464569E+01 -0.19640293634E+02 -0.78727095721E+01  0.21400486846E+02  0.00000000000E+00 0.  1.
         12    1    6    6    0    0  0.12004945879E+03  0.28909064587E+01  0.38012575630E+02  0.12595707920E+03  0.00000000000E+00 0. -1.
         -5    1    3    3    0  503 -0.10055855478E+03  0.23010214153E+02 -0.29240852106E+03  0.31010695911E+03  0.47000000000E+01 0.  1.
         13    1    4    4    0    0 -0.54515444675E+01 -0.10395948714E+02 -0.26794544019E+03  0.26820244966E+03  0.00000000000E+00 0. -1.
        -14    1    4    4    0    0  0.21808692381E+02 -0.29262297014E+02 -0.47401724344E+02  0.59823277750E+02  0.00000000000E+00 0.  1.
</event>
<event>
12    1  0.8488291E-002  0.2034881E+03  0.7818608E-02  0.1147394E+00
         21   -1    0    0  501  502  0.00000000000E+00  0.00000000000E+00  0.41175819577E+03  0.41175819577E+03  0.00000000000E+00 0. -1.
         21   -1    0    0  502  503 -0.00000000000E+00 -0.00000000000E+00 -0.10653985676E+03  0.10653985676E+03  0.00000000000E+00 0. -1.
         -6    2    1    2    0  503  0.79443915419E+02  0.69017281629E+02  0.83734068705E+02  0.21752787781E+03  0.17097444985E+03 0.  0.
        -24    2    3    3    0    0 -0.12944631004E+02  0.59031171167E+02  0.72328212897E+02  0.12378594771E+03  0.80245547092E+02 0.  0.
          6    2    1    2  501    0 -0.79443915419E+02 -0.69017281629E+02  0.22148427031E+03  0.30077017471E+03  0.17416284088E+03 0.  0.
         24    2    5    5    0    0 -0.94986484354E+02 -0.20149450801E+02  0.77734719944E+02  0.14807551348E+03  0.80344498447E+02 0.  0.
          5    1    5    5  501    0  0.15542568936E+02 -0.48867830828E+02  0.14374955036E+03  0.15269466123E+03  0.47000000000E+01 0. -1.
        -11    1    6    6    0    0 -0.29671145278E+02  0.19706317512E+02 -0.43214046518E+01  0.35880222270E+02  0.00000000000E+00 0.  1.
         12    1    6    6    0    0 -0.65315339077E+02 -0.39855768313E+02  0.82056124596E+02  0.11219529121E+03  0.00000000000E+00 0. -1.
         -5    1    3    3    0  503  0.92388546423E+02  0.99861104621E+01  0.11405855809E+02  0.93741930101E+02  0.47000000000E+01 0.  1.
         13    1    4    4    0    0  0.70287335120E+01  0.14158761686E+02 -0.16143840831E+02  0.22594185625E+02  0.00000000000E+00 0. -1.
        -14    1    4    4    0    0 -0.19973364516E+02  0.44872409481E+02  0.88472053728E+02  0.10119176208E+03  0.00000000000E+00 0.  1.
</event>
<event>
12    1  0.8488291E-002  0.2087775E+03  0.7818608E-02  0.1142973E+00
         21   -1    0    0  503  502  0.00000000000E+00  0.00000000000E+00  0.18373990675E+03  0.18373990675E+03  0.00000000000E+00 0.  1.
         21   -1    0    0  501  503 -0.00000000000E+00 -0.00000000000E+00 -0.47467874159E+03  0.47467874159E+03  0.00000000000E+00 0. -1.
          6    2    1    2  501    0  0.99624623637E+02 -0.63706326920E+02 -0.37913639613E+03  0.43177611605E+03  0.16941855210E+03 0.  0.
         24    2    3    3    0    0 -0.24232188049E+02 -0.43891078709E+02 -0.81814935508E+02  0.10904512155E+03  0.51802790800E+02 0.  0.
         -6    2    1    2    0  502 -0.99624623637E+02  0.63706326920E+02  0.88197561291E+02  0.22664253229E+03  0.17205948361E+03 0.  0.
        -24    2    5    5    0    0 -0.49731659810E+02  0.10703731641E+03  0.53618659089E+02  0.15191186277E+03  0.79196138507E+02 0.  0.
          5    1    3    3  501    0  0.12385681169E+03 -0.19815248211E+02 -0.29732146063E+03  0.32273099450E+03  0.47000000000E+01 0. -1.
        -11    1    4    4    0    0 -0.56337737327E+01  0.10707720029E+02 -0.26486012752E+02  0.29118783392E+02  0.00000000000E+00 0.  1.
         12    1    4    4    0    0 -0.18598414317E+02 -0.54598798738E+02 -0.55328922756E+02  0.79926338162E+02  0.00000000000E+00 0. -1.
         -5    1    5    5    0  502 -0.49892963827E+02 -0.43330989491E+02  0.34578902202E+02  0.74730669522E+02  0.47000000000E+01 0.  1.
         11    1    6    6    0    0 -0.38409667480E+02  0.49797542744E+02 -0.12084283465E+02  0.64040047830E+02  0.00000000000E+00 0. -1.
        -12    1    6    6    0    0 -0.11321992329E+02  0.57239773668E+02  0.65702942554E+02  0.87871814935E+02  0.00000000000E+00 0.  1.
</event>
<event>
12    1  0.8488291E-002  0.2400378E+03  0.7818608E-02  0.1119855E+00
         21   -1    0    0  501  502  0.00000000000E+00  0.00000000000E+00  0.13312260803E+04  0.13312260803E+04  0.00000000000E+00 0. -1.
         21   -1    0    0  502  503 -0.00000000000E+00 -0.00000000000E+00 -0.86359128613E+02  0.86359128613E+02  0.00000000000E+00 0.  1.
         -6    2    1    2    0  503 -0.10709574181E+03  0.12896023153E+03  0.12094782087E+03  0.26831919229E+03  0.17107476245E+03 0.  0.
        -24    2    3    3    0    0 -0.58642839104E+02  0.35096327716E+01  0.27189686733E+02  0.10431244173E+03  0.81795515375E+02 0.  0.
          6    2    1    2  501    0  0.10709574181E+03 -0.12896023153E+03  0.11239191309E+04  0.11492660167E+04  0.17180781454E+03 0.  0.
         24    2    5    5    0    0  0.14490894850E+03 -0.11751918899E+03  0.90154894180E+03  0.92336487228E+03  0.70730684760E+02 0.  0.
          5    1    5    5  501    0 -0.37813206693E+02 -0.11441042542E+02  0.22237018905E+03  0.22590114438E+03  0.47000000000E+01 0. -1.
        -11    1    6    6    0    0  0.33393626219E+02 -0.68542157487E+01  0.28842143043E+03  0.29042905515E+03  0.00000000000E+00 0.  1.
         12    1    6    6    0    0  0.11151532228E+03 -0.11066497324E+03  0.61312751137E+03  0.63293581713E+03  0.00000000000E+00 0. -1.
         -5    1    3    3    0  503 -0.48452902703E+02  0.12545059876E+03  0.93758134142E+02  0.16400675055E+03  0.47000000000E+01 0.  1.
         11    1    4    4    0    0  0.17254767096E+02  0.16164021182E+02  0.85492928500E+01  0.25141459316E+02  0.00000000000E+00 0. -1.
        -12    1    4    4    0    0 -0.75897606200E+02 -0.12654388410E+02  0.18640393883E+02  0.79170982418E+02  0.00000000000E+00 0.  1.
</event>
<event>
12    1  0.8488291E-002  0.1991012E+03  0.7818608E-02  0.1151597E+00
         21   -1    0    0  501  502  0.00000000000E+00  0.00000000000E+00  0.87080460582E+03  0.87080460582E+03  0.00000000000E+00 0.  1.
         21   -1    0    0  502  503 -0.00000000000E+00 -0.00000000000E+00 -0.48120169623E+02  0.48120169623E+02  0.00000000000E+00 0.  1.
         -6    2    1    2    0  503 -0.50951573963E+02 -0.76900174616E+02  0.28790340227E+03  0.35004239086E+03  0.17644151047E+03 0.  0.
        -24    2    3    3    0    0 -0.87631313314E+02 -0.10151605898E+02  0.20476981744E+03  0.23719710903E+03  0.80928908452E+02 0.  0.
          6    2    1    2  501    0  0.50951573963E+02  0.76900174616E+02  0.53478103392E+03  0.56888238458E+03  0.17066550177E+03 0.  0.
         24    2    5    5    0    0  0.31185116151E+02  0.89999293330E+02  0.52985439966E+03  0.54421131872E+03  0.79673648806E+02 0.  0.
          5    1    5    5  501    0  0.19766457811E+02 -0.13099118714E+02  0.49266342638E+01  0.24671065860E+02  0.47000000000E+01 0. -1.
        -11    1    6    6    0    0 -0.15567208298E+02  0.30368867727E+02  0.66946645977E+02  0.75142927204E+02  0.00000000000E+00 0.  1.
         12    1    6    6    0    0  0.46752324449E+02  0.59630425603E+02  0.46290775368E+03  0.46906839151E+03  0.00000000000E+00 0. -1.
         -5    1    3    3    0  503  0.36679739351E+02 -0.66748568718E+02  0.83133584835E+02  0.11284528183E+03  0.47000000000E+01 0.  1.
         11    1    4    4    0    0 -0.25638092429E+01  0.16030455399E+02  0.27849371073E+01  0.16471323348E+02  0.00000000000E+00 0. -1.
        -12    1    4    4    0    0 -0.85067504071E+02 -0.26182061298E+02  0.20198488033E+03  0.22072578568E+03  0.00000000000E+00 0.  1.
</event>
<event>
12    1  0.8488291E-002  0.2263473E+03  0.7818608E-02  0.1129292E+00
         21   -1    0    0  501  502  0.00000000000E+00  0.00000000000E+00  0.29348401634E+03  0.29348401634E+03  0.00000000000E+00 0.  1.
         21   -1    0    0  502  503 -0.00000000000E+00 -0.00000000000E+00 -0.29920211796E+03  0.29920211796E+03  0.00000000000E+00 0. -1.
         -6    2    1    2    0  503 -0.88746713133E+02  0.11537079876E+03 -0.19429970711E+03  0.29807430508E+03  0.17294367542E+03 0.  0.
        -24    2    3    3    0    0 -0.12424846556E+03  0.11528427728E+03 -0.14228447686E+03  0.23492324738E+03  0.78841068116E+02 0.  0.
          6    2    1    2  501    0  0.88746713133E+02 -0.11537079876E+03  0.18858160550E+03  0.29461182922E+03  0.17333986179E+03 0.  0.
         24    2    5    5    0    0  0.13792637093E+01 -0.10804971323E+03  0.14108454466E+03  0.19478833349E+03  0.79755897729E+02 0.  0.
          5    1    5    5  501    0  0.87367449423E+02 -0.73210855313E+01  0.47497060833E+02  0.99823495731E+02  0.47000000000E+01 0. -1.
        -11    1    6    6    0    0  0.34309229527E+01 -0.10871029884E+03  0.15018699422E+03  0.18543417576E+03  0.00000000000E+00 0.  1.
         12    1    6    6    0    0 -0.20516592435E+01  0.66058561321E+00 -0.91024495526E+01  0.93541577313E+01  0.00000000000E+00 0. -1.
         -5    1    3    3    0  503  0.35501752423E+02  0.86521477253E-01 -0.52015230248E+02  0.63151057701E+02  0.47000000000E+01 0.  1.
         11    1    4    4    0    0 -0.29698451537E+02  0.62470656371E+02 -0.93084312755E+02  0.11597098867E+03  0.00000000000E+00 0. -1.
        -12    1    4    4    0    0 -0.94550014019E+02  0.52813620914E+02 -0.49200164107E+02  0.11895225871E+03  0.00000000000E+00 0.  1.
</event>
<event>
12    1  0.8488291E-002  0.2788003E+03  0.7818608E-02  0.1096482E+00
         21   -1    0    0  503  502  0.00000000000E+00  0.00000000000E+00  0.72022522400E+03  0.72022522400E+03  0.00000000000E+00 0. -1.
         21   -1    0    0  501  503 -0.00000000000E+00 -0.00000000000E+00 -0.14226779770E+03  0.14226779770E+03  0.00000000000E+00 0. -1.
          6    2    1    2  501    0  0.21661178737E+03 -0.27199592350E+02  0.76309381200E+02  0.28905490848E+03  0.17340453917E+03 0.  0.
         24    2    3    3    0    0  0.14526955601E+03  0.23368432498E+02  0.10434691994E+03  0.19710365677E+03  0.79449633534E+02 0.  0.
         -6    2    1    2    0  502 -0.21661178737E+03  0.27199592350E+02  0.50164804510E+03  0.57343811321E+03  0.17181392342E+03 0.  0.
        -24    2    5    5    0    0 -0.22977717572E+03  0.49969916826E+02  0.47312096070E+03  0.53435231436E+03  0.79965050766E+02 0.  0.
          5    1    3    3  501    0  0.71342231355E+02 -0.50568024848E+02 -0.28037538745E+02  0.91951251707E+02  0.47000000000E+01 0. -1.
        -13    1    4    4    0    0  0.12356719284E+03  0.31340544397E+02  0.48033580280E+02  0.13622887250E+03  0.00000000000E+00 0.  1.
         14    1    4    4    0    0  0.21702363177E+02 -0.79721118997E+01  0.56313339665E+02  0.60874784269E+02  0.00000000000E+00 0. -1.
         -5    1    5    5    0  502  0.13165388352E+02 -0.22770324476E+02  0.28527084400E+02  0.39085798848E+02  0.47000000000E+01 0.  1.
         13    1    6    6    0    0 -0.21258626224E+03  0.40345715794E+02  0.46530618150E+03  0.51315742050E+03  0.00000000000E+00 0. -1.
        -14    1    6    6    0    0 -0.17190913483E+02  0.96242010322E+01  0.78147792001E+01  0.21194893862E+02  0.00000000000E+00 0.  1.
</event>
<event>
12    1  0.8488291E-002  0.2060799E+03  0.7818608E-02  0.1145623E+00
         21   -1    0    0  503  502  0.00000000000E+00  0.00000000000E+00  0.26700435621E+03  0.26700435621E+03  0.00000000000E+00 0.  1.
         21   -1    0    0  501  503 -0.00000000000E+00 -0.00000000000E+00 -0.21600750525E+03  0.21600750525E+03  0.00000000000E+00 0.  1.
          6    2    1    2  501    0  0.26278883993E+02 -0.10236091156E+03 -0.10197150988E+03  0.22992847002E+03  0.17691968951E+03 0.  0.
         24    2    3    3    0    0 -0.49955001875E+02 -0.84727900418E+02 -0.68483211652E+02  0.14468713876E+03  0.81056144260E+02 0.  0.
         -6    2    1    2    0  502 -0.26278883993E+02  0.10236091156E+03  0.15296836084E+03  0.25308339144E+03  0.17170773904E+03 0.  0.
        -24    2    5    5    0    0  0.23684280819E+02  0.37076301328E+02  0.17744696104E+02  0.94761164080E+02  0.82031742026E+02 0.  0.
          5    1    3    3  501    0  0.76233885868E+02 -0.17633011141E+02 -0.33488298231E+02  0.85241331259E+02  0.47000000000E+01 0. -1.
        -11    1    4    4    0    0  0.15283180305E+02  0.24562268184E+01 -0.20514702851E+02  0.25699449089E+02  0.00000000000E+00 0.  1.
         12    1    4    4    0    0 -0.65238182181E+02 -0.87184127236E+02 -0.47968508800E+02  0.11898768967E+03  0.00000000000E+00 0. -1.
         -5    1    5    5    0  502 -0.49963164812E+02  0.65284610231E+02  0.13522366474E+03  0.15832222736E+03  0.47000000000E+01 0.  1.
         11    1    6    6    0    0  0.30466727486E+02  0.58031014005E+02  0.26979902155E+02  0.70878312554E+02  0.00000000000E+00 0. -1.
        -12    1    6    6    0    0 -0.67824466664E+01 -0.20954712678E+02 -0.92352060513E+01  0.23882851526E+02  0.00000000000E+00 0.  1.
</event>
<event>
12    1  0.8488291E-002  0.2093813E+03  0.7818608E-02  0.1142666E+00
         21   -1    0    0  503  502  0.00000000000E+00  0.00000000000E+00  0.19766505498E+03  0.19766505498E+03  0.00000000000E+00 0. -1.
         21   -1    0    0  501  503 -0.00000000000E+00 -0.00000000000E+00 -0.61332078667E+03  0.61332078667E+03  0.00000000000E+00 0.  1.
          6    2    1    2  501    0 -0.11623177007E+03  0.13085598502E+02 -0.53367406120E+03  0.57327875093E+03  0.17366480762E+03 0.  0.
         24    2    3    3    0    0 -0.62443339822E+01 -0.38443055557E+02 -0.24055782412E+03  0.25595926410E+03  0.78295708067E+02 0.  0.
         -6    2    1    2    0  502  0.11623177007E+03 -0.13085598502E+02  0.11801832952E+03  0.23770709071E+03  0.16998611006E+03 0.  0.
        -24    2    5    5    0    0  0.85520365026E+02  0.56253716915E+02  0.84101547132E+02  0.15449910318E+03  0.79490182741E+02 0.  0.
          5    1    3    3  501    0 -0.10998743609E+03  0.51528654059E+02 -0.29311623708E+03  0.31731948684E+03  0.47000000000E+01 0. -1.
        -13    1    4    4    0    0 -0.49494804813E+01 -0.61640811756E+02 -0.14535815421E+03  0.15796543934E+03  0.00000000000E+00 0.  1.
         14    1    4    4    0    0 -0.12948535009E+01  0.23197756199E+02 -0.95199669916E+02  0.97993824756E+02  0.00000000000E+00 0. -1.
         -5    1    5    5    0  502  0.30711405047E+02 -0.69339315417E+02  0.33916782384E+02  0.83207987536E+02  0.47000000000E+01 0.  1.
         13    1    6    6    0    0  0.66448003852E+02  0.20345273340E+02  0.89685584283E+02  0.11345823633E+03  0.00000000000E+00 0. -1.
        -14    1    6    6    0    0  0.19072361174E+02  0.35908443575E+02 -0.55840371509E+01  0.41040866848E+02  0.00000000000E+00 0.  1.
</event>
<event>
12    1  0.8488291E-002  0.1854537E+03  0.7818608E-02  0.1162784E+00
         21   -1    0    0  501  502  0.00000000000E+00  0.00000000000E+00  0.37250582764E+02  0.37250582764E+02  0.00000000000E+00 0.  1.
         21   -1    0    0  502  503 -0.00000000000E+00 -0.00000000000E+00 -0.93485321549E+03  0.93485321549E+03  0.00000000000E+00 0.  1.
         -6    2    1    2    0  503  0.42480789825E+02  0.52586409390E+02 -0.51099025646E+03  0.54360289456E+03  0.17269370812E+03 0.  0.
        -24    2    3    3    0    0 -0.18567260548E+02  0.78457041801E+02 -0.23319323015E+03  0.25796425589E+03  0.75274326015E+02 0.  0.
          6    2    1    2  501    0 -0.42480789825E+02 -0.52586409390E+02 -0.38661237626E+03  0.42850090369E+03  0.17197077376E+03 0.  0.
         24    2    5    5    0    0 -0.19199271636E+02  0.22476027733E+02 -0.11081836641E+03  0.14168942479E+03  0.83194945221E+02 0.  0.
          5    1    5    5  501    0 -0.23281518189E+02 -0.75062437122E+02 -0.27579400985E+03  0.28681147890E+03  0.47000000000E+01 0. -1.
        -13    1    6    6    0    0  0.19669644664E+02 -0.17374021134E+02 -0.63206631785E+02  0.68438511331E+02  0.00000000000E+00 0.  1.
         14    1    6    6    0    0 -0.38868916300E+02  0.39850048867E+02 -0.47611734624E+02  0.73250913461E+02  0.00000000000E+00 0. -1.
         -5    1    3    3    0  503  0.61048050373E+02 -0.25870632412E+02 -0.27779702631E+03  0.28563863867E+03  0.47000000000E+01 0.  1.
         11    1    4    4    0    0  0.17016699203E+02 -0.64506283010E+01 -0.35941065705E+02  0.40285715350E+02  0.00000000000E+00 0. -1.
        -12    1    4    4    0    0 -0.35583959751E+02  0.84907670102E+02 -0.19725216445E+03  0.21767854054E+03  0.00000000000E+00 0.  1.
</event>
<event>
12    1  0.8488291E-002  0.2560595E+03  0.7818608E-02  0.1110919E+00
         21   -1    0    0  501  502  0.00000000000E+00  0.00000000000E+00  0.91370260288E+02  0.91370260288E+02  0.00000000000E+00 0.  1.
         21   -1    0    0  502  503 -0.00000000000E+00 -0.00000000000E+00 -0.69301875689E+03  0.69301875689E+03  0.00000000000E+00 0.  1.
         -6    2    1    2    0  503  0.12413524245E+03 -0.12751706072E+03 -0.31017418943E+03  0.40221202639E+03  0.18410955214E+03 0.  0.
        -24    2    3    3    0    0  0.20180817994E+02 -0.66398026687E+02 -0.24090820015E+03  0.26306488860E+03  0.79689468261E+02 0.  0.
          6    2    1    2  501    0 -0.12413524245E+03  0.12751706072E+03 -0.29147430718E+03  0.38217699079E+03  0.17155704986E+03 0.  0.
         24    2    5    5    0    0 -0.11193277080E+03  0.20113308759E+02 -0.17764157264E+03  0.22512780200E+03  0.78692493504E+02 0.  0.
          5    1    5    5  501    0 -0.12202471645E+02  0.10740375196E+03 -0.11383273453E+03  0.15704918879E+03  0.47000000000E+01 0. -1.
        -13    1    6    6    0    0 -0.33642685882E+02  0.43636442502E+02 -0.87835627035E+02  0.10368735123E+03  0.00000000000E+00 0.  1.
         14    1    6    6    0    0 -0.78290084918E+02 -0.23523133743E+02 -0.89805945609E+02  0.12144045077E+03  0.00000000000E+00 0. -1.
         -5    1    3    3    0  503  0.10395442445E+03 -0.61119034034E+02 -0.69265989286E+02  0.13914713779E+03  0.47000000000E+01 0.  1.
         11    1    4    4    0    0 -0.17027182221E+02  0.97155644245E+01 -0.63651619127E+02  0.66602145190E+02  0.00000000000E+00 0. -1.
        -12    1    4    4    0    0  0.37208000216E+02 -0.76113591111E+02 -0.17725658102E+03  0.19646274341E+03  0.00000000000E+00 0.  1.
</event>
<event>
12    1  0.8488291E-002  0.2137180E+03  0.7818608E-02  0.1139222E+00
         21   -1    0    0  501  502  0.00000000000E+00  0.00000000000E+00  0.87446851367E+02  0.87446851367E+02  0.00000000000E+00 0.  1.
         21   -1    0    0  502  503 -0.00000000000E+00 -0.00000000000E+00 -0.51952951945E+03  0.51952951945E+03  0.00000000000E+00 0.  1.
         -6    2    1    2    0  503  0.12533852715E+03  0.49606319318E+01 -0.24216456628E+03  0.32106681014E+03  0.16942805303E+03 0.  0.
        -24    2    3    3    0    0  0.10178540664E+02 -0.26724069746E+02 -0.14628650657E+03  0.16783353980E+03  0.77139979786E+02 0.  0.
          6    2    1    2  501    0 -0.12533852715E+03 -0.49606319318E+01 -0.18991810180E+03  0.28590956067E+03  0.17303478621E+03 0.  0.
         24    2    5    5    0    0 -0.95170287325E+02  0.53047266054E+02 -0.16927216250E+03  0.21718268287E+03  0.81509856563E+02 0.  0.
          5    1    5    5  501    0 -0.30168239821E+02 -0.58007897985E+02 -0.20645939295E+02  0.68726877799E+02  0.47000000000E+01 0. -1.
        -11    1    6    6    0    0 -0.79898641792E+02  0.53023767709E+02 -0.75154182114E+02  0.12183375555E+03  0.00000000000E+00 0.  1.
         12    1    6    6    0    0 -0.15271645533E+02  0.23498344793E-01 -0.94117980389E+02  0.95348927324E+02  0.00000000000E+00 0. -1.
         -5    1    3    3    0  503  0.11515998648E+03  0.31684701678E+02 -0.95878059708E+02  0.15323327034E+03  0.47000000000E+01 0.  1.
         13    1    4    4    0    0  0.14241345010E+02  0.24443516513E+02 -0.33031834938E+02  0.43490269332E+02  0.00000000000E+00 0. -1.
        -14    1    4    4    0    0 -0.40628043452E+01 -0.51167586258E+02 -0.11325467164E+03  0.12434327046E+03  0.00000000000E+00 0.  1.
</event>
<event>
12    1  0.8488291E-002  0.2147066E+03  0.7818608E-02  0.1137981E+00
         21   -1    0    0  503  502  0.00000000000E+00  0.00000000000E+00  0.47347022841E+03  0.47347022841E+03  0.00000000000E+00 0. -1.
         21   -1    0    0  501  503 -0.00000000000E+00 -0.00000000000E+00 -0.49804459390E+03  0.49804459390E+03  0.00000000000E+00 0. -1.
          6    2    1    2  501    0  0.12020688836E+03  0.45192674572E+02 -0.44809488591E+03  0.49667952079E+03  0.17149182417E+03 0.  0.
         24    2    3    3    0    0  0.56172503953E+02 -0.33823809828E+02 -0.16810224027E+03  0.19875003449E+03  0.83329542885E+02 0.  0.
         -6    2    1    2    0  502 -0.12020688836E+03 -0.45192674572E+02  0.42352052042E+03  0.47483530152E+03  0.17206643631E+03 0.  0.
        -24    2    5    5    0    0 -0.12225389754E+03 -0.66017968515E+02  0.23253323056E+03  0.28264758598E+03  0.80706672058E+02 0.  0.
          5    1    3    3  501    0  0.64034384407E+02  0.79016484400E+02 -0.27999264564E+03  0.29792948630E+03  0.47000000000E+01 0. -1.
        -11    1    4    4    0    0  0.64003940798E+02 -0.26879702573E+02 -0.17357278081E+03  0.18693991839E+03  0.00000000000E+00 0.  1.
         12    1    4    4    0    0 -0.78314368448E+01 -0.69441072548E+01  0.54705405449E+01  0.11810116108E+02  0.00000000000E+00 0. -1.
         -5    1    5    5    0  502  0.20470091818E+01  0.20825293943E+02  0.19098728986E+03  0.19218771554E+03  0.47000000000E+01 0.  1.
         11    1    6    6    0    0 -0.67235906202E+02  0.41016000120E+01  0.13269913117E+03  0.14881716843E+03  0.00000000000E+00 0. -1.
        -12    1    6    6    0    0 -0.55017991340E+02 -0.70119568527E+02  0.99834099394E+02  0.13383041756E+03  0.00000000000E+00 0.  1.
</event>
<event>
12    1  0.8488291E-002  0.1896252E+03  0.7818608E-02  0.1159024E+00
         21   -1    0    0  503  502  0.00000000000E+00  0.00000000000E+00  0.55348015909E+03  0.55348015909E+03  0.00000000000E+00 0.  1.
         21   -1    0    0  501  503 -0.00000000000E+00 -0.00000000000E+00 -0.11910896767E+03  0.11910896767E+03  0.00000000000E+00 0.  1.
          6    2    1    2  501    0  0.69223662369E+02 -0.36374366642E+02 -0.10563602302E+02  0.18893150413E+03  0.17166395538E+03 0.  0.
         24    2    3    3    0    0  0.83544031141E+02  0.30592639468E+02 -0.63456045739E+01  0.12015989390E+03  0.80514710921E+02 0.  0.
         -6    2    1    2    0  502 -0.69223662369E+02  0.36374366642E+02  0.44493479373E+03  0.48365762263E+03  0.17275044220E+03 0.  0.
        -24    2    5    5    0    0 -0.92057985985E+02  0.65065087609E+02  0.41104462817E+03  0.43350588162E+03  0.79129796209E+02 0.  0.
          5    1    3    3  501    0 -0.14320368772E+02 -0.66967006110E+02 -0.42179977280E+01  0.68771610232E+02  0.47000000000E+01 0. -1.
        -13    1    4    4    0    0  0.76116671032E+01 -0.52737057616E+01 -0.31229749461E+02  0.32573711793E+02  0.00000000000E+00 0.  1.
         14    1    4    4    0    0  0.75932364038E+02  0.35866345229E+02  0.24884144887E+02  0.87586182102E+02  0.00000000000E+00 0. -1.
         -5    1    5    5    0  502  0.22834323616E+02 -0.28690720967E+02  0.33890165559E+02  0.50151741009E+02  0.47000000000E+01 0.  1.
         13    1    6    6    0    0 -0.67491378308E+02  0.21921833924E-01  0.18050421069E+03  0.19270925432E+03  0.00000000000E+00 0. -1.
        -14    1    6    6    0    0 -0.24566607677E+02  0.65043165775E+02  0.23054041748E+03  0.24079662730E+03  0.00000000000E+00 0.  1.
</event>
<event>
12    1  0.8488291E-002  0.1968266E+03  0.7818608E-02  0.1152515E+00
         21   -1    0    0  503  502  0.00000000000E+00  0.00000000000E+00  0.10806800603E+03  0.10806800603E+03  0.00000000000E+00 0.  1.
         21   -1    0    0  501  503 -0.00000000000E+00 -0.00000000000E+00 -0.62747257527E+03  0.62747257527E+03  0.00000000000E+00 0. -1.
          6    2    1    2  501    0  0.84006687495E+02  0.45859075977E+02 -0.50063953682E+03  0.53782149289E+03  0.17161536642E+03 0.  0.
         24    2    3    3    0    0  0.26063087554E+02 -0.33097385751E+02 -0.17016755082E+03  0.19311087925E+03  0.80994412503E+02 0.  0.
         -6    2    1    2    0  502 -0.84006687495E+02 -0.45859075977E+02 -0.18765032416E+02  0.19771908841E+03  0.17198992147E+03 0.  0.
        -24    2    5    5    0    0 -0.88008499614E+02 -0.79591893288E+02  0.21265711903E+02  0.14500791355E+03  0.80589695424E+02 0.  0.
          5    1    3    3  501    0  0.57943599941E+02  0.78956461728E+02 -0.33047198600E+03  0.34471061364E+03  0.47000000000E+01 0. -1.
        -13    1    4    4    0    0  0.50576991913E+02 -0.37865983171E+02 -0.96663962879E+02  0.11548067593E+03  0.00000000000E+00 0.  1.
         14    1    4    4    0    0 -0.24513904360E+02  0.47685974203E+01 -0.73503587942E+02  0.77630203328E+02  0.00000000000E+00 0. -1.
         -5    1    5    5    0  502  0.40018121186E+01  0.33732817311E+02 -0.40030744319E+02  0.52711174856E+02  0.47000000000E+01 0.  1.
         11    1    6    6    0    0 -0.26193364996E+02 -0.61323925559E+02 -0.18586011101E+02  0.69225400139E+02  0.00000000000E+00 0. -1.
        -12    1    6    6    0    0 -0.61815134618E+02 -0.18267967729E+02  0.39851723004E+02  0.75782513412E+02  0.00000000000E+00 0.  1.
</event>
<event>
12    1  0.8488291E-002  0.1847552E+03  0.7818608E-02  0.1163394E+00
         21   -1    0    0  501  502  0.00000000000E+00  0.00000000000E+00  0.70469899073E+02  0.70469899073E+02  0.00000000000E+00 0. -1.
         21   -1    0    0  502  503 -0.00000000000E+00 -0.00000000000E+00 -0.53359018221E+03  0.53359018221E+03  0.00000000000E+00 0. -1.
         -6    2    1    2    0  503 -0.54924549653E+02  0.39420535978E+02 -0.32475408068E+03  0.37363042011E+03  0.17194124898E+03 0.  0.
        -24    2    3    3    0    0  0.36787645712E+02  0.13383311318E+02 -0.17286022012E+03  0.19423449284E+03  0.79460295793E+02 0.  0.
          6    2    1    2  501    0  0.54924549653E+02 -0.39420535978E+02 -0.13836620246E+03  0.23042966118E+03  0.17141160391E+03 0.  0.
         24    2    5    5    0    0  0.71641637521E+02 -0.16216164348E+02 -0.16052480655E+03  0.19394682104E+03  0.80322273752E+02 0.  0.
          5    1    5    5  501    0 -0.16717087868E+02 -0.23204371631E+02  0.22158604088E+02  0.36482840140E+02  0.47000000000E+01 0. -1.
        -11    1    6    6    0    0  0.13736020004E+02  0.25159290410E+02 -0.15947724629E+02  0.32802409367E+02  0.00000000000E+00 0.  1.
         12    1    6    6    0    0  0.57905617518E+02 -0.41375454757E+02 -0.14457708192E+03  0.16114441167E+03  0.00000000000E+00 0. -1.
         -5    1    3    3    0  503 -0.91712195365E+02  0.26037224660E+02 -0.15189386055E+03  0.17939592727E+03  0.47000000000E+01 0.  1.
         13    1    4    4    0    0  0.32011986468E+01  0.11890892918E+02 -0.15625176440E+03  0.15673625900E+03  0.00000000000E+00 0. -1.
        -14    1    4    4    0    0  0.33586447065E+02  0.14924184001E+01 -0.16608455719E+02  0.37498233832E+02  0.00000000000E+00 0.  1.
</event>
<event>
12    1  0.8488291E-002  0.3662347E+03  0.7818608E-02  0.1056171E+00
         21   -1    0    0  501  502  0.00000000000E+00  0.00000000000E+00  0.10511294415E+03  0.10511294415E+03  0.00000000000E+00 0. -1.
         21   -1    0    0  502  503 -0.00000000000E+00 -0.00000000000E+00 -0.14240975447E+04  0.14240975447E+04  0.00000000000E+00 0.  1.
         -6    2    1    2    0  503 -0.29488542962E+03  0.13129804597E+03 -0.90714192276E+03  0.97828130021E+03  0.17300647628E+03 0.  0.
        -24    2    3    3    0    0 -0.11711435047E+03  0.11314773548E+03 -0.36749237818E+03  0.40979584629E+03  0.79773469819E+02 0.  0.
          6    2    1    2  501    0  0.29488542962E+03 -0.13129804597E+03 -0.41184267783E+03  0.55092918867E+03  0.17237165130E+03 0.  0.
         24    2    5    5    0    0  0.10220126927E+03  0.36290118848E+01 -0.14531457778E+03  0.19541292363E+03  0.81311838252E+02 0.  0.
          5    1    5    5  501    0  0.19268416035E+03 -0.13492705786E+03 -0.26652810005E+03  0.35551626504E+03  0.47000000000E+01 0. -1.
        -13    1    6    6    0    0  0.41695156978E+02  0.30021756663E+02 -0.10796609696E+03  0.11956784718E+03  0.00000000000E+00 0.  1.
         14    1    6    6    0    0  0.60506112291E+02 -0.26392744778E+02 -0.37348480821E+02  0.75845076446E+02  0.00000000000E+00 0. -1.
         -5    1    3    3    0  503 -0.17777107915E+03  0.18150310495E+02 -0.53964954458E+03  0.56848545392E+03  0.47000000000E+01 0.  1.
         13    1    4    4    0    0 -0.32651494501E+02  0.27732869979E+02 -0.19466202087E+03  0.19932018096E+03  0.00000000000E+00 0. -1.
        -14    1    4    4    0    0 -0.84462855973E+02  0.85414865498E+02 -0.17283035731E+03  0.21047566533E+03  0.00000000000E+00 0.  1.
</event>
<event>
12    1  0.8488291E-002  0.2004453E+03  0.7818608E-02  0.1149494E+00
         21   -1    0    0  503  502  0.00000000000E+00  0.00000000000E+00  0.10777386194E+03  0.10777386194E+03  0.00000000000E+00 0. -1.
         21   -1    0    0  501  503 -0.00000000000E+00 -0.00000000000E+00 -0.94086385159E+03  0.94086385159E+03  0.00000000000E+00 0. -1.
          6    2    1    2  501    0 -0.10225769382E+03 -0.47517003150E+01 -0.82411096822E+03  0.84799140718E+03  0.17161388087E+03 0.  0.
         24    2    3    3    0    0 -0.33292410940E+02 -0.53622873142E+02 -0.31037094911E+03  0.32732308760E+03  0.82622517965E+02 0.  0.
         -6    2    1    2    0  502  0.10225769382E+03  0.47517003150E+01 -0.89790214295E+01  0.20064630635E+03  0.17233427640E+03 0.  0.
        -24    2    5    5    0    0  0.65175289470E+02  0.42569511052E+02 -0.56295057242E+02  0.12946914170E+03  0.86793683844E+02 0.  0.
          5    1    3    3  501    0 -0.68965282881E+02  0.48871172827E+02 -0.51374001911E+03  0.52066831958E+03  0.47000000000E+01 0. -1.
        -11    1    4    4    0    0 -0.28363993046E+02  0.24634042479E+01 -0.30017082228E+02  0.41371604845E+02  0.00000000000E+00 0.  1.
         12    1    4    4    0    0 -0.49284178948E+01 -0.56086277390E+02 -0.28035386688E+03  0.28595148276E+03  0.00000000000E+00 0. -1.
         -5    1    5    5    0  502  0.37082404351E+02 -0.37817810737E+02  0.47316035813E+02  0.71177164642E+02  0.47000000000E+01 0.  1.
         11    1    6    6    0    0  0.98439629554E+01  0.28708800081E+02  0.18394887577E+02  0.35489022214E+02  0.00000000000E+00 0. -1.
        -12    1    6    6    0    0  0.55331326514E+02  0.13860710972E+02 -0.74689944819E+02  0.93980119491E+02  0.00000000000E+00 0.  1.
</event>
<event>
12    1  0.8488291E-002  0.1938994E+03  0.7818608E-02  0.1155912E+00
         21   -1    0    0  501  502  0.00000000000E+00  0.00000000000E+00  0.15730365597E+04  0.15730365597E+04  0.00000000000E+00 0.  1.
         21   -1    0    0  502  503 -0.00000000000E+00 -0.00000000000E+00 -0.56374389429E+02  0.56374389429E+02  0.00000000000E+00 0.  1.
         -6    2    1    2    0  503 -0.78139711134E+02 -0.88625616218E+01  0.13179047022E+03  0.23103095912E+03  0.17269110162E+03 0.  0.
        -24    2    3    3    0    0  0.22408055640E+02 -0.18643260982E+02  0.77272162163E+02  0.11614035291E+03  0.81657224976E+02 0.  0.
          6    2    1    2  501    0  0.78139711134E+02  0.88625616218E+01  0.13848717001E+04  0.13983799900E+04  0.17723603299E+03 0.  0.
         24    2    5    5    0    0 -0.28573663818E+02 -0.61106775969E+01  0.70617090224E+03  0.71116182578E+03  0.78867006008E+02 0.  0.
          5    1    5    5  501    0  0.10671337495E+03  0.14973239219E+02  0.67870079784E+03  0.68721816425E+03  0.47000000000E+01 0. -1.
        -13    1    6    6    0    0  0.76721567575E+01 -0.26023101802E+01  0.57425113031E+03  0.57430827495E+03  0.00000000000E+00 0.  1.
         14    1    6    6    0    0 -0.36245820575E+02 -0.35083674167E+01  0.13191977193E+03  0.13685355083E+03  0.00000000000E+00 0. -1.
         -5    1    3    3    0  503 -0.10054776677E+03  0.97806993597E+01  0.54518308054E+02  0.11489060621E+03  0.47000000000E+01 0.  1.
         11    1    4    4    0    0 -0.13157863241E+00  0.50451198015E+01  0.82821017226E+02  0.82974643362E+02  0.00000000000E+00 0. -1.
        -12    1    4    4    0    0  0.22539634272E+02 -0.23688380783E+02 -0.55488550622E+01  0.33165709547E+02  0.00000000000E+00 0.  1.
</event>
<event>
12    1  0.8488291E-002  0.2602579E+03  0.7818608E-02  0.1107239E+00
         21   -1    0    0  503  502  0.00000000000E+00  0.00000000000E+00  0.25777156082E+03  0.25777156082E+03  0.00000000000E+00 0.  1.
         21   -1    0    0  501  503 -0.00000000000E+00 -0.00000000000E+00 -0.26518404329E+03  0.26518404329E+03  0.00000000000E+00 0.  1.
          6    2    1    2  501    0 -0.14749566523E+03 -0.12456522391E+03 -0.36192442257E+02  0.26111130425E+03  0.17203997810E+03 0.  0.
         24    2    3    3    0    0 -0.14687988211E+03 -0.13639513234E+03  0.64165647873E+01  0.21663722862E+03  0.81934026049E+02 0.  0.
         -6    2    1    2    0  502  0.14749566523E+03  0.12456522391E+03  0.28779959789E+02  0.26184429986E+03  0.17453562678E+03 0.  0.
        -24    2    5    5    0    0  0.33793054840E+02  0.23310753207E+02  0.57301357703E+02  0.10687232954E+03  0.80329866530E+02 0.  0.
          5    1    3    3  501    0 -0.61578311655E+00  0.11829908432E+02 -0.42609007045E+02  0.44474075636E+02  0.47000000000E+01 0. -1.
        -11    1    4    4    0    0 -0.12842589793E+02  0.24085500780E+01  0.19236599872E+02  0.23254676964E+02  0.00000000000E+00 0.  1.
         12    1    4    4    0    0 -0.13403729232E+03 -0.13880368242E+03 -0.12820035085E+02  0.19338255165E+03  0.00000000000E+00 0. -1.
         -5    1    5    5    0  502  0.11370261039E+03  0.10125447070E+03 -0.28521397914E+02  0.15497197032E+03  0.47000000000E+01 0.  1.
         11    1    6    6    0    0  0.29725433187E+02  0.49192298717E+02  0.56596235301E+02  0.80663606920E+02  0.00000000000E+00 0. -1.
        -12    1    6    6    0    0  0.40676216530E+01 -0.25881545509E+02  0.70512240237E+00  0.26208722622E+02  0.00000000000E+00 0.  1.
</event>
<event>
12    1  0.8488291E-002  0.2572210E+03  0.7818608E-02  0.1109206E+00
         21   -1    0    0  501  502  0.00000000000E+00  0.00000000000E+00  0.10553934426E+04  0.10553934426E+04  0.00000000000E+00 0.  1.
         21   -1    0    0  502  503 -0.00000000000E+00 -0.00000000000E+00 -0.24762983734E+03  0.24762983734E+03  0.00000000000E+00 0. -1.
         -6    2    1    2    0  503  0.18952985093E+03  0.36461525493E+02 -0.15958040090E+03  0.30270204268E+03  0.17003415850E+03 0.  0.
        -24    2    3    3    0    0  0.11262135159E+03  0.56961110671E+02 -0.16456333672E+03  0.22281418433E+03  0.81467367579E+02 0.  0.
          6    2    1    2  501    0 -0.18952985093E+03 -0.36461525493E+02  0.96734400613E+03  0.10003212372E+04  0.16624423062E+03 0.  0.
         24    2    5    5    0    0 -0.15117277589E+03 -0.70789767928E+02  0.87676852259E+03  0.89603460504E+03  0.79313125071E+02 0.  0.
          5    1    5    5  501    0 -0.38357075041E+02  0.34328242435E+02  0.90575483539E+02  0.10428663219E+03  0.47000000000E+01 0. -1.
        -11    1    6    6    0    0 -0.96540398235E+02 -0.30101673091E+02  0.33300176828E+03  0.34801772497E+03  0.00000000000E+00 0.  1.
         12    1    6    6    0    0 -0.54632377657E+02 -0.40688094837E+02  0.54376675431E+03  0.54801688007E+03  0.00000000000E+00 0. -1.
         -5    1    3    3    0  503  0.76908499340E+02 -0.20499585178E+02  0.49829358228E+01  0.79887858355E+02  0.47000000000E+01 0.  1.
         11    1    4    4    0    0  0.73067687828E+02 -0.23773864368E+01 -0.11387539733E+03  0.13532237467E+03  0.00000000000E+00 0. -1.
        -12    1    4    4    0    0  0.39553663766E+02  0.59338497108E+02 -0.50687939397E+02  0.87491809654E+02  0.00000000000E+00 0.  1.
</event>
<event>
12    1  0.8488291E-002  0.2521075E+03  0.7818608E-02  0.1112454E+00
         21   -1    0    0  503  502  0.00000000000E+00  0.00000000000E+00  0.39333883152E+03  0.39333883152E+03  0.00000000000E+00 0. -1.
         21   -1    0    0  501  503 -0.00000000000E+00 -0.00000000000E+00 -0.16509908865E+03  0.16509908865E+03  0.00000000000E+00 0. -1.
          6    2    1    2  501    0 -0.87803770304E+02 -0.16755868737E+03  0.64113477260E+02  0.26013213963E+03  0.16665166159E+03 0.  0.
         24    2    3    3    0    0  0.17380792945E+01 -0.40177119189E+02 -0.57958815436E+01  0.89389013299E+02  0.79621489748E+02 0.  0.
         -6    2    1    2    0  502  0.87803770304E+02  0.16755868737E+03  0.16412626562E+03  0.29830578054E+03  0.16206014884E+03 0.  0.
        -24    2    5    5    0    0  0.12678671107E+02  0.15956470029E+02  0.37414696799E+02  0.86870389682E+02  0.75705002676E+02 0.  0.
          5    1    3    3  501    0 -0.89541849598E+02 -0.12738156818E+03  0.69909358804E+02  0.17074312634E+03  0.47000000000E+01 0. -1.
        -13    1    4    4    0    0  0.33393537159E+02 -0.32544407732E+02 -0.23616858800E+02  0.52268755660E+02  0.00000000000E+00 0.  1.
         14    1    4    4    0    0 -0.31655457864E+02 -0.76327114570E+01  0.17820977257E+02  0.37120257639E+02  0.00000000000E+00 0. -1.
         -5    1    5    5    0  502  0.75125099197E+02  0.15160221734E+03  0.12671156882E+03  0.21143539085E+03  0.47000000000E+01 0.  1.
         11    1    6    6    0    0  0.34740334033E+02  0.26811918969E+02  0.43234237225E+02  0.61603320332E+02  0.00000000000E+00 0. -1.
        -12    1    6    6    0    0 -0.22061662927E+02 -0.10855448940E+02 -0.58195404259E+01  0.25267069350E+02  0.00000000000E+00 0.  1.
</event>
<event>
12    1  0.8488291E-002  0.1889780E+03  0.7818608E-02  0.1159543E+00
         21   -1    0    0  503  502  0.00000000000E+00  0.00000000000E+00  0.26561273811E+02  0.26561273811E+02  0.00000000000E+00 0. -1.
         21   -1    0    0  501  503 -0.00000000000E+00 -0.00000000000E+00 -0.18687001093E+04  0.18687001093E+04  0.00000000000E+00 0. -1.
          6    2    1    2  501    0 -0.50652359968E+02 -0.57497337579E+02 -0.14264935847E+04  0.14389567813E+04  0.17274566841E+03 0.  0.
         24    2    3    3    0    0 -0.16780409420E+02  0.16820390892E+02 -0.10605122944E+04  0.10639436767E+04  0.82008005222E+02 0.  0.
         -6    2    1    2    0  502  0.50652359968E+02  0.57497337579E+02 -0.41564525085E+03  0.45630460183E+03  0.17199217920E+03 0.  0.
        -24    2    5    5    0    0 -0.32404512432E+02  0.23400207427E+02 -0.13084425692E+03  0.15764969315E+03  0.78329969035E+02 0.  0.
          5    1    3    3  501    0 -0.33871950548E+02 -0.74317728471E+02 -0.36598129029E+03  0.37501310463E+03  0.47000000000E+01 0. -1.
        -13    1    4    4    0    0  0.23854687011E+02  0.27365429047E+02 -0.28605757537E+03  0.28835195374E+03  0.00000000000E+00 0.  1.
         14    1    4    4    0    0 -0.40635096430E+02 -0.10545038155E+02 -0.77445471901E+03  0.77559172294E+03  0.00000000000E+00 0. -1.
         -5    1    5    5    0  502  0.83056872400E+02  0.34097130152E+02 -0.28480099393E+03  0.29865490868E+03  0.47000000000E+01 0.  1.
         13    1    6    6    0    0  0.10856286611E+02 -0.38164354127E+01  0.49713786427E+01  0.12535499346E+02  0.00000000000E+00 0. -1.
        -14    1    6    6    0    0 -0.43260799043E+02  0.27216642840E+02 -0.13581563556E+03  0.14511419381E+03  0.00000000000E+00 0.  1.
</event>
<event>
12    1  0.8488291E-002  0.1933999E+03  0.7818608E-02  0.1155797E+00
         21   -1    0    0  501  502  0.00000000000E+00  0.00000000000E+00  0.20609181053E+03  0.20609181053E+03  0.00000000000E+00 0. -1.
         21   -1    0    0  502  503 -0.00000000000E+00 -0.00000000000E+00 -0.22862031576E+03  0.22862031576E+03  0.00000000000E+00 0. -1.
         -6    2    1    2    0  503 -0.65698351527E+02 -0.59082310132E+02  0.89073773691E+02  0.21142178913E+03  0.17017062906E+03 0.  0.
        -24    2    3    3    0    0 -0.84884618396E+02  0.20952025367E+01  0.89449003949E+02  0.14713313002E+03  0.80232445607E+02 0.  0.
          6    2    1    2  501    0  0.65698351527E+02  0.59082310132E+02 -0.11160227892E+03  0.22329033716E+03  0.17203637186E+03 0.  0.
         24    2    5    5    0    0  0.36536322225E+02  0.77783262540E+02 -0.13646275287E+03  0.18039182042E+03  0.80833082215E+02 0.  0.
          5    1    5    5  501    0  0.29162029302E+02 -0.18700952408E+02  0.24860473944E+02  0.42898516743E+02  0.47000000000E+01 0. -1.
        -11    1    6    6    0    0  0.70431800082E+01  0.48760994090E+02 -0.12933971632E+03  0.13840521358E+03  0.00000000000E+00 0.  1.
         12    1    6    6    0    0  0.29493142217E+02  0.29022268450E+02 -0.71230365467E+01  0.41986606835E+02  0.00000000000E+00 0. -1.
         -5    1    3    3    0  503  0.19186266869E+02 -0.61177512669E+02 -0.37523025819E+00  0.64288659112E+02  0.47000000000E+01 0.  1.
         13    1    4    4    0    0 -0.78186665268E+02 -0.27307798835E+02  0.80933416422E+02  0.11579761827E+03  0.00000000000E+00 0. -1.
        -14    1    4    4    0    0 -0.66979531284E+01  0.29403001372E+02  0.85155875274E+01  0.31335511752E+02  0.00000000000E+00 0.  1.
</event>
<event>
12    1  0.8488291E-002  0.1799513E+03  0.7818608E-02  0.1168772E+00
         21   -1    0    0  503  502  0.00000000000E+00  0.00000000000E+00  0.10139856821E+03  0.10139856821E+03  0.00000000000E+00 0.  1.
         21   -1    0    0  501  503 -0.00000000000E+00 -0.00000000000E+00 -0.31333623602E+03  0.31333623602E+03  0.00000000000E+00 0.  1.
          6    2    1    2  501    0  0.26474640494E+02 -0.27445110516E+02 -0.95604420710E+02  0.20045485315E+03  0.17201105258E+03 0.  0.
         24    2    3    3    0    0 -0.19750593967E+02  0.14866192666E+02 -0.10855426929E+03  0.13629250238E+03  0.78616328951E+02 0.  0.
         -6    2    1    2    0  502 -0.26474640494E+02  0.27445110516E+02 -0.11633324710E+03  0.21427995109E+03  0.17586452848E+03 0.  0.
        -24    2    5    5    0    0 -0.14147006151E+02  0.84362091660E+02 -0.57838161966E+02  0.13160420921E+03  0.81592368569E+02 0.  0.
          5    1    3    3  501    0  0.46225234461E+02 -0.42311303183E+02  0.12949848578E+02  0.64162350769E+02  0.47000000000E+01 0. -1.
        -13    1    4    4    0    0 -0.24262698215E+02 -0.27324238310E+02 -0.69989768718E+02  0.78954798772E+02  0.00000000000E+00 0.  1.
         14    1    4    4    0    0  0.45121042481E+01  0.42190430977E+02 -0.38564500571E+02  0.57337703608E+02  0.00000000000E+00 0. -1.
         -5    1    5    5    0  502 -0.12327634342E+02 -0.56916981144E+02 -0.58495085132E+02  0.82675741881E+02  0.47000000000E+01 0.  1.
         13    1    6    6    0    0  0.18144211241E+02 -0.73109373514E+01 -0.23927255125E+01  0.19707545304E+02  0.00000000000E+00 0. -1.
        -14    1    6    6    0    0 -0.32291217393E+02  0.91673029011E+02 -0.55445436454E+02  0.11189666390E+03  0.00000000000E+00 0.  1.
</event>
<event>
12    1  0.8488291E-002  0.1959510E+03  0.7818608E-02  0.1155241E+00
         21   -1    0    0  501  502  0.00000000000E+00  0.00000000000E+00  0.38106391431E+03  0.38106391431E+03  0.00000000000E+00 0. -1.
         21   -1    0    0  502  503 -0.00000000000E+00 -0.00000000000E+00 -0.26274933492E+03  0.26274933492E+03  0.00000000000E+00 0. -1.
         -6    2    1    2    0  503  0.71925047661E+02 -0.79436092539E+01 -0.19770392260E+03  0.27197392568E+03  0.17218206012E+03 0.  0.
        -24    2    3    3    0    0  0.10588256976E+03 -0.71071751198E+01 -0.19662323016E+03  0.23766545988E+03  0.81009540571E+02 0.  0.
          6    2    1    2  501    0 -0.71925047661E+02  0.79436092539E+01  0.31601850199E+03  0.37183932354E+03  0.18210017991E+03 0.  0.
         24    2    5    5    0    0 -0.45949521242E+02  0.77081480163E+02  0.18158060139E+03  0.21837788772E+03  0.81636229442E+02 0.  0.
          5    1    5    5  501    0 -0.25975526419E+02 -0.69137870909E+02  0.13443790060E+03  0.15346143582E+03  0.47000000000E+01 0. -1.
        -13    1    6    6    0    0 -0.26856732481E+02  0.46202432948E+02  0.27545895355E+02  0.60122585115E+02  0.00000000000E+00 0.  1.
         14    1    6    6    0    0 -0.19092788761E+02  0.30879047214E+02  0.15403470604E+03  0.15825530261E+03  0.00000000000E+00 0. -1.
         -5    1    3    3    0  503 -0.33957522102E+02 -0.83643413414E+00 -0.10806924413E+01  0.34308465799E+02  0.47000000000E+01 0.  1.
         11    1    4    4    0    0  0.90858068729E+02 -0.33120960649E+02 -0.11257175039E+03  0.14840682489E+03  0.00000000000E+00 0. -1.
        -12    1    4    4    0    0  0.15024501034E+02  0.26013785529E+02 -0.84051479776E+02  0.89258634997E+02  0.00000000000E+00 0.  1.
</event>
<event>
12    1  0.8488291E-002  0.1829953E+03  0.7818608E-02  0.1165376E+00
         21   -1    0    0  503  502  0.00000000000E+00  0.00000000000E+00  0.68064895506E+02  0.68064895506E+02  0.00000000000E+00 0.  1.
         21   -1    0    0  501  503 -0.00000000000E+00 -0.00000000000E+00 -0.76674378518E+03  0.76674378518E+03  0.00000000000E+00 0.  1.
          6    2    1    2  501    0 -0.38021746387E+02  0.47494360262E+02 -0.60032127924E+03  0.62705524030E+03  0.17062024681E+03 0.  0.
         24    2    3    3    0    0 -0.55768840601E+02 -0.30461281479E+02 -0.34642509901E+03  0.36082713929E+03  0.78408047871E+02 0.  0.
         -6    2    1    2    0  502  0.38021746387E+02 -0.47494360262E+02 -0.98357610436E+02  0.20775344039E+03  0.17258593514E+03 0.  0.
        -24    2    5    5    0    0  0.37748099425E+01  0.38496047712E+02 -0.54654219596E+02  0.10528744949E+03  0.81253728663E+02 0.  0.
          5    1    3    3  501    0  0.17747094214E+02  0.77955641741E+02 -0.25389618023E+03  0.26622810101E+03  0.47000000000E+01 0. -1.
        -11    1    4    4    0    0  0.81827036738E+01 -0.69415126252E+01 -0.18879820988E+03  0.18910289604E+03  0.00000000000E+00 0.  1.
         12    1    4    4    0    0 -0.63951544275E+02 -0.23519768853E+02 -0.15762688913E+03  0.17172424325E+03  0.00000000000E+00 0. -1.
         -5    1    5    5    0  502  0.34246936445E+02 -0.85990407975E+02 -0.43703390840E+02  0.10246599090E+03  0.47000000000E+01 0.  1.
         11    1    6    6    0    0 -0.23412183583E+02  0.14227315436E+02 -0.62294005936E+02  0.68052112533E+02  0.00000000000E+00 0. -1.
        -12    1    6    6    0    0  0.27186993525E+02  0.24268732276E+02  0.76397863401E+01  0.37235336960E+02  0.00000000000E+00 0.  1.
</event>
<event>
12    1  0.8488291E-002  0.1781988E+03  0.7818608E-02  0.1169981E+00
         21   -1    0    0  503  502  0.00000000000E+00  0.00000000000E+00  0.17120529383E+03  0.17120529383E+03  0.00000000000E+00 0.  1.
         21   -1    0    0  501  503 -0.00000000000E+00 -0.00000000000E+00 -0.25235384303E+03  0.25235384303E+03  0.00000000000E+00 0.  1.
          6    2    1    2  501    0 -0.38902920462E+02 -0.18406653462E+02 -0.15089566148E+03  0.23219700974E+03  0.17115404924E+03 0.  0.
         24    2    3    3    0    0 -0.66553059363E+02  0.97794890412E+01 -0.16079595502E+03  0.19122025264E+03  0.78644120899E+02 0.  0.
         -6    2    1    2    0  502  0.38902920462E+02  0.18406653462E+02  0.69747112284E+02  0.19136212712E+03  0.17292357246E+03 0.  0.
        -24    2    5    5    0    0  0.63920562017E+02  0.18935277271E+02  0.10476876535E+03  0.14806353573E+03  0.80634567316E+02 0.  0.
          5    1    3    3  501    0  0.27650138901E+02 -0.28186142503E+02  0.99002935453E+01  0.40976757104E+02  0.47000000000E+01 0. -1.
        -11    1    4    4    0    0 -0.10786954512E+02  0.23082518987E+02 -0.11515644506E+03  0.11794137488E+03  0.00000000000E+00 0.  1.
         12    1    4    4    0    0 -0.55766104852E+02 -0.13303029946E+02 -0.45639509966E+02  0.73278877762E+02  0.00000000000E+00 0. -1.
         -5    1    5    5    0  502 -0.25017641554E+02 -0.52862380868E+00 -0.35021653071E+02  0.43298591385E+02  0.47000000000E+01 0.  1.
         13    1    6    6    0    0  0.33001858331E+02  0.37940689943E+02  0.16990347453E+02  0.53078154765E+02  0.00000000000E+00 0. -1.
        -14    1    6    6    0    0  0.30918703686E+02 -0.19005412672E+02  0.87778417902E+02  0.94985380969E+02  0.00000000000E+00 0.  1.
</event>
<event>
12    1  0.8488291E-002  0.2451636E+03  0.7818608E-02  0.1116457E+00
         21   -1    0    0  503  502  0.00000000000E+00  0.00000000000E+00  0.10532902222E+03  0.10532902222E+03  0.00000000000E+00 0. -1.
         21   -1    0    0  501  503 -0.00000000000E+00 -0.00000000000E+00 -0.65726577513E+03  0.65726577513E+03  0.00000000000E+00 0.  1.
          6    2    1    2  501    0  0.67527422433E+01  0.17483536672E+03 -0.41521805815E+03  0.48219417448E+03  0.17173287717E+03 0.  0.
         24    2    3    3    0    0  0.30103772862E+02  0.16722205013E+02 -0.19750778627E+03  0.21207402525E+03  0.69138970691E+02 0.  0.
         -6    2    1    2    0  502 -0.67527422433E+01 -0.17483536672E+03 -0.13671869476E+03  0.28040062287E+03  0.17122938658E+03 0.  0.
        -24    2    5    5    0    0  0.61754650893E+01 -0.18567735399E+03 -0.74282266124E+02  0.21555399726E+03  0.80196349804E+02 0.  0.
          5    1    3    3  501    0 -0.23351030619E+02  0.15811316170E+03 -0.21771027188E+03  0.27012014923E+03  0.47000000000E+01 0. -1.
        -13    1    4    4    0    0 -0.10145124038E+02 -0.12480179401E+02 -0.11207417686E+03  0.11322234558E+03  0.00000000000E+00 0.  1.
         14    1    4    4    0    0  0.40248896900E+02  0.29202384414E+02 -0.85433609402E+02  0.98851679665E+02  0.00000000000E+00 0. -1.
         -5    1    5    5    0  502 -0.12928207333E+02  0.10841987269E+02 -0.62436428632E+02  0.64846625611E+02  0.47000000000E+01 0.  1.
         13    1    6    6    0    0  0.34904943564E+02 -0.41831679767E+02 -0.99607949578E+01  0.55384672550E+02  0.00000000000E+00 0. -1.
        -14    1    6    6    0    0 -0.28729478474E+02 -0.14384567422E+03 -0.64321471166E+02  0.16016932471E+03  0.00000000000E+00 0.  1.
</event>
<event>
12    1  0.8488291E-002  0.2817017E+03  0.7818608E-02  0.1094937E+00
         21   -1    0    0  501  502  0.00000000000E+00  0.00000000000E+00  0.23401106442E+03  0.23401106442E+03  0.00000000000E+00 0. -1.
         21   -1    0    0  502  503 -0.00000000000E+00 -0.00000000000E+00 -0.55714922330E+03  0.55714922330E+03  0.00000000000E+00 0.  1.
         -6    2    1    2    0  503 -0.19756801455E+03 -0.99090256242E+02 -0.41013230024E+03  0.49755841088E+03  0.17465356935E+03 0.  0.
        -24    2    3    3    0    0 -0.36062467062E+02  0.24367284042E+00 -0.97469618850E+02  0.13186548824E+03  0.81164151471E+02 0.  0.
          6    2    1    2  501    0  0.19756801455E+03  0.99090256242E+02  0.86994141356E+02  0.29360187683E+03  0.17257485969E+03 0.  0.
         24    2    5    5    0    0  0.14329042222E+03  0.16555012280E+02  0.10164323539E+03  0.19362783280E+03  0.79713090536E+02 0.  0.
          5    1    5    5  501    0  0.54277592323E+02  0.82535243962E+02 -0.14649094031E+02  0.99974044032E+02  0.47000000000E+01 0. -1.
        -13    1    6    6    0    0  0.41104879331E+02 -0.29801182863E+02  0.18756270990E+02  0.54125034007E+02  0.00000000000E+00 0.  1.
         14    1    6    6    0    0  0.10218554289E+03  0.46356195143E+02  0.82886964397E+02  0.13950279879E+03  0.00000000000E+00 0. -1.
         -5    1    3    3    0  503 -0.16150554748E+03 -0.99333929082E+02 -0.31266268139E+03  0.36569292264E+03  0.47000000000E+01 0.  1.
         11    1    4    4    0    0 -0.23563038145E+02  0.21742106164E+02 -0.10170547334E+03  0.10663929507E+03  0.00000000000E+00 0. -1.
        -12    1    4    4    0    0 -0.12499428918E+02 -0.21498433323E+02  0.42358544873E+01  0.25226193170E+02  0.00000000000E+00 0.  1.
</event>
<event>
12    1  0.8488291E-002  0.2020093E+03  0.7818608E-02  0.1148083E+00
         21   -1    0    0  501  502  0.00000000000E+00  0.00000000000E+00  0.52857666700E+03  0.52857666700E+03  0.00000000000E+00 0. -1.
         21   -1    0    0  502  503 -0.00000000000E+00 -0.00000000000E+00 -0.47985468399E+03  0.47985468399E+03  0.00000000000E+00 0. -1.
         -6    2    1    2    0  503  0.89631895422E+02 -0.55487358927E+02 -0.43754404235E+03  0.48192586380E+03  0.17232244638E+03 0.  0.
        -24    2    3    3    0    0  0.75503824748E+02 -0.33497674771E+02 -0.44011043332E+03  0.45524581596E+03  0.82028273544E+02 0.  0.
          6    2    1    2  501    0 -0.89631895422E+02  0.55487358927E+02  0.48626602536E+03  0.52650548719E+03  0.17216462165E+03 0.  0.
         24    2    5    5    0    0 -0.82044450841E+01 -0.33183159960E+02  0.18616133331E+03  0.20312056674E+03  0.73712194293E+02 0.  0.
          5    1    5    5  501    0 -0.81427450337E+02  0.88670518887E+02  0.30010469205E+03  0.32338492046E+03  0.47000000000E+01 0. -1.
        -13    1    6    6    0    0  0.31675772915E+02 -0.11658935983E+02  0.10332243108E+03  0.10869595274E+03  0.00000000000E+00 0.  1.
         14    1    6    6    0    0 -0.39880217999E+02 -0.21524223977E+02  0.82838902232E+02  0.94424613997E+02  0.00000000000E+00 0. -1.
         -5    1    3    3    0  503  0.14128070673E+02 -0.21989684156E+02  0.25663909733E+01  0.26680047842E+02  0.47000000000E+01 0.  1.
         11    1    4    4    0    0  0.31080107559E+02  0.25248547091E+02 -0.20480816887E+03  0.20868600397E+03  0.00000000000E+00 0. -1.
        -12    1    4    4    0    0  0.44423717190E+02 -0.58746221862E+02 -0.23530226445E+03  0.24655981199E+03  0.00000000000E+00 0.  1.
</event>
<event>
12    1  0.8488291E-002  0.1872322E+03  0.7818608E-02  0.1161373E+00
         21   -1    0    0  503  502  0.00000000000E+00  0.00000000000E+00  0.48016311136E+03  0.48016311136E+03  0.00000000000E+00 0. -1.
         21   -1    0    0  501  503 -0.00000000000E+00 -0.00000000000E+00 -0.71126152265E+03  0.71126152265E+03  0.00000000000E+00 0. -1.
          6    2    1    2  501    0 -0.17091600010E+02 -0.69559822011E+02 -0.68020442284E+03  0.70550262634E+03  0.17298903808E+03 0.  0.
         24    2    3    3    0    0 -0.70821913905E+02 -0.10862256282E+02 -0.35970947387E+03  0.37524295098E+03  0.79263071920E+02 0.  0.
         -6    2    1    2    0  502  0.17091600010E+02  0.69559822011E+02  0.44910601154E+03  0.48592200767E+03  0.17115284487E+03 0.  0.
        -24    2    5    5    0    0  0.71595757793E+02  0.45990565212E+02  0.36300169567E+03  0.38122121353E+03  0.79487722107E+02 0.  0.
          5    1    3    3  501    0  0.53730313894E+02 -0.58697565729E+02 -0.32049494897E+03  0.33025967536E+03  0.47000000000E+01 0. -1.
        -11    1    4    4    0    0 -0.16732735915E+02 -0.20650727923E+02 -0.26508677232E+02  0.37538606574E+02  0.00000000000E+00 0.  1.
         12    1    4    4    0    0 -0.54089177990E+02  0.97884716413E+01 -0.33320079664E+03  0.33770434441E+03  0.00000000000E+00 0. -1.
         -5    1    5    5    0  502 -0.54504157783E+02  0.23569256799E+02  0.86104315875E+02  0.10470079414E+03  0.47000000000E+01 0.  1.
         13    1    6    6    0    0  0.86230949121E+01  0.46846437391E+02  0.21783217790E+03  0.22297938064E+03  0.00000000000E+00 0. -1.
        -14    1    6    6    0    0  0.62972662881E+02 -0.85587217947E+00  0.14516951776E+03  0.15824183289E+03  0.00000000000E+00 0.  1.
</event>
<event>
12    1  0.8488291E-002  0.1719879E+03  0.7818608E-02  0.1178593E+00
         21   -1    0    0  503  502  0.00000000000E+00  0.00000000000E+00  0.12211006656E+04  0.12211006656E+04  0.00000000000E+00 0. -1.
         21   -1    0    0  501  503 -0.00000000000E+00 -0.00000000000E+00 -0.36577732491E+02  0.36577732491E+02  0.00000000000E+00 0. -1.
          6    2    1    2  501    0  0.16146238824E+02  0.41203363247E+01  0.19423141222E+03  0.25256291199E+03  0.16057554241E+03 0.  0.
         24    2    3    3    0    0 -0.60651728937E+01 -0.47647179077E+02  0.16529861190E+03  0.18906157818E+03  0.78189572524E+02 0.  0.
         -6    2    1    2    0  502 -0.16146238824E+02 -0.41203363247E+01  0.99029152092E+03  0.10051154861E+04  0.17117875411E+03 0.  0.
        -24    2    5    5    0    0  0.13538773843E+01  0.26767185462E+02  0.93775025708E+03  0.94153115257E+03  0.79919030237E+02 0.  0.
          5    1    3    3  501    0  0.22211411718E+02  0.51767515402E+02  0.28932800325E+02  0.63501333813E+02  0.47000000000E+01 0. -1.
        -13    1    4    4    0    0 -0.12612829388E+02  0.76992125675E+01  0.10844564883E+03  0.10944779619E+03  0.00000000000E+00 0.  1.
         14    1    4    4    0    0  0.65476564945E+01 -0.55346391645E+02  0.56852963064E+02  0.79613781991E+02  0.00000000000E+00 0. -1.
         -5    1    5    5    0  502 -0.17500116208E+02 -0.30887521787E+02  0.52541263838E+02  0.63584333567E+02  0.47000000000E+01 0.  1.
         11    1    6    6    0    0  0.39007041583E+02  0.44854142327E+01  0.52581499988E+03  0.52727894167E+03  0.00000000000E+00 0. -1.
        -12    1    6    6    0    0 -0.37653164198E+02  0.22281771230E+02  0.41193525721E+03  0.41425221090E+03  0.00000000000E+00 0.  1.
</event>
<event>
12    1  0.8488291E-002  0.1972265E+03  0.7818608E-02  0.1152122E+00
         21   -1    0    0  501  502  0.00000000000E+00  0.00000000000E+00  0.26771720751E+03  0.26771720751E+03  0.00000000000E+00 0.  1.
         21   -1    0    0  502  503 -0.00000000000E+00 -0.00000000000E+00 -0.18086417233E+03  0.18086417233E+03  0.00000000000E+00 0.  1.
         -6    2    1    2    0  503  0.79846114149E+02  0.42751628678E+02 -0.56148549370E+02  0.20496745215E+03  0.17508824389E+03 0.  0.
        -24    2    3    3    0    0 -0.27376464402E+02  0.18648575873E+02 -0.36335569628E+02  0.93198571548E+02  0.79173606291E+02 0.  0.
          6    2    1    2  501    0 -0.79846114149E+02 -0.42751628678E+02  0.14300158454E+03  0.24361392768E+03  0.17520042489E+03 0.  0.
         24    2    5    5    0    0  0.22075180561E+01  0.12710474339E+02  0.20043600518E+02  0.85659506203E+02  0.82276216414E+02 0.  0.
          5    1    5    5  501    0 -0.82053632205E+02 -0.55462103018E+02  0.12295798403E+03  0.15795442148E+03  0.47000000000E+01 0. -1.
        -11    1    6    6    0    0 -0.14412001589E+02 -0.31863409532E+02  0.14146079910E+02  0.37723921239E+02  0.00000000000E+00 0.  1.
         12    1    6    6    0    0  0.16619519645E+02  0.44573883871E+02  0.58975206073E+01  0.47935584965E+02  0.00000000000E+00 0. -1.
         -5    1    3    3    0  503  0.10722257855E+03  0.24103052806E+02 -0.19812979743E+02  0.11176888061E+03  0.47000000000E+01 0.  1.
         13    1    4    4    0    0 -0.20210689164E+01 -0.13954728462E+02  0.19303657778E+02  0.23905028125E+02  0.00000000000E+00 0. -1.
        -14    1    4    4    0    0 -0.25355395486E+02  0.32603304335E+02 -0.55639227406E+02  0.69293543423E+02  0.00000000000E+00 0.  1.
</event>
<event>
12    1  0.8488291E-002  0.2446424E+03  0.7818608E-02  0.1117143E+00
         21   -1    0    0  501  502  0.00000000000E+00  0.00000000000E+00  0.16893901012E+03  0.16893901012E+03  0.00000000000E+00 0.  1.
         21   -1    0    0  502  503 -0.00000000000E+00 -0.00000000000E+00 -0.36046702752E+03  0.36046702752E+03  0.00000000000E+00 0.  1.
         -6    2    1    2    0  503  0.16521222711E+03  0.59416392869E+02 -0.13888608081E+03  0.27916396755E+03  0.16678665897E+03 0.  0.
        -24    2    3    3    0    0  0.35586062055E+02  0.48564308451E+02 -0.88145050285E+02  0.13945909083E+03  0.89746466539E+02 0.  0.
          6    2    1    2  501    0 -0.16521222711E+03 -0.59416392869E+02 -0.52641936595E+02  0.25024207009E+03  0.17036587811E+03 0.  0.
         24    2    5    5    0    0 -0.12455873180E+03  0.25700435850E+02 -0.26810697078E+02  0.15232923055E+03  0.79435451346E+02 0.  0.
          5    1    5    5  501    0 -0.40653495305E+02 -0.85116828719E+02 -0.25831239516E+02  0.97912839539E+02  0.47000000000E+01 0. -1.
        -11    1    6    6    0    0 -0.85591597040E+02  0.20615684726E+02 -0.55143233616E+02  0.10388312738E+03  0.00000000000E+00 0.  1.
         12    1    6    6    0    0 -0.38967134761E+02  0.50847511236E+01  0.28332536537E+02  0.48446103167E+02  0.00000000000E+00 0. -1.
         -5    1    3    3    0  503  0.12962616505E+03  0.10852084418E+02 -0.50741030528E+02  0.13970487673E+03  0.47000000000E+01 0.  1.
         11    1    4    4    0    0  0.38317767093E+00 -0.19639254897E+02 -0.50061963821E+02  0.53777759155E+02  0.00000000000E+00 0. -1.
        -12    1    4    4    0    0  0.35202884384E+02  0.68203563348E+02 -0.38083086464E+02  0.85681331672E+02  0.00000000000E+00 0.  1.
</event>
<event>
12    1  0.8488291E-002  0.1999863E+03  0.7818608E-02  0.1149923E+00
         21   -1    0    0  501  502  0.00000000000E+00  0.00000000000E+00  0.19366082941E+03  0.19366082941E+03  0.00000000000E+00 0.  1.
         21   -1    0    0  502  503 -0.00000000000E+00 -0.00000000000E+00 -0.23052200889E+03  0.23052200889E+03  0.00000000000E+00 0. -1.
         -6    2    1    2    0  503  0.71024029148E+02 -0.71002616475E+02 -0.88025541954E+02  0.21775529217E+03  0.17199734582E+03 0.  0.
        -24    2    3    3    0    0  0.99628181023E+02 -0.76322116021E+02 -0.10667800803E+03  0.18287694544E+03  0.79454011411E+02 0.  0.
          6    2    1    2  501    0 -0.71024029148E+02  0.71002616475E+02  0.51164362480E+02  0.20642754613E+03  0.17294148013E+03 0.  0.
         24    2    5    5    0    0  0.76074167942E+00  0.22921802513E+02  0.80747297428E+02  0.11498325689E+03  0.78581394522E+02 0.  0.
          5    1    5    5  501    0 -0.71784770828E+02  0.48080813962E+02 -0.29582934948E+02  0.91444289237E+02  0.47000000000E+01 0. -1.
        -13    1    6    6    0    0 -0.26971763646E+02  0.39981289027E+02  0.38898541687E+02  0.61960278016E+02  0.00000000000E+00 0.  1.
         14    1    6    6    0    0  0.27732505325E+02 -0.17059486514E+02  0.41848755740E+02  0.53022978875E+02  0.00000000000E+00 0. -1.
         -5    1    3    3    0  503 -0.28604151875E+02  0.53194995465E+01  0.18652466073E+02  0.34878346728E+02  0.47000000000E+01 0.  1.
         11    1    4    4    0    0  0.44371379780E+02 -0.81498819734E+02 -0.71793564408E+02  0.11732515865E+03  0.00000000000E+00 0. -1.
        -12    1    4    4    0    0  0.55256801243E+02  0.51767037130E+01 -0.34884443618E+02  0.65551786791E+02  0.00000000000E+00 0.  1.
</event>
<event>
12    1  0.8488291E-002  0.1794264E+03  0.7818608E-02  0.1169536E+00
         21   -1    0    0  501  502  0.00000000000E+00  0.00000000000E+00  0.15678745277E+02  0.15678745277E+02  0.00000000000E+00 0. -1.
         21   -1    0    0  502  503 -0.00000000000E+00 -0.00000000000E+00 -0.28444421085E+04  0.28444421085E+04  0.00000000000E+00 0. -1.
         -6    2    1    2    0  503 -0.54081215210E+01  0.26823459310E+02 -0.21805441486E+04  0.21875273770E+04  0.17249491380E+03 0.  0.
        -24    2    3    3    0    0  0.37323146500E+01 -0.86599713147E+01 -0.49733304087E+03  0.50391092879E+03  0.80604871674E+02 0.  0.
          6    2    1    2  501    0  0.54081215210E+01 -0.26823459310E+02 -0.64821921460E+03  0.67259347678E+03  0.17732763202E+03 0.  0.
         24    2    5    5    0    0  0.21516794668E+02  0.44526121702E+02 -0.47458807509E+03  0.48412566873E+03  0.81842984685E+02 0.  0.
          5    1    5    5  501    0 -0.16108673147E+02 -0.71349581012E+02 -0.17363113951E+03  0.18846780804E+03  0.47000000000E+01 0. -1.
        -11    1    6    6    0    0 -0.14115833350E+02  0.10843239172E+01 -0.30785277284E+03  0.30817813397E+03  0.00000000000E+00 0.  1.
         12    1    6    6    0    0  0.35632628017E+02  0.43441797785E+02 -0.16673530225E+03  0.17594753477E+03  0.00000000000E+00 0. -1.
         -5    1    3    3    0  503 -0.91404361710E+01  0.35483430625E+02 -0.16832111077E+04  0.16836164482E+04  0.47000000000E+01 0.  1.
         13    1    4    4    0    0 -0.35892139107E+02 -0.14413224295E+02 -0.30588685720E+03  0.30832248716E+03  0.00000000000E+00 0. -1.
        -14    1    4    4    0    0  0.39624453757E+02  0.57532529806E+01 -0.19144618367E+03  0.19558844163E+03  0.00000000000E+00 0.  1.
</event>
<event>
12    1  0.8488291E-002  0.2064614E+03  0.7818608E-02  0.1144998E+00
         21   -1    0    0  501  502  0.00000000000E+00  0.00000000000E+00  0.18342203745E+04  0.18342203745E+04  0.00000000000E+00 0. -1.
         21   -1    0    0  502  503 -0.00000000000E+00 -0.00000000000E+00 -0.55988547524E+02  0.55988547524E+02  0.00000000000E+00 0. -1.
         -6    2    1    2    0  503 -0.96657643290E+02  0.51098330407E+02  0.16007785021E+03  0.25893683770E+03  0.17166720249E+03 0.  0.
        -24    2    3    3    0    0 -0.31534197364E+02  0.78130775189E+02  0.42888287739E+02  0.12208911271E+03  0.77249741636E+02 0.  0.
          6    2    1    2  501    0  0.96657643290E+02 -0.51098330407E+02  0.16181539768E+04  0.16312720844E+04  0.17513589358E+03 0.  0.
         24    2    5    5    0    0  0.78083979311E+02  0.19862633507E+02  0.61165341933E+03  0.62209127719E+03  0.79912575593E+02 0.  0.
          5    1    5    5  501    0  0.18573663980E+02 -0.70960963914E+02  0.10065005575E+04  0.10091808072E+04  0.47000000000E+01 0. -1.
        -13    1    6    6    0    0  0.57580538599E+02  0.28918768101E+02  0.57846666153E+03  0.58204423549E+03  0.00000000000E+00 0.  1.
         14    1    6    6    0    0  0.20503440712E+02 -0.90561345943E+01  0.33186757806E+02  0.40047041695E+02  0.00000000000E+00 0. -1.
         -5    1    3    3    0  503 -0.65123445927E+02 -0.27032444782E+02  0.11718956247E+03  0.13684772498E+03  0.47000000000E+01 0.  1.
         13    1    4    4    0    0  0.10058191316E+02  0.88444020099E+01 -0.16900562790E+02  0.21564315016E+02  0.00000000000E+00 0. -1.
        -14    1    4    4    0    0 -0.41592388680E+02  0.69286373179E+02  0.59788850530E+02  0.10052479770E+03  0.00000000000E+00 0.  1.
</event>
<event>
12    1  0.8488291E-002  0.2072129E+03  0.7818608E-02  0.1143976E+00
         21   -1    0    0  501  502  0.00000000000E+00  0.00000000000E+00  0.30398136856E+03  0.30398136856E+03  0.00000000000E+00 0.  1.
         21   -1    0    0  502  503 -0.00000000000E+00 -0.00000000000E+00 -0.24178226410E+03  0.24178226410E+03  0.00000000000E+00 0.  1.
         -6    2    1    2    0  503  0.11307800832E+03  0.10309450263E+02 -0.14536355187E+03  0.25311605900E+03  0.17333279085E+03 0.  0.
        -24    2    3    3    0    0  0.22231013637E+02 -0.26119046756E+02 -0.12315864070E+03  0.15264039072E+03  0.83394337504E+02 0.  0.
          6    2    1    2  501    0 -0.11307800832E+03 -0.10309450263E+02  0.20756265634E+03  0.29264757366E+03  0.17224234477E+03 0.  0.
         24    2    5    5    0    0 -0.13791997250E+03  0.39043861396E+01  0.21062643248E+03  0.26348195942E+03  0.77602099434E+02 0.  0.
          5    1    5    5  501    0  0.24841964182E+02 -0.14213836403E+02 -0.30637761402E+01  0.29165614239E+02  0.47000000000E+01 0. -1.
        -13    1    6    6    0    0 -0.62928023077E+02  0.40383109970E+02  0.94123217725E+02  0.12020778583E+03  0.00000000000E+00 0.  1.
         14    1    6    6    0    0 -0.74991949423E+02 -0.36478723830E+02  0.11650321475E+03  0.14327417359E+03  0.00000000000E+00 0. -1.
         -5    1    3    3    0  503  0.90846994681E+02  0.36428497019E+02 -0.22204911173E+02  0.10047566829E+03  0.47000000000E+01 0.  1.
         13    1    4    4    0    0  0.41066741358E+02 -0.46636448704E+02 -0.89400719471E+02  0.10887572840E+03  0.00000000000E+00 0. -1.
        -14    1    4    4    0    0 -0.18835727721E+02  0.20517401948E+02 -0.33757921230E+02  0.43764662312E+02  0.00000000000E+00 0.  1.
</event>
<event>
12    1  0.8488291E-002  0.1950259E+03  0.7818608E-02  0.1154829E+00
         21   -1    0    0  503  502  0.00000000000E+00  0.00000000000E+00  0.56750061114E+02  0.56750061114E+02  0.00000000000E+00 0.  1.
         21   -1    0    0  501  503 -0.00000000000E+00 -0.00000000000E+00 -0.80275404459E+03  0.80275404459E+03  0.00000000000E+00 0.  1.
          6    2    1    2  501    0 -0.32222395391E+02 -0.79250032811E+02 -0.55288821666E+03  0.58504314692E+03  0.17108843667E+03 0.  0.
         24    2    3    3    0    0  0.27262847494E+02 -0.82054405561E+02 -0.22948605536E+03  0.25617021315E+03  0.74048228712E+02 0.  0.
         -6    2    1    2    0  502  0.32222395391E+02  0.79250032811E+02 -0.19311576681E+03  0.27446095879E+03  0.17526057184E+03 0.  0.
        -24    2    5    5    0    0 -0.11486829682E+02 -0.20136005239E+02 -0.11456269841E+03  0.14036861944E+03  0.77726002688E+02 0.  0.
          5    1    3    3  501    0 -0.59485242885E+02  0.28043727502E+01 -0.32340216130E+03  0.32887293376E+03  0.47000000000E+01 0. -1.
        -11    1    4    4    0    0  0.10241140409E+01 -0.37096598270E+02 -0.18188634323E+03  0.18563363991E+03  0.00000000000E+00 0.  1.
         12    1    4    4    0    0  0.26238733453E+02 -0.44957807292E+02 -0.47599712132E+02  0.70536573242E+02  0.00000000000E+00 0. -1.
         -5    1    5    5    0  502  0.43709225073E+02  0.99386038050E+02 -0.78553068399E+02  0.13409233934E+03  0.47000000000E+01 0.  1.
         11    1    6    6    0    0  0.13865451644E+02 -0.21011860888E+02 -0.11208863029E+03  0.11488085170E+03  0.00000000000E+00 0. -1.
        -12    1    6    6    0    0 -0.25352281327E+02  0.87585564835E+00 -0.24740681257E+01  0.25487767746E+02  0.00000000000E+00 0.  1.
</event>
<event>
12    1  0.8488291E-002  0.2972950E+03  0.7818608E-02  0.1086868E+00
         21   -1    0    0  501  502  0.00000000000E+00  0.00000000000E+00  0.31912183659E+03  0.31912183659E+03  0.00000000000E+00 0.  1.
         21   -1    0    0  502  503 -0.00000000000E+00 -0.00000000000E+00 -0.30705739099E+03  0.30705739099E+03  0.00000000000E+00 0. -1.
         -6    2    1    2    0  503  0.11209196705E+03  0.21226438532E+03 -0.95105421563E+02  0.31213671676E+03  0.17539529749E+03 0.  0.
        -24    2    3    3    0    0  0.49912649478E+02  0.22965912006E+02 -0.10399927356E+02  0.95578894724E+02  0.77514262788E+02 0.  0.
          6    2    1    2  501    0 -0.11209196705E+03 -0.21226438532E+03  0.10716986716E+03  0.31404251082E+03  0.17180378291E+03 0.  0.
         24    2    5    5    0    0 -0.93650724515E+02 -0.50926438960E+02  0.34906022606E+02  0.13623878309E+03  0.77321505531E+02 0.  0.
          5    1    5    5  501    0 -0.18441242538E+02 -0.16133794636E+03  0.72263844559E+02  0.17780372773E+03  0.47000000000E+01 0. -1.
        -11    1    6    6    0    0 -0.81587207173E+02 -0.52392320034E+02  0.55944420996E+02  0.11194286852E+03  0.00000000000E+00 0.  1.
         12    1    6    6    0    0 -0.12063517342E+02  0.14658810739E+01 -0.21038398390E+02  0.24295914570E+02  0.00000000000E+00 0. -1.
         -5    1    3    3    0  503  0.62179317575E+02  0.18929847332E+03 -0.84705494207E+02  0.21655782203E+03  0.47000000000E+01 0.  1.
         13    1    4    4    0    0 -0.72380068721E+01 -0.39991054620E+01  0.22759091400E+02  0.24214826643E+02  0.00000000000E+00 0. -1.
        -14    1    4    4    0    0  0.57150656350E+02  0.26965017468E+02 -0.33159018756E+02  0.71364068081E+02  0.00000000000E+00 0.  1.
</event>
<event>
12    1  0.8488291E-002  0.2393740E+03  0.7818608E-02  0.1121408E+00
         21   -1    0    0  503  502  0.00000000000E+00  0.00000000000E+00  0.12247509812E+03  0.12247509812E+03  0.00000000000E+00 0. -1.
         21   -1    0    0  501  503 -0.00000000000E+00 -0.00000000000E+00 -0.62199605901E+03  0.62199605901E+03  0.00000000000E+00 0. -1.
          6    2    1    2  501    0 -0.12620028056E+03 -0.10539197525E+03 -0.44582451167E+03  0.50602314670E+03  0.17397111981E+03 0.  0.
         24    2    3    3    0    0 -0.49675564232E+02  0.97682029956E+01 -0.13461172563E+03  0.16544512765E+03  0.81784436877E+02 0.  0.
         -6    2    1    2    0  502  0.12620028056E+03  0.10539197525E+03 -0.53696449223E+02  0.23844801043E+03  0.16413459646E+03 0.  0.
        -24    2    5    5    0    0  0.43690978890E+02 -0.65075714108E+01 -0.67825026358E+01  0.91640988151E+02  0.80005113869E+02 0.  0.
          5    1    3    3  501    0 -0.76524716329E+02 -0.11516017825E+03 -0.31121278604E+03  0.34057801905E+03  0.47000000000E+01 0. -1.
        -13    1    4    4    0    0 -0.17158527200E+02 -0.19737520613E+02 -0.25521582381E+01  0.26277334098E+02  0.00000000000E+00 0.  1.
         14    1    4    4    0    0 -0.32517037032E+02  0.29505723609E+02 -0.13205956739E+03  0.13916779355E+03  0.00000000000E+00 0. -1.
         -5    1    5    5    0  502  0.82509301670E+02  0.11189954666E+03 -0.46913946587E+02  0.14680702228E+03  0.47000000000E+01 0.  1.
         13    1    6    6    0    0  0.66732258355E+02 -0.89823810064E+01 -0.10573333860E+02  0.68159172989E+02  0.00000000000E+00 0. -1.
        -14    1    6    6    0    0 -0.23041279464E+02  0.24748095956E+01  0.37908312240E+01  0.23481815161E+02  0.00000000000E+00 0.  1.
</event>
<event>
12    1  0.8488291E-002  0.1940822E+03  0.7818608E-02  0.1154975E+00
         21   -1    0    0  503  502  0.00000000000E+00  0.00000000000E+00  0.20321726836E+03  0.20321726836E+03  0.00000000000E+00 0. -1.
         21   -1    0    0  501  503 -0.00000000000E+00 -0.00000000000E+00 -0.18945968815E+03  0.18945968815E+03  0.00000000000E+00 0. -1.
          6    2    1    2  501    0 -0.50989026371E+02  0.67542954183E+02 -0.24161867011E+02  0.19492509498E+03  0.17392545922E+03 0.  0.
         24    2    3    3    0    0 -0.26641110651E+02  0.10553400849E+03  0.13442836051E+02  0.13599848894E+03  0.80422033219E+02 0.  0.
         -6    2    1    2    0  502  0.50989026371E+02 -0.67542954183E+02  0.37919447221E+02  0.19775186153E+03  0.17465961981E+03 0.  0.
        -24    2    5    5    0    0 -0.33746141996E+02 -0.56553287860E+02 -0.33852411740E+01  0.10273087013E+03  0.78772427610E+02 0.  0.
          5    1    3    3  501    0 -0.24347915721E+02 -0.37991054309E+02 -0.37604703062E+02  0.58926606044E+02  0.47000000000E+01 0. -1.
        -11    1    4    4    0    0 -0.51838455353E+02  0.47190382604E+02  0.17708819358E+02  0.72303249905E+02  0.00000000000E+00 0.  1.
         12    1    4    4    0    0  0.25197344703E+02  0.58343625888E+02 -0.42659833072E+01  0.63695239033E+02  0.00000000000E+00 0. -1.
         -5    1    5    5    0  502  0.84735168368E+02 -0.10989666324E+02  0.41304688395E+02  0.95020991405E+02  0.47000000000E+01 0.  1.
         11    1    6    6    0    0 -0.17711173469E+02  0.69105137179E+01 -0.27104876954E+02  0.33107630845E+02  0.00000000000E+00 0. -1.
        -12    1    6    6    0    0 -0.16034968527E+02 -0.63463801578E+02  0.23719635780E+02  0.69623239280E+02  0.00000000000E+00 0.  1.
</event>
<event>
12    1  0.8488291E-002  0.3726047E+03  0.7818608E-02  0.1053907E+00
         21   -1    0    0  501  502  0.00000000000E+00  0.00000000000E+00  0.99498543387E+02  0.99498543387E+02  0.00000000000E+00 0.  1.
         21   -1    0    0  502  503 -0.00000000000E+00 -0.00000000000E+00 -0.17269997404E+04  0.17269997404E+04  0.00000000000E+00 0. -1.
         -6    2    1    2    0  503 -0.25637524475E+03  0.20849554079E+03 -0.12169085441E+04  0.12720430426E+04  0.16741696714E+03 0.  0.
        -24    2    3    3    0    0 -0.72140696653E+02  0.28783246384E+02 -0.30921154137E+03  0.32855228152E+03  0.79385571706E+02 0.  0.
          6    2    1    2  501    0  0.25637524475E+03 -0.20849554079E+03 -0.41059265296E+03  0.55445524122E+03  0.17215002528E+03 0.  0.
         24    2    5    5    0    0  0.83958393799E+02 -0.38231656314E+02 -0.87235869499E+02  0.15035245695E+03  0.80530074811E+02 0.  0.
          5    1    5    5  501    0  0.17241685095E+03 -0.17026388448E+03 -0.32335678346E+03  0.40410278428E+03  0.47000000000E+01 0. -1.
        -13    1    6    6    0    0  0.54104112391E+02 -0.58650675107E+02 -0.80903024535E+02  0.11363298838E+03  0.00000000000E+00 0.  1.
         14    1    6    6    0    0  0.29854281408E+02  0.20419018793E+02 -0.63328449636E+01  0.36719468572E+02  0.00000000000E+00 0. -1.
         -5    1    3    3    0  503 -0.18423454810E+03  0.17971229441E+03 -0.90769700269E+03  0.94349076104E+03  0.47000000000E+01 0.  1.
         13    1    4    4    0    0 -0.18817047278E+02  0.26458199092E+02 -0.23448242919E+03  0.23671951159E+03  0.00000000000E+00 0. -1.
        -14    1    4    4    0    0 -0.53323649375E+02  0.23250472924E+01 -0.74729112172E+02  0.91832769933E+02  0.00000000000E+00 0.  1.
</event>
<event>
12    1  0.8488291E-002  0.1898238E+03  0.7818608E-02  0.1159145E+00
         21   -1    0    0  501  502  0.00000000000E+00  0.00000000000E+00  0.22801033062E+03  0.22801033062E+03  0.00000000000E+00 0. -1.
         21   -1    0    0  502  503 -0.00000000000E+00 -0.00000000000E+00 -0.23174814432E+03  0.23174814432E+03  0.00000000000E+00 0. -1.
         -6    2    1    2    0  503  0.63610816967E+02  0.48805653357E+02 -0.13320020297E+03  0.23189519917E+03  0.17206034259E+03 0.  0.
        -24    2    3    3    0    0 -0.25498722846E+02  0.51835363542E+02 -0.85192099602E+02  0.13052184360E+03  0.80256887822E+02 0.  0.
          6    2    1    2  501    0 -0.63610816967E+02 -0.48805653357E+02  0.12946238927E+03  0.22786327577E+03  0.16950762336E+03 0.  0.
         24    2    5    5    0    0 -0.94456423881E+02 -0.57848020830E+02  0.13860255380E+03  0.19411644654E+03  0.78753522927E+02 0.  0.
          5    1    5    5  501    0  0.30845606914E+02  0.90423674730E+01 -0.91401645278E+01  0.33746829229E+02  0.47000000000E+01 0. -1.
        -13    1    6    6    0    0 -0.75135101520E+02 -0.12195511384E+02  0.45613723443E+02  0.88739088032E+02  0.00000000000E+00 0.  1.
         14    1    6    6    0    0 -0.19321322361E+02 -0.45652509446E+02  0.92988830352E+02  0.10537735851E+03  0.00000000000E+00 0. -1.
         -5    1    3    3    0  503  0.89109539813E+02 -0.30297101848E+01 -0.48008103371E+02  0.10137335557E+03  0.47000000000E+01 0.  1.
         11    1    4    4    0    0 -0.19777716663E+02 -0.19218605198E+02 -0.25056696038E+02  0.37260580759E+02  0.00000000000E+00 0. -1.
        -12    1    4    4    0    0 -0.57210061822E+01  0.71053968740E+02 -0.60135403565E+02  0.93261262844E+02  0.00000000000E+00 0.  1.
</event>
<event>
12    1  0.8488291E-002  0.2000419E+03  0.7818608E-02  0.1149866E+00
         21   -1    0    0  501  502  0.00000000000E+00  0.00000000000E+00  0.47923804802E+03  0.47923804802E+03  0.00000000000E+00 0.  1.
         21   -1    0    0  502  503 -0.00000000000E+00 -0.00000000000E+00 -0.14342300146E+03  0.14342300146E+03  0.00000000000E+00 0.  1.
         -6    2    1    2    0  503 -0.10144605777E+03 -0.80793116914E+01 -0.33677784345E+02  0.20285701818E+03  0.17222136555E+03 0.  0.
        -24    2    3    3    0    0 -0.85471827189E+02  0.58494370179E+02 -0.31600968668E+02  0.13420110566E+03  0.79273519878E+02 0.  0.
          6    2    1    2  501    0  0.10144605777E+03  0.80793116914E+01  0.36949283091E+03  0.41980403131E+03  0.17132978346E+03 0.  0.
         24    2    5    5    0    0  0.13163304808E+03 -0.21971830979E+02  0.26010734664E+03  0.30232382137E+03  0.77031425315E+02 0.  0.
          5    1    5    5  501    0 -0.30186990317E+02  0.30051142671E+02  0.10938548427E+03  0.11748020994E+03  0.47000000000E+01 0. -1.
        -13    1    6    6    0    0  0.41556272484E+01 -0.36018924717E+01  0.83820279846E+02  0.84000489169E+02  0.00000000000E+00 0.  1.
         14    1    6    6    0    0  0.12747742083E+03 -0.18369938508E+02  0.17628706679E+03  0.21832333220E+03  0.00000000000E+00 0. -1.
         -5    1    3    3    0  503 -0.15974230577E+02 -0.66573681870E+02 -0.20768156770E+01  0.68655912518E+02  0.47000000000E+01 0.  1.
         11    1    4    4    0    0 -0.78297637585E+02  0.56286488982E+02  0.52702119691E+01  0.96573619729E+02  0.00000000000E+00 0. -1.
        -12    1    4    4    0    0 -0.71741896031E+01  0.22078811964E+01 -0.36871180637E+02  0.37627485930E+02  0.00000000000E+00 0.  1.
</event>
<event>
12    1  0.8488291E-002  0.2572293E+03  0.7818608E-02  0.1109781E+00
         21   -1    0    0  503  502  0.00000000000E+00  0.00000000000E+00  0.10265933907E+04  0.10265933907E+04  0.00000000000E+00 0. -1.
         21   -1    0    0  501  503 -0.00000000000E+00 -0.00000000000E+00 -0.62907389714E+02  0.62907389714E+02  0.00000000000E+00 0.  1.
          6    2    1    2  501    0 -0.18311875545E+03  0.56716261824E+00  0.48140352135E+03  0.54290834346E+03  0.17166047523E+03 0.  0.
         24    2    3    3    0    0 -0.98468094919E+02 -0.63129035644E+02  0.31422778967E+03  0.34493674129E+03  0.81000066877E+02 0.  0.
         -6    2    1    2    0  502  0.18311875545E+03 -0.56716261824E+00  0.48228247959E+03  0.54659243691E+03  0.18064911209E+03 0.  0.
        -24    2    5    5    0    0  0.10119115469E+03 -0.70934079831E+02  0.24674200910E+03  0.28743025209E+03  0.80394261561E+02 0.  0.
          5    1    3    3  501    0 -0.84650660527E+02  0.63696198262E+02  0.16717573168E+03  0.19797160217E+03  0.47000000000E+01 0. -1.
        -11    1    4    4    0    0 -0.36071433728E+02 -0.39204740321E+02  0.52437777174E+02  0.74752126858E+02  0.00000000000E+00 0.  1.
         12    1    4    4    0    0 -0.62396661191E+02 -0.23924295323E+02  0.26179001249E+03  0.27018461443E+03  0.00000000000E+00 0. -1.
         -5    1    5    5    0  502  0.81927600758E+02  0.70366917213E+02  0.23554047049E+03  0.25916218482E+03  0.47000000000E+01 0.  1.
         11    1    6    6    0    0 -0.12073686378E+02  0.99722799937E+00  0.32000911883E+02  0.34217345422E+02  0.00000000000E+00 0. -1.
        -12    1    6    6    0    0  0.11326484107E+03 -0.71931307830E+02  0.21474109722E+03  0.25321290667E+03  0.00000000000E+00 0.  1.
</event>
<event>
12    1  0.8488291E-002  0.1829803E+03  0.7818608E-02  0.1165399E+00
         21   -1    0    0  501  502  0.00000000000E+00  0.00000000000E+00  0.42234647768E+02  0.42234647768E+02  0.00000000000E+00 0. -1.
         21   -1    0    0  502  503 -0.00000000000E+00 -0.00000000000E+00 -0.13272441487E+04  0.13272441487E+04  0.00000000000E+00 0. -1.
         -6    2    1    2    0  503 -0.39280311784E+01  0.56738090887E+02 -0.10783630613E+04  0.10934633404E+04  0.17193180203E+03 0.  0.
        -24    2    3    3    0    0  0.24506809104E+02  0.66663622082E+02 -0.10346940820E+04  0.10402080490E+04  0.79976995058E+02 0.  0.
          6    2    1    2  501    0  0.39280311784E+01 -0.56738090887E+02 -0.20664643967E+03  0.27601545605E+03  0.17391705082E+03 0.  0.
         24    2    5    5    0    0  0.54907798100E+01  0.36973215067E+02 -0.89799004604E+02  0.12614996927E+03  0.80329236421E+02 0.  0.
          5    1    5    5  501    0 -0.15627486316E+01 -0.93711305953E+02 -0.11684743507E+03  0.14986548678E+03  0.47000000000E+01 0. -1.
        -13    1    6    6    0    0  0.17309744521E+02  0.19894959297E+02 -0.99709249100E+02  0.10313763143E+03  0.00000000000E+00 0.  1.
         14    1    6    6    0    0 -0.11818964711E+02  0.17078255769E+02  0.99102444962E+01  0.23012337842E+02  0.00000000000E+00 0. -1.
         -5    1    3    3    0  503 -0.28434840283E+02 -0.99255311948E+01 -0.43668979299E+02  0.53255291422E+02  0.47000000000E+01 0.  1.
         13    1    4    4    0    0  0.38210177141E+00  0.25877774111E+02 -0.81728571862E+03  0.81769539014E+03  0.00000000000E+00 0. -1.
        -14    1    4    4    0    0  0.24124707333E+02  0.40785847970E+02 -0.21740836334E+03  0.22251265885E+03  0.00000000000E+00 0.  1.
</event>
<event>
12    1  0.8488291E-002  0.2240398E+03  0.7818608E-02  0.1131017E+00
         21   -1    0    0  501  502  0.00000000000E+00  0.00000000000E+00  0.18276884222E+03  0.18276884222E+03  0.00000000000E+00 0. -1.
         21   -1    0    0  502  503 -0.00000000000E+00 -0.00000000000E+00 -0.84711277944E+03  0.84711277944E+03  0.00000000000E+00 0. -1.
         -6    2    1    2    0  503  0.46357276653E+02  0.13542238885E+03 -0.75590968449E+03  0.78841186914E+03  0.17235313687E+03 0.  0.
        -24    2    3    3    0    0  0.78112409640E+02  0.10679945547E+03 -0.70549684674E+03  0.72214570132E+03  0.79126107919E+02 0.  0.
          6    2    1    2  501    0 -0.46357276653E+02 -0.13542238885E+03  0.91565747267E+02  0.24146975252E+03  0.17156670658E+03 0.  0.
         24    2    5    5    0    0 -0.48781300741E+02 -0.50715094688E+01  0.70012926022E+02  0.10924327351E+03  0.68021669238E+02 0.  0.
          5    1    5    5  501    0  0.24240240876E+01 -0.13035087938E+03  0.21552821246E+02  0.13222647901E+03  0.47000000000E+01 0. -1.
        -13    1    6    6    0    0 -0.11105350405E+02  0.80595342745E+01 -0.11878755125E+02  0.18149097048E+02  0.00000000000E+00 0.  1.
         14    1    6    6    0    0 -0.37675950336E+02 -0.13131043743E+02  0.81891681147E+02  0.91094176458E+02  0.00000000000E+00 0. -1.
         -5    1    3    3    0  503 -0.31755132987E+02  0.28622933383E+02 -0.50412837756E+02  0.66266167817E+02  0.47000000000E+01 0.  1.
         13    1    4    4    0    0  0.71228647582E+02  0.93726544528E+02 -0.41775194459E+03  0.43402174207E+03  0.00000000000E+00 0. -1.
        -14    1    4    4    0    0  0.68837620581E+01  0.13072910942E+02 -0.28774490215E+03  0.28812395925E+03  0.00000000000E+00 0.  1.
</event>
<event>
12    1  0.8488291E-002  0.1874982E+03  0.7818608E-02  0.1160962E+00
         21   -1    0    0  501  502  0.00000000000E+00  0.00000000000E+00  0.10977737036E+03  0.10977737036E+03  0.00000000000E+00 0.  1.
         21   -1    0    0  502  503 -0.00000000000E+00 -0.00000000000E+00 -0.31969492720E+03  0.31969492720E+03  0.00000000000E+00 0.  1.
         -6    2    1    2    0  503  0.13110896096E+02  0.73102653244E+02 -0.92534734832E+02  0.20908907841E+03  0.17216176129E+03 0.  0.
        -24    2    3    3    0    0  0.28242842183E+02 -0.15589842824E+02 -0.80725853961E+02  0.11822173379E+03  0.80118746295E+02 0.  0.
          6    2    1    2  501    0 -0.13110896096E+02 -0.73102653244E+02 -0.11738282201E+03  0.22038321915E+03  0.17109688154E+03 0.  0.
         24    2    5    5    0    0 -0.73083612754E+02 -0.27927306032E+02 -0.79891907811E+02  0.13632849063E+03  0.77984559683E+02 0.  0.
          5    1    5    5  501    0  0.59972716658E+02 -0.45175347212E+02 -0.37490914195E+02  0.84054728518E+02  0.47000000000E+01 0. -1.
        -11    1    6    6    0    0 -0.17851714758E+02 -0.45045920826E+02 -0.18162621015E+02  0.51746492683E+02  0.00000000000E+00 0.  1.
         12    1    6    6    0    0 -0.55231897997E+02  0.17118614794E+02 -0.61729286796E+02  0.84581997949E+02  0.00000000000E+00 0. -1.
         -5    1    3    3    0  503 -0.15131946087E+02  0.88692496068E+02 -0.11808880871E+02  0.90867344621E+02  0.47000000000E+01 0.  1.
         11    1    4    4    0    0  0.39121830378E+02 -0.40573722556E+02 -0.39584271392E+02  0.68874226789E+02  0.00000000000E+00 0. -1.
        -12    1    4    4    0    0 -0.10878988194E+02  0.24983879732E+02 -0.41141582569E+02  0.49347506998E+02  0.00000000000E+00 0.  1.
</event>
<event>
12    1  0.8488291E-002  0.2175612E+03  0.7818608E-02  0.1135997E+00
         21   -1    0    0  501  502  0.00000000000E+00  0.00000000000E+00  0.13417948720E+04  0.13417948720E+04  0.00000000000E+00 0. -1.
         21   -1    0    0  502  503 -0.00000000000E+00 -0.00000000000E+00 -0.14146107382E+03  0.14146107382E+03  0.00000000000E+00 0.  1.
         -6    2    1    2    0  503 -0.10207577678E+03  0.82214065722E+02 -0.43611871255E+02  0.22042828214E+03  0.17177897265E+03 0.  0.
        -24    2    3    3    0    0 -0.10810621869E+01  0.71812852206E+01  0.15866157350E+02  0.81181822895E+02  0.79284386020E+02 0.  0.
          6    2    1    2  501    0  0.10207577678E+03 -0.82214065722E+02  0.12439456694E+04  0.12628276637E+04  0.17364982820E+03 0.  0.
         24    2    5    5    0    0  0.37065472069E+02  0.81970716645E+01  0.33490850549E+03  0.34698315236E+03  0.82416987122E+02 0.  0.
          5    1    5    5  501    0  0.65010304715E+02 -0.90411137387E+02  0.90903716395E+03  0.91584451133E+03  0.47000000000E+01 0. -1.
        -11    1    6    6    0    0 -0.17680426856E+02 -0.17868109649E+02  0.53426075560E+02  0.59044156239E+02  0.00000000000E+00 0.  1.
         12    1    6    6    0    0  0.54745898925E+02  0.26065181313E+02  0.28148242993E+03  0.28793899612E+03  0.00000000000E+00 0. -1.
         -5    1    3    3    0  503 -0.10099471460E+03  0.75032780502E+02 -0.59478028606E+02  0.13924645925E+03  0.47000000000E+01 0.  1.
         13    1    4    4    0    0 -0.63348509963E+01  0.17961687066E+02  0.45439358827E+02  0.49269543027E+02  0.00000000000E+00 0. -1.
        -14    1    4    4    0    0  0.52537888094E+01 -0.10780401846E+02 -0.29573201477E+02  0.31912279869E+02  0.00000000000E+00 0.  1.
</event>
<event>
12    1  0.8488291E-002  0.2113561E+03  0.7818608E-02  0.1140779E+00
         21   -1    0    0  503  502  0.00000000000E+00  0.00000000000E+00  0.26715341833E+03  0.26715341833E+03  0.00000000000E+00 0.  1.
         21   -1    0    0  501  503 -0.00000000000E+00 -0.00000000000E+00 -0.17347490028E+03  0.17347490028E+03  0.00000000000E+00 0. -1.
          6    2    1    2  501    0 -0.73436222119E+02  0.97715103317E+02  0.12003810923E+01  0.20992586663E+03  0.17066431505E+03 0.  0.
         24    2    3    3    0    0 -0.22686670396E+02  0.20451939390E+02 -0.54563279830E+02  0.10186667276E+03  0.80415798670E+02 0.  0.
         -6    2    1    2    0  502  0.73436222119E+02 -0.97715103317E+02  0.92478136954E+02  0.23070245197E+03  0.17242475285E+03 0.  0.
        -24    2    5    5    0    0  0.29668252643E+02 -0.72600150894E+01 -0.12706157847E+02  0.85156637841E+02  0.78468423504E+02 0.  0.
          5    1    3    3  501    0 -0.50749551724E+02  0.77263163928E+02  0.55763660922E+02  0.10805919387E+03  0.47000000000E+01 0. -1.
        -13    1    4    4    0    0 -0.33395755390E+01  0.40838730414E+02 -0.55023893659E+00  0.40978743630E+02  0.00000000000E+00 0.  1.
         14    1    4    4    0    0 -0.19347094857E+02 -0.20386791024E+02 -0.54013040893E+02  0.60887929134E+02  0.00000000000E+00 0. -1.
         -5    1    5    5    0  502  0.43767969476E+02 -0.90455088228E+02  0.10518429480E+03  0.14554581413E+03  0.47000000000E+01 0.  1.
         13    1    6    6    0    0 -0.15025143585E+02 -0.11178276058E+02 -0.31393995066E+02  0.36555324121E+02  0.00000000000E+00 0. -1.
        -14    1    6    6    0    0  0.44693396228E+02  0.39182609681E+01  0.18687837219E+02  0.48601313721E+02  0.00000000000E+00 0.  1.
</event>
<event>
12    1  0.8488291E-002  0.1800323E+03  0.7818608E-02  0.1168615E+00
         21   -1    0    0  503  502  0.00000000000E+00  0.00000000000E+00  0.43369535263E+02  0.43369535263E+02  0.00000000000E+00 0. -1.
         21   -1    0    0  501  503 -0.00000000000E+00 -0.00000000000E+00 -0.92527032021E+03  0.92527032021E+03  0.00000000000E+00 0. -1.
          6    2    1    2  501    0 -0.28155975675E+02 -0.42133691780E+02 -0.22360914502E+03  0.28707611180E+03  0.17275311077E+03 0.  0.
         24    2    3    3    0    0  0.31227215765E+02 -0.73581542610E+02 -0.14858389421E+03  0.18624849154E+03  0.78879303787E+02 0.  0.
         -6    2    1    2    0  502  0.28155975675E+02  0.42133691780E+02 -0.65829163993E+03  0.68156374367E+03  0.16915450494E+03 0.  0.
        -24    2    5    5    0    0 -0.19944424608E+02 -0.73986246473E+01 -0.52700701079E+03  0.53315605274E+03  0.77887530714E+02 0.  0.
          5    1    3    3  501    0 -0.59383191440E+02  0.31447850830E+02 -0.75025250809E+02  0.10082762026E+03  0.47000000000E+01 0. -1.
        -13    1    4    4    0    0 -0.56947085116E+01 -0.23946027712E+02 -0.11136622848E+03  0.11405384164E+03  0.00000000000E+00 0.  1.
         14    1    4    4    0    0  0.36921924277E+02 -0.49635514898E+02 -0.37217665731E+02  0.72194649899E+02  0.00000000000E+00 0. -1.
         -5    1    5    5    0  502  0.48100400283E+02  0.49532316427E+02 -0.13128462914E+03  0.14840769093E+03  0.47000000000E+01 0.  1.
         11    1    6    6    0    0 -0.38829833896E+02 -0.29126702313E+02 -0.25089361638E+03  0.25554594015E+03  0.00000000000E+00 0. -1.
        -12    1    6    6    0    0  0.18885409288E+02  0.21728077665E+02 -0.27611339441E+03  0.27761011259E+03  0.00000000000E+00 0.  1.
</event>
<event>
12    1  0.8488291E-002  0.2025987E+03  0.7818608E-02  0.1148319E+00
         21   -1    0    0  503  502  0.00000000000E+00  0.00000000000E+00  0.21358604803E+03  0.21358604803E+03  0.00000000000E+00 0. -1.
         21   -1    0    0  501  503 -0.00000000000E+00 -0.00000000000E+00 -0.20581077624E+03  0.20581077624E+03  0.00000000000E+00 0. -1.
          6    2    1    2  501    0 -0.92299084789E+02  0.36275689506E+02 -0.56474991221E+02  0.20685424172E+03  0.17252305927E+03 0.  0.
         24    2    3    3    0    0 -0.14346753838E+02 -0.95027204158E+01  0.25290090093E+02  0.84871262421E+02  0.79166984830E+02 0.  0.
         -6    2    1    2    0  502  0.92299084789E+02 -0.36275689506E+02  0.64250263006E+02  0.21254258255E+03  0.17666693635E+03 0.  0.
        -24    2    5    5    0    0  0.12987118954E+03 -0.50018120424E+02  0.62172452539E+02  0.17220742717E+03  0.80135172519E+02 0.  0.
          5    1    3    3  501    0 -0.77952330951E+02  0.45778409922E+02 -0.81765081313E+02  0.12198297930E+03  0.47000000000E+01 0. -1.
        -11    1    4    4    0    0  0.20619090021E+02  0.15106207600E+02 -0.11907310781E+02  0.28198021764E+02  0.00000000000E+00 0.  1.
         12    1    4    4    0    0 -0.34965843859E+02 -0.24608928016E+02  0.37197400874E+02  0.56673240657E+02  0.00000000000E+00 0. -1.
         -5    1    5    5    0  502 -0.37572104753E+02  0.13742430918E+02  0.20778104675E+01  0.40335155379E+02  0.47000000000E+01 0.  1.
         11    1    6    6    0    0  0.11794825912E+03 -0.40338020515E+02  0.80429108661E+02  0.14835022497E+03  0.00000000000E+00 0. -1.
        -12    1    6    6    0    0  0.11922930420E+02 -0.96800999095E+01 -0.18256656123E+02  0.23857202200E+02  0.00000000000E+00 0.  1.
</event>
<event>
12    1  0.8488291E-002  0.2393996E+03  0.7818608E-02  0.1121057E+00
         21   -1    0    0  501  502  0.00000000000E+00  0.00000000000E+00  0.30004549473E+03  0.30004549473E+03  0.00000000000E+00 0. -1.
         21   -1    0    0  502  503 -0.00000000000E+00 -0.00000000000E+00 -0.26243531955E+03  0.26243531955E+03  0.00000000000E+00 0. -1.
         -6    2    1    2    0  503  0.87348743525E+02 -0.14176243514E+03 -0.13186985811E+03  0.27331637420E+03  0.17200520317E+03 0.  0.
        -24    2    3    3    0    0  0.79964157534E+02 -0.12690869699E+03 -0.33943999599E+02  0.17388434006E+03  0.81138676034E+02 0.  0.
          6    2    1    2  501    0 -0.87348743525E+02  0.14176243514E+03  0.16948003329E+03  0.28916444008E+03  0.16482172402E+03 0.  0.
         24    2    5    5    0    0 -0.74274665644E+02  0.23483641165E+02  0.10574652333E+03  0.15409092340E+03  0.80582120331E+02 0.  0.
          5    1    5    5  501    0 -0.13074077882E+02  0.11827879398E+03  0.63733509961E+02  0.13507351668E+03  0.47000000000E+01 0. -1.
        -13    1    6    6    0    0 -0.48908140543E+02  0.24431489181E+02  0.10693587479E+02  0.55706881874E+02  0.00000000000E+00 0.  1.
         14    1    6    6    0    0 -0.25366525101E+02 -0.94784801563E+00  0.95052935855E+02  0.98384041522E+02  0.00000000000E+00 0. -1.
         -5    1    3    3    0  503  0.73845859909E+01 -0.14853738152E+02 -0.97925858515E+02  0.99432034140E+02  0.47000000000E+01 0.  1.
         13    1    4    4    0    0  0.24521853640E+02 -0.10572205256E+03 -0.36429984455E+02  0.11447976882E+03  0.00000000000E+00 0. -1.
        -14    1    4    4    0    0  0.55442303895E+02 -0.21186644436E+02  0.24859848563E+01  0.59404571241E+02  0.00000000000E+00 0.  1.
</event>
<event>
12    1  0.8488291E-002  0.1824296E+03  0.7818608E-02  0.1165845E+00
         21   -1    0    0  503  502  0.00000000000E+00  0.00000000000E+00  0.31646231667E+02  0.31646231667E+02  0.00000000000E+00 0.  1.
         21   -1    0    0  501  503 -0.00000000000E+00 -0.00000000000E+00 -0.14418445766E+04  0.14418445766E+04  0.00000000000E+00 0.  1.
          6    2    1    2  501    0 -0.15905635251E+02  0.54639559407E+02 -0.10949371200E+04  0.11100305708E+04  0.17332657184E+03 0.  0.
         24    2    3    3    0    0 -0.52208019681E+01 -0.25594052809E+02 -0.75030337866E+03  0.75598805370E+03  0.88771983180E+02 0.  0.
         -6    2    1    2    0  502  0.15905635251E+02 -0.54639559407E+02 -0.31526122492E+03  0.36346023753E+03  0.17168352758E+03 0.  0.
        -24    2    5    5    0    0  0.59035970894E+02 -0.29663779752E+02 -0.10797873043E+03  0.15021826711E+03  0.80876052465E+02 0.  0.
          5    1    3    3  501    0 -0.10684833283E+02  0.80233612216E+02 -0.34463374138E+03  0.35404251707E+03  0.47000000000E+01 0. -1.
        -11    1    4    4    0    0  0.13232381100E+01 -0.34116152220E+02 -0.74096837700E+03  0.74175454061E+03  0.00000000000E+00 0.  1.
         12    1    4    4    0    0 -0.65440400781E+01  0.85220994110E+01 -0.93350016591E+01  0.14233513090E+02  0.00000000000E+00 0. -1.
         -5    1    5    5    0  502 -0.43130335643E+02 -0.24975779656E+02 -0.20728249450E+03  0.21324197042E+03  0.47000000000E+01 0.  1.
         13    1    6    6    0    0 -0.19202108878E+02  0.10117191830E+01 -0.29638937466E+02  0.35330032199E+02  0.00000000000E+00 0. -1.
        -14    1    6    6    0    0  0.78238079772E+02 -0.30675498935E+02 -0.78339792959E+02  0.11488823492E+03  0.00000000000E+00 0.  1.
</event>
<event>
12    1  0.8488291E-002  0.3059565E+03  0.7818608E-02  0.1082386E+00
         21   -1    0    0  503  502  0.00000000000E+00  0.00000000000E+00  0.15775128407E+03  0.15775128407E+03  0.00000000000E+00 0. -1.
         21   -1    0    0  501  503 -0.00000000000E+00 -0.00000000000E+00 -0.64067597540E+03  0.64067597540E+03  0.00000000000E+00 0.  1.
          6    2    1    2  501    0  0.24261053509E+03  0.69389003388E+02 -0.35172007948E+03  0.46617205259E+03  0.17301636565E+03 0.  0.
         24    2    3    3    0    0  0.18150372461E+03  0.84963208763E+02 -0.33865200793E+03  0.40160067617E+03  0.80222015259E+02 0.  0.
         -6    2    1    2    0  502 -0.24261053509E+03 -0.69389003388E+02 -0.13120461185E+03  0.33225520687E+03  0.17176776997E+03 0.  0.
        -24    2    5    5    0    0 -0.10825593451E+03 -0.60362163288E+02 -0.13208514249E+03  0.19751283094E+03  0.78752113663E+02 0.  0.
          5    1    3    3  501    0  0.61106810476E+02 -0.15574205375E+02 -0.13068071555E+02  0.64571376427E+02  0.47000000000E+01 0. -1.
        -11    1    4    4    0    0  0.10472224800E+03  0.90645207202E+01 -0.13495044929E+03  0.17105712065E+03  0.00000000000E+00 0.  1.
         12    1    4    4    0    0  0.76781476609E+02  0.75898688043E+02 -0.20370155864E+03  0.23054355552E+03  0.00000000000E+00 0. -1.
         -5    1    5    5    0  502 -0.13435460058E+03 -0.90268401000E+01  0.88053064099E+00  0.13474237594E+03  0.47000000000E+01 0.  1.
         11    1    6    6    0    0 -0.89316484917E+02 -0.45140648222E+02 -0.49929756085E+02  0.11183958665E+03  0.00000000000E+00 0. -1.
        -12    1    6    6    0    0 -0.18939449591E+02 -0.15221515066E+02 -0.82155386401E+02  0.85673244285E+02  0.00000000000E+00 0.  1.
</event>
<event>
12    1  0.8488291E-002  0.2736738E+03  0.7818608E-02  0.1099286E+00
         21   -1    0    0  503  502  0.00000000000E+00  0.00000000000E+00  0.15490136445E+03  0.15490136445E+03  0.00000000000E+00 0.  1.
         21   -1    0    0  501  503 -0.00000000000E+00 -0.00000000000E+00 -0.99652824060E+03  0.99652824060E+03  0.00000000000E+00 0. -1.
          6    2    1    2  501    0  0.21208748775E+03  0.22460037332E+02 -0.83410260388E+03  0.87765240439E+03  0.17047296973E+03 0.  0.
         24    2    3    3    0    0  0.17647708467E+03  0.25428205305E+02 -0.47291936312E+03  0.51467536073E+03  0.97196954082E+02 0.  0.
         -6    2    1    2    0  502 -0.21208748775E+03 -0.22460037332E+02 -0.75242722746E+01  0.27377720065E+03  0.17149864485E+03 0.  0.
        -24    2    5    5    0    0 -0.11781503367E+03 -0.29736468036E+02 -0.69674606721E+02  0.16052970128E+03  0.78425725889E+02 0.  0.
          5    1    3    3  501    0  0.35610403076E+02 -0.29681679729E+01 -0.36118324075E+03  0.36297704367E+03  0.47000000000E+01 0. -1.
        -13    1    4    4    0    0 -0.96023803956E+01  0.33382881935E+01 -0.66156713871E+01  0.12129179083E+02  0.00000000000E+00 0.  1.
         14    1    4    4    0    0  0.18607946507E+03  0.22089917112E+02 -0.46630369174E+03  0.50254618164E+03  0.00000000000E+00 0. -1.
         -5    1    5    5    0  502 -0.94272454075E+02  0.72764307032E+01  0.62150334446E+02  0.11324749937E+03  0.47000000000E+01 0.  1.
         13    1    6    6    0    0 -0.10772811151E+03 -0.51351630382E+02 -0.49165383482E+02  0.12907196011E+03  0.00000000000E+00 0. -1.
        -14    1    6    6    0    0 -0.10086922160E+02  0.21615162346E+02 -0.20509223239E+02  0.31457741174E+02  0.00000000000E+00 0.  1.
</event>
<event>
12    1  0.8488291E-002  0.2582582E+03  0.7818608E-02  0.1108195E+00
         21   -1    0    0  501  502  0.00000000000E+00  0.00000000000E+00  0.38173203425E+02  0.38173203425E+02  0.00000000000E+00 0. -1.
         21   -1    0    0  502  503 -0.00000000000E+00 -0.00000000000E+00 -0.17485952463E+04  0.17485952463E+04  0.00000000000E+00 0.  1.
         -6    2    1    2    0  503 -0.94977200550E+02 -0.16711258128E+03 -0.82979733939E+03  0.86905750046E+03  0.17248197354E+03 0.  0.
        -24    2    3    3    0    0 -0.11772028349E+03 -0.68488324888E+02 -0.47563871281E+03  0.50069027261E+03  0.76875536886E+02 0.  0.
          6    2    1    2  501    0  0.94977200550E+02  0.16711258128E+03 -0.88062470350E+03  0.91771094928E+03  0.17247096733E+03 0.  0.
         24    2    5    5    0    0  0.57139827152E+02  0.11890379946E+03 -0.80817257448E+03  0.82269961065E+03  0.79301108686E+02 0.  0.
          5    1    5    5  501    0  0.37837373397E+02  0.48208781819E+02 -0.72452129018E+02  0.95011338636E+02  0.47000000000E+01 0. -1.
        -13    1    6    6    0    0 -0.48394011616E+01  0.71790565813E+02 -0.48342054359E+03  0.48874607631E+03  0.00000000000E+00 0.  1.
         14    1    6    6    0    0  0.61979228314E+02  0.47113233650E+02 -0.32475203089E+03  0.33395353434E+03  0.00000000000E+00 0. -1.
         -5    1    3    3    0  503  0.22743082945E+02 -0.98624256394E+02 -0.35415862659E+03  0.36836722785E+03  0.47000000000E+01 0.  1.
         13    1    4    4    0    0 -0.18744692575E+02 -0.35072101147E+02 -0.58969794458E+02  0.71125610275E+02  0.00000000000E+00 0. -1.
        -14    1    4    4    0    0 -0.98975590919E+02 -0.33416223741E+02 -0.41666891835E+03  0.42956466233E+03  0.00000000000E+00 0.  1.
</event>
<event>
12    1  0.8488291E-002  0.2468828E+03  0.7818608E-02  0.1115934E+00
         21   -1    0    0  501  502  0.00000000000E+00  0.00000000000E+00  0.15039930123E+03  0.15039930123E+03  0.00000000000E+00 0.  1.
         21   -1    0    0  502  503 -0.00000000000E+00 -0.00000000000E+00 -0.64008334429E+03  0.64008334429E+03  0.00000000000E+00 0.  1.
         -6    2    1    2    0  503  0.41635878663E+02  0.17148043285E+03 -0.48627956289E+03  0.54357634553E+03  0.16693814693E+03 0.  0.
        -24    2    3    3    0    0  0.45168305375E+02  0.19653195642E+03 -0.43848443946E+03  0.48929448213E+03  0.80470496989E+02 0.  0.
          6    2    1    2  501    0 -0.41635878663E+02 -0.17148043285E+03 -0.34044801765E+01  0.24690629998E+03  0.17266164960E+03 0.  0.
         24    2    5    5    0    0 -0.23676754834E+02 -0.19589076509E+03 -0.14234129624E+02  0.21438298901E+03  0.82605538335E+02 0.  0.
          5    1    5    5  501    0 -0.17959123829E+02  0.24410332247E+02  0.10829649447E+02  0.32523310967E+02  0.47000000000E+01 0. -1.
        -13    1    6    6    0    0  0.10254307056E+02 -0.10967405388E+03  0.26304033794E+02  0.11324950817E+03  0.00000000000E+00 0.  1.
         14    1    6    6    0    0 -0.33931061889E+02 -0.86216711211E+02 -0.40538163418E+02  0.10113348084E+03  0.00000000000E+00 0. -1.
         -5    1    3    3    0  503 -0.35324267121E+01 -0.25051523573E+02 -0.47795123425E+02  0.54281863408E+02  0.47000000000E+01 0.  1.
         13    1    4    4    0    0  0.10709345786E+02  0.72899114192E+01 -0.92771408459E+02  0.93671591868E+02  0.00000000000E+00 0. -1.
        -14    1    4    4    0    0  0.34458959588E+02  0.18924204500E+03 -0.34571303100E+03  0.39562289026E+03  0.00000000000E+00 0.  1.
</event>
<event>
12    1  0.8488291E-002  0.2212185E+03  0.7818608E-02  0.1133299E+00
         21   -1    0    0  503  502  0.00000000000E+00  0.00000000000E+00  0.95098099607E+02  0.95098099607E+02  0.00000000000E+00 0.  1.
         21   -1    0    0  501  503 -0.00000000000E+00 -0.00000000000E+00 -0.66259393642E+03  0.66259393642E+03  0.00000000000E+00 0.  1.
          6    2    1    2  501    0  0.21615006837E+02  0.13619455701E+03 -0.46605584800E+03  0.51589310140E+03  0.17297824355E+03 0.  0.
         24    2    3    3    0    0 -0.15408342949E+02  0.11087230381E+03 -0.17973301690E+03  0.22604003769E+03  0.79120518772E+02 0.  0.
         -6    2    1    2    0  502 -0.21615006837E+02 -0.13619455701E+03 -0.10143998882E+03  0.24179893462E+03  0.17076442128E+03 0.  0.
        -24    2    5    5    0    0 -0.52237004527E+02 -0.14309552761E+03 -0.45370281305E+02  0.17736887768E+03  0.78716082730E+02 0.  0.
          5    1    3    3  501    0  0.37023349786E+02  0.25322253206E+02 -0.28632283109E+03  0.28985306371E+03  0.47000000000E+01 0. -1.
        -11    1    4    4    0    0  0.27238951070E+02  0.78574524367E+02 -0.10064408689E+03  0.13055707013E+03  0.00000000000E+00 0.  1.
         12    1    4    4    0    0 -0.42647294019E+02  0.32297779440E+02 -0.79088930012E+02  0.95482967562E+02  0.00000000000E+00 0. -1.
         -5    1    5    5    0  502  0.30621997690E+02  0.69009705934E+01 -0.56069707511E+02  0.64430056946E+02  0.47000000000E+01 0.  1.
         13    1    6    6    0    0 -0.26882059001E+02 -0.39252337396E+01  0.41672661914E+01  0.27484880636E+02  0.00000000000E+00 0. -1.
        -14    1    6    6    0    0 -0.25354945526E+02 -0.13917029387E+03 -0.49537547496E+02  0.14988399704E+03  0.00000000000E+00 0.  1.
</event>
<event>
12    1  0.8488291E-002  0.2158251E+03  0.7818608E-02  0.1137146E+00
         21   -1    0    0  503  502  0.00000000000E+00  0.00000000000E+00  0.46187289538E+03  0.46187289538E+03  0.00000000000E+00 0. -1.
         21   -1    0    0  501  503 -0.00000000000E+00 -0.00000000000E+00 -0.14787847017E+03  0.14787847017E+03  0.00000000000E+00 0.  1.
          6    2    1    2  501    0 -0.11222566979E+03  0.69418830172E+02 -0.15571647359E+02  0.21580432820E+03  0.17004545547E+03 0.  0.
         24    2    3    3    0    0 -0.34217500471E+02  0.66975450540E+01  0.40856827964E+02  0.10080216772E+03  0.85300071384E+02 0.  0.
         -6    2    1    2    0  502  0.11222566979E+03 -0.69418830172E+02  0.32956607257E+03  0.39394703735E+03  0.17078318741E+03 0.  0.
        -24    2    5    5    0    0  0.33991654618E+02 -0.95959053610E+02  0.16482204393E+03  0.20958969531E+03  0.79987259369E+02 0.  0.
          5    1    3    3  501    0 -0.78008169323E+02  0.62721285118E+02 -0.56428475322E+02  0.11500216048E+03  0.47000000000E+01 0. -1.
        -13    1    4    4    0    0 -0.47525746449E+02  0.14535803361E+02 -0.72972217676E+01  0.50231818605E+02  0.00000000000E+00 0.  1.
         14    1    4    4    0    0  0.13308245979E+02 -0.78382583066E+01  0.48154049731E+02  0.50570349117E+02  0.00000000000E+00 0. -1.
         -5    1    5    5    0  502  0.78234015175E+02  0.26540223438E+02  0.16474402864E+03  0.18435734204E+03  0.47000000000E+01 0.  1.
         13    1    6    6    0    0  0.26598264451E+02 -0.54788767175E+02  0.15512365944E+03  0.16665121181E+03  0.00000000000E+00 0. -1.
        -14    1    6    6    0    0  0.73933901674E+01 -0.41170286435E+02  0.96983844885E+01  0.42938483496E+02  0.00000000000E+00 0.  1.
</event>
<event>
12    1  0.8488291E-002  0.2589500E+03  0.7818608E-02  0.1107976E+00
         21   -1    0    0  501  502  0.00000000000E+00  0.00000000000E+00  0.55509808304E+03  0.55509808304E+03  0.00000000000E+00 0.  1.
         21   -1    0    0  502  503 -0.00000000000E+00 -0.00000000000E+00 -0.13498760366E+03  0.13498760366E+03  0.00000000000E+00 0. -1.
         -6    2    1    2    0  503  0.17976685566E+03  0.67500756267E+02  0.95302407641E+02  0.27468784522E+03  0.17175095027E+03 0.  0.
        -24    2    3    3    0    0  0.93928679157E+02  0.10711930623E+03  0.62311171291E+02  0.17444646792E+03  0.79067980666E+02 0.  0.
          6    2    1    2  501    0 -0.17976685566E+03 -0.67500756267E+02  0.32480807175E+03  0.41539784148E+03  0.17373142704E+03 0.  0.
         24    2    5    5    0    0 -0.16761726002E+03 -0.16354149963E+02  0.30882274847E+03  0.36025068769E+03  0.77756439799E+02 0.  0.
          5    1    5    5  501    0 -0.12149595636E+02 -0.51146606304E+02  0.15985323275E+02  0.55147153786E+02  0.47000000000E+01 0. -1.
        -11    1    6    6    0    0 -0.97731835605E+02 -0.27043367375E+02  0.11184931653E+03  0.15097392165E+03  0.00000000000E+00 0.  1.
         12    1    6    6    0    0 -0.69885424419E+02  0.10689217411E+02  0.19697343194E+03  0.20927676604E+03  0.00000000000E+00 0. -1.
         -5    1    3    3    0  503  0.85838176502E+02 -0.39618549968E+02  0.32991236350E+02  0.10024137730E+03  0.47000000000E+01 0.  1.
         11    1    4    4    0    0  0.35194062691E+02 -0.57694773691E+01  0.12507153634E+02  0.37793356689E+02  0.00000000000E+00 0. -1.
        -12    1    4    4    0    0  0.58734616467E+02  0.11288878360E+03  0.49804017657E+02  0.13665311123E+03  0.00000000000E+00 0.  1.
</event>
<event>
12    1  0.8488291E-002  0.3350581E+03  0.7818608E-02  0.1069168E+00
         21   -1    0    0  501  502  0.00000000000E+00  0.00000000000E+00  0.88875707594E+03  0.88875707594E+03  0.00000000000E+00 0. -1.
         21   -1    0    0  502  503 -0.00000000000E+00 -0.00000000000E+00 -0.14802651818E+03  0.14802651818E+03  0.00000000000E+00 0.  1.
         -6    2    1    2    0  503  0.11126748275E+03 -0.26331798531E+03  0.16902546669E+03  0.37527791490E+03  0.17477726086E+03 0.  0.
        -24    2    3    3    0    0  0.14806196782E+03 -0.18624917622E+03  0.15395461955E+03  0.28842944974E+03  0.53650914610E+02 0.  0.
          6    2    1    2  501    0 -0.11126748275E+03  0.26331798531E+03  0.57170509107E+03  0.66150567923E+03  0.17037088480E+03 0.  0.
         24    2    5    5    0    0 -0.12373530718E+03  0.20746613801E+03  0.53751153449E+03  0.59467630841E+03  0.79803743040E+02 0.  0.
          5    1    5    5  501    0  0.12467824430E+02  0.55851847301E+02  0.34193556577E+02  0.66829370821E+02  0.47000000000E+01 0. -1.
        -13    1    6    6    0    0 -0.95511296327E+02  0.93664257086E+02  0.23777125938E+03  0.27281967042E+03  0.00000000000E+00 0.  1.
         14    1    6    6    0    0 -0.28224010854E+02  0.11380188093E+03  0.29974027511E+03  0.32185663799E+03  0.00000000000E+00 0. -1.
         -5    1    3    3    0  503 -0.36794485071E+02 -0.77068809092E+02  0.15070847142E+02  0.86848465156E+02  0.47000000000E+01 0.  1.
         13    1    4    4    0    0  0.10706631782E+03 -0.15578668004E+03  0.98928960990E+02  0.21335328780E+03  0.00000000000E+00 0. -1.
        -14    1    4    4    0    0  0.40995649999E+02 -0.30462496177E+02  0.55025658560E+02  0.75076161943E+02  0.00000000000E+00 0.  1.
</event>
<event>
12    1  0.8488291E-002  0.1895951E+03  0.7818608E-02  0.1159014E+00
         21   -1    0    0  501  502  0.00000000000E+00  0.00000000000E+00  0.24616093395E+03  0.24616093395E+03  0.00000000000E+00 0. -1.
         21   -1    0    0  502  503 -0.00000000000E+00 -0.00000000000E+00 -0.14651326712E+03  0.14651326712E+03  0.00000000000E+00 0.  1.
         -6    2    1    2    0  503 -0.57226594841E+02  0.53257308513E+02  0.66888263380E+02  0.20026970265E+03  0.17182168069E+03 0.  0.
        -24    2    3    3    0    0 -0.61238826626E+02 -0.69623837466E+01  0.88352327206E+02  0.13604116246E+03  0.83080656508E+02 0.  0.
          6    2    1    2  501    0  0.57226594841E+02 -0.53257308513E+02  0.32759403443E+02  0.19240449842E+03  0.17272836603E+03 0.  0.
         24    2    5    5    0    0  0.51513965435E+01 -0.83329176428E+02 -0.14606048989E+02  0.11571212851E+03  0.78776084490E+02 0.  0.
          5    1    5    5  501    0  0.52075198297E+02  0.30071867915E+02  0.47365452431E+02  0.76692369905E+02  0.47000000000E+01 0. -1.
        -13    1    6    6    0    0  0.29645684711E+02 -0.65662142801E+02 -0.34161064752E+02  0.79733066943E+02  0.00000000000E+00 0.  1.
         14    1    6    6    0    0 -0.24494288167E+02 -0.17667033627E+02  0.19555015763E+02  0.35979061571E+02  0.00000000000E+00 0. -1.
         -5    1    3    3    0  503  0.40122317855E+01  0.60219692260E+02 -0.21464063827E+02  0.64228540196E+02  0.47000000000E+01 0.  1.
         11    1    4    4    0    0 -0.11654627817E+02  0.33207081975E+02  0.13534905125E+02  0.37705892107E+02  0.00000000000E+00 0. -1.
        -12    1    4    4    0    0 -0.49584198809E+02 -0.40169465721E+02  0.74817422081E+02  0.98335270350E+02  0.00000000000E+00 0.  1.
</event>
<event>
12    1  0.8488291E-002  0.2283509E+03  0.7818608E-02  0.1127873E+00
         21   -1    0    0  503  502  0.00000000000E+00  0.00000000000E+00  0.64313838095E+02  0.64313838095E+02  0.00000000000E+00 0.  1.
         21   -1    0    0  501  503 -0.00000000000E+00 -0.00000000000E+00 -0.11001381585E+04  0.11001381585E+04  0.00000000000E+00 0.  1.
          6    2    1    2  501    0  0.10254710199E+03 -0.10954641745E+03 -0.81752051768E+03  0.84881324858E+03  0.17212730295E+03 0.  0.
         24    2    3    3    0    0 -0.95411698784E+01 -0.34778871047E+02 -0.17826108459E+03  0.19549198038E+03  0.71690280497E+02 0.  0.
         -6    2    1    2    0  502 -0.10254710199E+03  0.10954641745E+03 -0.21830380270E+03  0.31563874799E+03  0.17162442501E+03 0.  0.
        -24    2    5    5    0    0 -0.29005002262E+02  0.10780801519E+03 -0.79236230228E+02  0.15824325191E+03  0.79364275970E+02 0.  0.
          5    1    3    3  501    0  0.11208827187E+03 -0.74767546406E+02 -0.63925943309E+03  0.65332126820E+03  0.47000000000E+01 0. -1.
        -11    1    4    4    0    0 -0.10444915543E+02 -0.54201905022E+02 -0.15820311263E+03  0.16755646097E+03  0.00000000000E+00 0.  1.
         12    1    4    4    0    0  0.90374566433E+00  0.19423033975E+02 -0.20057971964E+02  0.27935519403E+02  0.00000000000E+00 0. -1.
         -5    1    5    5    0  502 -0.73542099725E+02  0.17384022649E+01 -0.13906757247E+03  0.15739549608E+03  0.47000000000E+01 0.  1.
         13    1    6    6    0    0 -0.44330106840E+01  0.12791962412E+02 -0.55695806548E+02  0.57317612940E+02  0.00000000000E+00 0. -1.
        -14    1    6    6    0    0 -0.24571991578E+02  0.95016052776E+02 -0.23540423680E+02  0.10092563897E+03  0.00000000000E+00 0.  1.
</event>
<event>
12    1  0.8488291E-002  0.2049825E+03  0.7818608E-02  0.1146027E+00
         21   -1    0    0  501  502  0.00000000000E+00  0.00000000000E+00  0.47437360821E+02  0.47437360821E+02  0.00000000000E+00 0.  1.
         21   -1    0    0  502  503 -0.00000000000E+00 -0.00000000000E+00 -0.88339437486E+03  0.88339437486E+03  0.00000000000E+00 0. -1.
         -6    2    1    2    0  503  0.95894763119E+01  0.10638328742E+03 -0.45599643968E+03  0.49910513840E+03  0.17252195304E+03 0.  0.
        -24    2    3    3    0    0 -0.40466884434E+02  0.14281578845E+02 -0.14338242604E+03  0.16935072145E+03  0.79244018889E+02 0.  0.
          6    2    1    2  501    0 -0.95894763119E+01 -0.10638328742E+03 -0.37996057436E+03  0.43172659728E+03  0.17495272170E+03 0.  0.
         24    2    5    5    0    0 -0.13943012956E+01 -0.60868045271E+02 -0.99888937364E+02  0.14782342715E+03  0.90372024400E+02 0.  0.
          5    1    5    5  501    0 -0.81951750163E+01 -0.45515242152E+02 -0.28007163700E+03  0.28390317014E+03  0.47000000000E+01 0. -1.
        -11    1    6    6    0    0 -0.39255682969E+02 -0.58727106714E+02 -0.70970176155E+02  0.10013314942E+03  0.00000000000E+00 0.  1.
         12    1    6    6    0    0  0.37861381673E+02 -0.21409385563E+01 -0.28918761209E+02  0.47690277730E+02  0.00000000000E+00 0. -1.
         -5    1    3    3    0  503  0.50056360746E+02  0.92101708578E+02 -0.31261401364E+03  0.32975441695E+03  0.47000000000E+01 0.  1.
         11    1    4    4    0    0 -0.61052706072E+02  0.55117516241E+01 -0.12879616223E+03  0.14264032996E+03  0.00000000000E+00 0. -1.
        -12    1    4    4    0    0  0.20585821638E+02  0.87698272210E+01 -0.14586263807E+02  0.26710391495E+02  0.00000000000E+00 0.  1.
</event>
<event>
12    1  0.8488291E-002  0.2234292E+03  0.7818608E-02  0.1131363E+00
         21   -1    0    0  503  502  0.00000000000E+00  0.00000000000E+00  0.48941759600E+02  0.48941759600E+02  0.00000000000E+00 0. -1.
         21   -1    0    0  501  503 -0.00000000000E+00 -0.00000000000E+00 -0.17982020986E+04  0.17982020986E+04  0.00000000000E+00 0. -1.
          6    2    1    2  501    0 -0.65565073068E+02 -0.12735366749E+03 -0.14822427079E+04  0.14989786281E+04  0.17139354463E+03 0.  0.
         24    2    3    3    0    0 -0.61972813569E+02 -0.44220869575E+02 -0.44107369536E+03  0.45447924133E+03  0.78798865070E+02 0.  0.
         -6    2    1    2    0  502  0.65565073068E+02  0.12735366749E+03 -0.26701763111E+03  0.34816523005E+03  0.17147267030E+03 0.  0.
        -24    2    5    5    0    0  0.28133769136E+02  0.15162523839E+03 -0.18681258236E+03  0.25626772457E+03  0.83621072984E+02 0.  0.
          5    1    3    3  501    0 -0.35922594989E+01 -0.83132797917E+02 -0.10411690125E+04  0.10444993868E+04  0.47000000000E+01 0. -1.
        -13    1    4    4    0    0 -0.79512677431E+02 -0.28419062438E+02 -0.30987965479E+03  0.32117800272E+03  0.00000000000E+00 0.  1.
         14    1    4    4    0    0  0.17539863862E+02 -0.15801807136E+02 -0.13119404057E+03  0.13330123861E+03  0.00000000000E+00 0. -1.
         -5    1    5    5    0  502  0.37431303932E+02 -0.24271570895E+02 -0.80205048745E+02  0.91897505472E+02  0.47000000000E+01 0.  1.
         13    1    6    6    0    0  0.98865143507E+01  0.14038682403E+02  0.64413048528E+01  0.18338979738E+02  0.00000000000E+00 0. -1.
        -14    1    6    6    0    0  0.18247254785E+02  0.13758655598E+03 -0.19325388722E+03  0.23792874484E+03  0.00000000000E+00 0.  1.
</event>
<event>
12    1  0.8488291E-002  0.1902159E+03  0.7818608E-02  0.1158420E+00
         21   -1    0    0  503  502  0.00000000000E+00  0.00000000000E+00  0.83392361516E+02  0.83392361516E+02  0.00000000000E+00 0. -1.
         21   -1    0    0  501  503 -0.00000000000E+00 -0.00000000000E+00 -0.50008912217E+03  0.50008912217E+03  0.00000000000E+00 0.  1.
          6    2    1    2  501    0 -0.94334631723E+01 -0.80091632079E+02 -0.31541249547E+03  0.36798068182E+03  0.17152574191E+03 0.  0.
         24    2    3    3    0    0 -0.63995587110E+02 -0.12811153600E+02 -0.16684005319E+03  0.19593548788E+03  0.79344509803E+02 0.  0.
         -6    2    1    2    0  502  0.94334631723E+01  0.80091632079E+02 -0.10128426518E+03  0.21550080186E+03  0.17227429720E+03 0.  0.
        -24    2    5    5    0    0 -0.39097829530E+02  0.16376621364E+02 -0.10099294993E+03  0.13526948736E+03  0.79381510911E+02 0.  0.
          5    1    3    3  501    0  0.54562123937E+02 -0.67280478479E+02 -0.14857244228E+03  0.17204519394E+03  0.47000000000E+01 0. -1.
        -11    1    4    4    0    0 -0.29312500652E+02  0.33734255749E+02 -0.73067136974E+02  0.85650622946E+02  0.00000000000E+00 0.  1.
         12    1    4    4    0    0 -0.34683086458E+02 -0.46545409349E+02 -0.93772916217E+02  0.11028486493E+03  0.00000000000E+00 0. -1.
         -5    1    5    5    0  502  0.48531292702E+02  0.63715010715E+02 -0.29131524858E+00  0.80231314500E+02  0.47000000000E+01 0.  1.
         11    1    6    6    0    0 -0.21976301409E+02  0.23335508761E+02  0.54891040523E+00  0.32059399486E+02  0.00000000000E+00 0. -1.
        -12    1    6    6    0    0 -0.17121528121E+02 -0.69588873974E+01 -0.10154186034E+03  0.10321008788E+03  0.00000000000E+00 0.  1.
</event>
<event>
12    1  0.8488291E-002  0.1759424E+03  0.7818608E-02  0.1172108E+00
         21   -1    0    0  501  502  0.00000000000E+00  0.00000000000E+00  0.10969409816E+03  0.10969409816E+03  0.00000000000E+00 0.  1.
         21   -1    0    0  502  503 -0.00000000000E+00 -0.00000000000E+00 -0.36927813933E+03  0.36927813933E+03  0.00000000000E+00 0.  1.
         -6    2    1    2    0  503 -0.25523831537E+02 -0.65845680043E+01 -0.24708292032E+03  0.30258632644E+03  0.17266642095E+03 0.  0.
        -24    2    3    3    0    0  0.32509581123E+02 -0.18130730545E+02 -0.22084712103E+03  0.23768950049E+03  0.79606855995E+02 0.  0.
          6    2    1    2  501    0  0.25523831537E+02  0.65845680043E+01 -0.12501120854E+02  0.17638591105E+03  0.17395657241E+03 0.  0.
         24    2    5    5    0    0 -0.49338438539E+02 -0.14784663434E+02 -0.26902574618E+02  0.97073267650E+02  0.77759905999E+02 0.  0.
          5    1    5    5  501    0  0.74862270076E+02  0.21369231439E+02  0.14401453764E+02  0.79312643404E+02  0.47000000000E+01 0. -1.
        -13    1    6    6    0    0  0.12264752134E+02 -0.27689411727E+02 -0.73085392266E+01  0.31153529693E+02  0.00000000000E+00 0.  1.
         14    1    6    6    0    0 -0.61603190673E+02  0.12904748292E+02 -0.19594035391E+02  0.65919737958E+02  0.00000000000E+00 0. -1.
         -5    1    3    3    0  503 -0.58033412659E+02  0.11546162541E+02 -0.26235799289E+02  0.64896825952E+02  0.47000000000E+01 0.  1.
         11    1    4    4    0    0  0.29868765987E+02 -0.25852119457E+02 -0.38503435526E+02  0.55163301290E+02  0.00000000000E+00 0. -1.
        -12    1    4    4    0    0  0.26408151359E+01  0.77213889115E+01 -0.18234368550E+03  0.18252619920E+03  0.00000000000E+00 0.  1.
</event>
<event>
12    1  0.8488291E-002  0.1944741E+03  0.7818608E-02  0.1154681E+00
         21   -1    0    0  501  502  0.00000000000E+00  0.00000000000E+00  0.32204641776E+03  0.32204641776E+03  0.00000000000E+00 0. -1.
         21   -1    0    0  502  503 -0.00000000000E+00 -0.00000000000E+00 -0.14331847421E+03  0.14331847421E+03  0.00000000000E+00 0. -1.
         -6    2    1    2    0  503 -0.49877279523E+02 -0.77802788234E+02 -0.10362508942E+02  0.19475001546E+03  0.17111157197E+03 0.  0.
        -24    2    3    3    0    0  0.99173154697E+01 -0.50111715280E+02 -0.58220998803E+02  0.11317358404E+03  0.82516896864E+02 0.  0.
          6    2    1    2  501    0  0.49877279523E+02  0.77802788234E+02  0.18909045249E+03  0.27061487651E+03  0.17010642345E+03 0.  0.
         24    2    5    5    0    0  0.47218900687E+01 -0.17615794256E+02  0.49078736367E+02  0.95203686071E+02  0.79513565039E+02 0.  0.
          5    1    5    5  501    0  0.45155389454E+02  0.95418582490E+02  0.14001171612E+03  0.17541119044E+03  0.47000000000E+01 0. -1.
        -13    1    6    6    0    0  0.41349879342E+02 -0.11204422030E+01  0.23366109382E+02  0.47508346425E+02  0.00000000000E+00 0.  1.
         14    1    6    6    0    0 -0.36627989273E+02 -0.16495352053E+02  0.25712626984E+02  0.47695339647E+02  0.00000000000E+00 0. -1.
         -5    1    3    3    0  503 -0.59794594992E+02 -0.27691072954E+02  0.47858489862E+02  0.81576431422E+02  0.47000000000E+01 0.  1.
         13    1    4    4    0    0 -0.27694049062E+02 -0.12868883230E+02  0.47572595001E+01  0.30906310472E+02  0.00000000000E+00 0. -1.
        -14    1    4    4    0    0  0.37611364532E+02 -0.37242832050E+02 -0.62978258303E+02  0.82267273566E+02  0.00000000000E+00 0.  1.
</event>
<event>
12    1  0.8488291E-002  0.1905507E+03  0.7818608E-02  0.1158664E+00
         21   -1    0    0  503  502  0.00000000000E+00  0.00000000000E+00  0.56158590796E+03  0.56158590796E+03  0.00000000000E+00 0. -1.
         21   -1    0    0  501  503 -0.00000000000E+00 -0.00000000000E+00 -0.71295870783E+02  0.71295870783E+02  0.00000000000E+00 0. -1.
          6    2    1    2  501    0 -0.73739607756E+02 -0.38914724532E+02  0.14306098175E+03  0.23827716821E+03  0.17134082658E+03 0.  0.
         24    2    3    3    0    0 -0.61580733995E+02  0.22540355247E+02  0.28618148078E+02  0.10772519687E+03  0.80532386204E+02 0.  0.
         -6    2    1    2    0  502  0.73739607756E+02  0.38914724532E+02  0.34722905544E+03  0.39460461054E+03  0.16790740360E+03 0.  0.
        -24    2    5    5    0    0  0.61414788335E+01 -0.21152295526E+02  0.24333088479E+03  0.25678417013E+03  0.79012993649E+02 0.  0.
          5    1    3    3  501    0 -0.12158873761E+02 -0.61455079779E+02  0.11444283367E+03  0.13055197134E+03  0.47000000000E+01 0. -1.
        -13    1    4    4    0    0  0.17927968246E+02  0.15576810998E+02  0.10001270764E+02  0.25769643055E+02  0.00000000000E+00 0.  1.
         14    1    4    4    0    0 -0.79508702241E+02  0.69635442495E+01  0.18616877315E+02  0.81955553818E+02  0.00000000000E+00 0. -1.
         -5    1    5    5    0  502  0.67598128923E+02  0.60067020058E+02  0.10389817064E+03  0.13782044041E+03  0.47000000000E+01 0.  1.
         13    1    6    6    0    0 -0.19858648474E+02  0.21701595613E+02  0.61534596563E+02  0.68204338172E+02  0.00000000000E+00 0. -1.
        -14    1    6    6    0    0  0.26000127308E+02 -0.42853891139E+02  0.18179628823E+03  0.18857983195E+03  0.00000000000E+00 0.  1.
</event>
<event>
12    1  0.8488291E-002  0.2367675E+03  0.7818608E-02  0.1123806E+00
         21   -1    0    0  503  502  0.00000000000E+00  0.00000000000E+00  0.86170848606E+03  0.86170848606E+03  0.00000000000E+00 0.  1.
         21   -1    0    0  501  503 -0.00000000000E+00 -0.00000000000E+00 -0.92860981015E+02  0.92860981015E+02  0.00000000000E+00 0. -1.
          6    2    1    2  501    0 -0.50295204567E+02  0.13849550066E+03  0.11600194322E+03  0.26365751516E+03  0.18533273636E+03 0.  0.
         24    2    3    3    0    0 -0.10173211780E+03  0.12185703464E+03  0.64867548508E+02  0.18909605785E+03  0.79692907853E+02 0.  0.
         -6    2    1    2    0  502  0.50295204567E+02 -0.13849550066E+03  0.65284556183E+03  0.69091195191E+03  0.17158492472E+03 0.  0.
        -24    2    5    5    0    0 -0.35473754532E+02 -0.44615276311E+02  0.26390045580E+03  0.28168072587E+03  0.80322292124E+02 0.  0.
          5    1    3    3  501    0  0.51436913231E+02  0.16638466024E+02  0.51134394712E+02  0.74561457315E+02  0.47000000000E+01 0. -1.
        -11    1    4    4    0    0 -0.37251636774E+02  0.30670093923E+02  0.60423288538E+02  0.77326016976E+02  0.00000000000E+00 0.  1.
         12    1    4    4    0    0 -0.64480481024E+02  0.91186940715E+02  0.44442599693E+01  0.11177004087E+03  0.00000000000E+00 0. -1.
         -5    1    5    5    0  502  0.85768959099E+02 -0.93880224351E+02  0.38894510603E+03  0.40923122605E+03  0.47000000000E+01 0.  1.
         13    1    6    6    0    0  0.12080252811E+01 -0.49276255991E+02  0.78976725138E+02  0.93096357840E+02  0.00000000000E+00 0. -1.
        -14    1    6    6    0    0 -0.36681779813E+02  0.46609796799E+01  0.18492373066E+03  0.18858436803E+03  0.00000000000E+00 0.  1.
</event>
<event>
12    1  0.8488291E-002  0.3471908E+03  0.7818608E-02  0.1063916E+00
         21   -1    0    0  501  502  0.00000000000E+00  0.00000000000E+00  0.71584915602E+02  0.71584915602E+02  0.00000000000E+00 0.  1.
         21   -1    0    0  502  503 -0.00000000000E+00 -0.00000000000E+00 -0.19399678218E+04  0.19399678218E+04  0.00000000000E+00 0. -1.
         -6    2    1    2    0  503 -0.29528815220E+03 -0.55878372840E+02 -0.13058982061E+04  0.13512629613E+04  0.17385045452E+03 0.  0.
        -24    2    3    3    0    0 -0.19048404639E+03 -0.20512932163E+02 -0.10788552572E+04  0.10986660380E+04  0.80208758241E+02 0.  0.
          6    2    1    2  501    0  0.29528815220E+03  0.55878372840E+02 -0.56248470008E+03  0.66028977607E+03  0.17110249905E+03 0.  0.
         24    2    5    5    0    0  0.19443941819E+03  0.87862339743E+02 -0.29455951412E+03  0.37219354812E+03  0.78969942449E+02 0.  0.
          5    1    5    5  501    0  0.10084873400E+03 -0.31983966903E+02 -0.26792518595E+03  0.28809622794E+03  0.47000000000E+01 0. -1.
        -13    1    6    6    0    0  0.97386710505E+02  0.64146738144E+02 -0.21456110476E+03  0.24420369177E+03  0.00000000000E+00 0.  1.
         14    1    6    6    0    0  0.97052707688E+02  0.23715601599E+02 -0.79998409366E+02  0.12798985636E+03  0.00000000000E+00 0. -1.
         -5    1    3    3    0  503 -0.10480410581E+03 -0.35365440677E+02 -0.22704294894E+03  0.25259692328E+03  0.47000000000E+01 0.  1.
         11    1    4    4    0    0 -0.88385708662E+02 -0.35262308825E+02 -0.68268890811E+03  0.68928920576E+03  0.00000000000E+00 0. -1.
        -12    1    4    4    0    0 -0.10209833773E+03  0.14749376662E+02 -0.39616634904E+03  0.40937683225E+03  0.00000000000E+00 0.  1.
</event>
<event>
12    1  0.8488291E-002  0.2326323E+03  0.7818608E-02  0.1125191E+00
         21   -1    0    0  503  502  0.00000000000E+00  0.00000000000E+00  0.11754295973E+04  0.11754295973E+04  0.00000000000E+00 0.  1.
         21   -1    0    0  501  503 -0.00000000000E+00 -0.00000000000E+00 -0.50032621675E+02  0.50032621675E+02  0.00000000000E+00 0. -1.
          6    2    1    2  501    0  0.10800049914E+03  0.10773948719E+03  0.37780842874E+03  0.44251493855E+03  0.17265096899E+03 0.  0.
         24    2    3    3    0    0  0.13051268544E+03  0.50878013430E+02  0.22808931979E+03  0.28071899510E+03  0.84594817210E+02 0.  0.
         -6    2    1    2    0  502 -0.10800049914E+03 -0.10773948719E+03  0.74758854690E+03  0.78294728044E+03  0.17563001902E+03 0.  0.
        -24    2    5    5    0    0 -0.11572831615E+03 -0.65063737592E+02  0.34615809242E+03  0.37915347347E+03  0.79407798060E+02 0.  0.
          5    1    3    3  501    0 -0.22512186294E+02  0.56861473762E+02  0.14971910895E+03  0.16179594345E+03  0.47000000000E+01 0. -1.
        -11    1    4    4    0    0  0.49842919197E+02  0.58942468628E+02  0.14710642953E+03  0.16612896439E+03  0.00000000000E+00 0.  1.
         12    1    4    4    0    0  0.80669766238E+02 -0.80644551973E+01  0.80982890260E+02  0.11459003071E+03  0.00000000000E+00 0. -1.
         -5    1    5    5    0  502  0.77278170098E+01 -0.42675749600E+02  0.40143045448E+03  0.40379380697E+03  0.47000000000E+01 0.  1.
         13    1    6    6    0    0 -0.74335917200E+02 -0.81185403970E+02  0.25519893280E+03  0.27792695750E+03  0.00000000000E+00 0. -1.
        -14    1    6    6    0    0 -0.41392398951E+02  0.16121666377E+02  0.90959159618E+02  0.10122651597E+03  0.00000000000E+00 0.  1.
</event>
<event>
12    1  0.8488291E-002  0.2412235E+03  0.7818608E-02  0.1118981E+00
         21   -1    0    0  501  502  0.00000000000E+00  0.00000000000E+00  0.87095669785E+03  0.87095669785E+03  0.00000000000E+00 0.  1.
         21   -1    0    0  502  503 -0.00000000000E+00 -0.00000000000E+00 -0.73865828853E+02  0.73865828853E+02  0.00000000000E+00 0.  1.
         -6    2    1    2    0  503  0.14796096270E+03  0.79773439777E+02  0.54456206817E+03  0.59559539280E+03  0.17300224753E+03 0.  0.
        -24    2    3    3    0    0  0.51105660604E+02  0.27953215393E+01  0.38088331914E+03  0.39036527046E+03  0.68507949971E+02 0.  0.
          6    2    1    2  501    0 -0.14796096270E+03 -0.79773439777E+02  0.25252880082E+03  0.34922713390E+03  0.17301025297E+03 0.  0.
         24    2    5    5    0    0 -0.72775523052E+02 -0.58827954188E+02  0.56160965021E+02  0.13786493142E+03  0.84235861566E+02 0.  0.
          5    1    5    5  501    0 -0.75185439650E+02 -0.20945485590E+02  0.19636783580E+03  0.21136220249E+03  0.47000000000E+01 0. -1.
        -11    1    6    6    0    0  0.17143808540E+02 -0.21313088088E+02  0.20224776319E+02  0.34017634725E+02  0.00000000000E+00 0.  1.
         12    1    6    6    0    0 -0.89919331592E+02 -0.37514866100E+02  0.35936188701E+02  0.10384729669E+03  0.00000000000E+00 0. -1.
         -5    1    3    3    0  503  0.96855302099E+02  0.76978118238E+02  0.16367874903E+03  0.20523012234E+03  0.47000000000E+01 0.  1.
         13    1    4    4    0    0 -0.88142043267E+01 -0.16940479349E+02  0.50021192636E+02  0.53542410771E+02  0.00000000000E+00 0. -1.
        -14    1    4    4    0    0  0.59919864930E+02  0.19735800888E+02  0.33086212651E+03  0.33682285968E+03  0.00000000000E+00 0.  1.
</event>
<event>
12    1  0.8488291E-002  0.3049147E+03  0.7818608E-02  0.1083478E+00
         21   -1    0    0  503  502  0.00000000000E+00  0.00000000000E+00  0.33529711657E+03  0.33529711657E+03  0.00000000000E+00 0. -1.
         21   -1    0    0  501  503 -0.00000000000E+00 -0.00000000000E+00 -0.27249062680E+03  0.27249062680E+03  0.00000000000E+00 0.  1.
          6    2    1    2  501    0  0.18579708210E+03 -0.15879816330E+03  0.25755430024E+02  0.30600054996E+03  0.18230628628E+03 0.  0.
         24    2    3    3    0    0  0.20072693842E+02 -0.10541944070E+03  0.48475851801E+01  0.13057794918E+03  0.74235639783E+02 0.  0.
         -6    2    1    2    0  502 -0.18579708210E+03  0.15879816330E+03  0.37051059748E+02  0.30178719341E+03  0.17310492973E+03 0.  0.
        -24    2    5    5    0    0 -0.16556636682E+03  0.18255432884E+03  0.56190115146E+02  0.26488149354E+03  0.79161681247E+02 0.  0.
          5    1    3    3  501    0  0.16572438826E+03 -0.53378722598E+02  0.20907844844E+02  0.17542260079E+03  0.47000000000E+01 0. -1.
        -13    1    4    4    0    0 -0.35290150064E+01 -0.74987572940E+02 -0.27837830409E+02  0.80065815703E+02  0.00000000000E+00 0.  1.
         14    1    4    4    0    0  0.23601708848E+02 -0.30431867758E+02  0.32685415589E+02  0.50512133473E+02  0.00000000000E+00 0. -1.
         -5    1    5    5    0  502 -0.20230715278E+02 -0.23756165540E+02 -0.19139055397E+02  0.36905699876E+02  0.47000000000E+01 0.  1.
         13    1    6    6    0    0 -0.33767824078E+02  0.85673764946E+01  0.28204246029E+02  0.44823491352E+02  0.00000000000E+00 0. -1.
        -14    1    6    6    0    0 -0.13179854275E+03  0.17398695234E+03  0.27985869117E+02  0.22005800218E+03  0.00000000000E+00 0.  1.
</event>
<event>
12    1  0.8488291E-002  0.2016825E+03  0.7818608E-02  0.1148458E+00
         21   -1    0    0  501  502  0.00000000000E+00  0.00000000000E+00  0.10253240116E+03  0.10253240116E+03  0.00000000000E+00 0. -1.
         21   -1    0    0  502  503 -0.00000000000E+00 -0.00000000000E+00 -0.60618982403E+03  0.60618982403E+03  0.00000000000E+00 0. -1.
         -6    2    1    2    0  503  0.96061988067E+02  0.43027510049E+02 -0.46049508916E+03  0.50247284150E+03  0.17130077972E+03 0.  0.
        -24    2    3    3    0    0  0.22481043612E+02 -0.35142890031E+02 -0.25789674890E+03  0.27314132532E+03  0.79718444949E+02 0.  0.
          6    2    1    2  501    0 -0.96061988067E+02 -0.43027510049E+02 -0.43162333717E+02  0.20624938369E+03  0.17203647593E+03 0.  0.
         24    2    5    5    0    0 -0.78389002835E+02  0.97893656335E+01 -0.80137799887E+02  0.13923273007E+03  0.81994016297E+02 0.  0.
          5    1    5    5  501    0 -0.17672985232E+02 -0.52816875683E+02  0.36975466170E+02  0.67016653620E+02  0.47000000000E+01 0. -1.
        -13    1    6    6    0    0 -0.63641483928E+02 -0.87150517021E+01 -0.92437233473E+02  0.11256479350E+03  0.00000000000E+00 0.  1.
         14    1    6    6    0    0 -0.14747518907E+02  0.18504417336E+02  0.12299433586E+02  0.26667936579E+02  0.00000000000E+00 0. -1.
         -5    1    3    3    0  503  0.73580944455E+02  0.78170400081E+02 -0.20259834026E+03  0.22933151617E+03  0.47000000000E+01 0.  1.
         13    1    4    4    0    0  0.18899344456E+02 -0.49889645505E+02 -0.25075852940E+03  0.25637082910E+03  0.00000000000E+00 0. -1.
        -14    1    4    4    0    0  0.35816991562E+01  0.14746755474E+02 -0.71382195028E+01  0.16770496222E+02  0.00000000000E+00 0.  1.
</event>
<event>
12    1  0.8488291E-002  0.2593517E+03  0.7818608E-02  0.1107618E+00
         21   -1    0    0  503  502  0.00000000000E+00  0.00000000000E+00  0.60253767532E+03  0.60253767532E+03  0.00000000000E+00 0. -1.
         21   -1    0    0  501  503 -0.00000000000E+00 -0.00000000000E+00 -0.11565760422E+03  0.11565760422E+03  0.00000000000E+00 0. -1.
          6    2    1    2  501    0 -0.14810782893E+02 -0.19423828445E+03  0.17473524022E+03  0.31272307104E+03  0.17121753576E+03 0.  0.
         24    2    3    3    0    0 -0.51894026132E+02 -0.19628937817E+03  0.16550962383E+03  0.27416693129E+03  0.80941711773E+02 0.  0.
         -6    2    1    2    0  502  0.14810782893E+02  0.19423828445E+03  0.31214483088E+03  0.40547220850E+03  0.17036855927E+03 0.  0.
        -24    2    5    5    0    0  0.33836109980E+02  0.20634643459E+03  0.23756228189E+03  0.32741314763E+03  0.83903504450E+02 0.  0.
          5    1    3    3  501    0  0.37083243238E+02  0.20510937203E+01  0.92256163920E+01  0.38556139749E+02  0.47000000000E+01 0. -1.
        -11    1    4    4    0    0 -0.67044184184E+02 -0.15092371036E+03  0.10002240181E+03  0.19307348302E+03  0.00000000000E+00 0.  1.
         12    1    4    4    0    0  0.15150158052E+02 -0.45365667803E+02  0.65487222021E+02  0.81093448270E+02  0.00000000000E+00 0. -1.
         -5    1    5    5    0  502 -0.19025327086E+02 -0.12108150139E+02  0.74582548992E+02  0.78059060875E+02  0.47000000000E+01 0.  1.
         11    1    6    6    0    0 -0.10497908376E+02  0.55494862429E+02  0.22026380818E+02  0.60622168291E+02  0.00000000000E+00 0. -1.
        -12    1    6    6    0    0  0.44334018356E+02  0.15085157216E+03  0.21553590107E+03  0.26679097934E+03  0.00000000000E+00 0.  1.
</event>
<event>
12    1  0.8488291E-002  0.2196196E+03  0.7818608E-02  0.1134522E+00
         21   -1    0    0  501  502  0.00000000000E+00  0.00000000000E+00  0.12816942114E+04  0.12816942114E+04  0.00000000000E+00 0. -1.
         21   -1    0    0  502  503 -0.00000000000E+00 -0.00000000000E+00 -0.40012612576E+02  0.40012612576E+02  0.00000000000E+00 0. -1.
         -6    2    1    2    0  503 -0.82096870189E+02 -0.11012689626E+03  0.79515515410E+03  0.82492695412E+03  0.17136198866E+03 0.  0.
        -24    2    3    3    0    0 -0.16803821656E+01 -0.94416681141E+02  0.61041821242E+03  0.62277985415E+03  0.79542562898E+02 0.  0.
          6    2    1    2  501    0  0.82096870189E+02  0.11012689626E+03  0.44652644476E+03  0.49677986990E+03  0.16892762916E+03 0.  0.
         24    2    5    5    0    0  0.33054311867E+02  0.12048858705E+03  0.40516456560E+03  0.43162288861E+03  0.80807831366E+02 0.  0.
          5    1    5    5  501    0  0.49042558322E+02 -0.10361690797E+02  0.41361879156E+02  0.65156981285E+02  0.47000000000E+01 0. -1.
        -13    1    6    6    0    0 -0.21889112603E+02  0.72690979652E+02  0.21268610246E+03  0.22582845249E+03  0.00000000000E+00 0.  1.
         14    1    6    6    0    0  0.54943424470E+02  0.47797607401E+02  0.19247846314E+03  0.20579443613E+03  0.00000000000E+00 0. -1.
         -5    1    3    3    0  503 -0.80416488023E+02 -0.15710215116E+02  0.18473694168E+03  0.20214709997E+03  0.47000000000E+01 0.  1.
         13    1    4    4    0    0 -0.10743158110E+02 -0.13056303605E+02  0.33565506262E+03  0.33608065040E+03  0.00000000000E+00 0. -1.
        -14    1    4    4    0    0  0.90627759446E+01 -0.81360377536E+02  0.27476314981E+03  0.28669920375E+03  0.00000000000E+00 0.  1.
</event>
<event>
12    1  0.8488291E-002  0.2380290E+03  0.7818608E-02  0.1121179E+00
         21   -1    0    0  501  502  0.00000000000E+00  0.00000000000E+00  0.14708115375E+03  0.14708115375E+03  0.00000000000E+00 0. -1.
         21   -1    0    0  502  503 -0.00000000000E+00 -0.00000000000E+00 -0.49531269808E+03  0.49531269808E+03  0.00000000000E+00 0.  1.
         -6    2    1    2    0  503  0.54002893502E+01 -0.16409724944E+03 -0.32609850701E+03  0.40373018138E+03  0.17233906314E+03 0.  0.
        -24    2    3    3    0    0  0.16541573825E+02 -0.15514615681E+03 -0.34029860858E+03  0.38304242743E+03  0.81082702080E+02 0.  0.
          6    2    1    2  501    0 -0.54002893502E+01  0.16409724944E+03 -0.22133037313E+02  0.23866367045E+03  0.17179466189E+03 0.  0.
         24    2    5    5    0    0 -0.31917071715E+01  0.13782202989E+02 -0.37992696535E+02  0.87425084712E+02  0.77456854655E+02 0.  0.
          5    1    5    5  501    0 -0.22085821787E+01  0.15031504645E+03  0.15859659222E+02  0.15123858574E+03  0.47000000000E+01 0. -1.
        -13    1    6    6    0    0  0.57272459655E+01  0.12439515466E+02 -0.61102080291E+02  0.62617945569E+02  0.00000000000E+00 0.  1.
         14    1    6    6    0    0 -0.89189531370E+01  0.13426875237E+01  0.23109383757E+02  0.24807139143E+02  0.00000000000E+00 0. -1.
         -5    1    3    3    0  503 -0.11141284475E+02 -0.89510926326E+01  0.14200101564E+02  0.20687753950E+02  0.47000000000E+01 0.  1.
         11    1    4    4    0    0 -0.17466549558E+02 -0.15746915566E+01 -0.48109511132E+02  0.51206299107E+02  0.00000000000E+00 0. -1.
        -12    1    4    4    0    0  0.34008123383E+02 -0.15357146525E+03 -0.29218909744E+03  0.33183612832E+03  0.00000000000E+00 0.  1.
</event>
<event>
12    1  0.8488291E-002  0.1763611E+03  0.7818608E-02  0.1171476E+00
         21   -1    0    0  501  502  0.00000000000E+00  0.00000000000E+00  0.20290333086E+02  0.20290333086E+02  0.00000000000E+00 0.  1.
         21   -1    0    0  502  503 -0.00000000000E+00 -0.00000000000E+00 -0.15809446435E+04  0.15809446435E+04  0.00000000000E+00 0.  1.
         -6    2    1    2    0  503  0.31627243423E+02  0.16298808620E+02 -0.92418694479E+03  0.94078516397E+03  0.17230578090E+03 0.  0.
        -24    2    3    3    0    0  0.48660771646E+02  0.60539948750E+02 -0.41518811207E+03  0.42956180645E+03  0.78161506271E+02 0.  0.
          6    2    1    2  501    0 -0.31627243423E+02 -0.16298808620E+02 -0.63646736565E+03  0.66044981265E+03  0.17273480771E+03 0.  0.
         24    2    5    5    0    0 -0.11168109015E+02 -0.72880287722E+02 -0.28900153214E+03  0.30778193004E+03  0.75970835764E+02 0.  0.
          5    1    5    5  501    0 -0.20459134408E+02  0.56581479102E+02 -0.34746583352E+03  0.35266788260E+03  0.47000000000E+01 0. -1.
        -11    1    6    6    0    0  0.29190840445E+01  0.10252523164E+02 -0.54758770022E+01  0.11984177562E+02  0.00000000000E+00 0.  1.
         12    1    6    6    0    0 -0.14087193059E+02 -0.83132810886E+02 -0.28352565513E+03  0.29579775248E+03  0.00000000000E+00 0. -1.
         -5    1    3    3    0  503 -0.17033528224E+02 -0.44241140130E+02 -0.50899883272E+03  0.51122335752E+03  0.47000000000E+01 0.  1.
         13    1    4    4    0    0  0.45754954901E+02 -0.18430357411E+01 -0.13701166501E+03  0.14446144478E+03  0.00000000000E+00 0. -1.
        -14    1    4    4    0    0  0.29058167451E+01  0.62382984491E+02 -0.27817644706E+03  0.28510036167E+03  0.00000000000E+00 0.  1.
</event>
<event>
12    1  0.8488291E-002  0.1996367E+03  0.7818608E-02  0.1150718E+00
         21   -1    0    0  503  502  0.00000000000E+00  0.00000000000E+00  0.42762372107E+03  0.42762372107E+03  0.00000000000E+00 0. -1.
         21   -1    0    0  501  503 -0.00000000000E+00 -0.00000000000E+00 -0.10218819221E+03  0.10218819221E+03  0.00000000000E+00 0. -1.
          6    2    1    2  501    0  0.92959768422E+02 -0.38387179857E+02  0.79153290485E+02  0.21475577044E+03  0.17245203222E+03 0.  0.
         24    2    3    3    0    0  0.72595104966E+02 -0.31670246950E+02 -0.18577650697E+02  0.11458959067E+03  0.80700628105E+02 0.  0.
         -6    2    1    2    0  502 -0.92959768422E+02  0.38387179857E+02  0.24628223837E+03  0.31505614284E+03  0.16879081161E+03 0.  0.
        -24    2    5    5    0    0 -0.11196576470E+03 -0.10456147635E+02  0.13833883784E+03  0.19496964796E+03  0.78929500717E+02 0.  0.
          5    1    3    3  501    0  0.20364663455E+02 -0.67169329065E+01  0.97730941182E+02  0.10016617977E+03  0.47000000000E+01 0. -1.
        -13    1    4    4    0    0  0.18896010044E+02  0.22471565254E+02  0.12929560902E+02  0.32081209231E+02  0.00000000000E+00 0.  1.
         14    1    4    4    0    0  0.53699094922E+02 -0.54141812205E+02 -0.31507211599E+02  0.82508381435E+02  0.00000000000E+00 0. -1.
         -5    1    5    5    0  502  0.19005996279E+02  0.48843327492E+02  0.10794340052E+03  0.12008649488E+03  0.47000000000E+01 0.  1.
         13    1    6    6    0    0 -0.11054531527E+03 -0.87499691470E+01  0.14806874312E+03  0.18498967911E+03  0.00000000000E+00 0. -1.
        -14    1    6    6    0    0 -0.14204494257E+01 -0.17061784877E+01 -0.97299052764E+01  0.99799688522E+01  0.00000000000E+00 0.  1.
</event>
<event>
12    1  0.8488291E-002  0.1901085E+03  0.7818608E-02  0.1158529E+00
         21   -1    0    0  501  502  0.00000000000E+00  0.00000000000E+00  0.40329184634E+02  0.40329184634E+02  0.00000000000E+00 0.  1.
         21   -1    0    0  502  503 -0.00000000000E+00 -0.00000000000E+00 -0.92550360477E+03  0.92550360477E+03  0.00000000000E+00 0.  1.
         -6    2    1    2    0  503  0.74036865678E+02 -0.32532359266E+02 -0.53433807010E+03  0.56714937340E+03  0.17205065157E+03 0.  0.
        -24    2    3    3    0    0  0.83327711105E+02 -0.20922323721E+02 -0.19855879272E+03  0.23100814437E+03  0.80980970175E+02 0.  0.
          6    2    1    2  501    0 -0.74036865678E+02  0.32532359266E+02 -0.35083635004E+03  0.39868341601E+03  0.17123816693E+03 0.  0.
         24    2    5    5    0    0 -0.91272857023E+02  0.19526187400E+01 -0.13952383367E+03  0.18442359826E+03  0.78807463382E+02 0.  0.
          5    1    5    5  501    0  0.17235991344E+02  0.30579740526E+02 -0.21131251636E+03  0.21425981774E+03  0.47000000000E+01 0. -1.
        -11    1    6    6    0    0 -0.95373784534E+02 -0.57566128822E+00 -0.14717818316E+03  0.17537932535E+03  0.00000000000E+00 0.  1.
         12    1    6    6    0    0  0.41009275110E+01  0.25282800282E+01  0.76543494904E+01  0.90442729101E+01  0.00000000000E+00 0. -1.
         -5    1    3    3    0  503 -0.92908454266E+01 -0.11610035545E+02 -0.33577927738E+03  0.33614122903E+03  0.47000000000E+01 0.  1.
         13    1    4    4    0    0  0.70341996907E+02 -0.42192101110E+02 -0.18560468322E+03  0.20292182819E+03  0.00000000000E+00 0. -1.
        -14    1    4    4    0    0  0.12985714198E+02  0.21269777389E+02 -0.12954109506E+02  0.28086316179E+02  0.00000000000E+00 0.  1.
</event>
<event>
12    1  0.8488291E-002  0.2242684E+03  0.7818608E-02  0.1130946E+00
         21   -1    0    0  503  502  0.00000000000E+00  0.00000000000E+00  0.95253563571E+02  0.95253563571E+02  0.00000000000E+00 0. -1.
         21   -1    0    0  501  503 -0.00000000000E+00 -0.00000000000E+00 -0.54841088166E+03  0.54841088166E+03  0.00000000000E+00 0.  1.
          6    2    1    2  501    0  0.13467045110E+03  0.49051806580E+02 -0.29199185181E+03  0.36749311947E+03  0.17102555717E+03 0.  0.
         24    2    3    3    0    0  0.54557017231E+02  0.67840079340E+02 -0.24618643901E+03  0.27319896630E+03  0.80319162985E+02 0.  0.
         -6    2    1    2    0  502 -0.13467045110E+03 -0.49051806580E+02 -0.16116546628E+03  0.27617132576E+03  0.17249372025E+03 0.  0.
        -24    2    5    5    0    0 -0.96483409645E+02  0.24749066571E+02 -0.50929344580E+02  0.13804489259E+03  0.80876631971E+02 0.  0.
          5    1    3    3  501    0  0.80113433869E+02 -0.18788272760E+02 -0.45805412804E+02  0.94294153168E+02  0.47000000000E+01 0. -1.
        -13    1    4    4    0    0  0.32114923032E+02 -0.10202473210E+02 -0.10558849915E+03  0.11083496693E+03  0.00000000000E+00 0.  1.
         14    1    4    4    0    0  0.22442094199E+02  0.78042552549E+02 -0.14059793986E+03  0.16236399938E+03  0.00000000000E+00 0. -1.
         -5    1    5    5    0  502 -0.38187041455E+02 -0.73800873151E+02 -0.11023612170E+03  0.13812643317E+03  0.47000000000E+01 0.  1.
         11    1    6    6    0    0 -0.36405655931E+02 -0.26523033455E+02 -0.19008735105E+01  0.45082772847E+02  0.00000000000E+00 0. -1.
        -12    1    6    6    0    0 -0.60077753714E+02  0.51272100026E+02 -0.49028471069E+02  0.92962119747E+02  0.00000000000E+00 0.  1.
</event>
<event>
12    1  0.8488291E-002  0.1781630E+03  0.7818608E-02  0.1170108E+00
         21   -1    0    0  501  502  0.00000000000E+00  0.00000000000E+00  0.13054453558E+03  0.13054453558E+03  0.00000000000E+00 0.  1.
         21   -1    0    0  502  503 -0.00000000000E+00 -0.00000000000E+00 -0.30150386825E+03  0.30150386825E+03  0.00000000000E+00 0.  1.
         -6    2    1    2    0  503 -0.39405914001E+02  0.27688844919E+02 -0.18239909645E+03  0.25351855968E+03  0.16935976951E+03 0.  0.
        -24    2    3    3    0    0 -0.87213232629E+01  0.46227162999E+02 -0.29039180540E+02  0.95954073987E+02  0.78427662403E+02 0.  0.
          6    2    1    2  501    0  0.39405914001E+02 -0.27688844919E+02  0.11439763768E+02  0.17852984415E+03  0.17152999407E+03 0.  0.
         24    2    5    5    0    0  0.78985166498E+02 -0.50792912874E+02 -0.17699371742E+02  0.12401842880E+03  0.79048886128E+02 0.  0.
          5    1    5    5  501    0 -0.39579252497E+02  0.23104067955E+02  0.29139135510E+02  0.54511415342E+02  0.47000000000E+01 0. -1.
        -11    1    6    6    0    0  0.42267639892E+02 -0.60431507559E+02  0.13388486973E+02  0.74951798320E+02  0.00000000000E+00 0.  1.
         12    1    6    6    0    0  0.36717526606E+02  0.96385946856E+01 -0.31087858715E+02  0.49066630484E+02  0.00000000000E+00 0. -1.
         -5    1    3    3    0  503 -0.30684590739E+02 -0.18538318080E+02 -0.15335991591E+03  0.15756448570E+03  0.47000000000E+01 0.  1.
         11    1    4    4    0    0 -0.15583889320E+02 -0.17087994635E+02 -0.21932066214E+02  0.31872757888E+02  0.00000000000E+00 0. -1.
        -12    1    4    4    0    0  0.68625660568E+01  0.63315157633E+02 -0.71071143258E+01  0.64081316099E+02  0.00000000000E+00 0.  1.
</event>
<event>
12    1  0.8488291E-002  0.2670679E+03  0.7818608E-02  0.1103062E+00
         21   -1    0    0  501  502  0.00000000000E+00  0.00000000000E+00  0.45784113210E+02  0.45784113210E+02  0.00000000000E+00 0. -1.
         21   -1    0    0  502  503 -0.00000000000E+00 -0.00000000000E+00 -0.23929686418E+04  0.23929686418E+04  0.00000000000E+00 0.  1.
         -6    2    1    2    0  503  0.19729700923E+03 -0.53945330258E+02 -0.18946241467E+04  0.19132661655E+04  0.17073533382E+03 0.  0.
        -24    2    3    3    0    0  0.83992790421E+02 -0.16567742852E+02 -0.51376492310E+03  0.52725418306E+03  0.81934720307E+02 0.  0.
          6    2    1    2  501    0 -0.19729700923E+03  0.53945330258E+02 -0.45256038188E+03  0.52548658952E+03  0.17172375493E+03 0.  0.
         24    2    5    5    0    0 -0.21000285448E+03  0.13810419265E+02 -0.36867063334E+03  0.43150877568E+03  0.77394192495E+02 0.  0.
          5    1    5    5  501    0  0.12705845243E+02  0.40134910993E+02 -0.83889748537E+02  0.93977813836E+02  0.47000000000E+01 0. -1.
        -11    1    6    6    0    0 -0.27400303889E+02 -0.80540084009E+01 -0.11307858380E+03  0.11662936945E+03  0.00000000000E+00 0.  1.
         12    1    6    6    0    0 -0.18260255059E+03  0.21864427666E+02 -0.25559204954E+03  0.31487940623E+03  0.00000000000E+00 0. -1.
         -5    1    3    3    0  503  0.11330421881E+03 -0.37377587406E+02 -0.13808592236E+04  0.13860119824E+04  0.47000000000E+01 0.  1.
         13    1    4    4    0    0  0.57709786707E+02 -0.30241135743E+02 -0.46943853081E+03  0.47393826600E+03  0.00000000000E+00 0. -1.
        -14    1    4    4    0    0  0.26283003714E+02  0.13673392890E+02 -0.44326392293E+02  0.53315917052E+02  0.00000000000E+00 0.  1.
</event>
<event>
12    1  0.8488291E-002  0.1893712E+03  0.7818608E-02  0.1159318E+00
         21   -1    0    0  501  502  0.00000000000E+00  0.00000000000E+00  0.86096865341E+02  0.86096865341E+02  0.00000000000E+00 0. -1.
         21   -1    0    0  502  503 -0.00000000000E+00 -0.00000000000E+00 -0.54385625054E+03  0.54385625054E+03  0.00000000000E+00 0.  1.
         -6    2    1    2    0  503 -0.48886271665E+02  0.57258366207E+02 -0.38353221356E+03  0.42773639294E+03  0.17376154624E+03 0.  0.
        -24    2    3    3    0    0  0.40345087992E+02  0.30672175218E+02 -0.16459536824E+03  0.18977737686E+03  0.79720192315E+02 0.  0.
          6    2    1    2  501    0  0.48886271665E+02 -0.57258366207E+02 -0.74227171644E+02  0.20221672294E+03  0.17237616416E+03 0.  0.
         24    2    5    5    0    0  0.26340924697E+02 -0.71862854108E+02 -0.11116727385E+03  0.15630109502E+03  0.78827377308E+02 0.  0.
          5    1    5    5  501    0  0.22545346967E+02  0.14604487901E+02  0.36940102208E+02  0.45915627926E+02  0.47000000000E+01 0. -1.
        -11    1    6    6    0    0 -0.12420077343E+02 -0.39566578643E+02 -0.94446412400E+02  0.10314987776E+03  0.00000000000E+00 0.  1.
         12    1    6    6    0    0  0.38761002041E+02 -0.32296275465E+02 -0.16720861452E+02  0.53151217256E+02  0.00000000000E+00 0. -1.
         -5    1    3    3    0  503 -0.89231359656E+02  0.26586190990E+02 -0.21893684532E+03  0.23795901608E+03  0.47000000000E+01 0.  1.
         13    1    4    4    0    0 -0.10499159298E+02  0.29676433135E+02 -0.22052772132E+02  0.38434981310E+02  0.00000000000E+00 0. -1.
        -14    1    4    4    0    0  0.50844247289E+02  0.99574208304E+00 -0.14254259611E+03  0.15134239555E+03  0.00000000000E+00 0.  1.
</event>
<event>
12    1  0.8488291E-002  0.1805075E+03  0.7818608E-02  0.1167389E+00
         21   -1    0    0  503  502  0.00000000000E+00  0.00000000000E+00  0.22081360452E+03  0.22081360452E+03  0.00000000000E+00 0.  1.
         21   -1    0    0  501  503 -0.00000000000E+00 -0.00000000000E+00 -0.15879974379E+03  0.15879974379E+03  0.00000000000E+00 0.  1.
          6    2    1    2  501    0 -0.12041720746E+02  0.54403520595E+02  0.82061558144E+02  0.19799594385E+03  0.17135795390E+03 0.  0.
         24    2    3    3    0    0 -0.49091809565E+01  0.80272149737E+02 -0.81769097182E-02  0.11152288152E+03  0.77263412778E+02 0.  0.
         -6    2    1    2    0  502  0.12041720746E+02 -0.54403520595E+02 -0.20047697410E+02  0.18161740446E+03  0.17169224019E+03 0.  0.
        -24    2    5    5    0    0 -0.40797784369E+02 -0.69467151461E+01 -0.46970241891E+02  0.10551829090E+03  0.84942274693E+02 0.  0.
          5    1    3    3  501    0 -0.71325397897E+01 -0.25868629142E+02  0.82069735054E+02  0.86473062333E+02  0.47000000000E+01 0. -1.
        -13    1    4    4    0    0  0.29463831746E+02  0.20018021965E+02  0.17920264078E+02  0.39874483685E+02  0.00000000000E+00 0.  1.
         14    1    4    4    0    0 -0.34373012702E+02  0.60254127772E+02 -0.17928440988E+02  0.71648397833E+02  0.00000000000E+00 0. -1.
         -5    1    5    5    0  502  0.52839505115E+02 -0.47456805449E+02  0.26922544481E+02  0.76099113566E+02  0.47000000000E+01 0.  1.
         11    1    6    6    0    0 -0.54257910665E+00  0.11299635872E+02  0.21342125081E+02  0.24154967727E+02  0.00000000000E+00 0. -1.
        -12    1    6    6    0    0 -0.40255205262E+02 -0.18246351019E+02 -0.68312366971E+02  0.81363323171E+02  0.00000000000E+00 0.  1.
</event>
<event>
12    1  0.8488291E-002  0.1792535E+03  0.7818608E-02  0.1168728E+00
         21   -1    0    0  501  502  0.00000000000E+00  0.00000000000E+00  0.21936588031E+03  0.21936588031E+03  0.00000000000E+00 0. -1.
         21   -1    0    0  502  503 -0.00000000000E+00 -0.00000000000E+00 -0.20822375595E+03  0.20822375595E+03  0.00000000000E+00 0.  1.
         -6    2    1    2    0  503 -0.27377846613E+02 -0.39890428534E+02 -0.11149170943E+03  0.21040107467E+03  0.17174812422E+03 0.  0.
        -24    2    3    3    0    0  0.13770182632E+02  0.16629384485E+02 -0.38961272258E+01  0.82001117949E+02  0.79011702800E+02 0.  0.
          6    2    1    2  501    0  0.27377846613E+02  0.39890428534E+02  0.12263383380E+03  0.21718856159E+03  0.17260075701E+03 0.  0.
         24    2    5    5    0    0  0.15224993118E+01  0.19783114435E+01 -0.75606467547E+01  0.79063544403E+02  0.78661610420E+02 0.  0.
          5    1    5    5  501    0  0.25855347301E+02  0.37912117091E+02  0.13019448056E+03  0.13812501719E+03  0.47000000000E+01 0. -1.
        -13    1    6    6    0    0 -0.15467789073E+02 -0.33223531714E+02  0.70775270296E+01  0.37324883754E+02  0.00000000000E+00 0.  1.
         14    1    6    6    0    0  0.16990288385E+02  0.35201843158E+02 -0.14638173784E+02  0.41738660650E+02  0.00000000000E+00 0. -1.
         -5    1    3    3    0  503 -0.41148029245E+02 -0.56519813020E+02 -0.10759558221E+03  0.12839995672E+03  0.47000000000E+01 0.  1.
         11    1    4    4    0    0 -0.20994353817E+02 -0.21482419689E+01  0.25245954896E+02  0.32904955164E+02  0.00000000000E+00 0. -1.
        -12    1    4    4    0    0  0.34764536448E+02  0.18777626454E+02 -0.29142082122E+02  0.49096162784E+02  0.00000000000E+00 0.  1.
</event>
<event>
12    1  0.8488291E-002  0.2559220E+03  0.7818608E-02  0.1109804E+00
         21   -1    0    0  503  502  0.00000000000E+00  0.00000000000E+00  0.21771320635E+03  0.21771320635E+03  0.00000000000E+00 0.  1.
         21   -1    0    0  501  503 -0.00000000000E+00 -0.00000000000E+00 -0.33854837111E+03  0.33854837111E+03  0.00000000000E+00 0. -1.
          6    2    1    2  501    0  0.73938856720E+02 -0.17238004257E+03 -0.15484563881E+03  0.29808960171E+03  0.17233225230E+03 0.  0.
         24    2    3    3    0    0  0.49088414279E+02 -0.92045337112E+02 -0.11876036968E+02  0.13215706590E+03  0.80264770067E+02 0.  0.
         -6    2    1    2    0  502 -0.73938856720E+02  0.17238004257E+03  0.34010474054E+02  0.25817197574E+03  0.17410980187E+03 0.  0.
        -24    2    5    5    0    0 -0.26170896909E+02  0.70932794737E+01  0.28354151294E+01  0.83256377991E+02  0.78666094593E+02 0.  0.
          5    1    3    3  501    0  0.24850442441E+02 -0.80334705455E+02 -0.14296960184E+03  0.16593253581E+03  0.47000000000E+01 0. -1.
        -11    1    4    4    0    0  0.37400529599E+02 -0.66322369419E+02 -0.45137989989E+02  0.88514939077E+02  0.00000000000E+00 0.  1.
         12    1    4    4    0    0  0.11687884680E+02 -0.25722967693E+02  0.33261953021E+02  0.43642126827E+02  0.00000000000E+00 0. -1.
         -5    1    5    5    0  502 -0.47767959811E+02  0.16528676309E+03  0.31175058925E+02  0.17491559775E+03  0.47000000000E+01 0.  1.
         13    1    6    6    0    0 -0.31689048219E+02  0.14785074325E+02 -0.31851911036E+02  0.47300512011E+02  0.00000000000E+00 0. -1.
        -14    1    6    6    0    0  0.55181513099E+01 -0.76917948509E+01  0.34687326166E+02  0.35955865981E+02  0.00000000000E+00 0.  1.
</event>
<event>
12    1  0.8488291E-002  0.1800017E+03  0.7818608E-02  0.1168901E+00
         21   -1    0    0  503  502  0.00000000000E+00  0.00000000000E+00  0.15004759403E+04  0.15004759403E+04  0.00000000000E+00 0. -1.
         21   -1    0    0  501  503 -0.00000000000E+00 -0.00000000000E+00 -0.16082698010E+03  0.16082698010E+03  0.00000000000E+00 0. -1.
          6    2    1    2  501    0  0.31940393050E+02 -0.16494666885E+02 -0.10342191364E+03  0.20759744826E+03  0.17637558096E+03 0.  0.
         24    2    3    3    0    0  0.11193241882E+02  0.58276759261E+02 -0.77731729991E+02  0.12572385065E+03  0.79011362741E+02 0.  0.
         -6    2    1    2    0  502 -0.31940393050E+02  0.16494666885E+02  0.14430708738E+04  0.14537054721E+04  0.17179578005E+03 0.  0.
        -24    2    5    5    0    0 -0.59418819431E+02  0.11036746395E+02  0.13887895412E+04  0.13924404259E+04  0.80632153436E+02 0.  0.
          5    1    3    3  501    0  0.20747151168E+02 -0.74771426146E+02 -0.25690183651E+02  0.81873597610E+02  0.47000000000E+01 0. -1.
        -11    1    4    4    0    0 -0.17204778881E+02  0.35592997288E+02  0.41853064972E+00  0.39535313837E+02  0.00000000000E+00 0.  1.
         12    1    4    4    0    0  0.28398020763E+02  0.22683761973E+02 -0.78150260641E+02  0.86188536818E+02  0.00000000000E+00 0. -1.
         -5    1    5    5    0  502  0.27478426381E+02  0.54579204901E+01  0.54281332657E+02  0.61265046213E+02  0.47000000000E+01 0.  1.
         13    1    6    6    0    0 -0.24564190113E+02  0.36825259399E+02  0.35605447025E+03  0.35879560331E+03  0.00000000000E+00 0. -1.
        -14    1    6    6    0    0 -0.34854629318E+02 -0.25788513004E+02  0.10327350709E+04  0.10336448226E+04  0.00000000000E+00 0.  1.
</event>
<event>
12    1  0.8488291E-002  0.2198859E+03  0.7818608E-02  0.1134143E+00
         21   -1    0    0  503  502  0.00000000000E+00  0.00000000000E+00  0.87358780158E+02  0.87358780158E+02  0.00000000000E+00 0.  1.
         21   -1    0    0  501  503 -0.00000000000E+00 -0.00000000000E+00 -0.60633831928E+03  0.60633831928E+03  0.00000000000E+00 0.  1.
          6    2    1    2  501    0 -0.87365657352E+02  0.10362024687E+03 -0.36366998292E+03  0.42449296047E+03  0.17195494574E+03 0.  0.
         24    2    3    3    0    0 -0.99228437528E+02  0.38222661248E+02 -0.31567157008E+03  0.34237409909E+03  0.79146881979E+02 0.  0.
         -6    2    1    2    0  502  0.87365657352E+02 -0.10362024687E+03 -0.15530955620E+03  0.26920413897E+03  0.17314703735E+03 0.  0.
        -24    2    5    5    0    0  0.10646557960E+02 -0.10718689072E+03 -0.66897295566E+02  0.15199765881E+03  0.83819218512E+02 0.  0.
          5    1    3    3  501    0  0.11862780175E+02  0.65397585620E+02 -0.47998412843E+02  0.82118861377E+02  0.47000000000E+01 0. -1.
        -11    1    4    4    0    0 -0.10243689592E+03  0.52810540313E+02 -0.29621593352E+03  0.31784611069E+03  0.00000000000E+00 0.  1.
         12    1    4    4    0    0  0.32084583934E+01 -0.14587879065E+02 -0.19455636561E+02  0.24527988399E+02  0.00000000000E+00 0. -1.
         -5    1    5    5    0  502  0.76719099392E+02  0.35666438506E+01 -0.88412260636E+02  0.11720648016E+03  0.47000000000E+01 0.  1.
         13    1    6    6    0    0 -0.30889995118E+02 -0.43728148244E+02 -0.52138145356E+02  0.74731044074E+02  0.00000000000E+00 0. -1.
        -14    1    6    6    0    0  0.41536553078E+02 -0.63458742475E+02 -0.14759150209E+02  0.77266614738E+02  0.00000000000E+00 0.  1.
</event>
<event>
12    1  0.8488291E-002  0.1860347E+03  0.7818608E-02  0.1164185E+00
         21   -1    0    0  501  502  0.00000000000E+00  0.00000000000E+00  0.10529165838E+04  0.10529165838E+04  0.00000000000E+00 0.  1.
         21   -1    0    0  502  503 -0.00000000000E+00 -0.00000000000E+00 -0.49233303923E+02  0.49233303923E+02  0.00000000000E+00 0. -1.
         -6    2    1    2    0  503 -0.11718815831E+01 -0.68905991091E+02  0.16183328179E+03  0.23998962151E+03  0.16326542324E+03 0.  0.
        -24    2    3    3    0    0 -0.31199881116E+02  0.28427965915E+00  0.13579831606E+03  0.16005912819E+03  0.78766925014E+02 0.  0.
          6    2    1    2  501    0  0.11718815831E+01  0.68905991091E+02  0.84184999807E+03  0.86216026619E+03  0.17279900590E+03 0.  0.
         24    2    5    5    0    0 -0.41008691338E+02  0.22446549139E+02  0.70935227389E+03  0.71547891976E+03  0.80894226104E+02 0.  0.
          5    1    5    5  501    0  0.42180572921E+02  0.46459441952E+02  0.13249772418E+03  0.14668134643E+03  0.47000000000E+01 0. -1.
        -11    1    6    6    0    0  0.16292733115E+02  0.18053185026E+01  0.39155505874E+03  0.39189804332E+03  0.00000000000E+00 0.  1.
         12    1    6    6    0    0 -0.57301424453E+02  0.20641230636E+02  0.31779721515E+03  0.32358087644E+03  0.00000000000E+00 0. -1.
         -5    1    3    3    0  503  0.30027999533E+02 -0.69190270750E+02  0.26034965736E+02  0.79930493325E+02  0.47000000000E+01 0.  1.
         11    1    4    4    0    0  0.16615834460E+02 -0.17287368844E+02  0.13366126506E+02  0.27451637731E+02  0.00000000000E+00 0. -1.
        -12    1    4    4    0    0 -0.47815715576E+02  0.17571648503E+02  0.12243218955E+03  0.13260749046E+03  0.00000000000E+00 0.  1.
</event>
<event>
12    1  0.8488291E-002  0.2221771E+03  0.7818608E-02  0.1132664E+00
         21   -1    0    0  501  502  0.00000000000E+00  0.00000000000E+00  0.26917832839E+03  0.26917832839E+03  0.00000000000E+00 0.  1.
         21   -1    0    0  502  503 -0.00000000000E+00 -0.00000000000E+00 -0.48352244725E+03  0.48352244725E+03  0.00000000000E+00 0.  1.
         -6    2    1    2    0  503  0.56988409896E+02 -0.12536977085E+03 -0.40435617000E+03  0.46035296967E+03  0.17162658932E+03 0.  0.
        -24    2    3    3    0    0  0.31905427155E+02 -0.97253204681E+02 -0.12922615631E+03  0.18261512250E+03  0.78566795718E+02 0.  0.
          6    2    1    2  501    0 -0.56988409896E+02  0.12536977085E+03  0.19001205113E+03  0.29234780597E+03  0.17434850666E+03 0.  0.
         24    2    5    5    0    0 -0.39925570456E+02  0.14195481173E+03  0.20469273269E+03  0.26399614849E+03  0.77779379352E+02 0.  0.
          5    1    5    5  501    0 -0.17062839440E+02 -0.16585040881E+02 -0.14680681557E+02  0.28351657478E+02  0.47000000000E+01 0. -1.
        -11    1    6    6    0    0 -0.11120193191E+02  0.59342803793E+01  0.67503540022E+02  0.68670243160E+02  0.00000000000E+00 0.  1.
         12    1    6    6    0    0 -0.28805377265E+02  0.13602053135E+03  0.13718919267E+03  0.19532590533E+03  0.00000000000E+00 0. -1.
         -5    1    3    3    0  503  0.25082982741E+02 -0.28116566168E+02 -0.27513001369E+03  0.27773784717E+03  0.47000000000E+01 0.  1.
         13    1    4    4    0    0 -0.13740608548E+02 -0.15050941955E+02  0.27562912252E+01  0.20565318338E+02  0.00000000000E+00 0. -1.
        -14    1    4    4    0    0  0.45646035703E+02 -0.82202262726E+02 -0.13198244753E+03  0.16204980416E+03  0.00000000000E+00 0.  1.
</event>
<event>
12    1  0.8488291E-002  0.2022258E+03  0.7818608E-02  0.1148180E+00
         21   -1    0    0  503  502  0.00000000000E+00  0.00000000000E+00  0.13729522916E+03  0.13729522916E+03  0.00000000000E+00 0.  1.
         21   -1    0    0  501  503 -0.00000000000E+00 -0.00000000000E+00 -0.31214678201E+03  0.31214678201E+03  0.00000000000E+00 0.  1.
          6    2    1    2  501    0  0.91671659916E+02  0.44003261773E+02 -0.13929513957E+03  0.24555736243E+03  0.17480074960E+03 0.  0.
         24    2    3    3    0    0  0.17815127397E+02 -0.15476975358E+02 -0.12373642383E+03  0.14934483913E+03  0.80226322752E+02 0.  0.
         -6    2    1    2    0  502 -0.91671659916E+02 -0.44003261773E+02 -0.35556413278E+02  0.20388464874E+03  0.17310318076E+03 0.  0.
        -24    2    5    5    0    0 -0.69121772484E+02 -0.42297402549E+02 -0.89991573336E+02  0.14475188262E+03  0.79295236656E+02 0.  0.
          5    1    3    3  501    0  0.73856532519E+02  0.59480237131E+02 -0.15558715740E+02  0.96212523303E+02  0.47000000000E+01 0. -1.
        -11    1    4    4    0    0  0.16162324024E+02 -0.28674778287E+02 -0.13038438756E+03  0.13447509862E+03  0.00000000000E+00 0.  1.
         12    1    4    4    0    0  0.16528033726E+01  0.13197802929E+02  0.66479637333E+01  0.14869740514E+02  0.00000000000E+00 0. -1.
         -5    1    5    5    0  502 -0.22549887432E+02 -0.17058592237E+01  0.54435160058E+02  0.59132766123E+02  0.47000000000E+01 0.  1.
         11    1    6    6    0    0 -0.45529787605E+01 -0.47326650739E+02 -0.28427468903E+02  0.55395509511E+02  0.00000000000E+00 0. -1.
        -12    1    6    6    0    0 -0.64568793723E+02  0.50292481897E+01 -0.61564104433E+02  0.89356373107E+02  0.00000000000E+00 0.  1.
</event>
<event>
12    1  0.8488291E-002  0.1806666E+03  0.7818608E-02  0.1167453E+00
         21   -1    0    0  503  502  0.00000000000E+00  0.00000000000E+00  0.14030041775E+02  0.14030041775E+02  0.00000000000E+00 0. -1.
         21   -1    0    0  501  503 -0.00000000000E+00 -0.00000000000E+00 -0.23521428143E+04  0.23521428143E+04  0.00000000000E+00 0.  1.
          6    2    1    2  501    0  0.56328822536E+02 -0.58777454324E+00 -0.13296698950E+04  0.13418876435E+04  0.17165994404E+03 0.  0.
         24    2    3    3    0    0  0.17951821414E+02  0.61858053452E+02 -0.67573712965E+03  0.68384324739E+03  0.82898926120E+02 0.  0.
         -6    2    1    2    0  502 -0.56328822536E+02  0.58777454324E+00 -0.10084428775E+04  0.10242852125E+04  0.17038156512E+03 0.  0.
        -24    2    5    5    0    0 -0.26026671735E+02  0.37189245838E+02 -0.26853128477E+03  0.28283451082E+03  0.76327465304E+02 0.  0.
          5    1    3    3  501    0  0.38377001122E+02 -0.62445827995E+02 -0.65393276540E+03  0.65804439616E+03  0.47000000000E+01 0. -1.
        -13    1    4    4    0    0 -0.26815132384E+02  0.78598882384E+01 -0.32257302120E+03  0.32378107291E+03  0.00000000000E+00 0.  1.
         14    1    4    4    0    0  0.44766953798E+02  0.53998165213E+02 -0.35316410845E+03  0.36006217448E+03  0.00000000000E+00 0. -1.
         -5    1    5    5    0  502 -0.30302150801E+02 -0.36601471294E+02 -0.73991159270E+03  0.74145070170E+03  0.47000000000E+01 0.  1.
         11    1    6    6    0    0 -0.49923052765E+01 -0.23656644049E+02 -0.64234471669E+02  0.68634009574E+02  0.00000000000E+00 0. -1.
        -12    1    6    6    0    0 -0.21034366458E+02  0.60845889886E+02 -0.20429681310E+03  0.21420050124E+03  0.00000000000E+00 0.  1.
</event>
<event>
12    1  0.8488291E-002  0.1779071E+03  0.7818608E-02  0.1170876E+00
         21   -1    0    0  501  502  0.00000000000E+00  0.00000000000E+00  0.91122583125E+02  0.91122583125E+02  0.00000000000E+00 0.  1.
         21   -1    0    0  502  503 -0.00000000000E+00 -0.00000000000E+00 -0.34270669832E+03  0.34270669832E+03  0.00000000000E+00 0.  1.
         -6    2    1    2    0  503 -0.30367440082E+02 -0.65717760770E+01 -0.14890835330E+03  0.23200134092E+03  0.17517292841E+03 0.  0.
        -24    2    3    3    0    0 -0.72398492408E+02 -0.34678668352E+02 -0.14148830163E+03  0.18068122868E+03  0.78629607393E+02 0.  0.
          6    2    1    2  501    0  0.30367440082E+02  0.65717760770E+01 -0.10267576189E+03  0.20182794052E+03  0.17095857930E+03 0.  0.
         24    2    5    5    0    0 -0.17817824857E+01  0.66926717575E+02 -0.36150343400E+02  0.10630824213E+03  0.74244425672E+02 0.  0.
          5    1    5    5  501    0  0.32149222568E+02 -0.60354941498E+02 -0.66525418491E+02  0.95519698389E+02  0.47000000000E+01 0. -1.
        -13    1    6    6    0    0 -0.25613042390E+01 -0.13002189426E+02 -0.21182342894E+02  0.24986173372E+02  0.00000000000E+00 0.  1.
         14    1    6    6    0    0  0.77952175331E+00  0.79928907000E+02 -0.14968000506E+02  0.81322068761E+02  0.00000000000E+00 0. -1.
         -5    1    3    3    0  503  0.42031052326E+02  0.28106892275E+02 -0.74200516691E+01  0.51320112234E+02  0.47000000000E+01 0.  1.
         13    1    4    4    0    0 -0.20453618205E+02 -0.34373273463E+02 -0.12948668441E+02  0.42042126976E+02  0.00000000000E+00 0. -1.
        -14    1    4    4    0    0 -0.51944874203E+02 -0.30539488930E+00 -0.12853963319E+03  0.13863910171E+03  0.00000000000E+00 0.  1.
</event>
<event>
12    1  0.8488291E-002  0.1944053E+03  0.7818608E-02  0.1154702E+00
         21   -1    0    0  501  502  0.00000000000E+00  0.00000000000E+00  0.10827368609E+03  0.10827368609E+03  0.00000000000E+00 0.  1.
         21   -1    0    0  502  503 -0.00000000000E+00 -0.00000000000E+00 -0.38248217350E+03  0.38248217350E+03  0.00000000000E+00 0.  1.
         -6    2    1    2    0  503  0.71638088202E+02 -0.51458782448E+02 -0.21078292654E+03  0.28626567682E+03  0.17244875654E+03 0.  0.
        -24    2    3    3    0    0 -0.24138193823E+02 -0.45350006018E+02 -0.73725335077E+02  0.11888202551E+03  0.77834667790E+02 0.  0.
          6    2    1    2  501    0 -0.71638088202E+02  0.51458782448E+02 -0.63425560863E+02  0.20449018278E+03  0.17324379097E+03 0.  0.
         24    2    5    5    0    0 -0.11719977238E+03  0.49115496569E+02 -0.45123510645E+02  0.15510989221E+03  0.76647431782E+02 0.  0.
          5    1    5    5  501    0  0.45561684181E+02  0.23432858794E+01 -0.18302050218E+02  0.49380290565E+02  0.47000000000E+01 0. -1.
        -13    1    6    6    0    0 -0.34522916892E+02  0.28055199425E+02  0.19009370111E+02  0.48376462847E+02  0.00000000000E+00 0.  1.
         14    1    6    6    0    0 -0.82676855490E+02  0.21060297144E+02 -0.64132880757E+02  0.10673342936E+03  0.00000000000E+00 0. -1.
         -5    1    3    3    0  503  0.95776282025E+02 -0.61087764305E+01 -0.13705759147E+03  0.16738365131E+03  0.47000000000E+01 0.  1.
         13    1    4    4    0    0  0.12329290386E+02 -0.41411204796E+02 -0.84780968228E+01  0.44031550164E+02  0.00000000000E+00 0. -1.
        -14    1    4    4    0    0 -0.36467484209E+02 -0.39388012218E+01 -0.65247238254E+02  0.74850475345E+02  0.00000000000E+00 0.  1.
</event>
<event>
12    1  0.8488291E-002  0.2575526E+03  0.7818608E-02  0.1108632E+00
         21   -1    0    0  501  502  0.00000000000E+00  0.00000000000E+00  0.63286453744E+03  0.63286453744E+03  0.00000000000E+00 0. -1.
         21   -1    0    0  502  503 -0.00000000000E+00 -0.00000000000E+00 -0.17859669319E+03  0.17859669319E+03  0.00000000000E+00 0.  1.
         -6    2    1    2    0  503  0.18511033957E+03 -0.47759724108E+02 -0.33706042744E+02  0.25968965881E+03  0.17249867395E+03 0.  0.
        -24    2    3    3    0    0  0.10995921669E+03 -0.15549922867E+02 -0.87237586088E+02  0.16184856980E+03  0.79067905531E+02 0.  0.
          6    2    1    2  501    0 -0.18511033957E+03  0.47759724108E+02  0.48797388699E+03  0.55177157181E+03  0.17258772845E+03 0.  0.
         24    2    5    5    0    0 -0.31830042706E+02 -0.22981337994E+02  0.15854630903E+03  0.18157734388E+03  0.79322797405E+02 0.  0.
          5    1    5    5  501    0 -0.15328029686E+03  0.70741062102E+02  0.32942757796E+03  0.37019422793E+03  0.47000000000E+01 0. -1.
        -13    1    6    6    0    0  0.19958539829E+01  0.25515854810E+02  0.26215629984E+02  0.36637433524E+02  0.00000000000E+00 0.  1.
         14    1    6    6    0    0 -0.33825896689E+02 -0.48497192803E+02  0.13233067905E+03  0.14493991036E+03  0.00000000000E+00 0. -1.
         -5    1    3    3    0  503  0.75151122876E+02 -0.32209801242E+02  0.53531543344E+02  0.97841089009E+02  0.47000000000E+01 0.  1.
         13    1    4    4    0    0  0.81725601599E+01  0.17384292763E+01  0.14605401767E+02  0.16826486166E+02  0.00000000000E+00 0. -1.
        -14    1    4    4    0    0  0.10178665653E+03 -0.17288352143E+02 -0.10184298786E+03  0.14502208364E+03  0.00000000000E+00 0.  1.
</event>
<event>
12    1  0.8488291E-002  0.2448053E+03  0.7818608E-02  0.1116900E+00
         21   -1    0    0  501  502  0.00000000000E+00  0.00000000000E+00  0.87432221939E+02  0.87432221939E+02  0.00000000000E+00 0.  1.
         21   -1    0    0  502  503 -0.00000000000E+00 -0.00000000000E+00 -0.73390033080E+03  0.73390033080E+03  0.00000000000E+00 0. -1.
         -6    2    1    2    0  503  0.12640410280E+03  0.11830996654E+03 -0.43262940077E+03  0.49628390341E+03  0.17074621220E+03 0.  0.
        -24    2    3    3    0    0  0.90345545319E+02  0.72325188252E+01 -0.27323114637E+03  0.29862684569E+03  0.79423590539E+02 0.  0.
          6    2    1    2  501    0 -0.12640410280E+03 -0.11830996654E+03 -0.21383870810E+03  0.32504864934E+03  0.17307335430E+03 0.  0.
         24    2    5    5    0    0 -0.16960534407E+02 -0.10212430807E+03 -0.91247822280E+02  0.15985032765E+03  0.80677928529E+02 0.  0.
          5    1    5    5  501    0 -0.10944356840E+03 -0.16185658466E+02 -0.12259088582E+03  0.16519832169E+03  0.47000000000E+01 0. -1.
        -13    1    6    6    0    0 -0.25112110476E+02 -0.13271908327E+02  0.47412261965E+01  0.28796542658E+02  0.00000000000E+00 0.  1.
         14    1    6    6    0    0  0.81515760692E+01 -0.88852399746E+02 -0.95989048477E+02  0.13105378499E+03  0.00000000000E+00 0. -1.
         -5    1    3    3    0  503  0.36058557485E+02  0.11107744771E+03 -0.15939825440E+03  0.19765705771E+03  0.47000000000E+01 0.  1.
         13    1    4    4    0    0  0.18233930958E+02  0.39020203525E+01 -0.17877066465E+03  0.17974051446E+03  0.00000000000E+00 0. -1.
        -14    1    4    4    0    0  0.72111614361E+02  0.33304984726E+01 -0.94460481719E+02  0.11888633123E+03  0.00000000000E+00 0.  1.
</event>
<event>
12    1  0.8488291E-002  0.1790577E+03  0.7818608E-02  0.1169045E+00
         21   -1    0    0  501  502  0.00000000000E+00  0.00000000000E+00  0.56866423511E+02  0.56866423511E+02  0.00000000000E+00 0.  1.
         21   -1    0    0  502  503 -0.00000000000E+00 -0.00000000000E+00 -0.57679073714E+03  0.57679073714E+03  0.00000000000E+00 0. -1.
         -6    2    1    2    0  503  0.33507776795E+02  0.32530307640E+02 -0.31371162781E+03  0.36055399291E+03  0.17147362582E+03 0.  0.
        -24    2    3    3    0    0  0.63802707087E+02  0.32213333579E+02 -0.31232611155E+03  0.32986371872E+03  0.78447362492E+02 0.  0.
          6    2    1    2  501    0 -0.33507776795E+02 -0.32530307640E+02 -0.20621268581E+03  0.27310316774E+03  0.17286028005E+03 0.  0.
         24    2    5    5    0    0 -0.52542852264E+02 -0.14260188895E+02 -0.36845806723E+02  0.10162908495E+03  0.77503245890E+02 0.  0.
          5    1    5    5  501    0  0.19035075469E+02 -0.18270118745E+02 -0.16936687909E+03  0.17147408279E+03  0.47000000000E+01 0. -1.
        -13    1    6    6    0    0 -0.63874139789E+02 -0.44840909833E+01 -0.50361668380E+02  0.81463552880E+02  0.00000000000E+00 0.  1.
         14    1    6    6    0    0  0.11331287526E+02 -0.97760979112E+01  0.13515861657E+02  0.20165532071E+02  0.00000000000E+00 0. -1.
         -5    1    3    3    0  503 -0.30294930293E+02  0.31697406084E+00 -0.13855162626E+01  0.30690274181E+02  0.47000000000E+01 0.  1.
         11    1    4    4    0    0  0.76650991784E+02  0.77235346638E+01 -0.25173777769E+03  0.26326210560E+03  0.00000000000E+00 0. -1.
        -12    1    4    4    0    0 -0.12848284696E+02  0.24489798915E+02 -0.60588333858E+02  0.66601613121E+02  0.00000000000E+00 0.  1.
</event>
<event>
12    1  0.8488291E-002  0.1773418E+03  0.7818608E-02  0.1170714E+00
         21   -1    0    0  501  502  0.00000000000E+00  0.00000000000E+00  0.97758322399E+03  0.97758322399E+03  0.00000000000E+00 0. -1.
         21   -1    0    0  502  503 -0.00000000000E+00 -0.00000000000E+00 -0.31963960551E+02  0.31963960551E+02  0.00000000000E+00 0. -1.
         -6    2    1    2    0  503 -0.32893153448E+02 -0.27430705719E+02  0.46140700118E+03  0.49431420171E+03  0.17209214424E+03 0.  0.
        -24    2    3    3    0    0  0.58325011977E+01 -0.58049089568E+02  0.15576173737E+03  0.18467202265E+03  0.80239156604E+02 0.  0.
          6    2    1    2  501    0  0.32893153448E+02  0.27430705719E+02  0.48421226226E+03  0.51523298283E+03  0.17078966164E+03 0.  0.
         24    2    5    5    0    0 -0.18110238856E+02  0.69448956582E+02  0.25226664619E+03  0.27401163585E+03  0.79327028661E+02 0.  0.
          5    1    5    5  501    0  0.51003392304E+02 -0.42018250862E+02  0.23194561606E+03  0.24122134699E+03  0.47000000000E+01 0. -1.
        -11    1    6    6    0    0  0.28704728260E+02  0.31408641784E+02  0.14304925253E+03  0.14924326737E+03  0.00000000000E+00 0.  1.
         12    1    6    6    0    0 -0.46814967115E+02  0.38040314798E+02  0.10921739366E+03  0.12476836848E+03  0.00000000000E+00 0. -1.
         -5    1    3    3    0  503 -0.38725654646E+02  0.30618383848E+02  0.30564526381E+03  0.30964217905E+03  0.47000000000E+01 0.  1.
         11    1    4    4    0    0  0.37963508711E+02 -0.89982471960E+01  0.46760582678E+02  0.60899495389E+02  0.00000000000E+00 0. -1.
        -12    1    4    4    0    0 -0.32131007513E+02 -0.49050842372E+02  0.10900115469E+03  0.12377252726E+03  0.00000000000E+00 0.  1.
</event>
<event>
12    1  0.8488291E-002  0.1832959E+03  0.7818608E-02  0.1165725E+00
         21   -1    0    0  503  502  0.00000000000E+00  0.00000000000E+00  0.89617459077E+03  0.89617459077E+03  0.00000000000E+00 0. -1.
         21   -1    0    0  501  503 -0.00000000000E+00 -0.00000000000E+00 -0.47236749194E+02  0.47236749194E+02  0.00000000000E+00 0. -1.
          6    2    1    2  501    0  0.48930917585E+02  0.17458688286E+02  0.19633777454E+03  0.26555868140E+03  0.17109602878E+03 0.  0.
         24    2    3    3    0    0  0.19110293282E+02  0.72380570588E+02  0.89488239099E+02  0.14168537510E+03  0.80389366667E+02 0.  0.
         -6    2    1    2    0  502 -0.48930917585E+02 -0.17458688286E+02  0.65260006704E+03  0.67785265856E+03  0.17577923294E+03 0.  0.
        -24    2    5    5    0    0  0.27255740713E+02 -0.48521918487E+02  0.29378425387E+03  0.30969479982E+03  0.80650041788E+02 0.  0.
          5    1    3    3  501    0  0.29820624303E+02 -0.54921882303E+02  0.10684953544E+03  0.12387330630E+03  0.47000000000E+01 0. -1.
        -13    1    4    4    0    0 -0.39483325814E+01 -0.70203663013E+01  0.48936497157E+02  0.49594915336E+02  0.00000000000E+00 0.  1.
         14    1    4    4    0    0  0.23058625864E+02  0.79400936890E+02  0.40551741943E+02  0.92090459768E+02  0.00000000000E+00 0. -1.
         -5    1    5    5    0  502 -0.76186658298E+02  0.31063230202E+02  0.35881581317E+03  0.36815785874E+03  0.47000000000E+01 0.  1.
         11    1    6    6    0    0 -0.18731280197E+02 -0.98641014057E+01  0.17798020630E+03  0.17923480462E+03  0.00000000000E+00 0. -1.
        -12    1    6    6    0    0  0.45987020910E+02 -0.38657817082E+02  0.11580404757E+03  0.13045999520E+03  0.00000000000E+00 0.  1.
</event>
<event>
12    1  0.8488291E-002  0.1762450E+03  0.7818608E-02  0.1171656E+00
         21   -1    0    0  503  502  0.00000000000E+00  0.00000000000E+00  0.19164023355E+04  0.19164023355E+04  0.00000000000E+00 0. -1.
         21   -1    0    0  501  503 -0.00000000000E+00 -0.00000000000E+00 -0.17178868027E+02  0.17178868027E+02  0.00000000000E+00 0. -1.
          6    2    1    2  501    0  0.27662193468E+02 -0.21711371005E+02  0.71088631538E+03  0.73224548771E+03  0.17201023312E+03 0.  0.
         24    2    3    3    0    0  0.19819480245E+02  0.51490680818E+02  0.47696520468E+03  0.48696763593E+03  0.81225426817E+02 0.  0.
         -6    2    1    2    0  502 -0.27662193468E+02  0.21711371005E+02  0.11883371521E+04  0.12013357158E+04  0.17270128683E+03 0.  0.
        -24    2    5    5    0    0 -0.57163696056E+02 -0.66141192899E+01  0.10938150762E+04  0.10982377775E+04  0.79895933997E+02 0.  0.
          5    1    3    3  501    0  0.78427132230E+01 -0.73202051823E+02  0.23392111071E+03  0.24527785178E+03  0.47000000000E+01 0. -1.
        -11    1    4    4    0    0  0.52985209549E+01  0.54210823963E+02  0.46437056211E+03  0.46755417517E+03  0.00000000000E+00 0.  1.
         12    1    4    4    0    0  0.14520959290E+02 -0.27201431450E+01  0.12594642563E+02  0.19413460761E+02  0.00000000000E+00 0. -1.
         -5    1    5    5    0  502  0.29501502588E+02  0.28325490295E+02  0.94522075894E+02  0.10309793832E+03  0.47000000000E+01 0.  1.
         13    1    6    6    0    0 -0.57420200841E+02  0.90016796501E+01  0.39548026947E+03  0.39972834931E+03  0.00000000000E+00 0. -1.
        -14    1    6    6    0    0  0.25650478405E+00 -0.15615798940E+02  0.69833480676E+03  0.69850942821E+03  0.00000000000E+00 0.  1.
</event>
<event>
12    1  0.8488291E-002  0.1884569E+03  0.7818608E-02  0.1161050E+00
         21   -1    0    0  501  502  0.00000000000E+00  0.00000000000E+00  0.29730742827E+03  0.29730742827E+03  0.00000000000E+00 0.  1.
         21   -1    0    0  502  503 -0.00000000000E+00 -0.00000000000E+00 -0.12574651136E+03  0.12574651136E+03  0.00000000000E+00 0. -1.
         -6    2    1    2    0  503 -0.34277134496E+02  0.54669098943E+02  0.26468623957E+02  0.18521414837E+03  0.17158106064E+03 0.  0.
        -24    2    3    3    0    0 -0.73640214572E+02  0.31833815462E+02  0.60096206768E+02  0.12843557344E+03  0.80298626689E+02 0.  0.
          6    2    1    2  501    0  0.34277134496E+02 -0.54669098943E+02  0.14509229295E+03  0.23783979127E+03  0.17706597783E+03 0.  0.
         24    2    5    5    0    0  0.58035210628E+02  0.41621320687E+01  0.14495611462E+03  0.17421850184E+03  0.77164773052E+02 0.  0.
          5    1    5    5  501    0 -0.23758076132E+02 -0.58831231012E+02  0.13617832887E+00  0.63621289427E+02  0.47000000000E+01 0. -1.
        -11    1    6    6    0    0  0.95325928477E+01  0.34214644914E+02  0.81377197131E+02  0.88790542660E+02  0.00000000000E+00 0.  1.
         12    1    6    6    0    0  0.48502617780E+02 -0.30052512845E+02  0.63578917492E+02  0.85427959178E+02  0.00000000000E+00 0. -1.
         -5    1    3    3    0  503  0.39363080076E+02  0.22835283481E+02 -0.33627582812E+02  0.56778574925E+02  0.47000000000E+01 0.  1.
         11    1    4    4    0    0 -0.55049884160E+02  0.11263953920E+02 -0.62423978005E+01  0.56536129459E+02  0.00000000000E+00 0. -1.
        -12    1    4    4    0    0 -0.18590330411E+02  0.20569861542E+02  0.66338604569E+02  0.71899443981E+02  0.00000000000E+00 0.  1.
</event>
<event>
12    1  0.8488291E-002  0.2340665E+03  0.7818608E-02  0.1124523E+00
         21   -1    0    0  503  502  0.00000000000E+00  0.00000000000E+00  0.92685951458E+02  0.92685951458E+02  0.00000000000E+00 0. -1.
         21   -1    0    0  501  503 -0.00000000000E+00 -0.00000000000E+00 -0.63129329892E+03  0.63129329892E+03  0.00000000000E+00 0.  1.
          6    2    1    2  501    0 -0.14347771125E+03  0.68711458785E+02 -0.36949848691E+03  0.43521479465E+03  0.16605922876E+03 0.  0.
         24    2    3    3    0    0 -0.12218942831E+03 -0.10223131898E+02 -0.25882772645E+03  0.29754138466E+03  0.80649332227E+02 0.  0.
         -6    2    1    2    0  502  0.14347771125E+03 -0.68711458785E+02 -0.16910886055E+03  0.28876445573E+03  0.17169736743E+03 0.  0.
        -24    2    5    5    0    0  0.60744232126E+02 -0.10084331956E+03 -0.10414677322E+03  0.17867609197E+03  0.84966809010E+02 0.  0.
          5    1    3    3  501    0 -0.21288282939E+02  0.78934590684E+02 -0.11067076046E+03  0.13767340998E+03  0.47000000000E+01 0. -1.
        -13    1    4    4    0    0 -0.43512993077E+02  0.35036253132E+02 -0.10477540655E+03  0.11873839067E+03  0.00000000000E+00 0.  1.
         14    1    4    4    0    0 -0.78676435234E+02 -0.45259385031E+02 -0.15405231990E+03  0.17880299399E+03  0.00000000000E+00 0. -1.
         -5    1    5    5    0  502  0.82733479124E+02  0.32131860775E+02 -0.64962087332E+02  0.11008836376E+03  0.47000000000E+01 0.  1.
         11    1    6    6    0    0  0.77663689316E+02 -0.53703822685E+02 -0.59693481936E+02  0.11170971755E+03  0.00000000000E+00 0. -1.
        -12    1    6    6    0    0 -0.16919457190E+02 -0.47139496876E+02 -0.44453291287E+02  0.66966374424E+02  0.00000000000E+00 0.  1.
</event>
<event>
12    1  0.8488291E-002  0.1900598E+03  0.7818608E-02  0.1158480E+00
         21   -1    0    0  501  502  0.00000000000E+00  0.00000000000E+00  0.65727982086E+03  0.65727982086E+03  0.00000000000E+00 0.  1.
         21   -1    0    0  502  503 -0.00000000000E+00 -0.00000000000E+00 -0.57323915089E+02  0.57323915089E+02  0.00000000000E+00 0.  1.
         -6    2    1    2    0  503 -0.27469789172E+02  0.75892502076E+02  0.22621715007E+03  0.29546050817E+03  0.17207106588E+03 0.  0.
        -24    2    3    3    0    0 -0.43913994687E+02  0.85568054463E+02  0.76163533652E+02  0.14412575998E+03  0.75637424317E+02 0.  0.
          6    2    1    2  501    0  0.27469789172E+02 -0.75892502076E+02  0.37373875570E+03  0.41914322778E+03  0.17171524887E+03 0.  0.
         24    2    5    5    0    0 -0.31930710777E+02 -0.54816289574E+02  0.31642479126E+03  0.33382261687E+03  0.85372683635E+02 0.  0.
          5    1    5    5  501    0  0.59400499949E+02 -0.21076212502E+02  0.57313964433E+02  0.85320610913E+02  0.47000000000E+01 0. -1.
        -13    1    6    6    0    0 -0.13464186650E+02 -0.28920921197E+02  0.24639268998E+02  0.40308777974E+02  0.00000000000E+00 0.  1.
         14    1    6    6    0    0 -0.18466524127E+02 -0.25895368378E+02  0.29178552227E+03  0.29351383889E+03  0.00000000000E+00 0. -1.
         -5    1    3    3    0  503  0.16444205515E+02 -0.96755523871E+01  0.15005361642E+03  0.15133474819E+03  0.47000000000E+01 0.  1.
         11    1    4    4    0    0  0.73398879271E+01 -0.20678165438E-01 -0.99321448538E+01  0.12349975051E+02  0.00000000000E+00 0. -1.
        -12    1    4    4    0    0 -0.51253882614E+02  0.85588732628E+02  0.86095678506E+02  0.13177578493E+03  0.00000000000E+00 0.  1.
</event>
<event>
12    1  0.8488291E-002  0.2500324E+03  0.7818608E-02  0.1113417E+00
         21   -1    0    0  501  502  0.00000000000E+00  0.00000000000E+00  0.44617326992E+03  0.44617326992E+03  0.00000000000E+00 0. -1.
         21   -1    0    0  502  503 -0.00000000000E+00 -0.00000000000E+00 -0.15480835632E+03  0.15480835632E+03  0.00000000000E+00 0. -1.
         -6    2    1    2    0  503 -0.18185976468E+03  0.64204389606E+01  0.51865690659E+02  0.25535510808E+03  0.17147007118E+03 0.  0.
        -24    2    3    3    0    0 -0.45869468039E+02  0.10745041182E+02  0.75771006402E+02  0.11713203806E+03  0.75889425624E+02 0.  0.
          6    2    1    2  501    0  0.18185976468E+03 -0.64204389606E+01  0.23949922294E+03  0.34562651816E+03  0.17024575243E+03 0.  0.
         24    2    5    5    0    0  0.50869501701E+02  0.22080872511E+01  0.17642103787E+03  0.19990813260E+03  0.79033518341E+02 0.  0.
          5    1    5    5  501    0  0.13099026298E+03 -0.86285262117E+01  0.63078185066E+02  0.14571838556E+03  0.47000000000E+01 0. -1.
        -13    1    6    6    0    0 -0.19454381738E+02 -0.63824105201E+01  0.22243689294E+02  0.30232264987E+02  0.00000000000E+00 0.  1.
         14    1    6    6    0    0  0.70323883440E+02  0.85904977712E+01  0.15417734858E+03  0.16967586761E+03  0.00000000000E+00 0. -1.
         -5    1    3    3    0  503 -0.13599029664E+03 -0.43246022214E+01 -0.23905315743E+02  0.13822307002E+03  0.47000000000E+01 0.  1.
         13    1    4    4    0    0 -0.65380076304E+02  0.18108814318E+02  0.51779785038E+02  0.85344183587E+02  0.00000000000E+00 0. -1.
        -14    1    4    4    0    0  0.19510608265E+02 -0.73637731357E+01  0.23991221364E+02  0.31787854476E+02  0.00000000000E+00 0.  1.
</event>
<event>
12    1  0.8488291E-002  0.1958077E+03  0.7818608E-02  0.1153393E+00
         21   -1    0    0  503  502  0.00000000000E+00  0.00000000000E+00  0.57540180955E+02  0.57540180955E+02  0.00000000000E+00 0.  1.
         21   -1    0    0  501  503 -0.00000000000E+00 -0.00000000000E+00 -0.11099657945E+04  0.11099657945E+04  0.00000000000E+00 0.  1.
          6    2    1    2  501    0  0.89290176172E+02  0.28593436389E+02 -0.89596099841E+03  0.91710781974E+03  0.17190207148E+03 0.  0.
         24    2    3    3    0    0  0.53490571425E+01 -0.33995530358E+02 -0.32097613664E+03  0.33264809358E+03  0.80279296071E+02 0.  0.
         -6    2    1    2    0  502 -0.89290176172E+02 -0.28593436389E+02 -0.15646461515E+03  0.25039815574E+03  0.17154515568E+03 0.  0.
        -24    2    5    5    0    0 -0.43767612818E+02  0.90619019168E+01 -0.19438212858E+01  0.84901950303E+02  0.72158441820E+02 0.  0.
          5    1    3    3  501    0  0.83941119030E+02  0.62588966746E+02 -0.57498486178E+03  0.58445972615E+03  0.47000000000E+01 0. -1.
        -13    1    4    4    0    0 -0.15853083663E+02  0.18161346538E+02 -0.16641121345E+03  0.16814828793E+03  0.00000000000E+00 0.  1.
         14    1    4    4    0    0  0.21202140806E+02 -0.52156876896E+02 -0.15456492319E+03  0.16449980566E+03  0.00000000000E+00 0. -1.
         -5    1    5    5    0  502 -0.45522563354E+02 -0.37655338306E+02 -0.15452079387E+03  0.16549620544E+03  0.47000000000E+01 0.  1.
         13    1    6    6    0    0 -0.38312656313E+02  0.37323857071E+02 -0.11237095730E+02  0.54655304050E+02  0.00000000000E+00 0. -1.
        -14    1    6    6    0    0 -0.54549565050E+01 -0.28261955155E+02  0.92932744441E+01  0.30246646252E+02  0.00000000000E+00 0.  1.
</event>
<event>
12    1  0.8488291E-002  0.1940612E+03  0.7818608E-02  0.1155467E+00
         21   -1    0    0  501  502  0.00000000000E+00  0.00000000000E+00  0.26866856429E+03  0.26866856429E+03  0.00000000000E+00 0.  1.
         21   -1    0    0  502  503 -0.00000000000E+00 -0.00000000000E+00 -0.15826697269E+03  0.15826697269E+03  0.00000000000E+00 0. -1.
         -6    2    1    2    0  503  0.53321587483E+01  0.85102995933E+02  0.13163898621E+03  0.23449644857E+03  0.17432386488E+03 0.  0.
        -24    2    3    3    0    0 -0.23261102271E+02  0.19528492459E+02  0.72057095534E+01  0.90888230068E+02  0.85359868897E+02 0.  0.
          6    2    1    2  501    0 -0.53321587483E+01 -0.85102995933E+02 -0.21237394605E+02  0.19243908842E+03  0.17120404198E+03 0.  0.
         24    2    5    5    0    0 -0.22767397855E+02  0.15981743332E+02  0.47354386319E+01  0.86520298107E+02  0.81789773691E+02 0.  0.
          5    1    5    5  501    0  0.17435239107E+02 -0.10108473927E+03 -0.25972833236E+02  0.10591879031E+03  0.47000000000E+01 0. -1.
        -13    1    6    6    0    0  0.21182834598E+01  0.20978755836E+02  0.38728444444E+02  0.44096345997E+02  0.00000000000E+00 0.  1.
         14    1    6    6    0    0 -0.24885681315E+02 -0.49970125041E+01 -0.33993005812E+02  0.42423952110E+02  0.00000000000E+00 0. -1.
         -5    1    3    3    0  503  0.28593261020E+02  0.65574503474E+02  0.12443327665E+03  0.14360821850E+03  0.47000000000E+01 0.  1.
         11    1    4    4    0    0  0.26400552198E+02 -0.12674666863E+02  0.11683995042E+02  0.31530177237E+02  0.00000000000E+00 0. -1.
        -12    1    4    4    0    0 -0.49661654469E+02  0.32203159322E+02 -0.44782854888E+01  0.59358052831E+02  0.00000000000E+00 0.  1.
</event>
<event>
12    1  0.8488291E-002  0.1791640E+03  0.7818608E-02  0.1169182E+00
         21   -1    0    0  503  502  0.00000000000E+00  0.00000000000E+00  0.74114689878E+03  0.74114689878E+03  0.00000000000E+00 0.  1.
         21   -1    0    0  501  503 -0.00000000000E+00 -0.00000000000E+00 -0.50805003095E+02  0.50805003095E+02  0.00000000000E+00 0.  1.
          6    2    1    2  501    0  0.40014682690E+02 -0.20765717728E+02  0.50091683512E+03  0.53121908046E+03  0.17100773629E+03 0.  0.
         24    2    3    3    0    0  0.50615277943E+02 -0.19275451808E+02  0.50825142529E+03  0.51741764121E+03  0.80424217256E+02 0.  0.
         -6    2    1    2    0  502 -0.40014682690E+02  0.20765717728E+02  0.18942506057E+03  0.26073282142E+03  0.17339942541E+03 0.  0.
        -24    2    5    5    0    0 -0.49870002180E+02  0.57031183874E+02  0.62127621551E+02  0.12792077627E+03  0.82245428991E+02 0.  0.
          5    1    3    3  501    0 -0.10600595253E+02 -0.14902659201E+01 -0.73345901731E+01  0.13801439245E+02  0.47000000000E+01 0. -1.
        -13    1    4    4    0    0  0.43111729868E+02  0.18064739439E+02  0.39877537621E+03  0.40150561233E+03  0.00000000000E+00 0.  1.
         14    1    4    4    0    0  0.75035480745E+01 -0.37340191246E+02  0.10947604908E+03  0.11591202888E+03  0.00000000000E+00 0. -1.
         -5    1    5    5    0  502  0.98553194902E+01 -0.36265466147E+02  0.12729743902E+03  0.13281204515E+03  0.47000000000E+01 0.  1.
         13    1    6    6    0    0 -0.60679308353E+02  0.56448986505E+02  0.74529560030E+02  0.11145905911E+03  0.00000000000E+00 0. -1.
        -14    1    6    6    0    0  0.10809306173E+02  0.58219736943E+00 -0.12401938479E+02  0.16461717157E+02  0.00000000000E+00 0.  1.
</event>
<event>
12    1  0.8488291E-002  0.1954644E+03  0.7818608E-02  0.1153624E+00
         21   -1    0    0  503  502  0.00000000000E+00  0.00000000000E+00  0.11611481796E+04  0.11611481796E+04  0.00000000000E+00 0.  1.
         21   -1    0    0  501  503 -0.00000000000E+00 -0.00000000000E+00 -0.36944991416E+02  0.36944991416E+02  0.00000000000E+00 0.  1.
          6    2    1    2  501    0  0.10970423078E+02 -0.92052803517E+02  0.36396995639E+03  0.41313491411E+03  0.17208212946E+03 0.  0.
         24    2    3    3    0    0  0.42005809944E+02 -0.12078203215E+03  0.25890569319E+03  0.29978080867E+03  0.80520729779E+02 0.  0.
         -6    2    1    2    0  502 -0.10970423078E+02  0.92052803517E+02  0.76023323180E+03  0.78495825692E+03  0.17207797520E+03 0.  0.
        -24    2    5    5    0    0  0.13821722206E+02  0.89590915500E+02  0.74619128748E+03  0.75597589054E+03  0.80501785232E+02 0.  0.
          5    1    3    3  501    0 -0.31035386866E+02  0.28729228635E+02  0.10506426321E+03  0.11335410544E+03  0.47000000000E+01 0. -1.
        -11    1    4    4    0    0 -0.16511101954E+02 -0.22922087627E+02  0.10188271512E+03  0.10572665808E+03  0.00000000000E+00 0.  1.
         12    1    4    4    0    0  0.58516911898E+02 -0.97859944525E+02  0.15702297807E+03  0.19405415059E+03  0.00000000000E+00 0. -1.
         -5    1    5    5    0  502 -0.24792145283E+02  0.24618880170E+01  0.14041944320E+02  0.28982366374E+02  0.47000000000E+01 0.  1.
         11    1    6    6    0    0  0.38688813761E+02  0.15349339469E+02  0.20848629244E+03  0.21260047194E+03  0.00000000000E+00 0. -1.
        -12    1    6    6    0    0 -0.24867091555E+02  0.74241576031E+02  0.53770499504E+03  0.54337541860E+03  0.00000000000E+00 0.  1.
</event>
<event>
12    1  0.8488291E-002  0.2148729E+03  0.7818608E-02  0.1137921E+00
         21   -1    0    0  503  502  0.00000000000E+00  0.00000000000E+00  0.13293825119E+03  0.13293825119E+03  0.00000000000E+00 0.  1.
         21   -1    0    0  501  503 -0.00000000000E+00 -0.00000000000E+00 -0.35106215066E+03  0.35106215066E+03  0.00000000000E+00 0. -1.
          6    2    1    2  501    0 -0.10982521808E+03 -0.66281698868E+02 -0.80194475650E+02  0.22935025053E+03  0.17238196357E+03 0.  0.
         24    2    3    3    0    0  0.11769276516E+01  0.43964411835E+01 -0.36394537322E+02  0.90579214519E+02  0.82820999162E+02 0.  0.
         -6    2    1    2    0  502  0.10982521808E+03  0.66281698868E+02 -0.13792942382E+03  0.25465015132E+03  0.17136899217E+03 0.  0.
        -24    2    5    5    0    0  0.72061587575E+02 -0.88831797741E+01 -0.13308894974E+03  0.17026193555E+03  0.77489837204E+02 0.  0.
          5    1    3    3  501    0 -0.11100214574E+03 -0.70678140052E+02 -0.43799938328E+02  0.13877103602E+03  0.47000000000E+01 0. -1.
        -13    1    4    4    0    0 -0.39753038931E+02 -0.66383376759E+01 -0.14220429581E+02  0.42738650527E+02  0.00000000000E+00 0.  1.
         14    1    4    4    0    0  0.40929966583E+02  0.11034778859E+02 -0.22174107742E+02  0.47840563992E+02  0.00000000000E+00 0. -1.
         -5    1    5    5    0  502  0.37763630509E+02  0.75164878642E+02 -0.48404740894E+01  0.84388215765E+02  0.47000000000E+01 0.  1.
         11    1    6    6    0    0  0.12396838490E+02  0.30900152138E+02 -0.30917044660E+02  0.45435279874E+02  0.00000000000E+00 0. -1.
        -12    1    6    6    0    0  0.59664749085E+02 -0.39783331912E+02 -0.10217190508E+03  0.12482665568E+03  0.00000000000E+00 0.  1.
</event>
<event>
12    1  0.8488291E-002  0.2039400E+03  0.7818608E-02  0.1148381E+00
         21   -1    0    0  501  502  0.00000000000E+00  0.00000000000E+00  0.42863983420E+03  0.42863983420E+03  0.00000000000E+00 0. -1.
         21   -1    0    0  502  503 -0.00000000000E+00 -0.00000000000E+00 -0.14439095573E+03  0.14439095573E+03  0.00000000000E+00 0.  1.
         -6    2    1    2    0  503  0.92274363014E+02  0.32769319965E+01 -0.27126322257E+02  0.20573616094E+03  0.18184123351E+03 0.  0.
        -24    2    3    3    0    0 -0.36489773531E+01  0.44256879791E+02  0.15687729156E+02  0.92883264003E+02  0.80057538316E+02 0.  0.
          6    2    1    2  501    0 -0.92274363014E+02 -0.32769319965E+01  0.31137520073E+03  0.36729462899E+03  0.17153872012E+03 0.  0.
         24    2    5    5    0    0  0.74415640282E+01  0.32969831607E+02  0.13113554270E+03  0.15809252980E+03  0.81574081352E+02 0.  0.
          5    1    5    5  501    0 -0.99715927042E+02 -0.36246763604E+02  0.18023965804E+03  0.20920209919E+03  0.47000000000E+01 0. -1.
        -11    1    6    6    0    0  0.36239794730E+01  0.18471567666E+02 -0.62936516819E+01  0.19847974475E+02  0.00000000000E+00 0.  1.
         12    1    6    6    0    0  0.38175845552E+01  0.14498263941E+02  0.13742919438E+03  0.13824455532E+03  0.00000000000E+00 0. -1.
         -5    1    3    3    0  503  0.95923340367E+02 -0.40979947795E+02 -0.42814051413E+02  0.11285289694E+03  0.47000000000E+01 0.  1.
         13    1    4    4    0    0  0.25726748681E+02  0.33936286718E+01  0.30859412566E+02  0.40319792375E+02  0.00000000000E+00 0. -1.
        -14    1    4    4    0    0 -0.29375726034E+02  0.40863251119E+02 -0.15171683410E+02  0.52563471628E+02  0.00000000000E+00 0.  1.
</event>
<event>
12    1  0.8488291E-002  0.1831359E+03  0.7818608E-02  0.1164966E+00
         21   -1    0    0  503  502  0.00000000000E+00  0.00000000000E+00  0.91841862332E+03  0.91841862332E+03  0.00000000000E+00 0.  1.
         21   -1    0    0  501  503 -0.00000000000E+00 -0.00000000000E+00 -0.36919704490E+02  0.36919704490E+02  0.00000000000E+00 0.  1.
          6    2    1    2  501    0 -0.30068667087E+02 -0.54707159614E+02  0.38220982879E+03  0.42352222759E+03  0.17143431975E+03 0.  0.
         24    2    3    3    0    0 -0.63557278098E+02  0.19636763175E+01  0.30761866038E+03  0.32392803541E+03  0.79099609881E+02 0.  0.
         -6    2    1    2    0  502  0.30068667087E+02  0.54707159614E+02  0.49928909005E+03  0.53181610023E+03  0.17216785695E+03 0.  0.
        -24    2    5    5    0    0  0.34454152363E+02  0.10087940782E+03  0.41242029171E+03  0.43322914820E+03  0.78950961344E+02 0.  0.
          5    1    3    3  501    0  0.33488611011E+02 -0.56670835931E+02  0.74591168405E+02  0.99594192183E+02  0.47000000000E+01 0. -1.
        -13    1    4    4    0    0 -0.18120069979E+02 -0.34716405947E+02  0.81942478048E+02  0.90819246234E+02  0.00000000000E+00 0.  1.
         14    1    4    4    0    0 -0.45437208119E+02  0.36680082264E+02  0.22567618233E+03  0.23310878917E+03  0.00000000000E+00 0. -1.
         -5    1    5    5    0  502 -0.43854852758E+01 -0.46172248206E+02  0.86868798338E+02  0.98586952028E+02  0.47000000000E+01 0.  1.
         13    1    6    6    0    0  0.50195883738E+02  0.40479630103E+02  0.14619714652E+03  0.15978683565E+03  0.00000000000E+00 0. -1.
        -14    1    6    6    0    0 -0.15741731375E+02  0.60399777717E+02  0.26622314519E+03  0.27344231254E+03  0.00000000000E+00 0.  1.
</event>
<event>
12    1  0.8488291E-002  0.2074477E+03  0.7818608E-02  0.1143626E+00
         21   -1    0    0  501  502  0.00000000000E+00  0.00000000000E+00  0.20069036297E+03  0.20069036297E+03  0.00000000000E+00 0.  1.
         21   -1    0    0  502  503 -0.00000000000E+00 -0.00000000000E+00 -0.34332147958E+03  0.34332147958E+03  0.00000000000E+00 0. -1.
         -6    2    1    2    0  503 -0.35386721877E+02 -0.11074409633E+03 -0.23804042497E+03  0.31567548265E+03  0.17167204627E+03 0.  0.
        -24    2    3    3    0    0  0.14717470244E+02 -0.10181394916E+03 -0.22998799409E+03  0.26393469371E+03  0.78640707957E+02 0.  0.
          6    2    1    2  501    0  0.35386721877E+02  0.11074409633E+03  0.95409308356E+02  0.22833635990E+03  0.17180827155E+03 0.  0.
         24    2    5    5    0    0  0.62193568041E+01  0.16520292263E+02  0.99668916988E+02  0.12949762911E+03  0.80772163992E+02 0.  0.
          5    1    5    5  501    0  0.29167365073E+02  0.94223804066E+02 -0.42596086324E+01  0.98838730788E+02  0.47000000000E+01 0. -1.
        -13    1    6    6    0    0  0.58731815937E+01 -0.32721696424E+02  0.44526130862E+02  0.55567796505E+02  0.00000000000E+00 0.  1.
         14    1    6    6    0    0  0.34617521031E+00  0.49241988687E+02  0.55142786126E+02  0.73929832604E+02  0.00000000000E+00 0. -1.
         -5    1    3    3    0  503 -0.50104192121E+02 -0.89301471670E+01 -0.80524308812E+01  0.51740788935E+02  0.47000000000E+01 0.  1.
         13    1    4    4    0    0 -0.19278124303E+02 -0.92011946590E+02 -0.16246076612E+03  0.18770014630E+03  0.00000000000E+00 0. -1.
        -14    1    4    4    0    0  0.33995594547E+02 -0.98020025722E+01 -0.67527227962E+02  0.76234547413E+02  0.00000000000E+00 0.  1.
</event>
<event>
12    1  0.8488291E-002  0.1733582E+03  0.7818608E-02  0.1177723E+00
         21   -1    0    0  503  502  0.00000000000E+00  0.00000000000E+00  0.11643357163E+03  0.11643357163E+03  0.00000000000E+00 0. -1.
         21   -1    0    0  501  503 -0.00000000000E+00 -0.00000000000E+00 -0.38140275429E+03  0.38140275429E+03  0.00000000000E+00 0. -1.
          6    2    1    2  501    0  0.16751637488E+02 -0.29193104841E+02 -0.28100190774E+03  0.32373831331E+03  0.15719913684E+03 0.  0.
         24    2    3    3    0    0  0.43861867369E+02  0.16418738557E+02 -0.23864604848E+03  0.25568308841E+03  0.78920636471E+02 0.  0.
         -6    2    1    2    0  502 -0.16751637488E+02  0.29193104841E+02  0.16032725081E+02  0.17409801261E+03  0.17005944547E+03 0.  0.
        -24    2    5    5    0    0 -0.48600444259E+02  0.42081244835E+02 -0.38731417719E+02  0.10927786157E+03  0.79427287256E+02 0.  0.
          5    1    3    3  501    0 -0.27110229882E+02 -0.45611843398E+02 -0.42355859261E+02  0.68055224900E+02  0.47000000000E+01 0. -1.
        -11    1    4    4    0    0 -0.17641348741E+02 -0.39739699980E+00 -0.15109295784E+02  0.23230710899E+02  0.00000000000E+00 0.  1.
         12    1    4    4    0    0  0.61503216110E+02  0.16816135557E+02 -0.22353675270E+03  0.23245237751E+03  0.00000000000E+00 0. -1.
         -5    1    5    5    0  502  0.31848806772E+02 -0.12888139994E+02  0.54764142799E+02  0.64820151047E+02  0.47000000000E+01 0.  1.
         11    1    6    6    0    0 -0.52662662231E+02  0.17481951774E+02  0.82424115663E+01  0.56097343783E+02  0.00000000000E+00 0. -1.
        -12    1    6    6    0    0  0.40622179716E+01  0.24599293061E+02 -0.46973829285E+02  0.53180517783E+02  0.00000000000E+00 0.  1.
</event>
<event>
12    1  0.8488291E-002  0.2190046E+03  0.7818608E-02  0.1134696E+00
         21   -1    0    0  503  502  0.00000000000E+00  0.00000000000E+00  0.56965977292E+03  0.56965977292E+03  0.00000000000E+00 0. -1.
         21   -1    0    0  501  503 -0.00000000000E+00 -0.00000000000E+00 -0.89868706269E+02  0.89868706269E+02  0.00000000000E+00 0. -1.
          6    2    1    2  501    0  0.10614594755E+03  0.83798488401E+02  0.15584405701E+03  0.26849817886E+03  0.17179858297E+03 0.  0.
         24    2    3    3    0    0  0.89109960580E+02  0.88550547727E+02  0.18201166605E+03  0.23656636584E+03  0.83985798162E+02 0.  0.
         -6    2    1    2    0  502 -0.10614594755E+03 -0.83798488401E+02  0.32394700964E+03  0.39103030033E+03  0.17226108637E+03 0.  0.
        -24    2    5    5    0    0 -0.67736029623E+02 -0.52176068453E+02  0.32052200113E+03  0.34093918413E+03  0.78706176625E+02 0.  0.
          5    1    3    3  501    0  0.17035986968E+02 -0.47520593266E+01 -0.26167609042E+02  0.31931813021E+02  0.47000000000E+01 0. -1.
        -13    1    4    4    0    0  0.66395537931E+02  0.81165092832E+01  0.70153273371E+02  0.96931558043E+02  0.00000000000E+00 0.  1.
         14    1    4    4    0    0  0.22714422649E+02  0.80434038444E+02  0.11185839268E+03  0.13963480780E+03  0.00000000000E+00 0. -1.
         -5    1    5    5    0  502 -0.38409917925E+02 -0.31622419947E+02  0.34250085149E+01  0.50091116195E+02  0.47000000000E+01 0.  1.
         11    1    6    6    0    0 -0.36078897200E+02 -0.70442583546E+02  0.20377882331E+03  0.21860844730E+03  0.00000000000E+00 0. -1.
        -12    1    6    6    0    0 -0.31657132423E+02  0.18266515092E+02  0.11674317782E+03  0.12233073683E+03  0.00000000000E+00 0.  1.
</event>
<event>
12    1  0.8488291E-002  0.2280649E+03  0.7818608E-02  0.1128373E+00
         21   -1    0    0  501  502  0.00000000000E+00  0.00000000000E+00  0.46353861166E+03  0.46353861166E+03  0.00000000000E+00 0.  1.
         21   -1    0    0  502  503 -0.00000000000E+00 -0.00000000000E+00 -0.12501167602E+03  0.12501167602E+03  0.00000000000E+00 0.  1.
         -6    2    1    2    0  503  0.83698734183E+02 -0.12201799743E+03  0.70814370869E+02  0.23686348267E+03  0.17086768126E+03 0.  0.
        -24    2    3    3    0    0  0.12074498888E+02 -0.59015240155E+02  0.96190546869E+02  0.13804334902E+03  0.78579595370E+02 0.  0.
          6    2    1    2  501    0 -0.83698734183E+02  0.12201799743E+03  0.26771256477E+03  0.35168680500E+03  0.17355034334E+03 0.  0.
         24    2    5    5    0    0 -0.46096819127E+02 -0.12393089228E+00  0.73689225116E+02  0.11930844757E+03  0.81728034794E+02 0.  0.
          5    1    5    5  501    0 -0.37601915056E+02  0.12214192833E+03  0.19402333966E+03  0.23237835743E+03  0.47000000000E+01 0. -1.
        -11    1    6    6    0    0 -0.41824013978E+02  0.10575753458E+02 -0.15733935228E+01  0.43169089330E+02  0.00000000000E+00 0.  1.
         12    1    6    6    0    0 -0.42728051498E+01 -0.10699684351E+02  0.75262618639E+02  0.76139358242E+02  0.00000000000E+00 0. -1.
         -5    1    3    3    0  503  0.71624235295E+02 -0.63002757279E+02 -0.25376176000E+02  0.98820133651E+02  0.47000000000E+01 0.  1.
         11    1    4    4    0    0 -0.17498372830E+02 -0.65576548645E+02  0.74536484498E+02  0.10080756075E+03  0.00000000000E+00 0. -1.
        -12    1    4    4    0    0  0.29572871718E+02  0.65613084908E+01  0.21654062371E+02  0.37235788268E+02  0.00000000000E+00 0.  1.
</event>
<event>
12    1  0.8488291E-002  0.2544119E+03  0.7818608E-02  0.1110606E+00
         21   -1    0    0  503  502  0.00000000000E+00  0.00000000000E+00  0.59058305886E+02  0.59058305886E+02  0.00000000000E+00 0.  1.
         21   -1    0    0  501  503 -0.00000000000E+00 -0.00000000000E+00 -0.12124344113E+04  0.12124344113E+04  0.00000000000E+00 0. -1.
          6    2    1    2  501    0  0.14327520749E+03  0.12065930772E+03 -0.77471830575E+03  0.81530511510E+03  0.17160280836E+03 0.  0.
         24    2    3    3    0    0  0.76513492377E+02  0.65327614290E+02 -0.22698997728E+03  0.26073579147E+03  0.79603338292E+02 0.  0.
         -6    2    1    2    0  502 -0.14327520749E+03 -0.12065930772E+03 -0.37865779963E+03  0.45618760204E+03  0.17215965095E+03 0.  0.
        -24    2    5    5    0    0 -0.92861344672E+02 -0.63216124398E+02 -0.34698208061E+03  0.37332193938E+03  0.79706953482E+02 0.  0.
          5    1    3    3  501    0  0.66761715115E+02  0.55331693427E+02 -0.54772832847E+03  0.55456932363E+03  0.47000000000E+01 0. -1.
        -11    1    4    4    0    0  0.90124653928E+02  0.41822838639E+02 -0.19434032706E+03  0.21826535638E+03  0.00000000000E+00 0.  1.
         12    1    4    4    0    0 -0.13611161551E+02  0.23504775651E+02 -0.32649650220E+02  0.42470435089E+02  0.00000000000E+00 0. -1.
         -5    1    5    5    0  502 -0.50413862820E+02 -0.57443183319E+02 -0.31675719017E+02  0.82865662669E+02  0.47000000000E+01 0.  1.
         13    1    6    6    0    0 -0.55927962892E+01 -0.19811267598E+02 -0.17029468438E+03  0.17153438495E+03  0.00000000000E+00 0. -1.
        -14    1    6    6    0    0 -0.87268548383E+02 -0.43404856800E+02 -0.17668739624E+03  0.20178755442E+03  0.00000000000E+00 0.  1.
</event>
<event>
12    1  0.8488291E-002  0.1722642E+03  0.7818608E-02  0.1176204E+00
         21   -1    0    0  501  502  0.00000000000E+00  0.00000000000E+00  0.17888418525E+03  0.17888418525E+03  0.00000000000E+00 0.  1.
         21   -1    0    0  502  503 -0.00000000000E+00 -0.00000000000E+00 -0.16361959943E+03  0.16361959943E+03  0.00000000000E+00 0.  1.
         -6    2    1    2    0  503 -0.14296751345E+02  0.19989490013E+02  0.12900637234E+00  0.17226421621E+03  0.17050210185E+03 0.  0.
        -24    2    3    3    0    0  0.17030853373E+02 -0.26626515383E+02  0.47975662533E+02  0.98332739275E+02  0.79803772654E+02 0.  0.
          6    2    1    2  501    0  0.14296751345E+02 -0.19989490013E+02  0.15135579442E+02  0.17023956847E+03  0.16777499247E+03 0.  0.
         24    2    5    5    0    0  0.22101471763E+02  0.16797592207E+02  0.65967417984E+02  0.10683476669E+03  0.79317923451E+02 0.  0.
          5    1    5    5  501    0 -0.78047204179E+01 -0.36787082220E+02 -0.50831838542E+02  0.63404801779E+02  0.47000000000E+01 0. -1.
        -11    1    6    6    0    0 -0.22667158220E+02  0.29311907066E+02  0.35067379064E+02  0.51016752465E+02  0.00000000000E+00 0.  1.
         12    1    6    6    0    0  0.44768629983E+02 -0.12514314860E+02  0.30900038920E+02  0.55818014227E+02  0.00000000000E+00 0. -1.
         -5    1    3    3    0  503 -0.31327604719E+02  0.46616005397E+02 -0.47846656161E+02  0.73931476938E+02  0.47000000000E+01 0.  1.
         13    1    4    4    0    0 -0.19652477208E+02 -0.57117818853E+01  0.52031495149E+02  0.55911723280E+02  0.00000000000E+00 0. -1.
        -14    1    4    4    0    0  0.36683330581E+02 -0.20914733498E+02 -0.40558326164E+01  0.42421015995E+02  0.00000000000E+00 0.  1.
</event>
<event>
12    1  0.8488291E-002  0.2232504E+03  0.7818608E-02  0.1131971E+00
         21   -1    0    0  501  502  0.00000000000E+00  0.00000000000E+00  0.54227640509E+03  0.54227640509E+03  0.00000000000E+00 0.  1.
         21   -1    0    0  502  503 -0.00000000000E+00 -0.00000000000E+00 -0.11614931298E+03  0.11614931298E+03  0.00000000000E+00 0.  1.
         -6    2    1    2    0  503 -0.11083472406E+03 -0.90352601521E+02  0.60326333805E+02  0.23125745448E+03  0.17144332896E+03 0.  0.
        -24    2    3    3    0    0 -0.23282283750E+02 -0.24891214225E+02 -0.29084266906E+02  0.89952930316E+02  0.77999985953E+02 0.  0.
          6    2    1    2  501    0  0.11083472406E+03  0.90352601521E+02  0.36580075830E+03  0.42716826359E+03  0.16797202738E+03 0.  0.
         24    2    5    5    0    0  0.10254237005E+03  0.39109651351E+02  0.34149473378E+03  0.36965760453E+03  0.89350931184E+02 0.  0.
          5    1    5    5  501    0  0.82923540129E+01  0.51242950171E+02  0.24306024525E+02  0.57510659059E+02  0.47000000000E+01 0. -1.
        -11    1    6    6    0    0  0.86255474186E+02  0.31712586193E+02  0.14061473077E+03  0.16798272965E+03  0.00000000000E+00 0.  1.
         12    1    6    6    0    0  0.16286895860E+02  0.73970651573E+01  0.20088000301E+03  0.20167487488E+03  0.00000000000E+00 0. -1.
         -5    1    3    3    0  503 -0.87552440308E+02 -0.65461387296E+02  0.89410600712E+02  0.14130452417E+03  0.47000000000E+01 0.  1.
         11    1    4    4    0    0  0.28913427616E+02 -0.54694615964E+01 -0.96890967062E+01  0.30980314744E+02  0.00000000000E+00 0. -1.
        -12    1    4    4    0    0 -0.52195711366E+02 -0.19421752628E+02 -0.19395170200E+02  0.58972615571E+02  0.00000000000E+00 0.  1.
</event>
<event>
12    1  0.8488291E-002  0.1991132E+03  0.7818608E-02  0.1153734E+00
         21   -1    0    0  501  502  0.00000000000E+00  0.00000000000E+00  0.80297997207E+02  0.80297997207E+02  0.00000000000E+00 0. -1.
         21   -1    0    0  502  503 -0.00000000000E+00 -0.00000000000E+00 -0.10563571233E+04  0.10563571233E+04  0.00000000000E+00 0. -1.
         -6    2    1    2    0  503 -0.36253965384E+02  0.57682957916E+02 -0.90752668952E+03  0.92607792326E+03  0.17138831383E+03 0.  0.
        -24    2    3    3    0    0 -0.56439478202E+02  0.93977495186E+02 -0.78525254916E+03  0.79685794120E+03  0.79648152426E+02 0.  0.
          6    2    1    2  501    0  0.36253965384E+02 -0.57682957916E+02 -0.68532436540E+02  0.21057719721E+03  0.18709459503E+03 0.  0.
         24    2    5    5    0    0 -0.20504774588E+02 -0.21025469609E+02  0.33841267194E+02  0.87826265534E+02  0.75536119831E+02 0.  0.
          5    1    5    5  501    0  0.56758739971E+02 -0.36657488307E+02 -0.10237370373E+03  0.12275093168E+03  0.47000000000E+01 0. -1.
        -11    1    6    6    0    0 -0.12245621429E+02  0.14162688204E+02  0.46021945386E+02  0.49684569420E+02  0.00000000000E+00 0.  1.
         12    1    6    6    0    0 -0.82591531586E+01 -0.35188157814E+02 -0.12180678192E+02  0.38141696114E+02  0.00000000000E+00 0. -1.
         -5    1    3    3    0  503  0.20185512819E+02 -0.36294537270E+02 -0.12227414036E+03  0.12921998206E+03  0.47000000000E+01 0.  1.
         13    1    4    4    0    0 -0.32212308714E+02 -0.58827966310E+01 -0.19075920591E+03  0.19354925670E+03  0.00000000000E+00 0. -1.
        -14    1    4    4    0    0 -0.24227169489E+02  0.99860291817E+02 -0.59449334325E+03  0.60330868450E+03  0.00000000000E+00 0.  1.
</event>
<event>
12    1  0.8488291E-002  0.2512840E+03  0.7818608E-02  0.1112897E+00
         21   -1    0    0  503  502  0.00000000000E+00  0.00000000000E+00  0.19866172006E+04  0.19866172006E+04  0.00000000000E+00 0.  1.
         21   -1    0    0  501  503 -0.00000000000E+00 -0.00000000000E+00 -0.56415091411E+02  0.56415091411E+02  0.00000000000E+00 0.  1.
          6    2    1    2  501    0  0.17848054170E+03 -0.42371802227E+02  0.28302821466E+03  0.37680136537E+03  0.16799888470E+03 0.  0.
         24    2    3    3    0    0  0.12553463617E+03  0.89650891115E+00  0.95331459181E+02  0.17698250320E+03  0.80467202781E+02 0.  0.
         -6    2    1    2    0  502 -0.17848054170E+03  0.42371802227E+02  0.16471738946E+04  0.16662309267E+04  0.17173522845E+03 0.  0.
        -24    2    5    5    0    0 -0.18981288735E+03 -0.20894095622E+00  0.13729059806E+04  0.13884063051E+04  0.82293745154E+02 0.  0.
          5    1    3    3  501    0  0.52945905531E+02 -0.43268311138E+02  0.18769675548E+03  0.19981886217E+03  0.47000000000E+01 0. -1.
        -13    1    4    4    0    0  0.67640153396E+02  0.33290509589E+02  0.22964846718E+02  0.78808835577E+02  0.00000000000E+00 0.  1.
         14    1    4    4    0    0  0.57894482773E+02 -0.32394000678E+02  0.72366612463E+02  0.98173667624E+02  0.00000000000E+00 0. -1.
         -5    1    5    5    0  502  0.11332345655E+02  0.42580743183E+02  0.27426791391E+03  0.27782462157E+03  0.47000000000E+01 0.  1.
         11    1    6    6    0    0 -0.65305207810E+02  0.34051995692E+02  0.37352750978E+03  0.38071919986E+03  0.00000000000E+00 0. -1.
        -12    1    6    6    0    0 -0.12450767955E+03 -0.34260936648E+02  0.99937847087E+03  0.10076871052E+04  0.00000000000E+00 0.  1.
</event>
<event>
12    1  0.8488291E-002  0.2012360E+03  0.7818608E-02  0.1148986E+00
         21   -1    0    0  503  502  0.00000000000E+00  0.00000000000E+00  0.15114709129E+03  0.15114709129E+03  0.00000000000E+00 0.  1.
         21   -1    0    0  501  503 -0.00000000000E+00 -0.00000000000E+00 -0.67685291343E+03  0.67685291343E+03  0.00000000000E+00 0. -1.
          6    2    1    2  501    0 -0.88079612601E+02 -0.55739928082E+02 -0.58500599125E+03  0.61820858671E+03  0.17054292467E+03 0.  0.
         24    2    3    3    0    0 -0.12090862750E+03 -0.62694957816E+02 -0.39822938732E+03  0.42838312364E+03  0.79849243910E+02 0.  0.
         -6    2    1    2    0  502  0.88079612601E+02  0.55739928082E+02  0.59300169103E+02  0.20979141800E+03  0.17213649024E+03 0.  0.
        -24    2    5    5    0    0 -0.63578025786E+01  0.34427127319E+02 -0.13635780995E+02  0.88488476245E+02  0.80116335137E+02 0.  0.
          5    1    3    3  501    0  0.32829014898E+02  0.69550297341E+01 -0.18677660392E+03  0.18982546307E+03  0.47000000000E+01 0. -1.
        -13    1    4    4    0    0 -0.25113027299E+02 -0.50066243999E+02 -0.96701072692E+02  0.11175146705E+03  0.00000000000E+00 0.  1.
         14    1    4    4    0    0 -0.95795600199E+02 -0.12628713817E+02 -0.30152831463E+03  0.31663165659E+03  0.00000000000E+00 0. -1.
         -5    1    5    5    0  502  0.94437415179E+02  0.21312800763E+02  0.72935950098E+02  0.12130294176E+03  0.47000000000E+01 0.  1.
         11    1    6    6    0    0  0.22002408720E+02 -0.12142104824E+01 -0.32435990772E+02  0.39213183930E+02  0.00000000000E+00 0. -1.
        -12    1    6    6    0    0 -0.28360211298E+02  0.35641337801E+02  0.18800209777E+02  0.49275292315E+02  0.00000000000E+00 0.  1.
</event>
<event>
12    1  0.8488291E-002  0.2017798E+03  0.7818608E-02  0.1148499E+00
         21   -1    0    0  501  502  0.00000000000E+00  0.00000000000E+00  0.92700916895E+02  0.92700916895E+02  0.00000000000E+00 0.  1.
         21   -1    0    0  502  503 -0.00000000000E+00 -0.00000000000E+00 -0.48326780688E+03  0.48326780688E+03  0.00000000000E+00 0. -1.
         -6    2    1    2    0  503 -0.99884962589E+02 -0.33558560958E+02 -0.28426608891E+03  0.34790089503E+03  0.17065942896E+03 0.  0.
        -24    2    3    3    0    0 -0.96106468216E+02 -0.80293641342E+02 -0.24420035513E+03  0.28604786130E+03  0.80660048578E+02 0.  0.
          6    2    1    2  501    0  0.99884962589E+02  0.33558560958E+02 -0.10630080108E+03  0.22806782875E+03  0.17208106065E+03 0.  0.
         24    2    5    5    0    0  0.27688726386E+02 -0.56039488821E+00 -0.12012157764E+03  0.14689207168E+03  0.79881835842E+02 0.  0.
          5    1    5    5  501    0  0.72196236203E+02  0.34118955846E+02  0.13820776563E+02  0.81175757063E+02  0.47000000000E+01 0. -1.
        -13    1    6    6    0    0  0.94628213993E+01  0.28468010590E+02 -0.10098576463E+02  0.31653654803E+02  0.00000000000E+00 0.  1.
         14    1    6    6    0    0  0.18225904987E+02 -0.29028405478E+02 -0.11002300118E+03  0.11523841688E+03  0.00000000000E+00 0. -1.
         -5    1    3    3    0  503 -0.37784943737E+01  0.46735080384E+02 -0.40065733780E+02  0.61853033730E+02  0.47000000000E+01 0.  1.
         13    1    4    4    0    0 -0.54508379609E+02 -0.66769371203E+02 -0.21949422535E+03  0.23581142326E+03  0.00000000000E+00 0. -1.
        -14    1    4    4    0    0 -0.41598088607E+02 -0.13524270140E+02 -0.24706129786E+02  0.50236438046E+02  0.00000000000E+00 0.  1.
</event>
<event>
12    1  0.8488291E-002  0.1767125E+03  0.7818608E-02  0.1171445E+00
         21   -1    0    0  501  502  0.00000000000E+00  0.00000000000E+00  0.81923615648E+03  0.81923615648E+03  0.00000000000E+00 0.  1.
         21   -1    0    0  502  503 -0.00000000000E+00 -0.00000000000E+00 -0.38901947394E+02  0.38901947394E+02  0.00000000000E+00 0.  1.
         -6    2    1    2    0  503  0.79180673649E+01  0.36470549025E+02  0.31461367126E+03  0.36001872095E+03  0.17099391963E+03 0.  0.
        -24    2    3    3    0    0 -0.34397020766E+02  0.31234328777E+02  0.30265538233E+03  0.31548698664E+03  0.75980391902E+02 0.  0.
          6    2    1    2  501    0 -0.79180673649E+01 -0.36470549025E+02  0.46572053782E+03  0.49811938292E+03  0.17272667298E+03 0.  0.
         24    2    5    5    0    0 -0.67545417382E+02 -0.28007312252E+02  0.23996949738E+03  0.26442584535E+03  0.83599492012E+02 0.  0.
          5    1    5    5  501    0  0.59627350017E+02 -0.84632367724E+01  0.22575104044E+03  0.23369353758E+03  0.47000000000E+01 0. -1.
        -13    1    6    6    0    0 -0.57619259318E+02 -0.45245614191E+02  0.10519788259E+03  0.12819414632E+03  0.00000000000E+00 0.  1.
         14    1    6    6    0    0 -0.99261580640E+01  0.17238301938E+02  0.13477161479E+03  0.13623169903E+03  0.00000000000E+00 0. -1.
         -5    1    3    3    0  503  0.42315088131E+02  0.52362202473E+01  0.11958288928E+02  0.44531734304E+02  0.47000000000E+01 0.  1.
         13    1    4    4    0    0 -0.48176017433E+01 -0.23939332363E+02  0.57616296749E+02  0.62577460571E+02  0.00000000000E+00 0. -1.
        -14    1    4    4    0    0 -0.29579419023E+02  0.55173661140E+02  0.24503908559E+03  0.25290952607E+03  0.00000000000E+00 0.  1.
</event>
<event>
12    1  0.8488291E-002  0.1883000E+03  0.7818608E-02  0.1162076E+00
         21   -1    0    0  501  502  0.00000000000E+00  0.00000000000E+00  0.81084043549E+03  0.81084043549E+03  0.00000000000E+00 0.  1.
         21   -1    0    0  502  503 -0.00000000000E+00 -0.00000000000E+00 -0.81063995755E+02  0.81063995755E+02  0.00000000000E+00 0. -1.
         -6    2    1    2    0  503  0.50846192433E+02 -0.73902127320E+01  0.49644714601E+02  0.18618774070E+03  0.17193407623E+03 0.  0.
        -24    2    3    3    0    0  0.48067930066E+02 -0.35431184988E+02 -0.27670520336E+02  0.10376353054E+03  0.80220432588E+02 0.  0.
          6    2    1    2  501    0 -0.50846192433E+02  0.73902127320E+01  0.68013172513E+03  0.70571669054E+03  0.18115444584E+03 0.  0.
         24    2    5    5    0    0 -0.13601835330E+02  0.56268887274E+02  0.57868154655E+03  0.58701329676E+03  0.79756383162E+02 0.  0.
          5    1    5    5  501    0 -0.37244357103E+02 -0.48878674542E+02  0.10145017858E+03  0.11870339378E+03  0.47000000000E+01 0. -1.
        -13    1    6    6    0    0 -0.40048961199E+02  0.27044067329E+02  0.44573803618E+03  0.44834997242E+03  0.00000000000E+00 0.  1.
         14    1    6    6    0    0  0.26447125869E+02  0.29224819944E+02  0.13294351038E+03  0.13866332435E+03  0.00000000000E+00 0. -1.
         -5    1    3    3    0  503  0.27782623673E+01  0.28040972256E+02  0.77315234937E+02  0.82424210158E+02  0.47000000000E+01 0.  1.
         11    1    4    4    0    0  0.25597447804E+02 -0.11786595845E+02 -0.54613886400E+02  0.61455917237E+02  0.00000000000E+00 0. -1.
        -12    1    4    4    0    0  0.22470482262E+02 -0.23644589143E+02  0.26943366064E+02  0.42307613306E+02  0.00000000000E+00 0.  1.
</event>
<event>
12    1  0.8488291E-002  0.1810184E+03  0.7818608E-02  0.1166930E+00
         21   -1    0    0  503  502  0.00000000000E+00  0.00000000000E+00  0.26625193301E+03  0.26625193301E+03  0.00000000000E+00 0. -1.
         21   -1    0    0  501  503 -0.00000000000E+00 -0.00000000000E+00 -0.13176438716E+03  0.13176438716E+03  0.00000000000E+00 0. -1.
          6    2    1    2  501    0 -0.52679304395E+02  0.17481730162E+02  0.15152358792E+02  0.18120173607E+03  0.17182478045E+03 0.  0.
         24    2    3    3    0    0 -0.86160971212E+02 -0.21794357209E+02 -0.15423115547E+02  0.12103045817E+03  0.80695677371E+02 0.  0.
         -6    2    1    2    0  502  0.52679304395E+02 -0.17481730162E+02  0.11933518706E+03  0.21681458411E+03  0.17229903369E+03 0.  0.
        -24    2    5    5    0    0  0.26545642889E+02  0.14982727977E+02  0.14495667871E+03  0.16766725315E+03  0.78553903659E+02 0.  0.
          5    1    3    3  501    0  0.33481666817E+02  0.39276087371E+02  0.30575474339E+02  0.60171277891E+02  0.47000000000E+01 0. -1.
        -11    1    4    4    0    0 -0.51830929519E+02 -0.44762142256E+02  0.14529526614E+02  0.70008583601E+02  0.00000000000E+00 0.  1.
         12    1    4    4    0    0 -0.34330041693E+02  0.22967785047E+02 -0.29952642161E+02  0.51021874574E+02  0.00000000000E+00 0. -1.
         -5    1    5    5    0  502  0.26133661506E+02 -0.32464458139E+02 -0.25621491652E+02  0.49147330960E+02  0.47000000000E+01 0.  1.
         11    1    6    6    0    0 -0.18262325523E+02 -0.19521996837E+02  0.35233063684E+02  0.44226571996E+02  0.00000000000E+00 0. -1.
        -12    1    6    6    0    0  0.44807968412E+02  0.34504724814E+02  0.10972361503E+03  0.12344068115E+03  0.00000000000E+00 0.  1.
</event>
<event>
12    1  0.8488291E-002  0.1968440E+03  0.7818608E-02  0.1154363E+00
         21   -1    0    0  503  502  0.00000000000E+00  0.00000000000E+00  0.16752736372E+03  0.16752736372E+03  0.00000000000E+00 0. -1.
         21   -1    0    0  501  503 -0.00000000000E+00 -0.00000000000E+00 -0.26974163586E+03  0.26974163586E+03  0.00000000000E+00 0. -1.
          6    2    1    2  501    0 -0.32327516850E+02  0.67709712286E+02  0.40754323342E+02  0.20101864041E+03  0.18198325593E+03 0.  0.
         24    2    3    3    0    0  0.31707369927E+01  0.86587431137E+02  0.81160140640E+02  0.14382410950E+03  0.81184784538E+02 0.  0.
         -6    2    1    2    0  502  0.32327516850E+02 -0.67709712286E+02 -0.14296859548E+03  0.23625035918E+03  0.17246605299E+03 0.  0.
        -24    2    5    5    0    0  0.27548813418E+02 -0.10917130543E+03 -0.12262869530E+03  0.18958451244E+03  0.90703800346E+02 0.  0.
          5    1    3    3  501    0 -0.35498253842E+02 -0.18877718851E+02 -0.40405817297E+02  0.57194530913E+02  0.47000000000E+01 0. -1.
        -13    1    4    4    0    0  0.56076213386E+01  0.28166176294E+02 -0.14143534942E+02  0.32012786270E+02  0.00000000000E+00 0.  1.
         14    1    4    4    0    0 -0.24368843459E+01  0.58421254843E+02  0.95303675582E+02  0.11181132323E+03  0.00000000000E+00 0. -1.
         -5    1    5    5    0  502  0.47787034313E+01  0.41461593139E+02 -0.20339900181E+02  0.46665846735E+02  0.47000000000E+01 0.  1.
         11    1    6    6    0    0  0.47180628891E+02 -0.31913492429E+02 -0.21654110220E+02  0.60937535485E+02  0.00000000000E+00 0. -1.
        -12    1    6    6    0    0 -0.19631815473E+02 -0.77257812996E+02 -0.10097458508E+03  0.12864697695E+03  0.00000000000E+00 0.  1.
</event>
<event>
12    1  0.8488291E-002  0.2069315E+03  0.7818608E-02  0.1144185E+00
         21   -1    0    0  501  502  0.00000000000E+00  0.00000000000E+00  0.22926885716E+03  0.22926885716E+03  0.00000000000E+00 0. -1.
         21   -1    0    0  502  503 -0.00000000000E+00 -0.00000000000E+00 -0.19511024517E+03  0.19511024517E+03  0.00000000000E+00 0.  1.
         -6    2    1    2    0  503 -0.81130076558E+02  0.80166814045E+02  0.62824064151E+02  0.21547153916E+03  0.17167502368E+03 0.  0.
        -24    2    3    3    0    0  0.21854084834E+02  0.49470422563E+02  0.37814415473E+02  0.10503794611E+03  0.81719742854E+02 0.  0.
          6    2    1    2  501    0  0.81130076558E+02 -0.80166814045E+02 -0.28665452155E+02  0.20890756317E+03  0.17266109697E+03 0.  0.
         24    2    5    5    0    0  0.94488286610E+02 -0.79049447828E+02 -0.74987692297E+02  0.16045624518E+03  0.70329233707E+02 0.  0.
          5    1    5    5  501    0 -0.13358210052E+02 -0.11173662176E+01  0.46322240142E+02  0.48451317989E+02  0.47000000000E+01 0. -1.
        -11    1    6    6    0    0  0.64443404112E+02 -0.37940293609E+02 -0.64301828591E+01  0.75058413681E+02  0.00000000000E+00 0.  1.
         12    1    6    6    0    0  0.30044882498E+02 -0.41109154219E+02 -0.68557509438E+02  0.85397831502E+02  0.00000000000E+00 0. -1.
         -5    1    3    3    0  503 -0.10298416139E+03  0.30696391482E+02  0.25009648679E+02  0.11043359305E+03  0.47000000000E+01 0.  1.
         13    1    4    4    0    0  0.53225001273E+01  0.70794511150E+02  0.26470160913E+02  0.75768471248E+02  0.00000000000E+00 0. -1.
        -14    1    4    4    0    0  0.16531584706E+02 -0.21324088586E+02  0.11344254559E+02  0.29269474858E+02  0.00000000000E+00 0.  1.
</event>
<event>
12    1  0.8488291E-002  0.2814565E+03  0.7818608E-02  0.1094948E+00
         21   -1    0    0  501  502  0.00000000000E+00  0.00000000000E+00  0.70255446918E+03  0.70255446918E+03  0.00000000000E+00 0.  1.
         21   -1    0    0  502  503 -0.00000000000E+00 -0.00000000000E+00 -0.40926243506E+03  0.40926243506E+03  0.00000000000E+00 0.  1.
         -6    2    1    2    0  503 -0.21352410787E+03  0.63575658871E+02 -0.32667676117E+03  0.43095049611E+03  0.17136573394E+03 0.  0.
        -24    2    3    3    0    0 -0.20161970339E+03  0.51707693230E+02 -0.34135821577E+03  0.40814263423E+03  0.82041380169E+02 0.  0.
          6    2    1    2  501    0  0.21352410787E+03 -0.63575658871E+02  0.61996879529E+03  0.68086640814E+03  0.17199810919E+03 0.  0.
         24    2    5    5    0    0  0.19190475332E+03 -0.79940918728E+02  0.61573850335E+03  0.65302392996E+03  0.63940314073E+02 0.  0.
          5    1    5    5  501    0  0.21619354547E+02  0.16365259857E+02  0.42302919374E+01  0.27842478178E+02  0.47000000000E+01 0. -1.
        -11    1    6    6    0    0  0.12859334215E+02 -0.26381909977E+02  0.11043857328E+03  0.11427180807E+03  0.00000000000E+00 0.  1.
         12    1    6    6    0    0  0.17904541910E+03 -0.53559008750E+02  0.50529993007E+03  0.53875212190E+03  0.00000000000E+00 0. -1.
         -5    1    3    3    0  503 -0.11904404471E+02  0.11867965641E+02  0.14681454608E+02  0.22807861883E+02  0.47000000000E+01 0.  1.
         13    1    4    4    0    0 -0.11508436046E+02 -0.14122941469E+02 -0.10813864593E+02  0.21185873675E+02  0.00000000000E+00 0. -1.
        -14    1    4    4    0    0 -0.19011126735E+03  0.65830634698E+02 -0.33054435118E+03  0.38695676055E+03  0.00000000000E+00 0.  1.
</event>
<event>
12    1  0.8488291E-002  0.2865403E+03  0.7818608E-02  0.1092244E+00
         21   -1    0    0  503  502  0.00000000000E+00  0.00000000000E+00  0.28568363890E+03  0.28568363890E+03  0.00000000000E+00 0. -1.
         21   -1    0    0  501  503 -0.00000000000E+00 -0.00000000000E+00 -0.88225373268E+03  0.88225373268E+03  0.00000000000E+00 0.  1.
          6    2    1    2  501    0 -0.11161099855E+03 -0.19910623761E+03 -0.77792720035E+03  0.82882714196E+03  0.17228869191E+03 0.  0.
         24    2    3    3    0    0 -0.50680632015E+02 -0.18954606534E+03 -0.68723438359E+03  0.71904925953E+03  0.79022163297E+02 0.  0.
         -6    2    1    2    0  502  0.11161099855E+03  0.19910623761E+03  0.18135710656E+03  0.33911022962E+03  0.17321962614E+03 0.  0.
        -24    2    5    5    0    0  0.11468612192E+03  0.67609363904E+02  0.95699449157E+02  0.18207453797E+03  0.79175881177E+02 0.  0.
          5    1    3    3  501    0 -0.60930366537E+02 -0.95601722700E+01 -0.90692816753E+02  0.10977788243E+03  0.47000000000E+01 0. -1.
        -11    1    4    4    0    0 -0.29801079478E+01 -0.54630891693E+02 -0.32501147829E+03  0.32958439949E+03  0.00000000000E+00 0.  1.
         12    1    4    4    0    0 -0.47700524067E+02 -0.13491517365E+03 -0.36222290531E+03  0.38946486004E+03  0.00000000000E+00 0. -1.
         -5    1    5    5    0  502 -0.30751233719E+01  0.13149687371E+03  0.85657657408E+02  0.15703569165E+03  0.47000000000E+01 0.  1.
         13    1    6    6    0    0  0.64422799141E+02  0.71008164440E+02  0.32462949005E+02  0.10122400666E+03  0.00000000000E+00 0. -1.
        -14    1    6    6    0    0  0.50263322783E+02 -0.33988005361E+01  0.63236500152E+02  0.80850531314E+02  0.00000000000E+00 0.  1.
</event>
<event>
12    1  0.8488291E-002  0.2066216E+03  0.7818608E-02  0.1147369E+00
         21   -1    0    0  501  502  0.00000000000E+00  0.00000000000E+00  0.76869317653E+02  0.76869317653E+02  0.00000000000E+00 0. -1.
         21   -1    0    0  502  503 -0.00000000000E+00 -0.00000000000E+00 -0.10203210052E+04  0.10203210052E+04  0.00000000000E+00 0. -1.
         -6    2    1    2    0  503 -0.21624083848E+02  0.11262783080E+03 -0.86592510122E+03  0.89023524205E+03  0.17187168470E+03 0.  0.
        -24    2    3    3    0    0 -0.66216463455E+02  0.85345355702E+02 -0.41859983561E+03  0.43984119567E+03  0.81030890798E+02 0.  0.
          6    2    1    2  501    0  0.21624083848E+02 -0.11262783080E+03 -0.77526586306E+02  0.20695508078E+03  0.15384214183E+03 0.  0.
         24    2    5    5    0    0 -0.35636371308E+02 -0.39084571895E+02 -0.55679738845E+02  0.11110756960E+03  0.80293860191E+02 0.  0.
          5    1    5    5  501    0  0.57260455157E+02 -0.73543258903E+02 -0.21846847462E+02  0.95847511177E+02  0.47000000000E+01 0. -1.
        -11    1    6    6    0    0  0.15860333932E-01 -0.12468418207E+02 -0.64547623126E+02  0.65740834763E+02  0.00000000000E+00 0.  1.
         12    1    6    6    0    0 -0.35652231642E+02 -0.26616153687E+02  0.88678842809E+01  0.45366734837E+02  0.00000000000E+00 0. -1.
         -5    1    3    3    0  503  0.44592379607E+02  0.27282475096E+02 -0.44732526560E+03  0.45039404638E+03  0.47000000000E+01 0.  1.
         11    1    4    4    0    0 -0.26850879871E+02  0.17635069645E+02 -0.26962953632E+03  0.27153646585E+03  0.00000000000E+00 0. -1.
        -12    1    4    4    0    0 -0.39365583584E+02  0.67710286056E+02 -0.14897029929E+03  0.16830472982E+03  0.00000000000E+00 0.  1.
</event>
<event>
12    1  0.8488291E-002  0.1762683E+03  0.7818608E-02  0.1171869E+00
         21   -1    0    0  501  502  0.00000000000E+00  0.00000000000E+00  0.11908678162E+03  0.11908678162E+03  0.00000000000E+00 0. -1.
         21   -1    0    0  502  503 -0.00000000000E+00 -0.00000000000E+00 -0.41175897699E+03  0.41175897699E+03  0.00000000000E+00 0. -1.
         -6    2    1    2    0  503  0.34457422872E+02  0.27249627203E+02 -0.30783339847E+03  0.35392664682E+03  0.16903494888E+03 0.  0.
        -24    2    3    3    0    0  0.25260221367E+02  0.58938836917E+02 -0.64649704411E+02  0.10846953533E+03  0.58942264401E+02 0.  0.
          6    2    1    2  501    0 -0.34457422872E+02 -0.27249627203E+02  0.15161203098E+02  0.17691911180E+03  0.17070633809E+03 0.  0.
         24    2    5    5    0    0 -0.30295685059E+02 -0.58226632206E+02  0.62004814608E+02  0.12040974231E+03  0.79660151749E+02 0.  0.
          5    1    5    5  501    0 -0.41617378127E+01  0.30977005003E+02 -0.46843611511E+02  0.56509369488E+02  0.47000000000E+01 0. -1.
        -11    1    6    6    0    0 -0.40453606343E+02 -0.33983246209E+02 -0.24929271783E+00  0.52833866373E+02  0.00000000000E+00 0.  1.
         12    1    6    6    0    0  0.10157921283E+02 -0.24243385997E+02  0.62254107326E+02  0.67575875935E+02  0.00000000000E+00 0. -1.
         -5    1    3    3    0  503  0.91972015050E+01 -0.31689209715E+02 -0.24318369405E+03  0.24545711149E+03  0.47000000000E+01 0.  1.
         11    1    4    4    0    0  0.10908119886E+02 -0.10663415167E+02 -0.17345242932E+02  0.23098765223E+02  0.00000000000E+00 0. -1.
        -12    1    4    4    0    0  0.14352101481E+02  0.69602252084E+02 -0.47304461480E+02  0.85370770103E+02  0.00000000000E+00 0.  1.
</event>
<event>
12    1  0.8488291E-002  0.1981324E+03  0.7818608E-02  0.1151560E+00
         21   -1    0    0  501  502  0.00000000000E+00  0.00000000000E+00  0.18950813565E+03  0.18950813565E+03  0.00000000000E+00 0. -1.
         21   -1    0    0  502  503 -0.00000000000E+00 -0.00000000000E+00 -0.34435200436E+03  0.34435200436E+03  0.00000000000E+00 0.  1.
         -6    2    1    2    0  503 -0.78918787831E+02  0.55725275704E+02 -0.24648874895E+03  0.31555931464E+03  0.17171923676E+03 0.  0.
        -24    2    3    3    0    0 -0.81728670032E+01 -0.11071543099E+02 -0.17397077486E+03  0.19411901292E+03  0.85011680671E+02 0.  0.
          6    2    1    2  501    0  0.78918787831E+02 -0.55725275704E+02  0.91644880244E+02  0.21830082537E+03  0.17298261432E+03 0.  0.
         24    2    5    5    0    0  0.11932217333E+02  0.25659650433E+02  0.71376382584E+02  0.11085963761E+03  0.79965466237E+02 0.  0.
          5    1    5    5  501    0  0.66986570498E+02 -0.81384926137E+02  0.20268497660E+02  0.10744118776E+03  0.47000000000E+01 0. -1.
        -13    1    6    6    0    0  0.79722872548E+01 -0.28897242598E+02  0.22176347355E+02  0.37288046018E+02  0.00000000000E+00 0.  1.
         14    1    6    6    0    0  0.39599300777E+01  0.54556893032E+02  0.49200035229E+02  0.73571591596E+02  0.00000000000E+00 0. -1.
         -5    1    3    3    0  503 -0.70745920828E+02  0.66796818803E+02 -0.72517974096E+02  0.12144030172E+03  0.47000000000E+01 0.  1.
         11    1    4    4    0    0 -0.71266481646E+01  0.85556258494E+01  0.62907413219E+01  0.12789107636E+02  0.00000000000E+00 0. -1.
        -12    1    4    4    0    0 -0.10462188386E+01 -0.19627168948E+02 -0.18026151618E+03  0.18132990528E+03  0.00000000000E+00 0.  1.
</event>
<event>
12    1  0.8488291E-002  0.2106942E+03  0.7818608E-02  0.1141062E+00
         21   -1    0    0  501  502  0.00000000000E+00  0.00000000000E+00  0.24663864028E+03  0.24663864028E+03  0.00000000000E+00 0. -1.
         21   -1    0    0  502  503 -0.00000000000E+00 -0.00000000000E+00 -0.21357113487E+03  0.21357113487E+03  0.00000000000E+00 0.  1.
         -6    2    1    2    0  503  0.43910368405E+02  0.11255679747E+03 -0.74966971526E+02  0.22363387309E+03  0.17261201947E+03 0.  0.
        -24    2    3    3    0    0  0.92861113291E+02  0.93379962318E+02 -0.36138927256E+02  0.15810805030E+03  0.79681426828E+02 0.  0.
          6    2    1    2  501    0 -0.43910368405E+02 -0.11255679747E+03  0.10803447694E+03  0.23657590207E+03  0.17233559157E+03 0.  0.
         24    2    5    5    0    0 -0.65969635291E+02 -0.35568299635E+02  0.19431363156E+02  0.11704999766E+03  0.87783981214E+02 0.  0.
          5    1    5    5  501    0  0.22059266886E+02 -0.76988497831E+02  0.88603113780E+02  0.11952590441E+03  0.47000000000E+01 0. -1.
        -13    1    6    6    0    0 -0.26704737244E+02  0.25764151226E+02  0.23818168080E+02  0.44093532523E+02  0.00000000000E+00 0.  1.
         14    1    6    6    0    0 -0.39264898047E+02 -0.61332450861E+02 -0.43868049238E+01  0.72956465133E+02  0.00000000000E+00 0. -1.
         -5    1    3    3    0  503 -0.48950744886E+02  0.19176835148E+02 -0.38828044271E+02  0.65525822796E+02  0.47000000000E+01 0.  1.
         13    1    4    4    0    0 -0.83718455818E+01  0.21342429724E+02  0.10732218159E+02  0.25313387992E+02  0.00000000000E+00 0. -1.
        -14    1    4    4    0    0  0.10123295887E+03  0.72037532593E+02 -0.46871145415E+02  0.13279466231E+03  0.00000000000E+00 0.  1.
</event>
<event>
12    1  0.8488291E-002  0.2294934E+03  0.7818608E-02  0.1127012E+00
         21   -1    0    0  501  502  0.00000000000E+00  0.00000000000E+00  0.23642163946E+03  0.23642163946E+03  0.00000000000E+00 0.  1.
         21   -1    0    0  502  503 -0.00000000000E+00 -0.00000000000E+00 -0.22554971741E+03  0.22554971741E+03  0.00000000000E+00 0.  1.
         -6    2    1    2    0  503  0.13534131832E+03  0.68217806228E+02 -0.20600371047E+02  0.23041617980E+03  0.17232614165E+03 0.  0.
        -24    2    3    3    0    0  0.15249240360E+03  0.47020982602E+02  0.21869077269E+02  0.17972881354E+03  0.79745118453E+02 0.  0.
          6    2    1    2  501    0 -0.13534131832E+03 -0.68217806228E+02  0.31472293102E+02  0.23155517707E+03  0.17221020081E+03 0.  0.
         24    2    5    5    0    0 -0.12399847368E+03  0.12355589361E+02  0.19995524807E+02  0.14924759290E+03  0.79666435290E+02 0.  0.
          5    1    5    5  501    0 -0.11342844644E+02 -0.80573395588E+02  0.11476768296E+02  0.82307584169E+02  0.47000000000E+01 0. -1.
        -11    1    6    6    0    0 -0.91720405795E+02  0.15504214756E+01  0.49468959107E+02  0.10422194856E+03  0.00000000000E+00 0.  1.
         12    1    6    6    0    0 -0.32278067886E+02  0.10805167885E+02 -0.29473434300E+02  0.45025644348E+02  0.00000000000E+00 0. -1.
         -5    1    3    3    0  503 -0.17151085273E+02  0.21196823626E+02 -0.42469448317E+02  0.50687366258E+02  0.47000000000E+01 0.  1.
         11    1    4    4    0    0  0.28195937208E+02  0.35582398667E+02  0.30365155770E+02  0.54618317943E+02  0.00000000000E+00 0. -1.
        -12    1    4    4    0    0  0.12429646639E+03  0.11438583935E+02 -0.84960785006E+01  0.12511049560E+03  0.00000000000E+00 0.  1.
</event>
<event>
12    1  0.8488291E-002  0.4065871E+03  0.7818608E-02  0.1041553E+00
         21   -1    0    0  501  502  0.00000000000E+00  0.00000000000E+00  0.49639646284E+03  0.49639646284E+03  0.00000000000E+00 0.  1.
         21   -1    0    0  502  503 -0.00000000000E+00 -0.00000000000E+00 -0.41884947762E+03  0.41884947762E+03  0.00000000000E+00 0. -1.
         -6    2    1    2    0  503  0.35143465345E+03  0.10783827803E+03  0.24628714380E+03  0.47536349155E+03  0.17371724740E+03 0.  0.
        -24    2    3    3    0    0  0.63359387722E+02  0.45183234746E+02  0.59257461270E+02  0.12619991195E+03  0.79743553627E+02 0.  0.
          6    2    1    2  501    0 -0.35143465345E+03 -0.10783827803E+03 -0.16874015858E+03  0.43988244892E+03  0.17288122482E+03 0.  0.
         24    2    5    5    0    0 -0.10939655323E+03 -0.42174695944E+02 -0.82425102942E+01  0.14209773965E+03  0.79859362637E+02 0.  0.
          5    1    5    5  501    0 -0.24203810022E+03 -0.65663582083E+02 -0.16049764828E+03  0.29778470927E+03  0.47000000000E+01 0. -1.
        -13    1    6    6    0    0 -0.68849184524E+01  0.14538034735E+02  0.15749934562E+02  0.22512596358E+02  0.00000000000E+00 0.  1.
         14    1    6    6    0    0 -0.10251163478E+03 -0.56712730679E+02 -0.23992444856E+02  0.11958514329E+03  0.00000000000E+00 0. -1.
         -5    1    3    3    0  503  0.28807526573E+03  0.62655043281E+02  0.18702968253E+03  0.34916357960E+03  0.47000000000E+01 0.  1.
         13    1    4    4    0    0  0.58465807118E+02  0.66523963374E+02  0.40570260296E+02  0.97414754146E+02  0.00000000000E+00 0. -1.
        -14    1    4    4    0    0  0.48935806047E+01 -0.21340728627E+02  0.18687200974E+02  0.28785157803E+02  0.00000000000E+00 0.  1.
</event>
<event>
12    1  0.8488291E-002  0.1805912E+03  0.7818608E-02  0.1167518E+00
         21   -1    0    0  501  502  0.00000000000E+00  0.00000000000E+00  0.99169788454E+03  0.99169788454E+03  0.00000000000E+00 0.  1.
         21   -1    0    0  502  503 -0.00000000000E+00 -0.00000000000E+00 -0.33126833128E+02  0.33126833128E+02  0.00000000000E+00 0.  1.
         -6    2    1    2    0  503  0.49044998627E+02 -0.24555189674E+02  0.53780448197E+03  0.56694079974E+03  0.17082107701E+03 0.  0.
        -24    2    3    3    0    0 -0.10974494908E+02 -0.65460211593E+02  0.20265606221E+03  0.22397999485E+03  0.68498756944E+02 0.  0.
          6    2    1    2  501    0 -0.49044998627E+02  0.24555189674E+02  0.42076656944E+03  0.45788391793E+03  0.17206047514E+03 0.  0.
         24    2    5    5    0    0 -0.92958928834E+02  0.46433897858E+02  0.32636362394E+03  0.35138923610E+03  0.78509304514E+02 0.  0.
          5    1    5    5  501    0  0.43913930207E+02 -0.21878708185E+02  0.94402945506E+02  0.10649468183E+03  0.47000000000E+01 0. -1.
        -11    1    6    6    0    0 -0.28061674975E+02  0.49112096317E+02  0.90301523706E+02  0.10655430911E+03  0.00000000000E+00 0.  1.
         12    1    6    6    0    0 -0.64897253859E+02 -0.26781984592E+01  0.23606210023E+03  0.24483492698E+03  0.00000000000E+00 0. -1.
         -5    1    3    3    0  503  0.60019493534E+02  0.40905021919E+02  0.33514841976E+03  0.34296080488E+03  0.47000000000E+01 0.  1.
         13    1    4    4    0    0 -0.29028468568E+02 -0.22835506384E+02  0.38208085777E+02  0.53141040242E+02  0.00000000000E+00 0. -1.
        -14    1    4    4    0    0  0.18053973661E+02 -0.42624705208E+02  0.16444797643E+03  0.17083895461E+03  0.00000000000E+00 0.  1.
</event>
<event>
12    1  0.8488291E-002  0.1963145E+03  0.7818608E-02  0.1152939E+00
         21   -1    0    0  501  502  0.00000000000E+00  0.00000000000E+00  0.18465008176E+03  0.18465008176E+03  0.00000000000E+00 0. -1.
         21   -1    0    0  502  503 -0.00000000000E+00 -0.00000000000E+00 -0.32809141986E+03  0.32809141986E+03  0.00000000000E+00 0. -1.
         -6    2    1    2    0  503 -0.34318260204E+01 -0.95113968731E+02 -0.22650193479E+03  0.29957853047E+03  0.17142265011E+03 0.  0.
        -24    2    3    3    0    0  0.96920466815E+00  0.20130698227E+02 -0.99531731316E+02  0.12798533449E+03  0.77894132879E+02 0.  0.
          6    2    1    2  501    0  0.34318260204E+01  0.95113968731E+02  0.83060596697E+02  0.21316297115E+03  0.17170016036E+03 0.  0.
         24    2    5    5    0    0 -0.34200807538E+02  0.12068090677E+03  0.60967044359E+02  0.16236830131E+03  0.83143901036E+02 0.  0.
          5    1    5    5  501    0  0.37632633559E+02 -0.25566938035E+02  0.22093552339E+02  0.50794669838E+02  0.47000000000E+01 0. -1.
        -13    1    6    6    0    0 -0.47600551822E+02  0.36385866124E+02  0.46181668035E+01  0.60092189609E+02  0.00000000000E+00 0.  1.
         14    1    6    6    0    0  0.13399744284E+02  0.84295040642E+02  0.56348877555E+02  0.10227611170E+03  0.00000000000E+00 0. -1.
         -5    1    3    3    0  503 -0.44010306886E+01 -0.11524466696E+03 -0.12697020348E+03  0.17159319598E+03  0.47000000000E+01 0.  1.
         11    1    4    4    0    0 -0.17293281957E+02  0.11432481130E+02 -0.10500338540E+03  0.10703023018E+03  0.00000000000E+00 0. -1.
        -12    1    4    4    0    0  0.18262486626E+02  0.86982170970E+01  0.54716540854E+01  0.20955104315E+02  0.00000000000E+00 0.  1.
</event>
<event>
12    1  0.8488291E-002  0.2167044E+03  0.7818608E-02  0.1136456E+00
         21   -1    0    0  503  502  0.00000000000E+00  0.00000000000E+00  0.27743613325E+03  0.27743613325E+03  0.00000000000E+00 0.  1.
         21   -1    0    0  501  503 -0.00000000000E+00 -0.00000000000E+00 -0.63031502501E+03  0.63031502501E+03  0.00000000000E+00 0. -1.
          6    2    1    2  501    0  0.10351763240E+03 -0.81209668338E+02 -0.56472370797E+03  0.60470161605E+03  0.17158166467E+03 0.  0.
         24    2    3    3    0    0  0.59777084668E+02  0.22256070370E+02 -0.22922019219E+03  0.25086112415E+03  0.79503299193E+02 0.  0.
         -6    2    1    2    0  502 -0.10351763240E+03  0.81209668338E+02  0.21184481621E+03  0.30304954221E+03  0.17219142960E+03 0.  0.
        -24    2    5    5    0    0 -0.60824088414E+02  0.10231696477E+03  0.21172527886E+03  0.25519182653E+03  0.78274795467E+02 0.  0.
          5    1    3    3  501    0  0.43740547734E+02 -0.10346573871E+03 -0.33550351578E+03  0.35384049189E+03  0.47000000000E+01 0. -1.
        -11    1    4    4    0    0 -0.11220951920E+02  0.78523967129E+01 -0.11358126745E+03  0.11440399562E+03  0.00000000000E+00 0.  1.
         12    1    4    4    0    0  0.70998036588E+02  0.14403673657E+02 -0.11563892474E+03  0.13645712854E+03  0.00000000000E+00 0. -1.
         -5    1    5    5    0  502 -0.42693543988E+02 -0.21107296435E+02  0.11953735036E+00  0.47857715681E+02  0.47000000000E+01 0.  1.
         11    1    6    6    0    0 -0.35607900297E+02  0.82062082271E+02  0.81512759022E+02  0.12102246814E+03  0.00000000000E+00 0. -1.
        -12    1    6    6    0    0 -0.25216188117E+02  0.20254882502E+02  0.13021251984E+03  0.13416935839E+03  0.00000000000E+00 0.  1.
</event>
<event>
12    1  0.8488291E-002  0.2266235E+03  0.7818608E-02  0.1129098E+00
         21   -1    0    0  503  502  0.00000000000E+00  0.00000000000E+00  0.20367827202E+03  0.20367827202E+03  0.00000000000E+00 0.  1.
         21   -1    0    0  501  503 -0.00000000000E+00 -0.00000000000E+00 -0.57625180220E+03  0.57625180220E+03  0.00000000000E+00 0. -1.
          6    2    1    2  501    0  0.11671604887E+03  0.91125492427E+02 -0.47896284172E+03  0.52987130420E+03  0.17155670735E+03 0.  0.
         24    2    3    3    0    0  0.69598123360E+02  0.12698092204E+03 -0.35175439210E+03  0.38947974323E+03  0.83637698966E+02 0.  0.
         -6    2    1    2    0  502 -0.11671604887E+03 -0.91125492427E+02  0.10638931153E+03  0.25005877001E+03  0.17112630253E+03 0.  0.
        -24    2    5    5    0    0 -0.11407762385E+03 -0.43723491817E+01  0.74665781199E+02  0.15753017159E+03  0.78790572903E+02 0.  0.
          5    1    3    3  501    0  0.47117925511E+02 -0.35855429618E+02 -0.12720844962E+03  0.14039156097E+03  0.47000000000E+01 0. -1.
        -13    1    4    4    0    0  0.62151254245E+02  0.79734311584E+02 -0.14181228678E+03  0.17415815665E+03  0.00000000000E+00 0.  1.
         14    1    4    4    0    0  0.74468691151E+01  0.47246610461E+02 -0.20994210532E+03  0.21532158658E+03  0.00000000000E+00 0. -1.
         -5    1    5    5    0  502 -0.26384250190E+01 -0.86753143246E+02  0.31723530331E+02  0.92528598424E+02  0.47000000000E+01 0.  1.
         11    1    6    6    0    0 -0.84513357278E+00  0.31635987888E+01 -0.13457161570E+02  0.13849830525E+02  0.00000000000E+00 0. -1.
        -12    1    6    6    0    0 -0.11323249028E+03 -0.75359479704E+01  0.88122942769E+02  0.14368034107E+03  0.00000000000E+00 0.  1.
</event>
<event>
12    1  0.8488291E-002  0.2438085E+03  0.7818608E-02  0.1117338E+00
         21   -1    0    0  501  502  0.00000000000E+00  0.00000000000E+00  0.43762087326E+02  0.43762087326E+02  0.00000000000E+00 0. -1.
         21   -1    0    0  502  503 -0.00000000000E+00 -0.00000000000E+00 -0.23227984838E+04  0.23227984838E+04  0.00000000000E+00 0. -1.
         -6    2    1    2    0  503  0.12621681745E+03  0.11790158975E+03 -0.19022919079E+04  0.19178078550E+04  0.17158378719E+03 0.  0.
        -24    2    3    3    0    0  0.77541523644E+02  0.13750569724E+03 -0.11152777375E+04  0.11290322217E+04  0.77128602187E+02 0.  0.
          6    2    1    2  501    0 -0.12621681745E+03 -0.11790158975E+03 -0.37674448862E+03  0.44875271615E+03  0.17207882113E+03 0.  0.
         24    2    5    5    0    0 -0.68076701017E+02 -0.54435654797E+02 -0.89708859588E+02  0.14905329945E+03  0.81064966879E+02 0.  0.
          5    1    5    5  501    0 -0.58140116433E+02 -0.63465934949E+02 -0.28703562903E+03  0.29969941670E+03  0.47000000000E+01 0. -1.
        -13    1    6    6    0    0 -0.11691643837E+02  0.86938939926E+01  0.10441327677E+02  0.17924833389E+02  0.00000000000E+00 0.  1.
         14    1    6    6    0    0 -0.56385057181E+02 -0.63129548790E+02 -0.10015018726E+03  0.13112846607E+03  0.00000000000E+00 0. -1.
         -5    1    3    3    0  503  0.48675293807E+02 -0.19604107494E+02 -0.78701417036E+03  0.78877563325E+03  0.47000000000E+01 0.  1.
         13    1    4    4    0    0  0.92189941917E+02  0.11708438033E+03 -0.10003216642E+04  0.10113610480E+04  0.00000000000E+00 0. -1.
        -14    1    4    4    0    0 -0.14648418273E+02  0.20421316910E+02 -0.11495607330E+03  0.11767117375E+03  0.00000000000E+00 0.  1.
</event>
<event>
12    1  0.8488291E-002  0.2108555E+03  0.7818608E-02  0.1140941E+00
         21   -1    0    0  501  502  0.00000000000E+00  0.00000000000E+00  0.53257755588E+02  0.53257755588E+02  0.00000000000E+00 0.  1.
         21   -1    0    0  502  503 -0.00000000000E+00 -0.00000000000E+00 -0.12558669354E+04  0.12558669354E+04  0.00000000000E+00 0.  1.
         -6    2    1    2    0  503  0.69976222982E+01  0.12052074635E+03 -0.98052785858E+03  0.10028892253E+04  0.17256216185E+03 0.  0.
        -24    2    3    3    0    0 -0.54600545048E+02  0.81563199466E+02 -0.44474283836E+03  0.46214926691E+03  0.78434543458E+02 0.  0.
          6    2    1    2  501    0 -0.69976222982E+01 -0.12052074635E+03 -0.22208132128E+03  0.30623546576E+03  0.17287518679E+03 0.  0.
         24    2    5    5    0    0  0.13186594381E+01  0.81701134181E+01 -0.10314533638E+03  0.13074086061E+03  0.79910716434E+02 0.  0.
          5    1    5    5  501    0 -0.83162817363E+01 -0.12869085977E+03 -0.11893598489E+03  0.17549460514E+03  0.47000000000E+01 0. -1.
        -11    1    6    6    0    0  0.11691028625E+02 -0.22844622042E+02 -0.35414310196E+01  0.25905571606E+02  0.00000000000E+00 0.  1.
         12    1    6    6    0    0 -0.10372369187E+02  0.31014735460E+02 -0.99603905362E+02  0.10483528901E+03  0.00000000000E+00 0. -1.
         -5    1    3    3    0  503  0.61598167346E+02  0.38957546889E+02 -0.53578502021E+03  0.54073995836E+03  0.47000000000E+01 0.  1.
         13    1    4    4    0    0 -0.63805049431E+01  0.75813993921E+02 -0.29905102486E+03  0.30857736143E+03  0.00000000000E+00 0. -1.
        -14    1    4    4    0    0 -0.48220040105E+02  0.57492055448E+01 -0.14569181351E+03  0.15357190549E+03  0.00000000000E+00 0.  1.
</event>
<event>
12    1  0.8488291E-002  0.1885059E+03  0.7818608E-02  0.1160515E+00
         21   -1    0    0  501  502  0.00000000000E+00  0.00000000000E+00  0.19385575768E+02  0.19385575768E+02  0.00000000000E+00 0.  1.
         21   -1    0    0  502  503 -0.00000000000E+00 -0.00000000000E+00 -0.18035680859E+04  0.18035680859E+04  0.00000000000E+00 0.  1.
         -6    2    1    2    0  503 -0.49522925069E+02 -0.39851958896E+02 -0.88567871595E+03  0.90488856177E+03  0.17422922429E+03 0.  0.
        -24    2    3    3    0    0 -0.44946080750E+02 -0.93406536233E+02 -0.58855157698E+03  0.60290235849E+03  0.79707991579E+02 0.  0.
          6    2    1    2  501    0  0.49522925069E+02  0.39851958896E+02 -0.89850379417E+03  0.91806509989E+03  0.17746481555E+03 0.  0.
         24    2    5    5    0    0  0.67421170252E+02  0.67702056034E+01 -0.85101951931E+03  0.85730659480E+03  0.78415083747E+02 0.  0.
          5    1    5    5  501    0 -0.17898245183E+02  0.33081753292E+02 -0.47484274863E+02  0.60758505090E+02  0.47000000000E+01 0. -1.
        -13    1    6    6    0    0  0.47826654183E+02 -0.21731236620E+02 -0.71610167485E+03  0.71802593562E+03  0.00000000000E+00 0.  1.
         14    1    6    6    0    0  0.19594516069E+02  0.28501442223E+02 -0.13491784446E+03  0.13928065918E+03  0.00000000000E+00 0. -1.
         -5    1    3    3    0  503 -0.45768443187E+01  0.53554577337E+02 -0.29712713897E+03  0.30198620328E+03  0.47000000000E+01 0.  1.
         11    1    4    4    0    0 -0.35231077700E+02 -0.83188034096E+02 -0.28395731042E+03  0.29798193233E+03  0.00000000000E+00 0. -1.
        -12    1    4    4    0    0 -0.97150030502E+01 -0.10218502137E+02 -0.30459426656E+03  0.30492042616E+03  0.00000000000E+00 0.  1.
</event>
<event>
12    1  0.8488291E-002  0.2860426E+03  0.7818608E-02  0.1092872E+00
         21   -1    0    0  501  502  0.00000000000E+00  0.00000000000E+00  0.12436545086E+03  0.12436545086E+03  0.00000000000E+00 0.  1.
         21   -1    0    0  502  503 -0.00000000000E+00 -0.00000000000E+00 -0.10500053142E+04  0.10500053142E+04  0.00000000000E+00 0.  1.
         -6    2    1    2    0  503 -0.11593873536E+03  0.19535412193E+03 -0.82340932120E+03  0.87060859583E+03  0.16837872067E+03 0.  0.
        -24    2    3    3    0    0 -0.35907813046E+02  0.56149773055E+02 -0.20254724055E+03  0.22930163932E+03  0.84330831190E+02 0.  0.
          6    2    1    2  501    0  0.11593873536E+03 -0.19535412193E+03 -0.10223054218E+03  0.30376216928E+03  0.17382562647E+03 0.  0.
         24    2    5    5    0    0  0.82092863562E+02 -0.20705972612E+03 -0.11710732269E+03  0.26469846738E+03  0.82086449419E+02 0.  0.
          5    1    5    5  501    0  0.33845871803E+02  0.11705604190E+02  0.14876780511E+02  0.39063701897E+02  0.47000000000E+01 0. -1.
        -11    1    6    6    0    0  0.41096811070E+02 -0.67287777796E+02 -0.17052185451E+01  0.78863811036E+02  0.00000000000E+00 0.  1.
         12    1    6    6    0    0  0.40996052492E+02 -0.13977194832E+03 -0.11540210414E+03  0.18583465634E+03  0.00000000000E+00 0. -1.
         -5    1    3    3    0  503 -0.80030922319E+02  0.13920434887E+03 -0.62086208065E+03  0.64130695651E+03  0.47000000000E+01 0.  1.
         13    1    4    4    0    0 -0.21498077912E+01 -0.19233056448E+02 -0.15380728502E+02  0.24720415513E+02  0.00000000000E+00 0. -1.
        -14    1    4    4    0    0 -0.33758005255E+02  0.75382829504E+02 -0.18716651205E+03  0.20458122381E+03  0.00000000000E+00 0.  1.
</event>
<event>
12    1  0.8488291E-002  0.1793482E+03  0.7818608E-02  0.1169710E+00
         21   -1    0    0  503  502  0.00000000000E+00  0.00000000000E+00  0.14831874044E+03  0.14831874044E+03  0.00000000000E+00 0. -1.
         21   -1    0    0  501  503 -0.00000000000E+00 -0.00000000000E+00 -0.40476084050E+03  0.40476084050E+03  0.00000000000E+00 0. -1.
          6    2    1    2  501    0 -0.33640009133E+02  0.26474167767E+02 -0.31873080902E+03  0.36322263860E+03  0.16884556494E+03 0.  0.
         24    2    3    3    0    0  0.18045311785E+02  0.25584584346E+01 -0.90659873680E+02  0.12810187155E+03  0.88649296741E+02 0.  0.
         -6    2    1    2    0  502  0.33640009133E+02 -0.26474167767E+02  0.62288708960E+02  0.18985694235E+03  0.17416441519E+03 0.  0.
        -24    2    5    5    0    0  0.21747969231E+02  0.45658696074E+01 -0.26504876130E+02  0.94929099822E+02  0.88403643609E+02 0.  0.
          5    1    3    3  501    0 -0.51685320918E+02  0.23915709332E+02 -0.22807093533E+03  0.23512076704E+03  0.47000000000E+01 0. -1.
        -13    1    4    4    0    0 -0.21067544190E+02  0.15012142480E+02  0.28049274943E+01  0.26020635239E+02  0.00000000000E+00 0.  1.
         14    1    4    4    0    0  0.39112855974E+02 -0.12453684045E+02 -0.93464801174E+02  0.10208123631E+03  0.00000000000E+00 0. -1.
         -5    1    5    5    0  502  0.11892039902E+02 -0.31040037374E+02  0.88793585090E+02  0.94927842525E+02  0.47000000000E+01 0.  1.
         11    1    6    6    0    0  0.43545060507E+02 -0.27008283608E+02 -0.23709416806E+02  0.56460217174E+02  0.00000000000E+00 0. -1.
        -12    1    6    6    0    0 -0.21797091276E+02  0.31574153215E+02 -0.27954593243E+01  0.38468882648E+02  0.00000000000E+00 0.  1.
</event>
<event>
12    1  0.8488291E-002  0.1924344E+03  0.7818608E-02  0.1156962E+00
         21   -1    0    0  501  502  0.00000000000E+00  0.00000000000E+00  0.14138235129E+04  0.14138235129E+04  0.00000000000E+00 0.  1.
         21   -1    0    0  502  503 -0.00000000000E+00 -0.00000000000E+00 -0.26157021089E+02  0.26157021089E+02  0.00000000000E+00 0.  1.
         -6    2    1    2    0  503 -0.63681516321E+02 -0.39385573951E+02  0.77470828683E+03  0.79752526177E+03  0.17397429272E+03 0.  0.
        -24    2    3    3    0    0  0.20479967070E+02 -0.59151395899E+02  0.46967060479E+03  0.48043864826E+03  0.79451249527E+02 0.  0.
          6    2    1    2  501    0  0.63681516321E+02  0.39385573951E+02  0.61295820501E+03  0.64245527224E+03  0.17726944686E+03 0.  0.
         24    2    5    5    0    0  0.44740594959E+02 -0.47370676467E+02  0.35644655277E+03  0.37096729236E+03  0.79478834858E+02 0.  0.
          5    1    5    5  501    0  0.18940921362E+02  0.86756250418E+02  0.25651165224E+03  0.27148797989E+03  0.47000000000E+01 0. -1.
        -13    1    6    6    0    0  0.88668031380E+01 -0.16442041750E+02  0.28272166949E+03  0.28333814310E+03  0.00000000000E+00 0.  1.
         14    1    6    6    0    0  0.35873791821E+02 -0.30928634716E+02  0.73724883276E+02  0.87629149255E+02  0.00000000000E+00 0. -1.
         -5    1    3    3    0  503 -0.84161483392E+02  0.19765821949E+02  0.30503768204E+03  0.31708661351E+03  0.47000000000E+01 0.  1.
         13    1    4    4    0    0  0.23049199883E+02 -0.21773060911E+02  0.40066701470E+03  0.40191962936E+03  0.00000000000E+00 0. -1.
        -14    1    4    4    0    0 -0.25692328129E+01 -0.37378334989E+02  0.69003590085E+02  0.78519018896E+02  0.00000000000E+00 0.  1.
</event>
<event>
12    1  0.8488291E-002  0.1745395E+03  0.7818608E-02  0.1173294E+00
         21   -1    0    0  501  502  0.00000000000E+00  0.00000000000E+00  0.32893418559E+03  0.32893418559E+03  0.00000000000E+00 0. -1.
         21   -1    0    0  502  503 -0.00000000000E+00 -0.00000000000E+00 -0.33908247168E+03  0.33908247168E+03  0.00000000000E+00 0. -1.
         -6    2    1    2    0  503 -0.17128473161E+02  0.26342659232E+02 -0.28996015620E+03  0.33843893672E+03  0.17168780219E+03 0.  0.
        -24    2    3    3    0    0 -0.29705766770E+02  0.78700710828E+02 -0.22377173942E+03  0.25298397551E+03  0.82769958528E+02 0.  0.
          6    2    1    2  501    0  0.17128473161E+02 -0.26342659232E+02  0.27981187010E+03  0.32957772055E+03  0.17128768475E+03 0.  0.
         24    2    5    5    0    0  0.74231671992E+02 -0.28354750041E+02  0.13631821576E+03  0.17505476866E+03  0.75810178108E+02 0.  0.
          5    1    5    5  501    0 -0.57103198832E+02  0.20120908096E+01  0.14349365434E+03  0.15452295189E+03  0.47000000000E+01 0. -1.
        -13    1    6    6    0    0  0.70909303008E+02 -0.39659638858E+01  0.13224131816E+03  0.15010537749E+03  0.00000000000E+00 0.  1.
         14    1    6    6    0    0  0.33223689845E+01 -0.24388786155E+02  0.40768976071E+01  0.24949391173E+02  0.00000000000E+00 0. -1.
         -5    1    3    3    0  503  0.12577293609E+02 -0.52358051597E+02 -0.66188416773E+02  0.85454961216E+02  0.47000000000E+01 0.  1.
         13    1    4    4    0    0 -0.30227803770E+02  0.11802398087E+02 -0.14968315774E+03  0.15316025735E+03  0.00000000000E+00 0. -1.
        -14    1    4    4    0    0  0.52203700080E+00  0.66898312742E+02 -0.74088581682E+02  0.99823718153E+02  0.00000000000E+00 0.  1.
</event>
<event>
12    1  0.8488291E-002  0.4490048E+03  0.7818608E-02  0.1028040E+00
         21   -1    0    0  503  502  0.00000000000E+00  0.00000000000E+00  0.10175310895E+04  0.10175310895E+04  0.00000000000E+00 0. -1.
         21   -1    0    0  501  503 -0.00000000000E+00 -0.00000000000E+00 -0.19831011216E+03  0.19831011216E+03  0.00000000000E+00 0. -1.
          6    2    1    2  501    0  0.19423465069E+03 -0.36642705795E+03  0.43322570230E+03  0.62372831344E+03  0.17133771191E+03 0.  0.
         24    2    3    3    0    0  0.38398461169E+02 -0.20667264443E+03  0.19996200075E+03  0.30086543997E+03  0.79669237776E+02 0.  0.
         -6    2    1    2    0  502 -0.19423465069E+03  0.36642705795E+03  0.38599527500E+03  0.59211288818E+03  0.17207391344E+03 0.  0.
        -24    2    5    5    0    0 -0.17037221079E+03  0.35870988690E+03  0.39410451813E+03  0.56533938278E+03  0.81183578041E+02 0.  0.
          5    1    3    3  501    0  0.15583618952E+03 -0.15975441353E+03  0.23326370155E+03  0.32286287347E+03  0.47000000000E+01 0. -1.
        -13    1    4    4    0    0 -0.20647121486E+02 -0.10674303628E+03  0.95401966910E+02  0.14464409670E+03  0.00000000000E+00 0.  1.
         14    1    4    4    0    0  0.59045582654E+02 -0.99929608149E+02  0.10456003384E+03  0.15622134327E+03  0.00000000000E+00 0. -1.
         -5    1    5    5    0  502 -0.23862439902E+02  0.77171710588E+01 -0.81092431259E+01  0.26773505398E+02  0.47000000000E+01 0.  1.
         11    1    6    6    0    0 -0.13040187886E+03  0.18109104575E+03  0.22359587271E+03  0.31590145798E+03  0.00000000000E+00 0. -1.
        -12    1    6    6    0    0 -0.39970331928E+02  0.17761884114E+03  0.17050864542E+03  0.24943792480E+03  0.00000000000E+00 0.  1.
</event>
<event>
12    1  0.8488291E-002  0.1770223E+03  0.7818608E-02  0.1171144E+00
         21   -1    0    0  503  502  0.00000000000E+00  0.00000000000E+00  0.13423200005E+03  0.13423200005E+03  0.00000000000E+00 0. -1.
         21   -1    0    0  501  503 -0.00000000000E+00 -0.00000000000E+00 -0.24040418146E+03  0.24040418146E+03  0.00000000000E+00 0.  1.
          6    2    1    2  501    0  0.39199466277E+02 -0.54482615439E+01 -0.90001416871E+02  0.19858788581E+03  0.17254162293E+03 0.  0.
         24    2    3    3    0    0  0.55265600510E+02 -0.55333407939E+02 -0.98157383365E+02  0.14534074233E+03  0.73300660551E+02 0.  0.
         -6    2    1    2    0  502 -0.39199466277E+02  0.54482615439E+01 -0.16170764539E+02  0.17604829569E+03  0.17077829804E+03 0.  0.
        -24    2    5    5    0    0 -0.36011919570E+02  0.48647891783E+02 -0.55509121161E+02  0.11734595495E+03  0.83817270806E+02 0.  0.
          5    1    3    3  501    0 -0.16066134233E+02  0.49885146395E+02  0.81559664946E+01  0.53247143487E+02  0.47000000000E+01 0. -1.
        -11    1    4    4    0    0 -0.10711170511E+02 -0.36056656724E+02 -0.26262507404E+02  0.45875167171E+02  0.00000000000E+00 0.  1.
         12    1    4    4    0    0  0.65976771021E+02 -0.19276751216E+02 -0.71894875961E+02  0.99465575157E+02  0.00000000000E+00 0. -1.
         -5    1    5    5    0  502 -0.31875467072E+01 -0.43199630239E+02  0.39338356622E+02  0.58702340741E+02  0.47000000000E+01 0.  1.
         11    1    6    6    0    0 -0.42854742629E+02  0.64887598363E+01  0.46229463238E+01  0.43589042232E+02  0.00000000000E+00 0. -1.
        -12    1    6    6    0    0  0.68428230589E+01  0.42159131946E+02 -0.60132067485E+02  0.73756912719E+02  0.00000000000E+00 0.  1.
</event>
<event>
12    1  0.8488291E-002  0.1980105E+03  0.7818608E-02  0.1152969E+00
         21   -1    0    0  501  502  0.00000000000E+00  0.00000000000E+00  0.20210536713E+03  0.20210536713E+03  0.00000000000E+00 0. -1.
         21   -1    0    0  502  503 -0.00000000000E+00 -0.00000000000E+00 -0.19983431567E+03  0.19983431567E+03  0.00000000000E+00 0. -1.
         -6    2    1    2    0  503 -0.35371266298E+02 -0.88427126132E+02  0.51775783292E+02  0.19783463101E+03  0.16549116706E+03 0.  0.
        -24    2    3    3    0    0 -0.75996883704E+02 -0.92756289543E+02  0.61152311530E+02  0.15565416483E+03  0.78162383797E+02 0.  0.
          6    2    1    2  501    0  0.35371266298E+02  0.88427126132E+02 -0.49504731834E+02  0.20410505178E+03  0.17360204657E+03 0.  0.
         24    2    5    5    0    0 -0.43599245584E+02  0.21059094733E+02 -0.34889564759E+02  0.99174186401E+02  0.79207687965E+02 0.  0.
          5    1    5    5  501    0  0.78970511882E+02  0.67368031399E+02 -0.14615167075E+02  0.10493086538E+03  0.47000000000E+01 0. -1.
        -11    1    6    6    0    0 -0.14615353802E+01  0.84241975537E+01 -0.51460112566E+02  0.52165566951E+02  0.00000000000E+00 0.  1.
         12    1    6    6    0    0 -0.42137710204E+02  0.12634897179E+02  0.16570547807E+02  0.47008619450E+02  0.00000000000E+00 0. -1.
         -5    1    3    3    0  503  0.40625617406E+02  0.43291634109E+01 -0.93765282373E+01  0.42180466181E+02  0.47000000000E+01 0.  1.
         13    1    4    4    0    0 -0.30012556119E+02 -0.64537313582E+02 -0.37280301708E+01  0.71272130445E+02  0.00000000000E+00 0. -1.
        -14    1    4    4    0    0 -0.45984327584E+02 -0.28218975961E+02  0.64880341701E+02  0.84382034384E+02  0.00000000000E+00 0.  1.
</event>
<event>
12    1  0.8488291E-002  0.1804172E+03  0.7818608E-02  0.1167591E+00
         21   -1    0    0  501  502  0.00000000000E+00  0.00000000000E+00  0.55572105210E+03  0.55572105210E+03  0.00000000000E+00 0. -1.
         21   -1    0    0  502  503 -0.00000000000E+00 -0.00000000000E+00 -0.59728857204E+02  0.59728857204E+02  0.00000000000E+00 0. -1.
         -6    2    1    2    0  503 -0.29726865962E+02 -0.44481261916E+02  0.20120607704E+03  0.27024846901E+03  0.17230229348E+03 0.  0.
        -24    2    3    3    0    0  0.27016000089E+02 -0.32628198599E+02  0.19141086515E+03  0.21127148931E+03  0.78759502877E+02 0.  0.
          6    2    1    2  501    0  0.29726865962E+02  0.44481261916E+02  0.29478611785E+03  0.34520144029E+03  0.17147276717E+03 0.  0.
         24    2    5    5    0    0  0.80694642136E+02  0.53770713743E+02  0.22943361886E+03  0.26167271920E+03  0.80186729477E+02 0.  0.
          5    1    5    5  501    0 -0.50967776174E+02 -0.92894518268E+01  0.65352498989E+02  0.83528721093E+02  0.47000000000E+01 0. -1.
        -11    1    6    6    0    0  0.10912462448E+02  0.34963496901E+02  0.14945374181E+03  0.15387640785E+03  0.00000000000E+00 0.  1.
         12    1    6    6    0    0  0.69782179688E+02  0.18807216843E+02  0.79979877051E+02  0.10779631135E+03  0.00000000000E+00 0. -1.
         -5    1    3    3    0  503 -0.56742866051E+02 -0.11853063317E+02  0.97952118897E+01  0.58976979693E+02  0.47000000000E+01 0.  1.
         13    1    4    4    0    0 -0.18046859357E+02  0.14528509427E+02  0.37076197920E+02  0.43719688597E+02  0.00000000000E+00 0. -1.
        -14    1    4    4    0    0  0.45062859446E+02 -0.47156708026E+02  0.15433466723E+03  0.16755180072E+03  0.00000000000E+00 0.  1.
</event>
<event>
12    1  0.8488291E-002  0.1867029E+03  0.7818608E-02  0.1161565E+00
         21   -1    0    0  503  502  0.00000000000E+00  0.00000000000E+00  0.49016509643E+03  0.49016509643E+03  0.00000000000E+00 0. -1.
         21   -1    0    0  501  503 -0.00000000000E+00 -0.00000000000E+00 -0.71652504616E+02  0.71652504616E+02  0.00000000000E+00 0. -1.
          6    2    1    2  501    0  0.26513715965E+02 -0.68961412716E+02  0.23715327822E+03  0.30182718727E+03  0.17146229913E+03 0.  0.
         24    2    3    3    0    0 -0.92192503069E+01 -0.10424931691E+03  0.14202320343E+03  0.19415220321E+03  0.81065239449E+02 0.  0.
         -6    2    1    2    0  502 -0.26513715965E+02  0.68961412716E+02  0.18135931359E+03  0.25999041378E+03  0.17101216638E+03 0.  0.
        -24    2    5    5    0    0  0.15234640261E+02  0.10213574352E+03  0.10922393244E+03  0.17016244104E+03  0.79759542089E+02 0.  0.
          5    1    3    3  501    0  0.35732966272E+02  0.35287904197E+02  0.95130074792E+02  0.10767498405E+03  0.47000000000E+01 0. -1.
        -13    1    4    4    0    0 -0.27757005566E+02 -0.32555410813E+02  0.10056054252E+03  0.10928279299E+03  0.00000000000E+00 0.  1.
         14    1    4    4    0    0  0.18537755259E+02 -0.71693906100E+02  0.41462660904E+02  0.84869410221E+02  0.00000000000E+00 0. -1.
         -5    1    5    5    0  502 -0.41748356225E+02 -0.33174330808E+02  0.72135381148E+02  0.89827972734E+02  0.47000000000E+01 0.  1.
         13    1    6    6    0    0 -0.16220249822E+02  0.33613326135E+01 -0.35949872350E+01  0.16950486554E+02  0.00000000000E+00 0. -1.
        -14    1    6    6    0    0  0.31454890082E+02  0.98774410911E+02  0.11281891968E+03  0.15321195449E+03  0.00000000000E+00 0.  1.
</event>
<event>
12    1  0.8488291E-002  0.3162596E+03  0.7818608E-02  0.1077435E+00
         21   -1    0    0  503  502  0.00000000000E+00  0.00000000000E+00  0.87182807267E+03  0.87182807267E+03  0.00000000000E+00 0. -1.
         21   -1    0    0  501  503 -0.00000000000E+00 -0.00000000000E+00 -0.21356664109E+03  0.21356664109E+03  0.00000000000E+00 0.  1.
          6    2    1    2  501    0  0.19217094115E+02 -0.26420282470E+03 -0.40490204998E+02  0.31840452055E+03  0.17195799698E+03 0.  0.
         24    2    3    3    0    0  0.42131307810E+02 -0.17164382085E+03 -0.86683493716E+02  0.21234727043E+03  0.79628429853E+02 0.  0.
         -6    2    1    2    0  502 -0.19217094115E+02  0.26420282470E+03  0.69875163658E+03  0.76699019320E+03  0.17276480417E+03 0.  0.
        -24    2    5    5    0    0 -0.28309281963E+02  0.22632179547E+03  0.41251289933E+03  0.47807438374E+03  0.79782540214E+02 0.  0.
          5    1    3    3  501    0 -0.22914213695E+02 -0.92559003845E+02  0.46193288717E+02  0.10605725013E+03  0.47000000000E+01 0. -1.
        -11    1    4    4    0    0 -0.14137366075E+02 -0.19493163474E+02 -0.34238502537E+02  0.41858375479E+02  0.00000000000E+00 0.  1.
         12    1    4    4    0    0  0.56268673885E+02 -0.15215065738E+03 -0.52444991179E+02  0.17048889495E+03  0.00000000000E+00 0. -1.
         -5    1    5    5    0  502  0.90921878479E+01  0.37881029226E+02  0.28623873725E+03  0.28891580946E+03  0.47000000000E+01 0.  1.
         13    1    6    6    0    0 -0.25879673715E+02  0.65826277506E+02  0.19729690475E+03  0.20959228265E+03  0.00000000000E+00 0. -1.
        -14    1    6    6    0    0 -0.24296082480E+01  0.16049551796E+03  0.21521599458E+03  0.26848210109E+03  0.00000000000E+00 0.  1.
</event>
<event>
12    1  0.8488291E-002  0.1986383E+03  0.7818608E-02  0.1151684E+00
         21   -1    0    0  501  502  0.00000000000E+00  0.00000000000E+00  0.24405735071E+03  0.24405735071E+03  0.00000000000E+00 0. -1.
         21   -1    0    0  502  503 -0.00000000000E+00 -0.00000000000E+00 -0.15872029339E+03  0.15872029339E+03  0.00000000000E+00 0.  1.
         -6    2    1    2    0  503 -0.85878305208E+02 -0.51312802406E+02  0.44997724324E+02  0.20008466954E+03  0.16733497183E+03 0.  0.
        -24    2    3    3    0    0 -0.73423070517E+02 -0.75895497944E+02  0.80479286120E+02  0.15491307428E+03  0.79812725781E+02 0.  0.
          6    2    1    2  501    0  0.85878305208E+02  0.51312802406E+02  0.40339333001E+02  0.20269297456E+03  0.17160738082E+03 0.  0.
         24    2    5    5    0    0  0.22796978674E+02 -0.12735382366E+02 -0.27951330917E+02  0.89701255799E+02  0.81136589719E+02 0.  0.
          5    1    5    5  501    0  0.63081326534E+02  0.64048184772E+02  0.68290663917E+02  0.11299171876E+03  0.47000000000E+01 0. -1.
        -11    1    6    6    0    0  0.36536206860E+02  0.22843500018E+02 -0.28314553957E+02  0.51560002624E+02  0.00000000000E+00 0.  1.
         12    1    6    6    0    0 -0.13739228186E+02 -0.35578882383E+02  0.36322304002E+00  0.38141253175E+02  0.00000000000E+00 0. -1.
         -5    1    3    3    0  503 -0.12455234692E+02  0.24582695538E+02 -0.35481561797E+02  0.45171595263E+02  0.47000000000E+01 0.  1.
         13    1    4    4    0    0 -0.28822222827E+01 -0.43928770370E+02  0.11355457409E+01  0.44037864795E+02  0.00000000000E+00 0. -1.
        -14    1    4    4    0    0 -0.70540848234E+02 -0.31966727574E+02  0.79343740380E+02  0.11087520949E+03  0.00000000000E+00 0.  1.
</event>
<event>
12    1  0.8488291E-002  0.1793963E+03  0.7818608E-02  0.1168551E+00
         21   -1    0    0  503  502  0.00000000000E+00  0.00000000000E+00  0.14355245160E+03  0.14355245160E+03  0.00000000000E+00 0. -1.
         21   -1    0    0  501  503 -0.00000000000E+00 -0.00000000000E+00 -0.26912741123E+03  0.26912741123E+03  0.00000000000E+00 0. -1.
          6    2    1    2  501    0 -0.22173929493E+02 -0.44312075303E+02 -0.14778272920E+03  0.23191425631E+03  0.17172432577E+03 0.  0.
         24    2    3    3    0    0 -0.19808455291E+02 -0.80718740052E+02 -0.15689458538E+03  0.19401759908E+03  0.78224215781E+02 0.  0.
         -6    2    1    2    0  502  0.22173929493E+02  0.44312075303E+02  0.22207769572E+02  0.18076560652E+03  0.17241744780E+03 0.  0.
        -24    2    5    5    0    0  0.77719654032E+02  0.52090866621E+02  0.11626003845E+02  0.12349518768E+03  0.79762738205E+02 0.  0.
          5    1    3    3  501    0 -0.23654742022E+01  0.36406664749E+02  0.91118561754E+01  0.37896657231E+02  0.47000000000E+01 0. -1.
        -13    1    4    4    0    0 -0.19331335520E+02 -0.32272979722E+02 -0.94092333205E+01  0.38778594931E+02  0.00000000000E+00 0.  1.
         14    1    4    4    0    0 -0.47711977098E+00 -0.48445760330E+02 -0.14748535206E+03  0.15523900415E+03  0.00000000000E+00 0. -1.
         -5    1    5    5    0  502 -0.55545724539E+02 -0.77787913178E+01  0.10581765727E+02  0.57270418846E+02  0.47000000000E+01 0.  1.
         13    1    6    6    0    0  0.42734892384E+02  0.70121935484E+02  0.16738463421E+02  0.83806521351E+02  0.00000000000E+00 0. -1.
        -14    1    6    6    0    0  0.34984761648E+02 -0.18031068863E+02 -0.51124595761E+01  0.39688666327E+02  0.00000000000E+00 0.  1.
</event>
<event>
12    1  0.8488291E-002  0.1814008E+03  0.7818608E-02  0.1166601E+00
         21   -1    0    0  503  502  0.00000000000E+00  0.00000000000E+00  0.28339954922E+03  0.28339954922E+03  0.00000000000E+00 0. -1.
         21   -1    0    0  501  503 -0.00000000000E+00 -0.00000000000E+00 -0.16924006929E+03  0.16924006929E+03  0.00000000000E+00 0. -1.
          6    2    1    2  501    0  0.14932035026E+02 -0.55739607963E+02 -0.70254564374E+02  0.19396068551E+03  0.17133351727E+03 0.  0.
         24    2    3    3    0    0 -0.44046586174E+02 -0.58581977624E+02 -0.76768351878E+01  0.10779445654E+03  0.78668679958E+02 0.  0.
         -6    2    1    2    0  502 -0.14932035026E+02  0.55739607963E+02  0.18441404430E+03  0.25867893301E+03  0.17197785055E+03 0.  0.
        -24    2    5    5    0    0 -0.26216195738E+02  0.10115471905E+03  0.11478721144E+03  0.17465601677E+03  0.80056568625E+02 0.  0.
          5    1    3    3  501    0  0.58978621200E+02  0.28423696610E+01 -0.62577729187E+02  0.86166228965E+02  0.47000000000E+01 0. -1.
        -13    1    4    4    0    0 -0.74865139288E+00  0.14786767447E+02 -0.16473858962E+02  0.22149424361E+02  0.00000000000E+00 0.  1.
         14    1    4    4    0    0 -0.43297934781E+02 -0.73368745072E+02  0.87970237740E+01  0.85645032179E+02  0.00000000000E+00 0. -1.
         -5    1    5    5    0  502  0.11284160712E+02 -0.45415111084E+02  0.69626832868E+02  0.84022916237E+02  0.47000000000E+01 0.  1.
         11    1    6    6    0    0 -0.29828041230E+02  0.10196907400E+02  0.61677603299E+02  0.69266266774E+02  0.00000000000E+00 0. -1.
        -12    1    6    6    0    0  0.36118454925E+01  0.90957811648E+02  0.53109608139E+02  0.10538975000E+03  0.00000000000E+00 0.  1.
</event>
<event>
12    1  0.8488291E-002  0.1899545E+03  0.7818608E-02  0.1158833E+00
         21   -1    0    0  503  502  0.00000000000E+00  0.00000000000E+00  0.94998909826E+03  0.94998909826E+03  0.00000000000E+00 0. -1.
         21   -1    0    0  501  503 -0.00000000000E+00 -0.00000000000E+00 -0.19201588836E+03  0.19201588836E+03  0.00000000000E+00 0. -1.
          6    2    1    2  501    0 -0.71104426500E+02  0.40509197522E+02 -0.13262856562E+03  0.23167442680E+03  0.17142307039E+03 0.  0.
         24    2    3    3    0    0 -0.37562233160E+02 -0.46475201789E+02 -0.77707524418E+02  0.12337033997E+03  0.74906045763E+02 0.  0.
         -6    2    1    2    0  502  0.71104426500E+02 -0.40509197522E+02  0.89060177552E+03  0.91033055982E+03  0.16980391934E+03 0.  0.
        -24    2    5    5    0    0  0.72987825631E+02 -0.88890586173E+02  0.66407283703E+03  0.67863732311E+03  0.79543223732E+02 0.  0.
          5    1    3    3  501    0 -0.33542193340E+02  0.86984399311E+02 -0.54921041200E+02  0.10830408683E+03  0.47000000000E+01 0. -1.
        -11    1    4    4    0    0 -0.41914662929E+02 -0.37105623523E+01 -0.10131422627E+02  0.43281092475E+02  0.00000000000E+00 0.  1.
         12    1    4    4    0    0  0.43524297686E+01 -0.42764639436E+02 -0.67576101791E+02  0.80089247494E+02  0.00000000000E+00 0. -1.
         -5    1    5    5    0  502 -0.18833991307E+01  0.48381388651E+02  0.22652893849E+03  0.23169323671E+03  0.47000000000E+01 0.  1.
         13    1    6    6    0    0  0.66217312104E+02 -0.20577175126E+02  0.27859900818E+03  0.28709851954E+03  0.00000000000E+00 0. -1.
        -14    1    6    6    0    0  0.67705135268E+01 -0.68313411047E+02  0.38547382884E+03  0.39153880357E+03  0.00000000000E+00 0.  1.
</event>
<event>
12    1  0.8488291E-002  0.1916054E+03  0.7818608E-02  0.1157452E+00
         21   -1    0    0  503  502  0.00000000000E+00  0.00000000000E+00  0.16353989121E+03  0.16353989121E+03  0.00000000000E+00 0. -1.
         21   -1    0    0  501  503 -0.00000000000E+00 -0.00000000000E+00 -0.25183788073E+03  0.25183788073E+03  0.00000000000E+00 0. -1.
          6    2    1    2  501    0 -0.52170255959E+02 -0.66112244875E+02 -0.11554435964E+03  0.22374791580E+03  0.17210481182E+03 0.  0.
         24    2    3    3    0    0 -0.87140144666E+02 -0.21995973296E+02 -0.35317286840E+02  0.12562752167E+03  0.80360038568E+02 0.  0.
         -6    2    1    2    0  502  0.52170255959E+02  0.66112244875E+02  0.27246370122E+02  0.19162985613E+03  0.16996197382E+03 0.  0.
        -24    2    5    5    0    0  0.91102448928E+02  0.44314212134E+02  0.53793172190E+02  0.13949836295E+03  0.79389434401E+02 0.  0.
          5    1    3    3  501    0  0.34969888707E+02 -0.44116271578E+02 -0.80227072800E+02  0.98120394129E+02  0.47000000000E+01 0. -1.
        -13    1    4    4    0    0 -0.37365257571E+02  0.13261821023E+02  0.18986219414E+02  0.43960378727E+02  0.00000000000E+00 0.  1.
         14    1    4    4    0    0 -0.49774887095E+02 -0.35257794320E+02 -0.54303506255E+02  0.81667142947E+02  0.00000000000E+00 0. -1.
         -5    1    5    5    0  502 -0.38932192969E+02  0.21798032740E+02 -0.26546802069E+02  0.52131493176E+02  0.47000000000E+01 0.  1.
         13    1    6    6    0    0  0.76850974039E+02  0.34159621299E+02  0.12417755928E+01  0.84110010965E+02  0.00000000000E+00 0. -1.
        -14    1    6    6    0    0  0.14251474889E+02  0.10154590835E+02  0.52551396598E+02  0.55388351988E+02  0.00000000000E+00 0.  1.
</event>
<event>
12    1  0.8488291E-002  0.1732444E+03  0.7818608E-02  0.1174785E+00
         21   -1    0    0  501  502  0.00000000000E+00  0.00000000000E+00  0.75006782123E+03  0.75006782123E+03  0.00000000000E+00 0.  1.
         21   -1    0    0  502  503 -0.00000000000E+00 -0.00000000000E+00 -0.14162448842E+03  0.14162448842E+03  0.00000000000E+00 0.  1.
         -6    2    1    2    0  503  0.12039548725E+02  0.66163182666E+01 -0.74161551658E+02  0.18744587898E+03  0.17160214276E+03 0.  0.
        -24    2    3    3    0    0 -0.49293961461E+02 -0.32872412683E+02 -0.48099282747E+02  0.10984116775E+03  0.79000322655E+02 0.  0.
          6    2    1    2  501    0 -0.12039548725E+02 -0.66163182666E+01  0.68260488447E+03  0.70424643068E+03  0.17269881419E+03 0.  0.
         24    2    5    5    0    0  0.27594204202E+02 -0.40804578407E+02  0.23564746368E+03  0.25421010159E+03  0.81649218530E+02 0.  0.
          5    1    5    5  501    0 -0.39633752927E+02  0.34188260140E+02  0.44695742079E+03  0.45003632909E+03  0.47000000000E+01 0. -1.
        -11    1    6    6    0    0 -0.25474400129E+02 -0.10967600652E+02  0.12377780941E+03  0.12684707103E+03  0.00000000000E+00 0.  1.
         12    1    6    6    0    0  0.53068604331E+02 -0.29836977755E+02  0.11186965427E+03  0.12736303056E+03  0.00000000000E+00 0. -1.
         -5    1    3    3    0  503  0.61333510186E+02  0.39488730949E+02 -0.26062268911E+02  0.77604711226E+02  0.47000000000E+01 0.  1.
         13    1    4    4    0    0 -0.18104461933E+02 -0.36321032585E+02  0.11762516412E+02  0.42253351846E+02  0.00000000000E+00 0. -1.
        -14    1    4    4    0    0 -0.31189499528E+02  0.34486199021E+01 -0.59861799158E+02  0.67587815903E+02  0.00000000000E+00 0.  1.
</event>
<event>
12    1  0.8488291E-002  0.2294401E+03  0.7818608E-02  0.1127083E+00
         21   -1    0    0  501  502  0.00000000000E+00  0.00000000000E+00  0.54138039290E+03  0.54138039290E+03  0.00000000000E+00 0.  1.
         21   -1    0    0  502  503 -0.00000000000E+00 -0.00000000000E+00 -0.11041227575E+03  0.11041227575E+03  0.00000000000E+00 0.  1.
         -6    2    1    2    0  503  0.15140519531E+03 -0.87104778078E+01  0.32843913140E+03  0.40048619491E+03  0.17180664623E+03 0.  0.
        -24    2    3    3    0    0  0.35671433300E+02 -0.46469000152E+02  0.20330231441E+03  0.22583991627E+03  0.78993782075E+02 0.  0.
          6    2    1    2  501    0 -0.15140519531E+03  0.87104778078E+01  0.10252898575E+03  0.25130647374E+03  0.17217242879E+03 0.  0.
         24    2    5    5    0    0 -0.84214830981E+02 -0.19524523913E+02 -0.95041437566E+01  0.11757064276E+03  0.79114995417E+02 0.  0.
          5    1    5    5  501    0 -0.67190364324E+02  0.28235001720E+02  0.11203312950E+03  0.13373583097E+03  0.47000000000E+01 0. -1.
        -13    1    6    6    0    0 -0.61411662653E+02  0.29852677087E+01  0.28578592524E+02  0.67801475528E+02  0.00000000000E+00 0.  1.
         14    1    6    6    0    0 -0.22803168327E+02 -0.22509791621E+02 -0.38082736280E+02  0.49769167234E+02  0.00000000000E+00 0. -1.
         -5    1    3    3    0  503  0.11573376201E+03  0.37758522344E+02  0.12513681699E+03  0.17464627864E+03  0.47000000000E+01 0.  1.
         11    1    4    4    0    0  0.14379362308E+01 -0.60974744060E+02  0.11970826717E+03  0.13435049797E+03  0.00000000000E+00 0. -1.
        -12    1    4    4    0    0  0.34233497069E+02  0.14505743908E+02  0.83594047236E+02  0.91489418302E+02  0.00000000000E+00 0.  1.
</event>
<event>
12    1  0.8488291E-002  0.2597604E+03  0.7818608E-02  0.1107297E+00
         21   -1    0    0  503  502  0.00000000000E+00  0.00000000000E+00  0.78334219842E+02  0.78334219842E+02  0.00000000000E+00 0. -1.
         21   -1    0    0  501  503 -0.00000000000E+00 -0.00000000000E+00 -0.87143180728E+03  0.87143180728E+03  0.00000000000E+00 0.  1.
          6    2    1    2  501    0 -0.19040581267E+03  0.39959219399E+02 -0.34497195850E+03  0.43179688424E+03  0.17202262751E+03 0.  0.
         24    2    3    3    0    0 -0.43911223335E+02 -0.27587990851E+02 -0.16426767784E+03  0.18951725785E+03  0.79016632835E+02 0.  0.
         -6    2    1    2    0  502  0.19040581267E+03 -0.39959219399E+02 -0.44812562895E+03  0.51796914289E+03  0.17211723027E+03 0.  0.
        -24    2    5    5    0    0  0.40557110336E+02  0.15241955095E+02 -0.10064041220E+03  0.13551670256E+03  0.79743888239E+02 0.  0.
          5    1    3    3  501    0 -0.14649458933E+03  0.67547210251E+02 -0.18070428066E+03  0.24227962639E+03  0.47000000000E+01 0. -1.
        -13    1    4    4    0    0 -0.18370389242E+02 -0.36454273396E+02 -0.15598935770E+03  0.16124225552E+03  0.00000000000E+00 0.  1.
         14    1    4    4    0    0 -0.25540834093E+02  0.88662825445E+01 -0.82783201439E+01  0.28275002329E+02  0.00000000000E+00 0. -1.
         -5    1    5    5    0  502  0.14984870233E+03 -0.55201174494E+02 -0.34748521675E+03  0.38245244033E+03  0.47000000000E+01 0.  1.
         11    1    6    6    0    0  0.50608665395E+02 -0.10034070047E+02 -0.29680561116E+02  0.59521889108E+02  0.00000000000E+00 0. -1.
        -12    1    6    6    0    0 -0.10051555060E+02  0.25276025142E+02 -0.70959851081E+02  0.75994813451E+02  0.00000000000E+00 0.  1.
</event>
<event>
12    1  0.8488291E-002  0.2314266E+03  0.7818608E-02  0.1125723E+00
         21   -1    0    0  501  502  0.00000000000E+00  0.00000000000E+00  0.19374266392E+03  0.19374266392E+03  0.00000000000E+00 0.  1.
         21   -1    0    0  502  503 -0.00000000000E+00 -0.00000000000E+00 -0.30209022394E+03  0.30209022394E+03  0.00000000000E+00 0. -1.
         -6    2    1    2    0  503  0.14673636155E+03  0.48509810669E+02 -0.12725970887E+03  0.26410855257E+03  0.17226007230E+03 0.  0.
        -24    2    3    3    0    0  0.10055968446E+03  0.71230553770E+02 -0.23147182369E+02  0.14787591581E+03  0.78392936521E+02 0.  0.
          6    2    1    2  501    0 -0.14673636155E+03 -0.48509810669E+02  0.18912148850E+02  0.23172433530E+03  0.17162090975E+03 0.  0.
         24    2    5    5    0    0 -0.12435216456E+02  0.77304381892E+01  0.30901466421E+02  0.85554581585E+02  0.78423794351E+02 0.  0.
          5    1    5    5  501    0 -0.13430114509E+03 -0.56240248858E+02 -0.11989317571E+02  0.14616975371E+03  0.47000000000E+01 0. -1.
        -13    1    6    6    0    0 -0.36231014442E+02  0.19117395471E+02 -0.47115289179E+01  0.41235418293E+02  0.00000000000E+00 0.  1.
         14    1    6    6    0    0  0.23795797986E+02 -0.11386957281E+02  0.35612995338E+02  0.44319163292E+02  0.00000000000E+00 0. -1.
         -5    1    3    3    0  503  0.46176677081E+02 -0.22720743101E+02 -0.10411252650E+03  0.11623263676E+03  0.47000000000E+01 0.  1.
         13    1    4    4    0    0  0.76322301213E+02  0.85109089525E+01 -0.24541901991E+02  0.80621549147E+02  0.00000000000E+00 0. -1.
        -14    1    4    4    0    0  0.24237383252E+02  0.62719644818E+02  0.13947196217E+01  0.67254366667E+02  0.00000000000E+00 0.  1.
</event>
<event>
12    1  0.8488291E-002  0.2154231E+03  0.7818608E-02  0.1138687E+00
         21   -1    0    0  501  502  0.00000000000E+00  0.00000000000E+00  0.55863391032E+02  0.55863391032E+02  0.00000000000E+00 0. -1.
         21   -1    0    0  502  503 -0.00000000000E+00 -0.00000000000E+00 -0.92359358918E+03  0.92359358918E+03  0.00000000000E+00 0.  1.
         -6    2    1    2    0  503 -0.11290443019E+03 -0.16234928854E+02 -0.60367654520E+03  0.63867633149E+03  0.17455973736E+03 0.  0.
        -24    2    3    3    0    0 -0.63694615047E+02 -0.77778358886E+02 -0.40881509705E+03  0.42843296378E+03  0.79489268381E+02 0.  0.
          6    2    1    2  501    0  0.11290443019E+03  0.16234928854E+02 -0.26405365295E+03  0.34078064873E+03  0.18274609610E+03 0.  0.
         24    2    5    5    0    0  0.47254612023E+02  0.81041969068E+02 -0.14881329256E+03  0.19309083273E+03  0.79610768959E+02 0.  0.
          5    1    5    5  501    0  0.65649818163E+02 -0.64807040214E+02 -0.11524036039E+03  0.14768981599E+03  0.47000000000E+01 0. -1.
        -13    1    6    6    0    0  0.49883820303E+02  0.28134850601E+02 -0.11958077257E+03  0.13258780681E+03  0.00000000000E+00 0.  1.
         14    1    6    6    0    0 -0.26292082800E+01  0.52907118467E+02 -0.29232519993E+02  0.60503025923E+02  0.00000000000E+00 0. -1.
         -5    1    3    3    0  503 -0.49209815139E+02  0.61543430032E+02 -0.19486144815E+03  0.21024336770E+03  0.47000000000E+01 0.  1.
         11    1    4    4    0    0 -0.53101638292E+02 -0.57180762343E+01 -0.13740344084E+03  0.14741840434E+03  0.00000000000E+00 0. -1.
        -12    1    4    4    0    0 -0.10592976755E+02 -0.72060282652E+02 -0.27141165621E+03  0.28101455944E+03  0.00000000000E+00 0.  1.
</event>
<event>
12    1  0.8488291E-002  0.1918586E+03  0.7818608E-02  0.1157250E+00
         21   -1    0    0  503  502  0.00000000000E+00  0.00000000000E+00  0.42058325114E+03  0.42058325114E+03  0.00000000000E+00 0.  1.
         21   -1    0    0  501  503 -0.00000000000E+00 -0.00000000000E+00 -0.87594489767E+02  0.87594489767E+02  0.00000000000E+00 0.  1.
          6    2    1    2  501    0  0.55487250534E+02 -0.57424024249E+02  0.19272896033E+03  0.27051721994E+03  0.17221719021E+03 0.  0.
         24    2    3    3    0    0  0.62515637363E+02 -0.50584151354E+02  0.21725939764E+03  0.24368413519E+03  0.75586709151E+02 0.  0.
         -6    2    1    2    0  502 -0.55487250534E+02  0.57424024249E+02  0.14025980104E+03  0.23766052096E+03  0.17445159186E+03 0.  0.
        -24    2    5    5    0    0  0.29324173490E+02  0.39690436690E+01  0.93585741194E+02  0.12697641886E+03  0.80554699021E+02 0.  0.
          5    1    3    3  501    0 -0.70283868289E+01 -0.68398728952E+01 -0.24530437310E+02  0.26833084751E+02  0.47000000000E+01 0. -1.
        -13    1    4    4    0    0  0.47070047322E+02 -0.51246181335E+02  0.82000543557E+02  0.10754464003E+03  0.00000000000E+00 0.  1.
         14    1    4    4    0    0  0.15445590042E+02  0.66202998094E+00  0.13525885408E+03  0.13613949516E+03  0.00000000000E+00 0. -1.
         -5    1    5    5    0  502 -0.84811424024E+02  0.53454980580E+02  0.46674059848E+02  0.11068410209E+03  0.47000000000E+01 0.  1.
         13    1    6    6    0    0  0.54437349468E+02 -0.82254033981E+00  0.39852128751E+02  0.67470688122E+02  0.00000000000E+00 0. -1.
        -14    1    6    6    0    0 -0.25113175978E+02  0.47915840088E+01  0.53733612443E+02  0.59505730742E+02  0.00000000000E+00 0.  1.
</event>
<event>
12    1  0.8488291E-002  0.1935576E+03  0.7818608E-02  0.1155613E+00
         21   -1    0    0  501  502  0.00000000000E+00  0.00000000000E+00  0.11364851981E+03  0.11364851981E+03  0.00000000000E+00 0. -1.
         21   -1    0    0  502  503 -0.00000000000E+00 -0.00000000000E+00 -0.35793734303E+03  0.35793734303E+03  0.00000000000E+00 0. -1.
         -6    2    1    2    0  503 -0.80789947563E+02 -0.35514938717E+02 -0.19168676209E+03  0.27241211285E+03  0.17226786690E+03 0.  0.
        -24    2    3    3    0    0 -0.11505366188E+03 -0.59282000820E+02 -0.15345798051E+03  0.21564588080E+03  0.78753370672E+02 0.  0.
          6    2    1    2  501    0  0.80789947563E+02  0.35514938717E+02 -0.52602061133E+02  0.19917375000E+03  0.17063082767E+03 0.  0.
         24    2    5    5    0    0  0.28001948472E+02 -0.42080642576E+02 -0.38123349713E+01  0.93295638646E+02  0.78324023738E+02 0.  0.
          5    1    5    5  501    0  0.52787999091E+02  0.77595581294E+02 -0.48789726161E+02  0.10587811135E+03  0.47000000000E+01 0. -1.
        -13    1    6    6    0    0  0.51514169457E+02 -0.19225686953E+02  0.12921370377E+02  0.56482727502E+02  0.00000000000E+00 0.  1.
         14    1    6    6    0    0 -0.23512220985E+02 -0.22854955623E+02 -0.16733705349E+02  0.36812911144E+02  0.00000000000E+00 0. -1.
         -5    1    3    3    0  503  0.34263714314E+02  0.23767062103E+02 -0.38228781577E+02  0.56766232044E+02  0.47000000000E+01 0.  1.
         13    1    4    4    0    0 -0.67203661005E+02 -0.64962941060E+02 -0.13466604555E+03  0.16392516459E+03  0.00000000000E+00 0. -1.
        -14    1    4    4    0    0 -0.47850000873E+02  0.56809402397E+01 -0.18791934963E+02  0.51720716209E+02  0.00000000000E+00 0.  1.
</event>
<event>
12    1  0.8488291E-002  0.2005989E+03  0.7818608E-02  0.1149397E+00
         21   -1    0    0  503  502  0.00000000000E+00  0.00000000000E+00  0.14079999225E+03  0.14079999225E+03  0.00000000000E+00 0. -1.
         21   -1    0    0  501  503 -0.00000000000E+00 -0.00000000000E+00 -0.51538850038E+03  0.51538850038E+03  0.00000000000E+00 0. -1.
          6    2    1    2  501    0 -0.77419638843E+02 -0.68891134339E+02 -0.40700038690E+03  0.45375019318E+03  0.17175603047E+03 0.  0.
         24    2    3    3    0    0 -0.75275602010E+01 -0.30553207046E+02 -0.80005735710E+02  0.11714613611E+03  0.79574724856E+02 0.  0.
         -6    2    1    2    0  502  0.77419638843E+02  0.68891134339E+02  0.32411878769E+02  0.20243829945E+03  0.17085358156E+03 0.  0.
        -24    2    5    5    0    0  0.35917916415E+02 -0.29792548224E+01 -0.36349167403E+02  0.94559120397E+02  0.79505928084E+02 0.  0.
          5    1    3    3  501    0 -0.69892078642E+02 -0.38337927293E+02 -0.32699465119E+03  0.33660405707E+03  0.47000000000E+01 0. -1.
        -13    1    4    4    0    0 -0.27038917055E+02  0.51623092557E+01 -0.16114065364E+00  0.27527775767E+02  0.00000000000E+00 0.  1.
         14    1    4    4    0    0  0.19511356854E+02 -0.35715516301E+02 -0.79844595057E+02  0.89618360344E+02  0.00000000000E+00 0. -1.
         -5    1    5    5    0  502  0.41501722428E+02  0.71870389161E+02  0.68761046172E+02  0.10787917905E+03  0.47000000000E+01 0.  1.
         11    1    6    6    0    0  0.18317440814E+01 -0.20792041988E+02  0.18282673589E+02  0.27747440422E+02  0.00000000000E+00 0. -1.
        -12    1    6    6    0    0  0.34086172334E+02  0.17812787165E+02 -0.54631840992E+02  0.66811679975E+02  0.00000000000E+00 0.  1.
</event>
<event>
12    1  0.8488291E-002  0.1993644E+03  0.7818608E-02  0.1150554E+00
         21   -1    0    0  503  502  0.00000000000E+00  0.00000000000E+00  0.21883328710E+04  0.21883328710E+04  0.00000000000E+00 0. -1.
         21   -1    0    0  501  503 -0.00000000000E+00 -0.00000000000E+00 -0.73044750666E+02  0.73044750666E+02  0.00000000000E+00 0.  1.
          6    2    1    2  501    0 -0.81679687115E+02  0.57850963309E+02  0.77359006016E+02  0.21384709301E+03  0.17241768509E+03 0.  0.
         24    2    3    3    0    0  0.12652200543E+02  0.50734045462E+02 -0.35668450126E+01  0.89266842111E+02  0.72262197376E+02 0.  0.
         -6    2    1    2    0  502  0.81679687115E+02 -0.57850963309E+02  0.20379291143E+04  0.20475305287E+04  0.17090314672E+03 0.  0.
        -24    2    5    5    0    0 -0.25083185214E+01 -0.34194124422E+02  0.15030595336E+04  0.15055389930E+04  0.79272745448E+02 0.  0.
          5    1    3    3  501    0 -0.94331887657E+02  0.71169178475E+01  0.80925851029E+02  0.12458025090E+03  0.47000000000E+01 0. -1.
        -13    1    4    4    0    0 -0.24670276811E+02  0.72274316047E+01 -0.16443729811E+02  0.30516464009E+02  0.00000000000E+00 0.  1.
         14    1    4    4    0    0  0.37322477353E+02  0.43506613857E+02  0.12876884798E+02  0.58750378102E+02  0.00000000000E+00 0. -1.
         -5    1    5    5    0  502  0.84188005636E+02 -0.23656838887E+02  0.53486958076E+03  0.54199153568E+03  0.47000000000E+01 0.  1.
         11    1    6    6    0    0  0.10217073657E+02 -0.22257827507E+02  0.12540986438E+03  0.12777884631E+03  0.00000000000E+00 0. -1.
        -12    1    6    6    0    0 -0.12725392179E+02 -0.11936296915E+02  0.13776496692E+04  0.13777601467E+04  0.00000000000E+00 0.  1.
</event>
<event>
12    1  0.8488291E-002  0.2291901E+03  0.7818608E-02  0.1127747E+00
         21   -1    0    0  503  502  0.00000000000E+00  0.00000000000E+00  0.10892586640E+04  0.10892586640E+04  0.00000000000E+00 0.  1.
         21   -1    0    0  501  503 -0.00000000000E+00 -0.00000000000E+00 -0.70809870113E+02  0.70809870113E+02  0.00000000000E+00 0.  1.
          6    2    1    2  501    0 -0.50938886823E+02  0.14358412281E+03  0.17935883283E+03  0.29102869260E+03  0.17122189840E+03 0.  0.
         24    2    3    3    0    0  0.89882881306E+01  0.11308143091E+03  0.52946508290E+02  0.14776723126E+03  0.78508741893E+02 0.  0.
         -6    2    1    2    0  502  0.50938886823E+02 -0.14358412281E+03  0.83908996108E+03  0.86903984153E+03  0.16717390008E+03 0.  0.
        -24    2    5    5    0    0  0.23290561440E+02 -0.13309998302E+03  0.81601692555E+03  0.83124034349E+03  0.82576208001E+02 0.  0.
          5    1    3    3  501    0 -0.59927174954E+02  0.30502691897E+02  0.12641232454E+03  0.14326146134E+03  0.47000000000E+01 0. -1.
        -13    1    4    4    0    0 -0.13982013548E+02  0.10806676619E+03  0.58401871499E+02  0.12363131178E+03  0.00000000000E+00 0.  1.
         14    1    4    4    0    0  0.22970301679E+02  0.50146647229E+01 -0.54553632084E+01  0.24135919482E+02  0.00000000000E+00 0. -1.
         -5    1    5    5    0  502  0.27648325383E+02 -0.10484139786E+02  0.23073035532E+02  0.37799498041E+02  0.47000000000E+01 0.  1.
         13    1    6    6    0    0  0.17000207023E+02 -0.70791947668E+02  0.21548097796E+03  0.22744792537E+03  0.00000000000E+00 0. -1.
        -14    1    6    6    0    0  0.62903544177E+01 -0.62308035357E+02  0.60053594760E+03  0.60379241812E+03  0.00000000000E+00 0.  1.
</event>
<event>
12    1  0.8488291E-002  0.1827259E+03  0.7818608E-02  0.1165838E+00
         21   -1    0    0  501  502  0.00000000000E+00  0.00000000000E+00  0.30944501394E+03  0.30944501394E+03  0.00000000000E+00 0. -1.
         21   -1    0    0  502  503 -0.00000000000E+00 -0.00000000000E+00 -0.10830188452E+03  0.10830188452E+03  0.00000000000E+00 0.  1.
         -6    2    1    2    0  503 -0.36642726534E+02  0.43824568211E+02  0.12966678440E+03  0.22405855423E+03  0.17356692819E+03 0.  0.
        -24    2    3    3    0    0  0.30551764677E+02  0.51124343551E+01  0.11960516815E+03  0.14571919581E+03  0.77260212712E+02 0.  0.
          6    2    1    2  501    0  0.36642726534E+02 -0.43824568211E+02  0.71476345029E+02  0.19368834423E+03  0.17071328186E+03 0.  0.
         24    2    5    5    0    0  0.33703367598E+02 -0.40604866413E+02 -0.25774708934E+02  0.96226229497E+02  0.76226501026E+02 0.  0.
          5    1    5    5  501    0  0.29393589353E+01 -0.32197017978E+01  0.97251053962E+02  0.97462114729E+02  0.47000000000E+01 0. -1.
        -11    1    6    6    0    0  0.45441397912E+02 -0.13397598405E+02  0.11360069136E+02  0.48718245637E+02  0.00000000000E+00 0.  1.
         12    1    6    6    0    0 -0.11738030314E+02 -0.27207268009E+02 -0.37134778069E+02  0.47507983860E+02  0.00000000000E+00 0. -1.
         -5    1    3    3    0  503 -0.67194491210E+02  0.38712133856E+02  0.10061616245E+02  0.78339358423E+02  0.47000000000E+01 0.  1.
         11    1    4    4    0    0  0.31363847141E+02  0.28243612024E+02  0.11448078099E+03  0.12201328511E+03  0.00000000000E+00 0. -1.
        -12    1    4    4    0    0 -0.81208246410E+00 -0.23131177668E+02  0.51243871654E+01  0.23705910699E+02  0.00000000000E+00 0.  1.
</event>
<event>
12    1  0.8488291E-002  0.1793669E+03  0.7818608E-02  0.1169305E+00
         21   -1    0    0  501  502  0.00000000000E+00  0.00000000000E+00  0.20131742789E+03  0.20131742789E+03  0.00000000000E+00 0. -1.
         21   -1    0    0  502  503 -0.00000000000E+00 -0.00000000000E+00 -0.16988169164E+03  0.16988169164E+03  0.00000000000E+00 0. -1.
         -6    2    1    2    0  503  0.49822921848E+02 -0.31589885878E+01 -0.36308132177E+02  0.17946567025E+03  0.16851511382E+03 0.  0.
        -24    2    3    3    0    0  0.89914510977E+02  0.78126025466E+00 -0.57850072795E+02  0.13354175180E+03  0.80009617550E+02 0.  0.
          6    2    1    2  501    0 -0.49822921848E+02  0.31589885878E+01  0.67743868426E+02  0.19173344928E+03  0.17227936938E+03 0.  0.
         24    2    5    5    0    0 -0.13777178783E+02 -0.21969334859E+01  0.10956617087E+03  0.13606320161E+03  0.79459498251E+02 0.  0.
          5    1    5    5  501    0 -0.36045743065E+02  0.53559220737E+01 -0.41822302440E+02  0.55670247671E+02  0.47000000000E+01 0. -1.
        -11    1    6    6    0    0 -0.45884058661E+01 -0.26875857916E+02  0.43598332058E+01  0.27611109226E+02  0.00000000000E+00 0.  1.
         12    1    6    6    0    0 -0.91887729168E+01  0.24678924430E+02  0.10520633766E+03  0.10845209238E+03  0.00000000000E+00 0. -1.
         -5    1    3    3    0  503 -0.40091589128E+02 -0.39402488425E+01  0.21541940617E+02  0.45923918445E+02  0.47000000000E+01 0.  1.
         11    1    4    4    0    0  0.73698936633E+02  0.54019554100E+01 -0.77880380383E+02  0.10735952697E+03  0.00000000000E+00 0. -1.
        -12    1    4    4    0    0  0.16215574344E+02 -0.46206951553E+01  0.20030307588E+02  0.26182224831E+02  0.00000000000E+00 0.  1.
</event>
<event>
12    1  0.8488291E-002  0.2177711E+03  0.7818608E-02  0.1137284E+00
         21   -1    0    0  503  502  0.00000000000E+00  0.00000000000E+00  0.14298337816E+03  0.14298337816E+03  0.00000000000E+00 0. -1.
         21   -1    0    0  501  503 -0.00000000000E+00 -0.00000000000E+00 -0.32777062223E+03  0.32777062223E+03  0.00000000000E+00 0.  1.
          6    2    1    2  501    0  0.57083790773E+02  0.11864853251E+03 -0.13075284202E+03  0.24637936570E+03  0.16208162360E+03 0.  0.
         24    2    3    3    0    0  0.55179585182E+02  0.14103134821E+03 -0.13670336049E+03  0.22267039888E+03  0.89216982511E+02 0.  0.
         -6    2    1    2    0  502 -0.57083790773E+02 -0.11864853251E+03 -0.54034402054E+02  0.22437463469E+03  0.17345958218E+03 0.  0.
        -24    2    5    5    0    0 -0.80508371203E+02 -0.13016840968E+03 -0.14664234056E+02  0.17690339427E+03  0.87489190379E+02 0.  0.
          5    1    3    3  501    0  0.19042055914E+01 -0.22382815700E+02  0.59505184716E+01  0.23708966820E+02  0.47000000000E+01 0. -1.
        -11    1    4    4    0    0  0.13215364602E+02 -0.38976198504E+01  0.59684202086E+01  0.15015303588E+02  0.00000000000E+00 0.  1.
         12    1    4    4    0    0  0.41964220580E+02  0.14492896806E+03 -0.14267178070E+03  0.20765509529E+03  0.00000000000E+00 0. -1.
         -5    1    5    5    0  502  0.23424580430E+02  0.11519877169E+02 -0.39370167998E+02  0.47471240414E+02  0.47000000000E+01 0.  1.
         11    1    6    6    0    0 -0.39219406275E+02 -0.30221247781E+02  0.32182502730E+02  0.59052511614E+02  0.00000000000E+00 0. -1.
        -12    1    6    6    0    0 -0.41288964928E+02 -0.99947161896E+02 -0.46846736786E+02  0.11785088266E+03  0.00000000000E+00 0.  1.
</event>
<event>
12    1  0.8488291E-002  0.2013728E+03  0.7818608E-02  0.1149037E+00
         21   -1    0    0  503  502  0.00000000000E+00  0.00000000000E+00  0.10178015226E+03  0.10178015226E+03  0.00000000000E+00 0. -1.
         21   -1    0    0  501  503 -0.00000000000E+00 -0.00000000000E+00 -0.40676813499E+03  0.40676813499E+03  0.00000000000E+00 0. -1.
          6    2    1    2  501    0 -0.16385498787E+02  0.10350687945E+03 -0.19800801897E+03  0.28241492337E+03  0.17195596733E+03 0.  0.
         24    2    3    3    0    0  0.53313531605E+02  0.53257510078E+02 -0.75127393471E+02  0.13239928391E+03  0.78782930243E+02 0.  0.
         -6    2    1    2    0  502  0.16385498787E+02 -0.10350687945E+03 -0.10697996377E+03  0.22613336389E+03  0.16943856395E+03 0.  0.
        -24    2    5    5    0    0  0.60442428741E+02 -0.32914513411E+02 -0.19345740973E+02  0.10519477524E+03  0.77168845130E+02 0.  0.
          5    1    3    3  501    0 -0.69699030391E+02  0.50249369371E+02 -0.12288062549E+03  0.15001563946E+03  0.47000000000E+01 0. -1.
        -13    1    4    4    0    0  0.16649732347E+02  0.80591196841E+01  0.15876590375E+02  0.24376815199E+02  0.00000000000E+00 0.  1.
         14    1    4    4    0    0  0.36663799257E+02  0.45198390394E+02 -0.91003983846E+02  0.10802246871E+03  0.00000000000E+00 0. -1.
         -5    1    5    5    0  502 -0.44056929954E+02 -0.70592366038E+02 -0.87634222793E+02  0.12093858865E+03  0.47000000000E+01 0.  1.
         11    1    6    6    0    0 -0.37135517820E+00 -0.41393683095E+02 -0.22464493355E+01  0.41456259352E+02  0.00000000000E+00 0. -1.
        -12    1    6    6    0    0  0.60813783919E+02  0.84791696832E+01 -0.17099291637E+02  0.63738515888E+02  0.00000000000E+00 0.  1.
</event>
<event>
12    1  0.8488291E-002  0.1958018E+03  0.7818608E-02  0.1153431E+00
         21   -1    0    0  503  502  0.00000000000E+00  0.00000000000E+00  0.60583402250E+03  0.60583402250E+03  0.00000000000E+00 0.  1.
         21   -1    0    0  501  503 -0.00000000000E+00 -0.00000000000E+00 -0.23166815284E+03  0.23166815284E+03  0.00000000000E+00 0.  1.
          6    2    1    2  501    0 -0.34288527374E+01 -0.93888207139E+02 -0.17014271105E+03  0.25904719056E+03  0.17126048097E+03 0.  0.
         24    2    3    3    0    0 -0.46129636524E+02 -0.35765846053E+02 -0.15542446620E+03  0.18528891966E+03  0.82268341093E+02 0.  0.
         -6    2    1    2    0  502  0.34288527374E+01  0.93888207139E+02  0.54430858072E+03  0.57845498478E+03  0.17178936492E+03 0.  0.
        -24    2    5    5    0    0 -0.66795245752E+02  0.51327080354E+02  0.28278415329E+03  0.30430176181E+03  0.74408405813E+02 0.  0.
          5    1    3    3  501    0  0.42700783787E+02 -0.58122361086E+02 -0.14718244854E+02  0.73758270898E+02  0.47000000000E+01 0. -1.
        -13    1    4    4    0    0 -0.44444898901E+02 -0.37105297904E+02 -0.41238835361E+02  0.71083005795E+02  0.00000000000E+00 0.  1.
         14    1    4    4    0    0 -0.16847376231E+01  0.13394518515E+01 -0.11418563084E+03  0.11420591387E+03  0.00000000000E+00 0. -1.
         -5    1    5    5    0  502  0.70224098490E+02  0.42561126785E+02  0.26152442743E+03  0.27415322297E+03  0.47000000000E+01 0.  1.
         13    1    6    6    0    0 -0.31238068271E+02  0.43770999511E+02  0.69156026354E+02  0.87602929680E+02  0.00000000000E+00 0. -1.
        -14    1    6    6    0    0 -0.35557177481E+02  0.75560808436E+01  0.21362812693E+03  0.21669883213E+03  0.00000000000E+00 0.  1.
</event>
<event>
12    1  0.8488291E-002  0.2450160E+03  0.7818608E-02  0.1116706E+00
         21   -1    0    0  501  502  0.00000000000E+00  0.00000000000E+00  0.10428206918E+03  0.10428206918E+03  0.00000000000E+00 0. -1.
         21   -1    0    0  502  503 -0.00000000000E+00 -0.00000000000E+00 -0.69929123709E+03  0.69929123709E+03  0.00000000000E+00 0.  1.
         -6    2    1    2    0  503 -0.46211212284E+01  0.17337948742E+03 -0.46784479118E+03  0.52752327413E+03  0.17123158206E+03 0.  0.
        -24    2    3    3    0    0 -0.54479729205E+02  0.16502524776E+03 -0.40118001639E+03  0.44372616018E+03  0.75803208234E+02 0.  0.
          6    2    1    2  501    0  0.46211212284E+01 -0.17337948742E+03 -0.12716437673E+03  0.27605003214E+03  0.17306368803E+03 0.  0.
         24    2    5    5    0    0 -0.56554878209E+02 -0.76323399445E+02 -0.94652007644E+02  0.15671214518E+03  0.81092406201E+02 0.  0.
          5    1    5    5  501    0  0.61175999438E+02 -0.97056087978E+02 -0.32512369088E+02  0.11933788696E+03  0.47000000000E+01 0. -1.
        -11    1    6    6    0    0  0.75248126527E+01 -0.51344746389E+02 -0.61178260726E+02  0.80222723543E+02  0.00000000000E+00 0.  1.
         12    1    6    6    0    0 -0.64079690862E+02 -0.24978653056E+02 -0.33473746918E+02  0.76489421636E+02  0.00000000000E+00 0. -1.
         -5    1    3    3    0  503  0.49858607977E+02  0.83542396601E+01 -0.66664774786E+02  0.83797113954E+02  0.47000000000E+01 0.  1.
         11    1    4    4    0    0  0.60269446176E+01  0.13273355032E+02 -0.53857074024E+01  0.15540651835E+02  0.00000000000E+00 0. -1.
        -12    1    4    4    0    0 -0.60506673823E+02  0.15175189273E+03 -0.39579430899E+03  0.42818550834E+03  0.00000000000E+00 0.  1.
</event>
<event>
12    1  0.8488291E-002  0.3782068E+03  0.7818608E-02  0.1051797E+00
         21   -1    0    0  503  502  0.00000000000E+00  0.00000000000E+00  0.37284047102E+03  0.37284047102E+03  0.00000000000E+00 0. -1.
         21   -1    0    0  501  503 -0.00000000000E+00 -0.00000000000E+00 -0.41148613599E+03  0.41148613599E+03  0.00000000000E+00 0.  1.
          6    2    1    2  501    0  0.11046347108E+03 -0.31632396303E+03 -0.12513858618E+03  0.39635576044E+03  0.17080747949E+03 0.  0.
         24    2    3    3    0    0  0.66877985898E+02 -0.13050758814E+03 -0.11658351503E+03  0.20524663209E+03  0.83842521709E+02 0.  0.
         -6    2    1    2    0  502 -0.11046347108E+03  0.31632396303E+03  0.86492921206E+02  0.38797084658E+03  0.17543467259E+03 0.  0.
        -24    2    5    5    0    0 -0.12513585773E+03  0.30938190337E+03  0.10936373587E+03  0.35953433333E+03  0.76995877114E+02 0.  0.
          5    1    3    3  501    0  0.43585485181E+02 -0.18581637489E+03 -0.85550711457E+01  0.19110912835E+03  0.47000000000E+01 0. -1.
        -11    1    4    4    0    0 -0.53346021348E+01 -0.71005314330E+02 -0.28363258703E+02  0.76646507339E+02  0.00000000000E+00 0.  1.
         12    1    4    4    0    0  0.72212588033E+02 -0.59502273813E+02 -0.88220256329E+02  0.12860012475E+03  0.00000000000E+00 0. -1.
         -5    1    5    5    0  502  0.14672386656E+02  0.69420596598E+01 -0.22870814664E+02  0.28436513251E+02  0.47000000000E+01 0.  1.
         11    1    6    6    0    0 -0.80827353958E+02  0.10053176429E+03  0.40350951584E+02  0.13515878097E+03  0.00000000000E+00 0. -1.
        -12    1    6    6    0    0 -0.44308503777E+02  0.20885013908E+03  0.69012784286E+02  0.22437555236E+03  0.00000000000E+00 0.  1.
</event>
<event>
12    1  0.8488291E-002  0.2557663E+03  0.7818608E-02  0.1109739E+00
         21   -1    0    0  501  502  0.00000000000E+00  0.00000000000E+00  0.83169190049E+02  0.83169190049E+02  0.00000000000E+00 0. -1.
         21   -1    0    0  502  503 -0.00000000000E+00 -0.00000000000E+00 -0.13941970249E+04  0.13941970249E+04  0.00000000000E+00 0. -1.
         -6    2    1    2    0  503  0.18365665280E+03 -0.41560063487E+02 -0.16752387237E+03  0.30560783609E+03  0.17284356126E+03 0.  0.
        -24    2    3    3    0    0  0.20567449198E+03 -0.56633550095E+02 -0.15392456676E+03  0.27529238865E+03  0.81140442133E+02 0.  0.
          6    2    1    2  501    0 -0.18365665280E+03  0.41560063487E+02 -0.11435039624E+04  0.11717583788E+04  0.17308778474E+03 0.  0.
         24    2    5    5    0    0 -0.15667250000E+03  0.90956700467E+02 -0.93021049804E+03  0.95111304304E+03  0.80653929571E+02 0.  0.
          5    1    5    5  501    0 -0.26984152803E+02 -0.49396636980E+02 -0.21329346439E+03  0.22064533577E+03  0.47000000000E+01 0. -1.
        -13    1    6    6    0    0 -0.69013332563E+01  0.33746420379E+02 -0.24417580227E+03  0.24659333264E+03  0.00000000000E+00 0.  1.
         14    1    6    6    0    0 -0.14977116674E+03  0.57210280088E+02 -0.68603469577E+03  0.70451971040E+03  0.00000000000E+00 0. -1.
         -5    1    3    3    0  503 -0.22017839173E+02  0.15073486608E+02 -0.13599305615E+02  0.30315447442E+02  0.47000000000E+01 0.  1.
         11    1    4    4    0    0  0.17288436563E+03 -0.41695075145E+02 -0.15942974519E+03  0.23884163544E+03  0.00000000000E+00 0. -1.
        -12    1    4    4    0    0  0.32790126346E+02 -0.14938474950E+02  0.55051784295E+01  0.36450753204E+02  0.00000000000E+00 0.  1.
</event>
<event>
12    1  0.8488291E-002  0.2222729E+03  0.7818608E-02  0.1132237E+00
         21   -1    0    0  501  502  0.00000000000E+00  0.00000000000E+00  0.36868535793E+02  0.36868535793E+02  0.00000000000E+00 0. -1.
         21   -1    0    0  502  503 -0.00000000000E+00 -0.00000000000E+00 -0.18008357941E+04  0.18008357941E+04  0.00000000000E+00 0.  1.
         -6    2    1    2    0  503 -0.26066398947E+02  0.13715242783E+03 -0.13477025313E+04  0.13659089849E+04  0.17295952332E+03 0.  0.
        -24    2    3    3    0    0  0.28331961022E+02  0.11299176648E+03 -0.11695492774E+04  0.11780164865E+04  0.79419712592E+02 0.  0.
          6    2    1    2  501    0  0.26066398947E+02 -0.13715242783E+03 -0.41626472701E+03  0.47179534493E+03  0.17269707275E+03 0.  0.
         24    2    5    5    0    0  0.44924934575E+02 -0.20200060266E+02 -0.24815894415E+03  0.26608889177E+03  0.82426601154E+02 0.  0.
          5    1    5    5  501    0 -0.18858535628E+02 -0.11695236756E+03 -0.16810578285E+03  0.20570645317E+03  0.47000000000E+01 0. -1.
        -11    1    6    6    0    0  0.35289589303E+01 -0.22193606963E+02 -0.20509251600E+03  0.20632001808E+03  0.00000000000E+00 0.  1.
         12    1    6    6    0    0  0.41395975644E+02  0.19935466970E+01 -0.43066428149E+02  0.59768873684E+02  0.00000000000E+00 0. -1.
         -5    1    3    3    0  503 -0.54398359968E+02  0.24160661345E+02 -0.17815325383E+03  0.18789249845E+03  0.47000000000E+01 0.  1.
         11    1    4    4    0    0 -0.10145596172E+02  0.48581382248E+01 -0.21691506034E+02  0.24434730666E+02  0.00000000000E+00 0. -1.
        -12    1    4    4    0    0  0.38477557194E+02  0.10813362826E+03 -0.11478577714E+04  0.11535817558E+04  0.00000000000E+00 0.  1.
</event>
<event>
12    1  0.8488291E-002  0.1740488E+03  0.7818608E-02  0.1173746E+00
         21   -1    0    0  501  502  0.00000000000E+00  0.00000000000E+00  0.18045133382E+04  0.18045133382E+04  0.00000000000E+00 0. -1.
         21   -1    0    0  502  503 -0.00000000000E+00 -0.00000000000E+00 -0.20740064448E+02  0.20740064448E+02  0.00000000000E+00 0. -1.
         -6    2    1    2    0  503 -0.23140327210E+02  0.20403912933E+01  0.49285429818E+03  0.52268377453E+03  0.17249153886E+03 0.  0.
        -24    2    3    3    0    0  0.87573477954E+01 -0.47900265084E+02  0.41153580153E+03  0.42195483763E+03  0.79454657043E+02 0.  0.
          6    2    1    2  501    0  0.23140327210E+02 -0.20403912933E+01  0.12909189755E+04  0.13025696281E+04  0.17226780510E+03 0.  0.
         24    2    5    5    0    0 -0.15166458155E+02 -0.49061595066E+02  0.48416074013E+03  0.49352120939E+03  0.80712454211E+02 0.  0.
          5    1    5    5  501    0  0.38306785365E+02  0.47021203773E+02  0.80675823541E+03  0.80904841871E+03  0.47000000000E+01 0. -1.
        -11    1    6    6    0    0  0.31948144336E+02 -0.16775855788E+02  0.13595247141E+03  0.14065982990E+03  0.00000000000E+00 0.  1.
         12    1    6    6    0    0 -0.47114602491E+02 -0.32285739278E+02  0.34820826872E+03  0.35286137949E+03  0.00000000000E+00 0. -1.
         -5    1    3    3    0  503 -0.31897675006E+02  0.49940656377E+02  0.81318496654E+02  0.10072893690E+03  0.47000000000E+01 0.  1.
         13    1    4    4    0    0  0.17307076776E+02 -0.22754411608E+02  0.38391673659E+02  0.47866676932E+02  0.00000000000E+00 0. -1.
        -14    1    4    4    0    0 -0.85497289808E+01 -0.25145853476E+02  0.37314412787E+03  0.37408816070E+03  0.00000000000E+00 0.  1.
</event>
<event>
12    1  0.8488291E-002  0.1892706E+03  0.7818608E-02  0.1159148E+00
         21   -1    0    0  503  502  0.00000000000E+00  0.00000000000E+00  0.57207019873E+02  0.57207019873E+02  0.00000000000E+00 0. -1.
         21   -1    0    0  501  503 -0.00000000000E+00 -0.00000000000E+00 -0.17172593079E+04  0.17172593079E+04  0.00000000000E+00 0. -1.
          6    2    1    2  501    0  0.69648765520E+02 -0.33075300153E+02 -0.15372595374E+04  0.15488528759E+04  0.17272353600E+03 0.  0.
         24    2    3    3    0    0 -0.28390274375E+02 -0.12383857196E+02 -0.57173946075E+03  0.57813618317E+03  0.79975419456E+02 0.  0.
         -6    2    1    2    0  502 -0.69648765520E+02  0.33075300153E+02 -0.12279275063E+03  0.22561345186E+03  0.17285382274E+03 0.  0.
        -24    2    5    5    0    0 -0.51518662914E+01  0.59189826464E+01  0.45990355174E+01  0.80189682248E+02  0.79672190439E+02 0.  0.
          5    1    3    3  501    0  0.98039039895E+02 -0.20691442958E+02 -0.96552007661E+03  0.97071669271E+03  0.47000000000E+01 0. -1.
        -13    1    4    4    0    0 -0.53429218473E+01 -0.35847722189E+02 -0.12394411009E+03  0.12913461359E+03  0.00000000000E+00 0.  1.
         14    1    4    4    0    0 -0.23047352528E+02  0.23463864993E+02 -0.44779535066E+03  0.44900156959E+03  0.00000000000E+00 0. -1.
         -5    1    5    5    0  502 -0.64496899229E+02  0.27156317507E+02 -0.12739178615E+03  0.14542376961E+03  0.47000000000E+01 0.  1.
         13    1    6    6    0    0 -0.34847462212E+02  0.25725091565E+02  0.89547232748E+01  0.44230227532E+02  0.00000000000E+00 0. -1.
        -14    1    6    6    0    0  0.29695595921E+02 -0.19806108918E+02 -0.43556877575E+01  0.35959454715E+02  0.00000000000E+00 0.  1.
</event>
<event>
12    1  0.8488291E-002  0.1923956E+03  0.7818608E-02  0.1156550E+00
         21   -1    0    0  501  502  0.00000000000E+00  0.00000000000E+00  0.17452671373E+03  0.17452671373E+03  0.00000000000E+00 0.  1.
         21   -1    0    0  502  503 -0.00000000000E+00 -0.00000000000E+00 -0.23526287002E+03  0.23526287002E+03  0.00000000000E+00 0.  1.
         -6    2    1    2    0  503  0.68253173253E+02 -0.50865037799E+02 -0.96163565914E+02  0.21415944279E+03  0.17137995157E+03 0.  0.
        -24    2    3    3    0    0 -0.21397281413E+02 -0.54131041276E+02 -0.49668755548E+02  0.11300743742E+03  0.83160581724E+02 0.  0.
          6    2    1    2  501    0 -0.68253173253E+02  0.50865037799E+02  0.35427409628E+02  0.19563014096E+03  0.17254072844E+03 0.  0.
         24    2    5    5    0    0 -0.72057461371E+02  0.21884744204E+02 -0.42635507344E+02  0.11214218356E+03  0.71322248131E+02 0.  0.
          5    1    5    5  501    0  0.38042881183E+01  0.28980293595E+02  0.78062916972E+02  0.83487957402E+02  0.47000000000E+01 0. -1.
        -13    1    6    6    0    0 -0.33384746509E+02 -0.23458513841E+02 -0.31426226294E+02  0.51501950159E+02  0.00000000000E+00 0.  1.
         14    1    6    6    0    0 -0.38672714862E+02  0.45343258045E+02 -0.11209281050E+02  0.60640233399E+02  0.00000000000E+00 0. -1.
         -5    1    3    3    0  503  0.89650454666E+02  0.32660034777E+01 -0.46494810366E+02  0.10115200538E+03  0.47000000000E+01 0.  1.
         11    1    4    4    0    0 -0.18997988539E+02 -0.21627219348E+02 -0.69243407938E+02  0.74988730674E+02  0.00000000000E+00 0. -1.
        -12    1    4    4    0    0 -0.23992928746E+01 -0.32503821929E+02  0.19574652391E+02  0.38018706744E+02  0.00000000000E+00 0.  1.
</event>
<event>
12    1  0.8488291E-002  0.3008603E+03  0.7818608E-02  0.1085795E+00
         21   -1    0    0  501  502  0.00000000000E+00  0.00000000000E+00  0.87452897535E+02  0.87452897535E+02  0.00000000000E+00 0. -1.
         21   -1    0    0  502  503 -0.00000000000E+00 -0.00000000000E+00 -0.11946282933E+04  0.11946282933E+04  0.00000000000E+00 0.  1.
         -6    2    1    2    0  503  0.10088424298E+03  0.22379448840E+03 -0.30664493518E+03  0.42959056263E+03  0.17394059821E+03 0.  0.
        -24    2    3    3    0    0  0.46011993593E+02  0.15372828362E+03 -0.28787650724E+03  0.33851597401E+03  0.77270256238E+02 0.  0.
          6    2    1    2  501    0 -0.10088424298E+03 -0.22379448840E+03 -0.80053046055E+03  0.85249062818E+03  0.16009262737E+03 0.  0.
         24    2    5    5    0    0 -0.13345371749E+03 -0.18759046730E+03 -0.67971069384E+03  0.72214106798E+03  0.80504761452E+02 0.  0.
          5    1    5    5  501    0  0.32569474512E+02 -0.36204021099E+02 -0.12081976672E+03  0.13034956020E+03  0.47000000000E+01 0. -1.
        -11    1    6    6    0    0 -0.39891169165E+02 -0.12527016995E+03 -0.36757749944E+03  0.39038076151E+03  0.00000000000E+00 0.  1.
         12    1    6    6    0    0 -0.93562548324E+02 -0.62320297348E+02 -0.31213319439E+03  0.33176030647E+03  0.00000000000E+00 0. -1.
         -5    1    3    3    0  503  0.54872249383E+02  0.70066204782E+02 -0.18768427945E+02  0.91074588621E+02  0.47000000000E+01 0.  1.
         13    1    4    4    0    0  0.17654092073E+02 -0.36776606751E+01 -0.25449712622E+02  0.31191024791E+02  0.00000000000E+00 0. -1.
        -14    1    4    4    0    0  0.28357901520E+02  0.15740594429E+03 -0.26242679462E+03  0.30732494922E+03  0.00000000000E+00 0.  1.
</event>
<event>
12    1  0.8488291E-002  0.1888097E+03  0.7818608E-02  0.1159939E+00
         21   -1    0    0  503  502  0.00000000000E+00  0.00000000000E+00  0.77571133467E+03  0.77571133467E+03  0.00000000000E+00 0.  1.
         21   -1    0    0  501  503 -0.00000000000E+00 -0.00000000000E+00 -0.53641513338E+02  0.53641513338E+02  0.00000000000E+00 0.  1.
          6    2    1    2  501    0 -0.15578397596E+02 -0.72309891031E+02  0.19837327831E+03  0.27265979292E+03  0.17181384786E+03 0.  0.
         24    2    3    3    0    0  0.25711884151E+02 -0.86085277746E+02  0.76210322979E+02  0.14288873952E+03  0.80854205345E+02 0.  0.
         -6    2    1    2    0  502  0.15578397596E+02  0.72309891031E+02  0.52369654303E+03  0.55669305509E+03  0.17371724611E+03 0.  0.
        -24    2    5    5    0    0  0.28092665822E+02  0.59609178357E+02  0.14563867385E+03  0.17818577978E+03  0.78721641114E+02 0.  0.
          5    1    3    3  501    0 -0.41290281747E+02  0.13775386715E+02  0.12216295533E+03  0.12977105340E+03  0.47000000000E+01 0. -1.
        -13    1    4    4    0    0  0.48289195443E+02 -0.48033157927E+02  0.19280648860E+02  0.70786821354E+02  0.00000000000E+00 0.  1.
         14    1    4    4    0    0 -0.22577311292E+02 -0.38052119819E+02  0.56929674119E+02  0.72101918166E+02  0.00000000000E+00 0. -1.
         -5    1    5    5    0  502 -0.12514268227E+02  0.12700712674E+02  0.37805786918E+03  0.37850727531E+03  0.47000000000E+01 0.  1.
         13    1    6    6    0    0  0.30473438126E+02  0.50345755056E+02  0.15438745271E+03  0.16522351842E+03  0.00000000000E+00 0. -1.
        -14    1    6    6    0    0 -0.23807723040E+01  0.92634233001E+01 -0.87487788669E+01  0.12962261364E+02  0.00000000000E+00 0.  1.
</event>
<event>
12    1  0.8488291E-002  0.2393972E+03  0.7818608E-02  0.1121055E+00
         21   -1    0    0  501  502  0.00000000000E+00  0.00000000000E+00  0.14290969934E+03  0.14290969934E+03  0.00000000000E+00 0. -1.
         21   -1    0    0  502  503 -0.00000000000E+00 -0.00000000000E+00 -0.39409431721E+03  0.39409431721E+03  0.00000000000E+00 0. -1.
         -6    2    1    2    0  503 -0.24211079515E+02  0.15768571926E+03 -0.10745468299E+03  0.25777414617E+03  0.17161013697E+03 0.  0.
        -24    2    3    3    0    0 -0.68930053117E+01  0.18660009510E+02 -0.79415771882E+02  0.11481843905E+03  0.80502792772E+02 0.  0.
          6    2    1    2  501    0  0.24211079515E+02 -0.15768571926E+03 -0.14372993488E+03  0.27922987037E+03  0.17849387636E+03 0.  0.
         24    2    5    5    0    0 -0.14452209573E+02 -0.15756138870E+03 -0.86253878745E+02  0.20980039241E+03  0.10743377256E+03 0.  0.
          5    1    5    5  501    0  0.38663289088E+02 -0.12433055987E+00 -0.57476056135E+02  0.69429477961E+02  0.47000000000E+01 0. -1.
        -11    1    6    6    0    0  0.15147621103E+02  0.95136040047E+01 -0.22025903002E+02  0.28374275132E+02  0.00000000000E+00 0.  1.
         12    1    6    6    0    0 -0.29599830677E+02 -0.16707499270E+03 -0.64227975743E+02  0.18142611728E+03  0.00000000000E+00 0. -1.
         -5    1    3    3    0  503 -0.17318074203E+02  0.13902570975E+03 -0.28038911105E+02  0.14295570713E+03  0.47000000000E+01 0.  1.
         11    1    4    4    0    0  0.78405534644E+00  0.32438189879E+02 -0.90102098504E+02  0.95766586346E+02  0.00000000000E+00 0. -1.
        -12    1    4    4    0    0 -0.76770606582E+01 -0.13778180369E+02  0.10686326622E+02  0.19051852700E+02  0.00000000000E+00 0.  1.
</event>
<event>
12    1  0.8488291E-002  0.2026007E+03  0.7818608E-02  0.1147660E+00
         21   -1    0    0  501  502  0.00000000000E+00  0.00000000000E+00  0.27363808613E+03  0.27363808613E+03  0.00000000000E+00 0. -1.
         21   -1    0    0  502  503 -0.00000000000E+00 -0.00000000000E+00 -0.19402800557E+03  0.19402800557E+03  0.00000000000E+00 0.  1.
         -6    2    1    2    0  503 -0.10423269304E+03 -0.21763907785E+02 -0.71977976081E+02  0.21500663981E+03  0.17236271099E+03 0.  0.
        -24    2    3    3    0    0 -0.60451709694E+02  0.35222744503E+02 -0.88471996556E+02  0.14112568318E+03  0.84818119186E+02 0.  0.
          6    2    1    2  501    0  0.10423269304E+03  0.21763907785E+02  0.15158805664E+03  0.25265945190E+03  0.17181308954E+03 0.  0.
         24    2    5    5    0    0 -0.10850237111E+02 -0.84912978020E+01  0.70980090910E+02  0.10885683573E+03  0.81374489838E+02 0.  0.
          5    1    5    5  501    0  0.11508293015E+03  0.30255205587E+02  0.80607965731E+02  0.14380261616E+03  0.47000000000E+01 0. -1.
        -13    1    6    6    0    0  0.10606306807E+02 -0.21505172165E+02  0.78962632423E+02  0.82523108843E+02  0.00000000000E+00 0.  1.
         14    1    6    6    0    0 -0.21456543919E+02  0.13013874363E+02 -0.79825415137E+01  0.26333726889E+02  0.00000000000E+00 0. -1.
         -5    1    3    3    0  503 -0.43780983341E+02 -0.56986652288E+02  0.16494020475E+02  0.73880956631E+02  0.47000000000E+01 0.  1.
         11    1    4    4    0    0 -0.73646687862E+01  0.52590810886E+02 -0.33689959593E+02  0.62889149409E+02  0.00000000000E+00 0. -1.
        -12    1    4    4    0    0 -0.53087040908E+02 -0.17368066383E+02 -0.54782036963E+02  0.78236533768E+02  0.00000000000E+00 0.  1.
</event>
<event>
12    1  0.8488291E-002  0.2585644E+03  0.7818608E-02  0.1108169E+00
         21   -1    0    0  501  502  0.00000000000E+00  0.00000000000E+00  0.45642779502E+03  0.45642779502E+03  0.00000000000E+00 0.  1.
         21   -1    0    0  502  503 -0.00000000000E+00 -0.00000000000E+00 -0.15992362681E+03  0.15992362681E+03  0.00000000000E+00 0.  1.
         -6    2    1    2    0  503  0.19187913840E+03 -0.13975661651E+02  0.23985669813E+03  0.35268513801E+03  0.17275024765E+03 0.  0.
        -24    2    3    3    0    0  0.56772511445E+02 -0.57995162728E+02  0.83722488461E+02  0.14151814591E+03  0.80195845237E+02 0.  0.
          6    2    1    2  501    0 -0.19187913840E+03  0.13975661651E+02  0.56647470088E+02  0.26366628382E+03  0.17116673299E+03 0.  0.
         24    2    5    5    0    0 -0.21105014805E+03  0.28595166871E+02  0.33348974597E+02  0.22981118913E+03  0.79631526317E+02 0.  0.
          5    1    5    5  501    0  0.19171009649E+02 -0.14619505220E+02  0.23298495490E+02  0.33855094682E+02  0.47000000000E+01 0. -1.
        -11    1    6    6    0    0 -0.97764686892E+02  0.50449634690E+02  0.31450653216E+02  0.11442134080E+03  0.00000000000E+00 0.  1.
         12    1    6    6    0    0 -0.11328546116E+03 -0.21854467819E+02  0.18983213808E+01  0.11538984833E+03  0.00000000000E+00 0. -1.
         -5    1    3    3    0  503  0.13510662696E+03  0.44019501076E+02  0.15613420967E+03  0.21116699210E+03  0.47000000000E+01 0.  1.
         11    1    4    4    0    0 -0.82645103201E+01 -0.24801960051E+02  0.58824576571E+02  0.64372122553E+02  0.00000000000E+00 0. -1.
        -12    1    4    4    0    0  0.65037021765E+02 -0.33193202676E+02  0.24897911890E+02  0.77146023361E+02  0.00000000000E+00 0.  1.
</event>
<event>
12    1  0.8488291E-002  0.2892318E+03  0.7818608E-02  0.1090775E+00
         21   -1    0    0  501  502  0.00000000000E+00  0.00000000000E+00  0.75328689551E+03  0.75328689551E+03  0.00000000000E+00 0.  1.
         21   -1    0    0  502  503 -0.00000000000E+00 -0.00000000000E+00 -0.11529452845E+03  0.11529452845E+03  0.00000000000E+00 0. -1.
         -6    2    1    2    0  503 -0.22680892270E+03  0.49114232896E+02  0.23510963005E+03  0.37273523415E+03  0.17262827506E+03 0.  0.
        -24    2    3    3    0    0 -0.48660955876E+02 -0.27848686442E+01  0.24979394685E+02  0.92365798162E+02  0.74376248837E+02 0.  0.
          6    2    1    2  501    0  0.22680892270E+03 -0.49114232896E+02  0.40288273701E+03  0.49584618981E+03  0.17232077320E+03 0.  0.
         24    2    5    5    0    0  0.16872820934E+03 -0.13486197907E+02  0.16568903166E+03  0.24901493166E+03  0.76840710660E+02 0.  0.
          5    1    5    5  501    0  0.58080713356E+02 -0.35628034989E+02  0.23719370535E+03  0.24683125815E+03  0.47000000000E+01 0. -1.
        -11    1    6    6    0    0  0.96833209459E+01 -0.22130153998E+02  0.95681347273E+01  0.25981909527E+02  0.00000000000E+00 0.  1.
         12    1    6    6    0    0  0.15904488840E+03  0.86439560913E+01  0.15612089693E+03  0.22303302213E+03  0.00000000000E+00 0. -1.
         -5    1    3    3    0  503 -0.17814796682E+03  0.51899101540E+02  0.21013023537E+03  0.28036943599E+03  0.47000000000E+01 0.  1.
         13    1    4    4    0    0 -0.33852839477E+02 -0.19723935765E+02  0.46791917630E+02  0.61028943447E+02  0.00000000000E+00 0. -1.
        -14    1    4    4    0    0 -0.14808116399E+02  0.16939067121E+02 -0.21812522945E+02  0.31336854715E+02  0.00000000000E+00 0.  1.
</event>
<event>
12    1  0.8488291E-002  0.2644428E+03  0.7818608E-02  0.1104824E+00
         21   -1    0    0  501  502  0.00000000000E+00  0.00000000000E+00  0.52055857347E+03  0.52055857347E+03  0.00000000000E+00 0. -1.
         21   -1    0    0  502  503 -0.00000000000E+00 -0.00000000000E+00 -0.53604527148E+03  0.53604527148E+03  0.00000000000E+00 0. -1.
         -6    2    1    2    0  503  0.13338811769E+03  0.15212362950E+03 -0.46570045052E+03  0.53447126915E+03  0.16687911593E+03 0.  0.
        -24    2    3    3    0    0  0.16098224684E+03  0.15117716008E+03 -0.42246453804E+03  0.48295655381E+03  0.77465666194E+02 0.  0.
          6    2    1    2  501    0 -0.13338811769E+03 -0.15212362950E+03  0.45021375251E+03  0.52213257580E+03  0.17028216340E+03 0.  0.
         24    2    5    5    0    0 -0.64558284979E+02 -0.80216716927E+02  0.11980766365E+03  0.17702618134E+03  0.79886787234E+02 0.  0.
          5    1    5    5  501    0 -0.68829832713E+02 -0.71906912570E+02  0.33040608886E+03  0.34510639446E+03  0.47000000000E+01 0. -1.
        -13    1    6    6    0    0 -0.18614748729E+02  0.38771231185E+01 -0.50132721392E+01  0.19664024295E+02  0.00000000000E+00 0.  1.
         14    1    6    6    0    0 -0.45943536250E+02 -0.84093840046E+02  0.12482093579E+03  0.15736215704E+03  0.00000000000E+00 0. -1.
         -5    1    3    3    0  503 -0.27594129151E+02  0.94646942119E+00 -0.43235912488E+02  0.51514715341E+02  0.47000000000E+01 0.  1.
         13    1    4    4    0    0  0.93833221816E+02  0.37962214966E+02 -0.15991728421E+03  0.18925998275E+03  0.00000000000E+00 0. -1.
        -14    1    4    4    0    0  0.67149025026E+02  0.11321494511E+03 -0.26254725382E+03  0.29369657105E+03  0.00000000000E+00 0.  1.
</event>
<event>
12    1  0.8488291E-002  0.2102670E+03  0.7818608E-02  0.1141470E+00
         21   -1    0    0  503  502  0.00000000000E+00  0.00000000000E+00  0.74756582313E+03  0.74756582313E+03  0.00000000000E+00 0.  1.
         21   -1    0    0  501  503 -0.00000000000E+00 -0.00000000000E+00 -0.12200242048E+03  0.12200242048E+03  0.00000000000E+00 0.  1.
          6    2    1    2  501    0  0.70801807992E+02 -0.99971377178E+02  0.76636791994E-01  0.20968498186E+03  0.17017818155E+03 0.  0.
         24    2    3    3    0    0  0.77637751942E+02 -0.18632924167E+01  0.24420779600E+01  0.11119837497E+03  0.79548868415E+02 0.  0.
         -6    2    1    2    0  502 -0.70801807992E+02  0.99971377178E+02  0.62548676586E+03  0.65988326175E+03  0.17089485833E+03 0.  0.
        -24    2    5    5    0    0 -0.20497313434E+02  0.71646270761E+02  0.18170464978E+03  0.21233716315E+03  0.80728948517E+02 0.  0.
          5    1    3    3  501    0 -0.68359439496E+01 -0.98108084762E+02 -0.23654411681E+01  0.98486606892E+02  0.47000000000E+01 0. -1.
        -11    1    4    4    0    0  0.44367578407E+02  0.22496842352E+02  0.33155649129E+02  0.59781995606E+02  0.00000000000E+00 0.  1.
         12    1    4    4    0    0  0.33270173535E+02 -0.24360134768E+02 -0.30713571169E+02  0.51416379364E+02  0.00000000000E+00 0. -1.
         -5    1    5    5    0  502 -0.50304494558E+02  0.28325106417E+02  0.44378211608E+03  0.44754609861E+03  0.47000000000E+01 0.  1.
         11    1    6    6    0    0 -0.35531917049E+02  0.87617234073E+01  0.29627042594E+02  0.47085524093E+02  0.00000000000E+00 0. -1.
        -12    1    6    6    0    0  0.15034603615E+02  0.62884547354E+02  0.15207760719E+03  0.16525163905E+03  0.00000000000E+00 0.  1.
</event>
<event>
12    1  0.8488291E-002  0.1903035E+03  0.7818608E-02  0.1159136E+00
         21   -1    0    0  501  502  0.00000000000E+00  0.00000000000E+00  0.33404632407E+02  0.33404632407E+02  0.00000000000E+00 0.  1.
         21   -1    0    0  502  503 -0.00000000000E+00 -0.00000000000E+00 -0.10757215966E+04  0.10757215966E+04  0.00000000000E+00 0.  1.
         -6    2    1    2    0  503 -0.60061196559E+02 -0.55291340751E+02 -0.46099830158E+03  0.49873326683E+03  0.17190391993E+03 0.  0.
        -24    2    3    3    0    0 -0.41105987504E+02  0.17045075841E+02 -0.36901743121E+03  0.38009757393E+03  0.79498832384E+02 0.  0.
          6    2    1    2  501    0  0.60061196559E+02  0.55291340751E+02 -0.58131866264E+03  0.61039296221E+03  0.16728329589E+03 0.  0.
         24    2    5    5    0    0  0.26661877942E+02  0.91956947919E+02 -0.30406217870E+03  0.32869608768E+03  0.80127233397E+02 0.  0.
          5    1    5    5  501    0  0.33399318617E+02 -0.36665607169E+02 -0.27725648394E+03  0.28169687453E+03  0.47000000000E+01 0. -1.
        -13    1    6    6    0    0 -0.11175024100E+02  0.34166584178E+02 -0.20377974656E+03  0.20692612630E+03  0.00000000000E+00 0.  1.
         14    1    6    6    0    0  0.37836902042E+02  0.57790363741E+02 -0.10028243214E+03  0.12176996138E+03  0.00000000000E+00 0. -1.
         -5    1    3    3    0  503 -0.18955209055E+02 -0.72336416591E+02 -0.91980870364E+02  0.11863569289E+03  0.47000000000E+01 0.  1.
         11    1    4    4    0    0 -0.37731867813E+02 -0.24748834298E+01 -0.35187445020E+03  0.35390033569E+03  0.00000000000E+00 0. -1.
        -12    1    4    4    0    0 -0.33741196913E+01  0.19519959271E+02 -0.17142981016E+02  0.26197238247E+02  0.00000000000E+00 0.  1.
</event>
<event>
12    1  0.8488291E-002  0.1812796E+03  0.7818608E-02  0.1168655E+00
         21   -1    0    0  501  502  0.00000000000E+00  0.00000000000E+00  0.11452863117E+03  0.11452863117E+03  0.00000000000E+00 0. -1.
         21   -1    0    0  502  503 -0.00000000000E+00 -0.00000000000E+00 -0.33452739817E+03  0.33452739817E+03  0.00000000000E+00 0. -1.
         -6    2    1    2    0  503 -0.47765119685E+02 -0.19251041032E+02 -0.16416913109E+02  0.18202147410E+03  0.17381079586E+03 0.  0.
        -24    2    3    3    0    0 -0.19611167906E+02 -0.52137270674E+02  0.47711626251E+02  0.10450561339E+03  0.74445490466E+02 0.  0.
          6    2    1    2  501    0  0.47765119685E+02  0.19251041032E+02 -0.20358185389E+03  0.26703455525E+03  0.16495385180E+03 0.  0.
         24    2    5    5    0    0 -0.17679411715E+02  0.33642222694E+02 -0.54992168923E+02  0.10396684760E+03  0.79627922304E+02 0.  0.
          5    1    5    5  501    0  0.65444531401E+02 -0.14391181662E+02 -0.14858968497E+03  0.16306770765E+03  0.47000000000E+01 0. -1.
        -11    1    6    6    0    0  0.11553869767E+02  0.11413435075E+02  0.16775250490E+02  0.23348820866E+02  0.00000000000E+00 0.  1.
         12    1    6    6    0    0 -0.29233281483E+02  0.22228787620E+02 -0.71767419413E+02  0.80618026734E+02  0.00000000000E+00 0. -1.
         -5    1    3    3    0  503 -0.28153951779E+02  0.32886229642E+02 -0.64128539359E+02  0.77515860707E+02  0.47000000000E+01 0.  1.
         13    1    4    4    0    0 -0.33489275115E+01 -0.69133327241E+02  0.38825337761E+02  0.79360185882E+02  0.00000000000E+00 0. -1.
        -14    1    4    4    0    0 -0.16262240395E+02  0.16996056567E+02  0.88862884895E+01  0.25145427509E+02  0.00000000000E+00 0.  1.
</event>
<event>
12    1  0.8488291E-002  0.1828858E+03  0.7818608E-02  0.1165164E+00
         21   -1    0    0  501  502  0.00000000000E+00  0.00000000000E+00  0.62141184089E+03  0.62141184089E+03  0.00000000000E+00 0.  1.
         21   -1    0    0  502  503 -0.00000000000E+00 -0.00000000000E+00 -0.10489735803E+03  0.10489735803E+03  0.00000000000E+00 0.  1.
         -6    2    1    2    0  503  0.53674173925E+02 -0.28336702971E+02  0.42827141361E+01  0.18240791316E+03  0.17196051716E+03 0.  0.
        -24    2    3    3    0    0 -0.33792984420E+02 -0.26947917546E+02 -0.13791794168E+02  0.92958428171E+02  0.81135070874E+02 0.  0.
          6    2    1    2  501    0 -0.53674173925E+02  0.28336702971E+02  0.51223176873E+03  0.54390128577E+03  0.17252054396E+03 0.  0.
         24    2    5    5    0    0 -0.70842138750E+02  0.74950633944E+02  0.32475996571E+03  0.34990292365E+03  0.79541275471E+02 0.  0.
          5    1    5    5  501    0  0.17167964825E+02 -0.46613930973E+02  0.18747180302E+03  0.19399836212E+03  0.47000000000E+01 0. -1.
        -11    1    6    6    0    0 -0.68853110843E+02  0.15267272409E+02  0.17616613371E+03  0.18975865499E+03  0.00000000000E+00 0.  1.
         12    1    6    6    0    0 -0.19890279070E+01  0.59683361535E+02  0.14859383200E+03  0.16014426866E+03  0.00000000000E+00 0. -1.
         -5    1    3    3    0  503  0.87467158345E+02 -0.13887854246E+01  0.18074508304E+02  0.89449484986E+02  0.47000000000E+01 0.  1.
         13    1    4    4    0    0 -0.35135100206E+02 -0.24599297649E+02 -0.44690090938E+02  0.61941948140E+02  0.00000000000E+00 0. -1.
        -14    1    4    4    0    0  0.13421157857E+01 -0.23486198975E+01  0.30898296771E+02  0.31016480032E+02  0.00000000000E+00 0.  1.
</event>
<event>
12    1  0.8488291E-002  0.2493338E+03  0.7818608E-02  0.1113818E+00
         21   -1    0    0  503  502  0.00000000000E+00  0.00000000000E+00  0.13187744490E+04  0.13187744490E+04  0.00000000000E+00 0. -1.
         21   -1    0    0  501  503 -0.00000000000E+00 -0.00000000000E+00 -0.58226722413E+02  0.58226722413E+02  0.00000000000E+00 0.  1.
          6    2    1    2  501    0  0.17799800353E+03 -0.22060419151E+02  0.32778573345E+03  0.41148976717E+03  0.17236702144E+03 0.  0.
         24    2    3    3    0    0  0.90050926879E+02  0.16179077606E+02  0.27742173802E+03  0.30306666336E+03  0.80719574644E+02 0.  0.
         -6    2    1    2    0  502 -0.17799800353E+03  0.22060419151E+02  0.93276199313E+03  0.96551140423E+03  0.17319753035E+03 0.  0.
        -24    2    5    5    0    0 -0.10524938454E+03  0.81388955987E+02  0.59569258872E+03  0.61558268258E+03  0.79942377573E+02 0.  0.
          5    1    3    3  501    0  0.87947076654E+02 -0.38239496757E+02  0.50363995426E+02  0.10842310381E+03  0.47000000000E+01 0. -1.
        -11    1    4    4    0    0  0.10403505680E+03  0.22259831667E+02  0.24986963302E+03  0.27157618942E+03  0.00000000000E+00 0.  1.
         12    1    4    4    0    0 -0.13984129922E+02 -0.60807540617E+01  0.27552104997E+02  0.31490473947E+02  0.00000000000E+00 0. -1.
         -5    1    5    5    0  502 -0.72748618991E+02 -0.59328536836E+02  0.33706940441E+03  0.34992872165E+03  0.47000000000E+01 0.  1.
         11    1    6    6    0    0 -0.11498447614E+03  0.59751651889E+02  0.46328992387E+03  0.48107093367E+03  0.00000000000E+00 0. -1.
        -12    1    6    6    0    0  0.97350915960E+01  0.21637304098E+02  0.13240266484E+03  0.13451174891E+03  0.00000000000E+00 0.  1.
</event>
<event>
12    1  0.8488291E-002  0.2661505E+03  0.7818608E-02  0.1103589E+00
         21   -1    0    0  503  502  0.00000000000E+00  0.00000000000E+00  0.45780114792E+03  0.45780114792E+03  0.00000000000E+00 0. -1.
         21   -1    0    0  501  503 -0.00000000000E+00 -0.00000000000E+00 -0.15681629302E+03  0.15681629302E+03  0.00000000000E+00 0.  1.
          6    2    1    2  501    0 -0.73341633547E+01  0.20323677353E+03  0.11241441703E+03  0.28891713124E+03  0.17168905468E+03 0.  0.
         24    2    3    3    0    0 -0.60072556510E+02  0.13166572839E+03  0.30835857422E+02  0.16816571715E+03  0.79901703635E+02 0.  0.
         -6    2    1    2    0  502  0.73341633547E+01 -0.20323677353E+03  0.18857043787E+03  0.32570030970E+03  0.17077150123E+03 0.  0.
        -24    2    5    5    0    0  0.42410777231E+01 -0.20841465996E+03  0.20801676129E+03  0.30480468382E+03  0.78614661932E+02 0.  0.
          5    1    3    3  501    0  0.52738393155E+02  0.71571045149E+02  0.81578559612E+02  0.12075141409E+03  0.47000000000E+01 0. -1.
        -13    1    4    4    0    0  0.42461140116E+01  0.19633774804E+02 -0.20918703440E+02  0.29001840474E+02  0.00000000000E+00 0.  1.
         14    1    4    4    0    0 -0.64318670522E+02  0.11203195358E+03  0.51754560861E+02  0.13916387667E+03  0.00000000000E+00 0. -1.
         -5    1    5    5    0  502  0.30930856316E+01  0.51778864284E+01 -0.19446323419E+02  0.20895625884E+02  0.47000000000E+01 0.  1.
         13    1    6    6    0    0  0.36373382922E+02 -0.72324772984E+02  0.96424826938E+02  0.12590330823E+03  0.00000000000E+00 0. -1.
        -14    1    6    6    0    0 -0.32132305199E+02 -0.13608988698E+03  0.11159193435E+03  0.17890137559E+03  0.00000000000E+00 0.  1.
</event>
<event>
12    1  0.8488291E-002  0.1732493E+03  0.7818608E-02  0.1175473E+00
         21   -1    0    0  501  502  0.00000000000E+00  0.00000000000E+00  0.25649967728E+03  0.25649967728E+03  0.00000000000E+00 0. -1.
         21   -1    0    0  502  503 -0.00000000000E+00 -0.00000000000E+00 -0.43487407744E+03  0.43487407744E+03  0.00000000000E+00 0. -1.
         -6    2    1    2    0  503  0.22902292556E+02 -0.36732812682E+01 -0.38564003478E+03  0.42123607155E+03  0.16787966986E+03 0.  0.
        -24    2    3    3    0    0  0.40566434834E+02  0.30351879289E+02 -0.11769523389E+03  0.15052175757E+03  0.78979486002E+02 0.  0.
          6    2    1    2  501    0 -0.22902292556E+02  0.36732812682E+01  0.20726563463E+03  0.27013768316E+03  0.17168959365E+03 0.  0.
         24    2    5    5    0    0  0.40057290792E+02  0.17809902114E+02  0.17487250826E+03  0.19778329269E+03  0.81339151497E+02 0.  0.
          5    1    5    5  501    0 -0.62959583348E+02 -0.14136620846E+02  0.32393126370E+02  0.72354390470E+02  0.47000000000E+01 0. -1.
        -13    1    6    6    0    0  0.53399892197E+02 -0.40952341846E+00  0.58370484177E+02  0.79112765209E+02  0.00000000000E+00 0.  1.
         14    1    6    6    0    0 -0.13342601404E+02  0.18219425532E+02  0.11650202408E+03  0.11867052749E+03  0.00000000000E+00 0. -1.
         -5    1    3    3    0  503 -0.17664142279E+02 -0.34025160557E+02 -0.26794480089E+03  0.27071431399E+03  0.47000000000E+01 0.  1.
         13    1    4    4    0    0  0.56227976578E+02  0.45173763912E+02 -0.94010663173E+02  0.11849159922E+03  0.00000000000E+00 0. -1.
        -14    1    4    4    0    0 -0.15661541744E+02 -0.14821884623E+02 -0.23684570717E+02  0.32030158345E+02  0.00000000000E+00 0.  1.
</event>
<event>
12    1  0.8488291E-002  0.3387989E+03  0.7818608E-02  0.1067471E+00
         21   -1    0    0  501  502  0.00000000000E+00  0.00000000000E+00  0.21805194613E+03  0.21805194613E+03  0.00000000000E+00 0.  1.
         21   -1    0    0  502  503 -0.00000000000E+00 -0.00000000000E+00 -0.53909343804E+03  0.53909343804E+03  0.00000000000E+00 0. -1.
         -6    2    1    2    0  503 -0.18131883189E+03 -0.22770977052E+03 -0.22410225841E+03  0.40620993241E+03  0.17336789950E+03 0.  0.
        -24    2    3    3    0    0 -0.20613054758E+03 -0.21379296630E+03 -0.19330229008E+03  0.36401956948E+03  0.83350084134E+02 0.  0.
          6    2    1    2  501    0  0.18131883189E+03  0.22770977052E+03 -0.96939233501E+02  0.35093545176E+03  0.17038256343E+03 0.  0.
         24    2    5    5    0    0  0.37593151432E+02  0.40493232721E+02 -0.61205990636E+02  0.11217603750E+03  0.76054869466E+02 0.  0.
          5    1    5    5  501    0  0.14372568046E+03  0.18721653780E+03 -0.35733242865E+02  0.23875941425E+03  0.47000000000E+01 0. -1.
        -13    1    6    6    0    0 -0.16163570924E+02  0.30453295322E+02 -0.70071358920E+01  0.35181872810E+02  0.00000000000E+00 0.  1.
         14    1    6    6    0    0  0.53756722356E+02  0.10039937400E+02 -0.54198854744E+02  0.76994164694E+02  0.00000000000E+00 0. -1.
         -5    1    3    3    0  503  0.24811715692E+02 -0.13916804215E+02 -0.30799968332E+02  0.42190362932E+02  0.47000000000E+01 0.  1.
         13    1    4    4    0    0 -0.45028556886E+02 -0.31356605901E+02 -0.76271710927E+02  0.93958403332E+02  0.00000000000E+00 0. -1.
        -14    1    4    4    0    0 -0.16110199070E+03 -0.18243636040E+03 -0.11703057915E+03  0.27006116615E+03  0.00000000000E+00 0.  1.
</event>
<event>
12    1  0.8488291E-002  0.1830917E+03  0.7818608E-02  0.1164987E+00
         21   -1    0    0  503  502  0.00000000000E+00  0.00000000000E+00  0.21967493603E+03  0.21967493603E+03  0.00000000000E+00 0.  1.
         21   -1    0    0  501  503 -0.00000000000E+00 -0.00000000000E+00 -0.32214083642E+03  0.32214083642E+03  0.00000000000E+00 0.  1.
          6    2    1    2  501    0  0.19865867457E+02  0.58556558001E+02 -0.24801617589E+03  0.30791954156E+03  0.17169419734E+03 0.  0.
         24    2    3    3    0    0 -0.46248732065E+02  0.51638502977E+02 -0.11137567282E+03  0.15589415935E+03  0.84219761449E+02 0.  0.
         -6    2    1    2    0  502 -0.19865867457E+02 -0.58556558001E+02  0.14555027550E+03  0.23389623089E+03  0.17233409689E+03 0.  0.
        -24    2    5    5    0    0 -0.25631415377E+02 -0.14468554551E+02  0.75930888280E+01  0.88874615444E+02  0.83514871415E+02 0.  0.
          5    1    3    3  501    0  0.66114599522E+02  0.69180550246E+01 -0.13664050307E+03  0.15202538221E+03  0.47000000000E+01 0. -1.
        -13    1    4    4    0    0  0.10649338708E+02  0.22922450453E+02 -0.81830703583E+02  0.85645263725E+02  0.00000000000E+00 0.  1.
         14    1    4    4    0    0 -0.56898070772E+02  0.28716052524E+02 -0.29544969232E+02  0.70248895629E+02  0.00000000000E+00 0. -1.
         -5    1    5    5    0  502  0.57655479199E+01 -0.44088003451E+02  0.13795718667E+03  0.14502161544E+03  0.47000000000E+01 0.  1.
         11    1    6    6    0    0  0.87283724927E+01 -0.42684087546E+02  0.85765171628E+01  0.44403518584E+02  0.00000000000E+00 0. -1.
        -12    1    6    6    0    0 -0.34359787869E+02  0.28215532996E+02 -0.98342833480E+00  0.44471096860E+02  0.00000000000E+00 0.  1.
</event>
<event>
12    1  0.8488291E-002  0.1810755E+03  0.7818608E-02  0.1166934E+00
         21   -1    0    0  503  502  0.00000000000E+00  0.00000000000E+00  0.68034439568E+03  0.68034439568E+03  0.00000000000E+00 0. -1.
         21   -1    0    0  501  503 -0.00000000000E+00 -0.00000000000E+00 -0.59297909696E+02  0.59297909696E+02  0.00000000000E+00 0. -1.
          6    2    1    2  501    0  0.22461741698E+02 -0.49400436627E+02  0.14964490572E+03  0.23490832990E+03  0.17275240279E+03 0.  0.
         24    2    3    3    0    0 -0.23643561707E+02 -0.47544033154E+02  0.15999002907E+03  0.18738721025E+03  0.81839501856E+02 0.  0.
         -6    2    1    2    0  502 -0.22461741698E+02  0.49400436627E+02  0.47140158026E+03  0.50473397547E+03  0.17202326339E+03 0.  0.
        -24    2    5    5    0    0  0.35526849139E+01 -0.11066164638E+02  0.10649498185E+03  0.13390803810E+03  0.80343636591E+02 0.  0.
          5    1    3    3  501    0  0.46105303405E+02 -0.18564034733E+01 -0.10345123346E+02  0.47521119652E+02  0.47000000000E+01 0. -1.
        -13    1    4    4    0    0 -0.52839089006E+02 -0.39128164842E+02  0.93715380087E+02  0.11447949631E+03  0.00000000000E+00 0.  1.
         14    1    4    4    0    0  0.29195527299E+02 -0.84158683115E+01  0.66274648983E+02  0.72907713937E+02  0.00000000000E+00 0. -1.
         -5    1    5    5    0  502 -0.26014426611E+02  0.60466601265E+02  0.36490659841E+03  0.37082593737E+03  0.47000000000E+01 0.  1.
         11    1    6    6    0    0 -0.29207998706E+02  0.17163483546E+02  0.26648714044E+02  0.43102741398E+02  0.00000000000E+00 0. -1.
        -12    1    6    6    0    0  0.32760683620E+02 -0.28229648184E+02  0.79846267802E+02  0.90805296706E+02  0.00000000000E+00 0.  1.
</event>
<event>
12    1  0.8488291E-002  0.1812106E+03  0.7818608E-02  0.1167638E+00
         21   -1    0    0  501  502  0.00000000000E+00  0.00000000000E+00  0.13860324610E+03  0.13860324610E+03  0.00000000000E+00 0. -1.
         21   -1    0    0  502  503 -0.00000000000E+00 -0.00000000000E+00 -0.28976154088E+03  0.28976154088E+03  0.00000000000E+00 0. -1.
         -6    2    1    2    0  503  0.15865398977E+02  0.21152242487E+02 -0.17087280623E+03  0.24608496914E+03  0.17510330631E+03 0.  0.
        -24    2    3    3    0    0 -0.47827284446E+02  0.33509389602E+02 -0.52927294846E+02  0.11139016352E+03  0.78715574441E+02 0.  0.
          6    2    1    2  501    0 -0.15865398977E+02 -0.21152242487E+02  0.19714511454E+02  0.18227981784E+03  0.17927114041E+03 0.  0.
         24    2    5    5    0    0 -0.43532697959E+02  0.39169258623E+02 -0.23383164267E+02  0.10301026138E+03  0.81455601189E+02 0.  0.
          5    1    5    5  501    0  0.27667298982E+02 -0.60321501110E+02  0.43097675721E+02  0.79269556462E+02  0.47000000000E+01 0. -1.
        -13    1    6    6    0    0  0.21533367846E+02  0.10233472890E+02  0.80603701025E+01  0.25167031299E+02  0.00000000000E+00 0.  1.
         14    1    6    6    0    0 -0.65066065805E+02  0.28935785733E+02 -0.31443534370E+02  0.77843230078E+02  0.00000000000E+00 0. -1.
         -5    1    3    3    0  503  0.63692683423E+02 -0.12357147115E+02 -0.11794551139E+03  0.13469480563E+03  0.47000000000E+01 0.  1.
         11    1    4    4    0    0 -0.18317605759E+01  0.41036002655E+02 -0.49974116128E+02  0.64689420646E+02  0.00000000000E+00 0. -1.
        -12    1    4    4    0    0 -0.45995523871E+02 -0.75266130536E+01 -0.29531787189E+01  0.46700742871E+02  0.00000000000E+00 0.  1.
</event>
<event>
12    1  0.8488291E-002  0.1784556E+03  0.7818608E-02  0.1170284E+00
         21   -1    0    0  501  502  0.00000000000E+00  0.00000000000E+00  0.25193159081E+03  0.25193159081E+03  0.00000000000E+00 0.  1.
         21   -1    0    0  502  503 -0.00000000000E+00 -0.00000000000E+00 -0.21704041776E+03  0.21704041776E+03  0.00000000000E+00 0.  1.
         -6    2    1    2    0  503 -0.27681150350E+02  0.89840823799E+01 -0.13627088132E+03  0.22453539310E+03  0.17606654946E+03 0.  0.
        -24    2    3    3    0    0 -0.17700707333E+02 -0.63089552789E+02 -0.97750496096E+02  0.14207250322E+03  0.79597926943E+02 0.  0.
          6    2    1    2  501    0  0.27681150350E+02 -0.89840823799E+01  0.17116205437E+03  0.24443661548E+03  0.17206350662E+03 0.  0.
         24    2    5    5    0    0  0.36752792793E+02 -0.64064540274E+02  0.72416003732E+02  0.13090677775E+03  0.80233869197E+02 0.  0.
          5    1    5    5  501    0 -0.90716424430E+01  0.55080457895E+02  0.98746050633E+02  0.11352983773E+03  0.47000000000E+01 0. -1.
        -13    1    6    6    0    0 -0.24449965863E+02 -0.25986012633E+02  0.14799151254E+02  0.38627562194E+02  0.00000000000E+00 0.  1.
         14    1    6    6    0    0  0.61202758656E+02 -0.38078527642E+02  0.57616852478E+02  0.92279215558E+02  0.00000000000E+00 0. -1.
         -5    1    3    3    0  503 -0.99804430168E+01  0.72073635169E+02 -0.38520385221E+02  0.82462889877E+02  0.47000000000E+01 0.  1.
         11    1    4    4    0    0  0.24394769070E+01 -0.13682333209E+02  0.13069197905E+02  0.19077767781E+02  0.00000000000E+00 0. -1.
        -12    1    4    4    0    0 -0.20140184240E+02 -0.49407219580E+02 -0.11081969400E+03  0.12299473544E+03  0.00000000000E+00 0.  1.
</event>
<event>
12    1  0.8488291E-002  0.1719560E+03  0.7818608E-02  0.1177564E+00
         21   -1    0    0  501  502  0.00000000000E+00  0.00000000000E+00  0.21024675873E+03  0.21024675873E+03  0.00000000000E+00 0.  1.
         21   -1    0    0  502  503 -0.00000000000E+00 -0.00000000000E+00 -0.22878902926E+03  0.22878902926E+03  0.00000000000E+00 0.  1.
         -6    2    1    2    0  503  0.10793838684E+02 -0.12579605444E+02 -0.14971484122E+03  0.22799869357E+03  0.17115524287E+03 0.  0.
        -24    2    3    3    0    0  0.74699356917E+02 -0.18358711358E+02 -0.92845055438E+02  0.14212916545E+03  0.75255957536E+02 0.  0.
          6    2    1    2  501    0 -0.10793838684E+02  0.12579605444E+02  0.13117257069E+03  0.21103709442E+03  0.16448604346E+03 0.  0.
         24    2    5    5    0    0 -0.14052576492E+02  0.28174542163E+02  0.15693552635E+03  0.18038352518E+03  0.83175579310E+02 0.  0.
          5    1    5    5  501    0  0.32587378087E+01 -0.15594936719E+02 -0.25762955656E+02  0.30653569246E+02  0.47000000000E+01 0. -1.
        -11    1    6    6    0    0 -0.42765598237E+02 -0.25868440689E+01  0.52329795474E+02  0.67631321509E+02  0.00000000000E+00 0.  1.
         12    1    6    6    0    0  0.28713021744E+02  0.30761386232E+02  0.10460573087E+03  0.11275220367E+03  0.00000000000E+00 0. -1.
         -5    1    3    3    0  503 -0.63905518233E+02  0.57791059147E+01 -0.56869785779E+02  0.85869528124E+02  0.47000000000E+01 0.  1.
         11    1    4    4    0    0  0.47683994182E+02  0.23422076291E+02 -0.26979980655E+02  0.59584195179E+02  0.00000000000E+00 0. -1.
        -12    1    4    4    0    0  0.27015362734E+02 -0.41780787649E+02 -0.65865074783E+02  0.82544970267E+02  0.00000000000E+00 0.  1.
</event>
<event>
12    1  0.8488291E-002  0.1759434E+03  0.7818608E-02  0.1172820E+00
         21   -1    0    0  503  502  0.00000000000E+00  0.00000000000E+00  0.13469063148E+03  0.13469063148E+03  0.00000000000E+00 0.  1.
         21   -1    0    0  501  503 -0.00000000000E+00 -0.00000000000E+00 -0.26287575855E+03  0.26287575855E+03  0.00000000000E+00 0.  1.
          6    2    1    2  501    0 -0.56327160704E+01  0.24882520436E+02 -0.13937414363E+03  0.22126754706E+03  0.16995089925E+03 0.  0.
         24    2    3    3    0    0  0.45217591800E+02 -0.25086546051E+02 -0.54965591864E+02  0.11068022850E+03  0.80962530161E+02 0.  0.
         -6    2    1    2    0  502  0.56327160704E+01 -0.24882520436E+02  0.11189016561E+02  0.17629884296E+03  0.17408394706E+03 0.  0.
        -24    2    5    5    0    0 -0.34297769844E+02  0.37878418863E+02  0.29671229445E+02  0.99506516524E+02  0.80062808733E+02 0.  0.
          5    1    3    3  501    0 -0.50850307870E+02  0.49969066487E+02 -0.84408551771E+02  0.11058731857E+03  0.47000000000E+01 0. -1.
        -13    1    4    4    0    0  0.16659937462E+02  0.29576128028E+02 -0.24702583035E+02  0.41982359081E+02  0.00000000000E+00 0.  1.
         14    1    4    4    0    0  0.28557654338E+02 -0.54662674080E+02 -0.30263008829E+02  0.68697869415E+02  0.00000000000E+00 0. -1.
         -5    1    5    5    0  502  0.39930485915E+02 -0.62760939299E+02 -0.18482212884E+02  0.76792326441E+02  0.47000000000E+01 0.  1.
         11    1    6    6    0    0 -0.11980253277E+02  0.37319321134E+02  0.53845908791E+02  0.66600601289E+02  0.00000000000E+00 0. -1.
        -12    1    6    6    0    0 -0.22317516567E+02  0.55909772828E+00 -0.24174679346E+02  0.32905915235E+02  0.00000000000E+00 0.  1.
</event>
<event>
12    1  0.8488291E-002  0.2120749E+03  0.7818608E-02  0.1139954E+00
         21   -1    0    0  501  502  0.00000000000E+00  0.00000000000E+00  0.77633492000E+02  0.77633492000E+02  0.00000000000E+00 0. -1.
         21   -1    0    0  502  503 -0.00000000000E+00 -0.00000000000E+00 -0.58539109171E+03  0.58539109171E+03  0.00000000000E+00 0.  1.
         -6    2    1    2    0  503  0.26970567486E+02  0.12096364673E+03 -0.28845112611E+03  0.35802208617E+03  0.17209342431E+03 0.  0.
        -24    2    3    3    0    0  0.92891612250E+01  0.55598083758E+02 -0.47708777547E+02  0.10789360450E+03  0.78660453873E+02 0.  0.
          6    2    1    2  501    0 -0.26970567486E+02 -0.12096364673E+03 -0.21930647360E+03  0.30500249754E+03  0.17196388807E+03 0.  0.
         24    2    5    5    0    0 -0.10330169701E+02 -0.13183043945E+03 -0.96816190870E+02  0.18082138228E+03  0.76400394661E+02 0.  0.
          5    1    5    5  501    0 -0.16640397786E+02  0.10866792718E+02 -0.12249028273E+03  0.12418111525E+03  0.47000000000E+01 0. -1.
        -13    1    6    6    0    0 -0.35981566379E+02 -0.48807701260E+02 -0.63381245917E+02  0.87715717835E+02  0.00000000000E+00 0.  1.
         14    1    6    6    0    0  0.25651396678E+02 -0.83022738193E+02 -0.33434944953E+02  0.93105664449E+02  0.00000000000E+00 0. -1.
         -5    1    3    3    0  503  0.17681406261E+02  0.65365562977E+02 -0.24074234856E+03  0.25012848167E+03  0.47000000000E+01 0.  1.
         11    1    4    4    0    0  0.14035019154E+02 -0.15974351790E+02  0.83690577905E+00  0.21280556597E+02  0.00000000000E+00 0. -1.
        -12    1    4    4    0    0 -0.47458579289E+01  0.71572435549E+02 -0.48545683326E+02  0.86613047905E+02  0.00000000000E+00 0.  1.
</event>
<event>
12    1  0.8488291E-002  0.2047764E+03  0.7818608E-02  0.1146849E+00
         21   -1    0    0  501  502  0.00000000000E+00  0.00000000000E+00  0.30922599130E+03  0.30922599130E+03  0.00000000000E+00 0. -1.
         21   -1    0    0  502  503 -0.00000000000E+00 -0.00000000000E+00 -0.17469448247E+03  0.17469448247E+03  0.00000000000E+00 0.  1.
         -6    2    1    2    0  503 -0.11448400042E+03  0.34624991265E+01  0.18595955636E+03  0.27278494369E+03  0.16343834816E+03 0.  0.
        -24    2    3    3    0    0 -0.45196167179E+02 -0.19106325310E+02  0.17302740075E+03  0.19862642213E+03  0.84298451716E+02 0.  0.
          6    2    1    2  501    0  0.11448400042E+03 -0.34624991265E+01 -0.51428047531E+02  0.21113553009E+03  0.16974920542E+03 0.  0.
         24    2    5    5    0    0 -0.71925687778E+01 -0.87725390942E+01 -0.55800063793E+02  0.89174107739E+02  0.68627136645E+02 0.  0.
          5    1    5    5  501    0  0.12167656919E+03  0.53100399678E+01  0.43720162616E+01  0.12196142235E+03  0.47000000000E+01 0. -1.
        -13    1    6    6    0    0 -0.34054012141E+02 -0.28550589415E+01 -0.97538257174E+01  0.35538207898E+02  0.00000000000E+00 0.  1.
         14    1    6    6    0    0  0.26861443363E+02 -0.59174801528E+01 -0.46046238075E+02  0.53635899841E+02  0.00000000000E+00 0. -1.
         -5    1    3    3    0  503 -0.69287833236E+02  0.22568824437E+02  0.12932155605E+02  0.74158521558E+02  0.47000000000E+01 0.  1.
         13    1    4    4    0    0  0.24453574518E+02 -0.10261445292E+02  0.36657231679E+02  0.45244084703E+02  0.00000000000E+00 0. -1.
        -14    1    4    4    0    0 -0.69649741697E+02 -0.88448800183E+01  0.13637016907E+03  0.15338233742E+03  0.00000000000E+00 0.  1.
</event>
<event>
12    1  0.8488291E-002  0.2706137E+03  0.7818608E-02  0.1100995E+00
         21   -1    0    0  503  502  0.00000000000E+00  0.00000000000E+00  0.46903326043E+03  0.46903326043E+03  0.00000000000E+00 0.  1.
         21   -1    0    0  501  503 -0.00000000000E+00 -0.00000000000E+00 -0.31381159057E+03  0.31381159057E+03  0.00000000000E+00 0. -1.
          6    2    1    2  501    0 -0.16485696180E+03  0.12751669963E+03 -0.20011543706E+03  0.33619481598E+03  0.17187914244E+03 0.  0.
         24    2    3    3    0    0 -0.18931222681E+03  0.13491280932E+03 -0.18727626771E+03  0.30721729547E+03  0.72591189905E+02 0.  0.
         -6    2    1    2    0  502  0.16485696180E+03 -0.12751669963E+03  0.35533710692E+03  0.44665003501E+03  0.17260784363E+03 0.  0.
        -24    2    5    5    0    0  0.17648617172E+03 -0.89815522854E+02  0.22519917754E+03  0.31058171424E+03  0.80821622752E+02 0.  0.
          5    1    3    3  501    0  0.24455265011E+02 -0.73961096910E+01 -0.12839169357E+02  0.28977520513E+02  0.47000000000E+01 0. -1.
        -13    1    4    4    0    0  0.53577001682E+01  0.76572744002E+01 -0.15445249507E+02  0.18052549257E+02  0.00000000000E+00 0.  1.
         14    1    4    4    0    0 -0.19466992698E+03  0.12725553492E+03 -0.17183101820E+03  0.28916474621E+03  0.00000000000E+00 0. -1.
         -5    1    5    5    0  502 -0.11629209915E+02 -0.37701176774E+02  0.13013792938E+03  0.13606832077E+03  0.47000000000E+01 0.  1.
         11    1    6    6    0    0  0.87786382482E+01 -0.26377727470E+02  0.79893498191E+01  0.28925398986E+02  0.00000000000E+00 0. -1.
        -12    1    6    6    0    0  0.16770753347E+03 -0.63437795384E+02  0.21720982772E+03  0.28165631526E+03  0.00000000000E+00 0.  1.
</event>
<event>
12    1  0.8488291E-002  0.1879275E+03  0.7818608E-02  0.1160608E+00
         21   -1    0    0  503  502  0.00000000000E+00  0.00000000000E+00  0.31807132641E+03  0.31807132641E+03  0.00000000000E+00 0.  1.
         21   -1    0    0  501  503 -0.00000000000E+00 -0.00000000000E+00 -0.11095778777E+03  0.11095778777E+03  0.00000000000E+00 0.  1.
          6    2    1    2  501    0 -0.75214027387E+02 -0.33132345408E+01  0.11905982449E+03  0.22149552141E+03  0.17092950816E+03 0.  0.
         24    2    3    3    0    0 -0.25160395591E+02  0.12757637938E+02 -0.54067279142E+01  0.86300655887E+02  0.81380388717E+02 0.  0.
         -6    2    1    2    0  502  0.75214027387E+02  0.33132345408E+01  0.88053714160E+02  0.20753359276E+03  0.17218771184E+03 0.  0.
        -24    2    5    5    0    0  0.25226748344E+02 -0.57009833067E+02  0.19596164270E+02  0.10338885363E+03  0.80117011322E+02 0.  0.
          5    1    3    3  501    0 -0.50053631795E+02 -0.16070872479E+02  0.12446655240E+03  0.13519486553E+03  0.47000000000E+01 0. -1.
        -11    1    4    4    0    0 -0.38230668142E+02  0.10783725061E+02  0.29170600077E+02  0.49282822785E+02  0.00000000000E+00 0.  1.
         12    1    4    4    0    0  0.13070272551E+02  0.19739128775E+01 -0.34577327991E+02  0.37017833103E+02  0.00000000000E+00 0. -1.
         -5    1    5    5    0  502  0.49987279042E+02  0.60323067608E+02  0.68457549890E+02  0.10414473913E+03  0.47000000000E+01 0.  1.
         11    1    6    6    0    0  0.22225833563E+01  0.20237799652E+02  0.83608559180E+01  0.22009368987E+02  0.00000000000E+00 0. -1.
        -12    1    6    6    0    0  0.23004164988E+02 -0.77247632719E+02  0.11235308352E+02  0.81379484646E+02  0.00000000000E+00 0.  1.
</event>
<event>
12    1  0.8488291E-002  0.2339130E+03  0.7818608E-02  0.1123933E+00
         21   -1    0    0  501  502  0.00000000000E+00  0.00000000000E+00  0.30347924860E+03  0.30347924860E+03  0.00000000000E+00 0.  1.
         21   -1    0    0  502  503 -0.00000000000E+00 -0.00000000000E+00 -0.19791579112E+03  0.19791579112E+03  0.00000000000E+00 0.  1.
         -6    2    1    2    0  503 -0.15514116198E+03 -0.33742504510E+02 -0.22198343366E+02  0.23486479505E+03  0.17164314363E+03 0.  0.
        -24    2    3    3    0    0 -0.77625705591E+02 -0.82613473389E+02 -0.33235879200E+02  0.14244761712E+03  0.79598767601E+02 0.  0.
          6    2    1    2  501    0  0.15514116198E+03  0.33742504510E+02  0.12776180084E+03  0.26653024467E+03  0.17177880201E+03 0.  0.
         24    2    5    5    0    0  0.24973503423E+02  0.53441214500E+02  0.36382153037E+02  0.10620560981E+03  0.80475656044E+02 0.  0.
          5    1    5    5  501    0  0.13016765856E+03 -0.19698709990E+02  0.91379647804E+02  0.16032463486E+03  0.47000000000E+01 0. -1.
        -11    1    6    6    0    0  0.90177200850E+01 -0.20716751888E+02  0.15918416939E+02  0.27638724322E+02  0.00000000000E+00 0.  1.
         12    1    6    6    0    0  0.15955783338E+02  0.74157966388E+02  0.20463736098E+02  0.78566885491E+02  0.00000000000E+00 0. -1.
         -5    1    3    3    0  503 -0.77515456393E+02  0.48870968880E+02  0.11037535834E+02  0.92417177929E+02  0.47000000000E+01 0.  1.
         11    1    4    4    0    0 -0.87244669817E+00 -0.18152439410E+01  0.19185939793E+02  0.19291359712E+02  0.00000000000E+00 0. -1.
        -12    1    4    4    0    0 -0.76753258892E+02 -0.80798229448E+02 -0.52421818993E+02  0.12315625741E+03  0.00000000000E+00 0.  1.
</event>
<event>
12    1  0.8488291E-002  0.2021100E+03  0.7818608E-02  0.1148008E+00
         21   -1    0    0  503  502  0.00000000000E+00  0.00000000000E+00  0.16110907064E+04  0.16110907064E+04  0.00000000000E+00 0. -1.
         21   -1    0    0  501  503 -0.00000000000E+00 -0.00000000000E+00 -0.31296334300E+02  0.31296334300E+02  0.00000000000E+00 0. -1.
          6    2    1    2  501    0 -0.90550121369E+02 -0.28069354142E+02  0.43169625908E+03  0.47666562181E+03  0.17849717584E+03 0.  0.
         24    2    3    3    0    0 -0.73676716306E+02 -0.23031955055E+02  0.44214683084E+03  0.45565629916E+03  0.78550069752E+02 0.  0.
         -6    2    1    2    0  502  0.90550121369E+02  0.28069354142E+02  0.11480981130E+04  0.11657214189E+04  0.17829732537E+03 0.  0.
        -24    2    5    5    0    0  0.46622658798E+02  0.82416509635E+02  0.56952511002E+03  0.58292467467E+03  0.80474666983E+02 0.  0.
          5    1    3    3  501    0 -0.16873405063E+02 -0.50373990874E+01 -0.10450571760E+02  0.21009322647E+02  0.47000000000E+01 0. -1.
        -11    1    4    4    0    0 -0.62816121689E+02 -0.10863311189E+02  0.14910565336E+03  0.16216156307E+03  0.00000000000E+00 0.  1.
         12    1    4    4    0    0 -0.10860594617E+02 -0.12168643866E+02  0.29304117749E+03  0.29349473609E+03  0.00000000000E+00 0. -1.
         -5    1    5    5    0  502  0.43927462571E+02 -0.54347155493E+02  0.57857300301E+03  0.58279674423E+03  0.47000000000E+01 0.  1.
         13    1    6    6    0    0  0.34890328866E+00  0.37439029923E+02  0.39639445555E+03  0.39815872097E+03  0.00000000000E+00 0. -1.
        -14    1    6    6    0    0  0.46273755509E+02  0.44977479712E+02  0.17313065447E+03  0.18476595370E+03  0.00000000000E+00 0.  1.
</event>
<event>
12    1  0.8488291E-002  0.2382031E+03  0.7818608E-02  0.1121136E+00
         21   -1    0    0  503  502  0.00000000000E+00  0.00000000000E+00  0.12497219636E+03  0.12497219636E+03  0.00000000000E+00 0.  1.
         21   -1    0    0  501  503 -0.00000000000E+00 -0.00000000000E+00 -0.49942254155E+03  0.49942254155E+03  0.00000000000E+00 0. -1.
          6    2    1    2  501    0 -0.15708780785E+03  0.47762522046E+02 -0.28327253096E+03  0.37011354901E+03  0.17257715515E+03 0.  0.
         24    2    3    3    0    0 -0.38370253344E+02  0.74644128236E+02 -0.12951128524E+03  0.17394757545E+03  0.80253123166E+02 0.  0.
         -6    2    1    2    0  502  0.15708780785E+03 -0.47762522046E+02 -0.91177814239E+02  0.25428118890E+03  0.17142838544E+03 0.  0.
        -24    2    5    5    0    0  0.49604176707E+02  0.16913901496E+02 -0.83380795380E+02  0.12850895735E+03  0.82556287899E+02 0.  0.
          5    1    3    3  501    0 -0.11871755450E+03 -0.26881606190E+02 -0.15376124571E+03  0.19616597356E+03  0.47000000000E+01 0. -1.
        -11    1    4    4    0    0 -0.54718447377E+02  0.81651083549E+02 -0.10786278300E+03  0.14592939349E+03  0.00000000000E+00 0.  1.
         12    1    4    4    0    0  0.16348194033E+02 -0.70069553137E+01 -0.21648502243E+02  0.28018181959E+02  0.00000000000E+00 0. -1.
         -5    1    5    5    0  502  0.10748363114E+03 -0.64676423541E+02 -0.77970188597E+01  0.12577223155E+03  0.47000000000E+01 0.  1.
         13    1    6    6    0    0 -0.21083393430E+01 -0.26807444697E+02 -0.10085193069E+02  0.28719249733E+02  0.00000000000E+00 0. -1.
        -14    1    6    6    0    0  0.51712516050E+02  0.43721346193E+02 -0.73295602311E+02  0.99789707622E+02  0.00000000000E+00 0.  1.
</event>
<event>
12    1  0.8488291E-002  0.1789581E+03  0.7818608E-02  0.1169430E+00
         21   -1    0    0  503  502  0.00000000000E+00  0.00000000000E+00  0.58251552701E+03  0.58251552701E+03  0.00000000000E+00 0. -1.
         21   -1    0    0  501  503 -0.00000000000E+00 -0.00000000000E+00 -0.56156030544E+02  0.56156030544E+02  0.00000000000E+00 0. -1.
          6    2    1    2  501    0  0.37767307370E+01  0.49563940670E+02  0.32079222453E+03  0.36612083625E+03  0.16931026992E+03 0.  0.
         24    2    3    3    0    0 -0.55277627283E+01 -0.33480036619E+02  0.14142359223E+03  0.16818632178E+03  0.84466190758E+02 0.  0.
         -6    2    1    2    0  502 -0.37767307370E+01 -0.49563940670E+02  0.20556727194E+03  0.27255072131E+03  0.17191609723E+03 0.  0.
        -24    2    5    5    0    0 -0.21971470396E+02  0.20461364075E+02  0.17354877316E+03  0.19329249701E+03  0.79632906542E+02 0.  0.
          5    1    3    3  501    0  0.93044934654E+01  0.83043977289E+02  0.17936863231E+03  0.19793451447E+03  0.47000000000E+01 0. -1.
        -11    1    4    4    0    0 -0.17765468747E+02 -0.19765166783E+02  0.14668036932E+03  0.14906845556E+03  0.00000000000E+00 0.  1.
         12    1    4    4    0    0  0.12237706018E+02 -0.13714869836E+02 -0.52567770972E+01  0.19117866216E+02  0.00000000000E+00 0. -1.
         -5    1    5    5    0  502  0.18194739658E+02 -0.70025304745E+02  0.32018498780E+02  0.79258224305E+02  0.47000000000E+01 0.  1.
         13    1    6    6    0    0 -0.48674146484E+02  0.22137785517E+02  0.14307215141E+03  0.15273799329E+03  0.00000000000E+00 0. -1.
        -14    1    6    6    0    0  0.26702676088E+02 -0.16764214416E+01  0.30476621743E+02  0.40554503720E+02  0.00000000000E+00 0.  1.
</event>
<event>
12    1  0.8488291E-002  0.2756638E+03  0.7818608E-02  0.1100230E+00
         21   -1    0    0  503  502  0.00000000000E+00  0.00000000000E+00  0.28850691969E+03  0.28850691969E+03  0.00000000000E+00 0. -1.
         21   -1    0    0  501  503 -0.00000000000E+00 -0.00000000000E+00 -0.25087760549E+03  0.25087760549E+03  0.00000000000E+00 0. -1.
          6    2    1    2  501    0 -0.18726892371E+03 -0.58170265149E+02 -0.32161231202E+01  0.26071107440E+03  0.17177453632E+03 0.  0.
         24    2    3    3    0    0 -0.12338736391E+03 -0.10422857391E+03 -0.16718469891E+02  0.18066967975E+03  0.79208514407E+02 0.  0.
         -6    2    1    2    0  502  0.18726892371E+03  0.58170265149E+02  0.40845437323E+02  0.27867345079E+03  0.19374496869E+03 0.  0.
        -24    2    5    5    0    0  0.10769270931E+03  0.61969522971E+02 -0.51684083364E+02  0.15648257365E+03  0.79859939686E+02 0.  0.
          5    1    3    3  501    0 -0.63881559800E+02  0.46058308759E+02  0.13502346771E+02  0.80041394644E+02  0.47000000000E+01 0. -1.
        -11    1    4    4    0    0 -0.98501069274E+01 -0.52711632516E+02 -0.16103177953E+02  0.55989759325E+02  0.00000000000E+00 0.  1.
         12    1    4    4    0    0 -0.11353725698E+03 -0.51516941391E+02 -0.61529193752E+00  0.12467992043E+03  0.00000000000E+00 0. -1.
         -5    1    5    5    0  502  0.79576214396E+02 -0.37992578217E+01  0.92529520688E+02  0.12219087714E+03  0.47000000000E+01 0.  1.
         13    1    6    6    0    0  0.75140233302E+02  0.68506505459E+02 -0.85373538421E+01  0.10203961173E+03  0.00000000000E+00 0. -1.
        -14    1    6    6    0    0  0.32552476012E+02 -0.65369824882E+01 -0.43146729522E+02  0.54442961924E+02  0.00000000000E+00 0.  1.
</event>
<event>
12    1  0.8488291E-002  0.2068012E+03  0.7818608E-02  0.1144373E+00
         21   -1    0    0  501  502  0.00000000000E+00  0.00000000000E+00  0.66603503534E+02  0.66603503534E+02  0.00000000000E+00 0.  1.
         21   -1    0    0  502  503 -0.00000000000E+00 -0.00000000000E+00 -0.64244888748E+03  0.64244888748E+03  0.00000000000E+00 0.  1.
         -6    2    1    2    0  503  0.74997643759E+01  0.11296091754E+03 -0.31555490381E+03  0.37661011827E+03  0.17159215747E+03 0.  0.
        -24    2    3    3    0    0 -0.51271953359E+02  0.78489369972E+02 -0.26480374233E+03  0.29152091337E+03  0.77936041627E+02 0.  0.
          6    2    1    2  501    0 -0.74997643759E+01 -0.11296091754E+03 -0.26029048014E+03  0.33244227275E+03  0.17306159396E+03 0.  0.
         24    2    5    5    0    0  0.62581037981E+01  0.10998732640E+02 -0.10020567171E+03  0.12945333291E+03  0.80974395800E+02 0.  0.
          5    1    5    5  501    0 -0.13757868174E+02 -0.12395965018E+03 -0.16008480842E+03  0.20298893984E+03  0.47000000000E+01 0. -1.
        -13    1    6    6    0    0 -0.60046993731E+01 -0.29391798055E+02 -0.13251896535E+02  0.32795532763E+02  0.00000000000E+00 0.  1.
         14    1    6    6    0    0  0.12262803171E+02  0.40390530695E+02 -0.86953775179E+02  0.96657800147E+02  0.00000000000E+00 0. -1.
         -5    1    3    3    0  503  0.58771717735E+02  0.34471547567E+02 -0.50751161487E+02  0.85089204894E+02  0.47000000000E+01 0.  1.
         11    1    4    4    0    0 -0.26237839914E+02  0.17496285671E+01 -0.18037303536E+02  0.31887768224E+02  0.00000000000E+00 0. -1.
        -12    1    4    4    0    0 -0.25034113445E+02  0.76739741405E+02 -0.24676643879E+03  0.25963314515E+03  0.00000000000E+00 0.  1.
</event>
<event>
12    1  0.8488291E-002  0.2097128E+03  0.7818608E-02  0.1142245E+00
         21   -1    0    0  501  502  0.00000000000E+00  0.00000000000E+00  0.56675979245E+03  0.56675979245E+03  0.00000000000E+00 0.  1.
         21   -1    0    0  502  503 -0.00000000000E+00 -0.00000000000E+00 -0.13917923998E+03  0.13917923998E+03  0.00000000000E+00 0.  1.
         -6    2    1    2    0  503 -0.29609318532E+02 -0.11347960218E+03 -0.23221407322E+02  0.20874505713E+03  0.17111672410E+03 0.  0.
        -24    2    3    3    0    0 -0.82405600501E+02 -0.68233646594E+02 -0.35981181459E+02  0.13789630469E+03  0.79210049282E+02 0.  0.
          6    2    1    2  501    0  0.29609318532E+02  0.11347960218E+03  0.45080195979E+03  0.49719397530E+03  0.17385370364E+03 0.  0.
         24    2    5    5    0    0  0.20417430693E+02  0.40157360335E+02  0.89440060240E+02  0.12832387025E+03  0.80237187362E+02 0.  0.
          5    1    5    5  501    0  0.91918878399E+01  0.73322241842E+02  0.36136189955E+03  0.36887010505E+03  0.47000000000E+01 0. -1.
        -11    1    6    6    0    0  0.42137770949E+02  0.48443022747E+02  0.81512556393E+02  0.10376230068E+03  0.00000000000E+00 0.  1.
         12    1    6    6    0    0 -0.21720340256E+02 -0.82856624121E+01  0.79275038473E+01  0.24561569569E+02  0.00000000000E+00 0. -1.
         -5    1    3    3    0  503  0.52796281969E+02 -0.45245955583E+02  0.12759774136E+02  0.70848752441E+02  0.47000000000E+01 0.  1.
         11    1    4    4    0    0  0.54799108930E+01  0.12518489580E+02 -0.20738936688E+01  0.13821831996E+02  0.00000000000E+00 0. -1.
        -12    1    4    4    0    0 -0.87885511394E+02 -0.80752136174E+02 -0.33907287790E+02  0.12407447270E+03  0.00000000000E+00 0.  1.
</event>
<event>
12    1  0.8488291E-002  0.1814724E+03  0.7818608E-02  0.1166443E+00
         21   -1    0    0  503  502  0.00000000000E+00  0.00000000000E+00  0.74573533222E+03  0.74573533222E+03  0.00000000000E+00 0. -1.
         21   -1    0    0  501  503 -0.00000000000E+00 -0.00000000000E+00 -0.67048520845E+02  0.67048520845E+02  0.00000000000E+00 0. -1.
          6    2    1    2  501    0 -0.47198350110E+02  0.33771081972E+02  0.10145815390E+03  0.20770107659E+03  0.17169103062E+03 0.  0.
         24    2    3    3    0    0 -0.76633054558E+02  0.10506752989E+01  0.11651827673E+03  0.16094720896E+03  0.80335336512E+02 0.  0.
         -6    2    1    2    0  502  0.47198350110E+02 -0.33771081972E+02  0.57722865748E+03  0.60508277647E+03  0.17194206331E+03 0.  0.
        -24    2    5    5    0    0  0.60912013118E+02 -0.73709891771E+02  0.31363889963E+03  0.33809059770E+03  0.82416451066E+02 0.  0.
          5    1    3    3  501    0  0.29434704448E+02  0.32720406674E+02 -0.15060122829E+02  0.46753867631E+02  0.47000000000E+01 0. -1.
        -11    1    4    4    0    0 -0.42481308242E+02  0.29796942533E+02  0.10124409794E+03  0.11376680844E+03  0.00000000000E+00 0.  1.
         12    1    4    4    0    0 -0.34151746315E+02 -0.28746267234E+02  0.15274178786E+02  0.47180400527E+02  0.00000000000E+00 0. -1.
         -5    1    5    5    0  502 -0.13713663008E+02  0.39938809799E+02  0.26358975785E+03  0.26699217877E+03  0.47000000000E+01 0.  1.
         13    1    6    6    0    0 -0.11958230203E+02 -0.35879855257E+02  0.55124942071E+02  0.66851496028E+02  0.00000000000E+00 0. -1.
        -14    1    6    6    0    0  0.72870243320E+02 -0.37830036514E+02  0.25851395756E+03  0.27123910167E+03  0.00000000000E+00 0.  1.
</event>
<event>
12    1  0.8488291E-002  0.1844335E+03  0.7818608E-02  0.1164925E+00
         21   -1    0    0  503  502  0.00000000000E+00  0.00000000000E+00  0.28072121059E+03  0.28072121059E+03  0.00000000000E+00 0.  1.
         21   -1    0    0  501  503 -0.00000000000E+00 -0.00000000000E+00 -0.30249864175E+03  0.30249864175E+03  0.00000000000E+00 0.  1.
          6    2    1    2  501    0  0.19119585256E+02  0.43064082238E+02 -0.23886345686E+03  0.29836541248E+03  0.17247056161E+03 0.  0.
         24    2    3    3    0    0  0.68120282010E+02  0.48852874800E+02 -0.12397934096E+03  0.17324535618E+03  0.87270271320E+02 0.  0.
         -6    2    1    2    0  502 -0.19119585256E+02 -0.43064082238E+02  0.21708602570E+03  0.28485443986E+03  0.17831330751E+03 0.  0.
        -24    2    5    5    0    0  0.44916109924E+02  0.20430105242E+02  0.99994109888E+02  0.13698730744E+03  0.79572949277E+02 0.  0.
          5    1    3    3  501    0 -0.49000696754E+02 -0.57887925618E+01 -0.11488411590E+03  0.12512005630E+03  0.47000000000E+01 0. -1.
        -11    1    4    4    0    0  0.24733165146E+02 -0.23565678920E+02 -0.52456451418E+02  0.62599919940E+02  0.00000000000E+00 0.  1.
         12    1    4    4    0    0  0.43387116864E+02  0.72418553720E+02 -0.71522889542E+02  0.11064543624E+03  0.00000000000E+00 0. -1.
         -5    1    5    5    0  502 -0.64035695181E+02 -0.63494187481E+02  0.11709191581E+03  0.14786713242E+03  0.47000000000E+01 0.  1.
         13    1    6    6    0    0  0.23432704650E+02 -0.24924467576E+02  0.71534889425E+02  0.79294143139E+02  0.00000000000E+00 0. -1.
        -14    1    6    6    0    0  0.21483405275E+02  0.45354572819E+02  0.28459220463E+02  0.57693164302E+02  0.00000000000E+00 0.  1.
</event>
<event>
12    1  0.8488291E-002  0.2176268E+03  0.7818608E-02  0.1136102E+00
         21   -1    0    0  501  502  0.00000000000E+00  0.00000000000E+00  0.70864599364E+03  0.70864599364E+03  0.00000000000E+00 0.  1.
         21   -1    0    0  502  503 -0.00000000000E+00 -0.00000000000E+00 -0.67126213980E+02  0.67126213980E+02  0.00000000000E+00 0.  1.
         -6    2    1    2    0  503 -0.12862294731E+03 -0.16089915683E+02  0.27515599989E+03  0.35081656228E+03  0.17481043486E+03 0.  0.
        -24    2    3    3    0    0 -0.93589394105E+02 -0.44989762005E+02  0.27557127143E+03  0.30515680519E+03  0.79988103751E+02 0.  0.
          6    2    1    2  501    0  0.12862294731E+03  0.16089915683E+02  0.36636377977E+03  0.42495564534E+03  0.17193642261E+03 0.  0.
         24    2    5    5    0    0  0.12239947389E+03  0.38505769345E+02  0.36989485094E+03  0.40096063377E+03  0.86503777929E+02 0.  0.
          5    1    5    5  501    0  0.62234734133E+01 -0.22415853662E+02 -0.35310711728E+01  0.23995011572E+02  0.47000000000E+01 0. -1.
        -13    1    6    6    0    0  0.28683917602E+02  0.36621285972E+02  0.53121543378E+02  0.70610084876E+02  0.00000000000E+00 0.  1.
         14    1    6    6    0    0  0.93715556290E+02  0.18844833726E+01  0.31677330756E+03  0.33035054889E+03  0.00000000000E+00 0. -1.
         -5    1    3    3    0  503 -0.35033553200E+02  0.28899846322E+02 -0.41527153850E+00  0.45659757093E+02  0.47000000000E+01 0.  1.
         11    1    4    4    0    0 -0.13403790939E+02 -0.22455669494E+02  0.16320244686E+03  0.16528447406E+03  0.00000000000E+00 0. -1.
        -12    1    4    4    0    0 -0.80185603166E+02 -0.22534092511E+02  0.11236882457E+03  0.13987233113E+03  0.00000000000E+00 0.  1.
</event>
<event>
12    1  0.8488291E-002  0.2752878E+03  0.7818608E-02  0.1098354E+00
         21   -1    0    0  501  502  0.00000000000E+00  0.00000000000E+00  0.12896649294E+03  0.12896649294E+03  0.00000000000E+00 0.  1.
         21   -1    0    0  502  503 -0.00000000000E+00 -0.00000000000E+00 -0.58748552649E+03  0.58748552649E+03  0.00000000000E+00 0. -1.
         -6    2    1    2    0  503  0.12420104269E+03  0.17521857235E+03 -0.24287864421E+03  0.36711496199E+03  0.17220892079E+03 0.  0.
        -24    2    3    3    0    0  0.12835031031E+02  0.40800428486E+02 -0.13368560160E+03  0.16116390832E+03  0.79199446235E+02 0.  0.
          6    2    1    2  501    0 -0.12420104269E+03 -0.17521857235E+03 -0.21564038934E+03  0.34933705745E+03  0.17148806108E+03 0.  0.
         24    2    5    5    0    0 -0.10710641600E+03 -0.12000537027E+03 -0.22731971069E+03  0.29018284802E+03  0.81601232696E+02 0.  0.
          5    1    5    5  501    0 -0.17094626687E+02 -0.55213202079E+02  0.11679321352E+02  0.59154209424E+02  0.47000000000E+01 0. -1.
        -13    1    6    6    0    0 -0.25325407648E+02  0.69811101786E+01 -0.55562593153E+02  0.61459856246E+02  0.00000000000E+00 0.  1.
         14    1    6    6    0    0 -0.81781008356E+02 -0.12698648045E+03 -0.17175711753E+03  0.22872299178E+03  0.00000000000E+00 0. -1.
         -5    1    3    3    0  503  0.11136601166E+03  0.13441814386E+03 -0.10919304261E+03  0.20595105367E+03  0.47000000000E+01 0.  1.
         11    1    4    4    0    0 -0.22676767476E+02  0.10566553924E+02 -0.67218926898E+01  0.25905051367E+02  0.00000000000E+00 0. -1.
        -12    1    4    4    0    0  0.35511798507E+02  0.30233874561E+02 -0.12696370891E+03  0.13525885695E+03  0.00000000000E+00 0.  1.
</event>
<event>
12    1  0.8488291E-002  0.1938669E+03  0.7818608E-02  0.1155020E+00
         21   -1    0    0  503  502  0.00000000000E+00  0.00000000000E+00  0.23355736751E+03  0.23355736751E+03  0.00000000000E+00 0.  1.
         21   -1    0    0  501  503 -0.00000000000E+00 -0.00000000000E+00 -0.98536863275E+03  0.98536863275E+03  0.00000000000E+00 0.  1.
          6    2    1    2  501    0 -0.88699332988E+02  0.21874023817E+02 -0.93338621787E+03  0.95330627321E+03  0.17098822839E+03 0.  0.
         24    2    3    3    0    0 -0.38314943754E+02  0.61951320681E+02 -0.75538819061E+03  0.76396487755E+03  0.87892062045E+02 0.  0.
         -6    2    1    2    0  502  0.88699332988E+02 -0.21874023817E+02  0.18157495262E+03  0.26561972705E+03  0.17099219686E+03 0.  0.
        -24    2    5    5    0    0  0.87098880268E+02  0.41692270523E+02  0.90023360872E+02  0.15405351721E+03  0.79396601299E+02 0.  0.
          5    1    3    3  501    0 -0.50384389234E+02 -0.40077296864E+02 -0.17799802726E+03  0.18934139566E+03  0.47000000000E+01 0. -1.
        -13    1    4    4    0    0  0.19162361409E+02 -0.93598862167E+01 -0.19191472651E+03  0.19309600155E+03  0.00000000000E+00 0.  1.
         14    1    4    4    0    0 -0.57477305163E+02  0.71311206897E+02 -0.56347346411E+03  0.57086887600E+03  0.00000000000E+00 0. -1.
         -5    1    5    5    0  502  0.16004527198E+01 -0.63566294339E+02  0.91551591753E+02  0.11156620984E+03  0.47000000000E+01 0.  1.
         11    1    6    6    0    0 -0.34806900758E+01  0.30953149213E+02  0.37681054450E+02  0.48888388336E+02  0.00000000000E+00 0. -1.
        -12    1    6    6    0    0  0.90579570344E+02  0.10739121310E+02  0.52342306422E+02  0.10516512888E+03  0.00000000000E+00 0.  1.
</event>
<event>
12    1  0.8488291E-002  0.1730719E+03  0.7818608E-02  0.1174800E+00
         21   -1    0    0  503  502  0.00000000000E+00  0.00000000000E+00  0.65292080619E+03  0.65292080619E+03  0.00000000000E+00 0. -1.
         21   -1    0    0  501  503 -0.00000000000E+00 -0.00000000000E+00 -0.52836489418E+02  0.52836489418E+02  0.00000000000E+00 0. -1.
          6    2    1    2  501    0 -0.15889137011E+01  0.19362793253E+02  0.17049917658E+03  0.24261880614E+03  0.17151231287E+03 0.  0.
         24    2    3    3    0    0 -0.65150895022E+02 -0.90967465636E+00  0.12901739906E+03  0.16391730494E+03  0.77317054837E+02 0.  0.
         -6    2    1    2    0  502  0.15889137011E+01 -0.19362793253E+02  0.42958514018E+03  0.46313848946E+03  0.17197797925E+03 0.  0.
        -24    2    5    5    0    0 -0.18233973468E+02 -0.62074294260E+02  0.15682027466E+03  0.18629922015E+03  0.77000682371E+02 0.  0.
          5    1    3    3  501    0  0.63561981321E+02  0.20272467909E+02  0.41481777526E+02  0.78701501201E+02  0.47000000000E+01 0. -1.
        -11    1    4    4    0    0 -0.34640296649E+02  0.33822425237E+02  0.94646504708E+02  0.10631024153E+03  0.00000000000E+00 0.  1.
         12    1    4    4    0    0 -0.30510598373E+02 -0.34732099894E+02  0.34370894351E+02  0.57607063409E+02  0.00000000000E+00 0. -1.
         -5    1    5    5    0  502  0.19822887169E+02  0.42711501007E+02  0.27276486552E+03  0.27683926932E+03  0.47000000000E+01 0.  1.
         13    1    6    6    0    0  0.55652727238E+01 -0.56177050221E+02  0.46062773101E+02  0.72860224388E+02  0.00000000000E+00 0. -1.
        -14    1    6    6    0    0 -0.23799246192E+02 -0.58972440383E+01  0.11075750156E+03  0.11343899576E+03  0.00000000000E+00 0.  1.
</event>
<event>
12    1  0.8488291E-002  0.2176308E+03  0.7818608E-02  0.1135891E+00
         21   -1    0    0  503  502  0.00000000000E+00  0.00000000000E+00  0.25958997217E+03  0.25958997217E+03  0.00000000000E+00 0. -1.
         21   -1    0    0  501  503 -0.00000000000E+00 -0.00000000000E+00 -0.84315726015E+03  0.84315726015E+03  0.00000000000E+00 0.  1.
          6    2    1    2  501    0  0.10103555517E+03 -0.83019491303E+02 -0.78041597248E+03  0.81019274037E+03  0.17396197026E+03 0.  0.
         24    2    3    3    0    0  0.76261572953E+02  0.13186798410E+02 -0.31369004489E+03  0.33298777197E+03  0.80558629942E+02 0.  0.
         -6    2    1    2    0  502 -0.10103555517E+03  0.83019491303E+02  0.19684868450E+03  0.29255449195E+03  0.17244798296E+03 0.  0.
        -24    2    5    5    0    0 -0.43620559534E+02  0.11780348029E+03  0.14284914258E+03  0.20627327650E+03  0.79764490083E+02 0.  0.
          5    1    3    3  501    0  0.24773982217E+02 -0.96206289713E+02 -0.46672592759E+03  0.47720496840E+03  0.47000000000E+01 0. -1.
        -11    1    4    4    0    0  0.75141328962E+02  0.29224521418E+02 -0.16725844672E+03  0.18567627734E+03  0.00000000000E+00 0.  1.
         12    1    4    4    0    0  0.11202439915E+01 -0.16037723008E+02 -0.14643159818E+03  0.14731149463E+03  0.00000000000E+00 0. -1.
         -5    1    5    5    0  502 -0.57414995636E+02 -0.34783988983E+02  0.53999541918E+02  0.86281215458E+02  0.47000000000E+01 0.  1.
         13    1    6    6    0    0 -0.49725612031E+02  0.98632175607E+02  0.14877679561E+03  0.18529834719E+03  0.00000000000E+00 0. -1.
        -14    1    6    6    0    0  0.61050524973E+01  0.19171304679E+02 -0.59276530309E+01  0.20974929310E+02  0.00000000000E+00 0.  1.
</event>
<event>
12    1  0.8488291E-002  0.2101539E+03  0.7818608E-02  0.1141475E+00
         21   -1    0    0  503  502  0.00000000000E+00  0.00000000000E+00  0.14999738370E+03  0.14999738370E+03  0.00000000000E+00 0.  1.
         21   -1    0    0  501  503 -0.00000000000E+00 -0.00000000000E+00 -0.47490167181E+03  0.47490167181E+03  0.00000000000E+00 0.  1.
          6    2    1    2  501    0  0.11458559435E+03  0.36582713358E+02 -0.35513869432E+03  0.41258145258E+03  0.17213892487E+03 0.  0.
         24    2    3    3    0    0  0.14144493297E+03  0.19024003405E+01 -0.31251772584E+03  0.35123990763E+03  0.75444387199E+02 0.  0.
         -6    2    1    2    0  502 -0.11458559435E+03 -0.36582713358E+02  0.30234406211E+02  0.21231760293E+03  0.17232670091E+03 0.  0.
        -24    2    5    5    0    0 -0.11832731739E+03  0.23396926634E+02 -0.10052291346E+01  0.14442384385E+03  0.79425852028E+02 0.  0.
          5    1    3    3  501    0 -0.26859338616E+02  0.34680313018E+02 -0.42620968479E+02  0.61341544943E+02  0.47000000000E+01 0. -1.
        -11    1    4    4    0    0  0.32039373458E+02  0.21842942290E+02 -0.14555351304E+03  0.15063021190E+03  0.00000000000E+00 0.  1.
         12    1    4    4    0    0  0.10940555951E+03 -0.19940541949E+02 -0.16696421280E+03  0.20060969573E+03  0.00000000000E+00 0. -1.
         -5    1    5    5    0  502  0.37417230413E+01 -0.59979639992E+02  0.31239635346E+02  0.67893759076E+02  0.47000000000E+01 0.  1.
         11    1    6    6    0    0 -0.16321072105E+02 -0.23080338272E+02 -0.14058437012E+02  0.31570857775E+02  0.00000000000E+00 0. -1.
        -12    1    6    6    0    0 -0.10200624529E+03  0.46477264906E+02  0.13053207878E+02  0.11285298608E+03  0.00000000000E+00 0.  1.
</event>
<event>
12    1  0.8488291E-002  0.1998300E+03  0.7818608E-02  0.1150048E+00
         21   -1    0    0  503  502  0.00000000000E+00  0.00000000000E+00  0.96507292792E+02  0.96507292792E+02  0.00000000000E+00 0. -1.
         21   -1    0    0  501  503 -0.00000000000E+00 -0.00000000000E+00 -0.42599862883E+03  0.42599862883E+03  0.00000000000E+00 0. -1.
          6    2    1    2  501    0  0.31886131871E+02 -0.96351631821E+02 -0.11734032087E+03  0.23106113253E+03  0.17123122877E+03 0.  0.
         24    2    3    3    0    0  0.72580312086E+02 -0.11124565140E+03 -0.95227570760E+02  0.18218463675E+03  0.80495061806E+02 0.  0.
         -6    2    1    2    0  502 -0.31886131871E+02  0.96351631821E+02 -0.21215101517E+03  0.29144478909E+03  0.17213846023E+03 0.  0.
        -24    2    5    5    0    0  0.42542245103E+02  0.49030066334E+02 -0.71268117209E+02  0.12516492020E+03  0.79833092737E+02 0.  0.
          5    1    3    3  501    0 -0.40694180215E+02  0.14894019583E+02 -0.22112750107E+02  0.48876495783E+02  0.47000000000E+01 0. -1.
        -13    1    4    4    0    0  0.21801180084E+02  0.86360964065E+01 -0.55555377296E+01  0.24098498162E+02  0.00000000000E+00 0.  1.
         14    1    4    4    0    0  0.50779132002E+02 -0.11988174781E+03 -0.89672033031E+02  0.15808613859E+03  0.00000000000E+00 0. -1.
         -5    1    5    5    0  502 -0.74428376974E+02  0.47321565487E+02 -0.14088289796E+03  0.16627986888E+03  0.47000000000E+01 0.  1.
         13    1    6    6    0    0  0.13880358482E+01  0.13541891817E+02 -0.69471857354E+02  0.70792997124E+02  0.00000000000E+00 0. -1.
        -14    1    6    6    0    0  0.41154209255E+02  0.35488174517E+02 -0.17962598545E+01  0.54371923080E+02  0.00000000000E+00 0.  1.
</event>
<event>
12    1  0.8488291E-002  0.1812516E+03  0.7818608E-02  0.1166864E+00
         21   -1    0    0  501  502  0.00000000000E+00  0.00000000000E+00  0.16184417922E+03  0.16184417922E+03  0.00000000000E+00 0.  1.
         21   -1    0    0  502  503 -0.00000000000E+00 -0.00000000000E+00 -0.43825769851E+03  0.43825769851E+03  0.00000000000E+00 0.  1.
         -6    2    1    2    0  503  0.45872595127E+02 -0.29148744652E+02 -0.35843399545E+03  0.40115593038E+03  0.17174750970E+03 0.  0.
        -24    2    3    3    0    0 -0.28147812127E+02 -0.53339174189E+02 -0.17459653541E+03  0.20144989821E+03  0.80378756410E+02 0.  0.
          6    2    1    2  501    0 -0.45872595127E+02  0.29148744652E+02  0.82020476154E+02  0.19894594735E+03  0.17291092261E+03 0.  0.
         24    2    5    5    0    0  0.28787611550E+02  0.41263425340E+02  0.78262072003E+02  0.12307020978E+03  0.80560087959E+02 0.  0.
          5    1    5    5  501    0 -0.74660206678E+02 -0.12114680687E+02  0.37584041505E+01  0.75875737565E+02  0.47000000000E+01 0. -1.
        -13    1    6    6    0    0 -0.26681961146E+02  0.47967370219E+01  0.13325585974E+02  0.30207730438E+02  0.00000000000E+00 0.  1.
         14    1    6    6    0    0  0.55469572697E+02  0.36466688318E+02  0.64936486029E+02  0.92862479344E+02  0.00000000000E+00 0. -1.
         -5    1    3    3    0  503  0.74020407254E+02  0.24190429537E+02 -0.18383746004E+03  0.19970603217E+03  0.47000000000E+01 0.  1.
         13    1    4    4    0    0  0.35011856730E+01 -0.66202795428E+02 -0.11756408264E+03  0.13496807752E+03  0.00000000000E+00 0. -1.
        -14    1    4    4    0    0 -0.31648997800E+02  0.12863621239E+02 -0.57032452772E+02  0.66481820690E+02  0.00000000000E+00 0.  1.
</event>
<event>
12    1  0.8488291E-002  0.2687265E+03  0.7818608E-02  0.1102130E+00
         21   -1    0    0  501  502  0.00000000000E+00  0.00000000000E+00  0.20075706018E+03  0.20075706018E+03  0.00000000000E+00 0.  1.
         21   -1    0    0  502  503 -0.00000000000E+00 -0.00000000000E+00 -0.44692259668E+03  0.44692259668E+03  0.00000000000E+00 0.  1.
         -6    2    1    2    0  503 -0.20593072002E+03 -0.50898421084E+01 -0.26688962065E+03  0.37815525949E+03  0.17128328210E+03 0.  0.
        -24    2    3    3    0    0 -0.49262871940E+02 -0.37051082633E+02 -0.14751169733E+03  0.17855687750E+03  0.79518830319E+02 0.  0.
          6    2    1    2  501    0  0.20593072002E+03  0.50898421084E+01  0.20724084159E+02  0.26952439737E+03  0.17257040643E+03 0.  0.
         24    2    5    5    0    0  0.47503924151E+02 -0.53106450575E+01  0.44688237350E+02  0.10888943723E+03  0.87034735720E+02 0.  0.
          5    1    5    5  501    0  0.15842679587E+03  0.10400487166E+02 -0.23964153191E+02  0.16063496014E+03  0.47000000000E+01 0. -1.
        -13    1    6    6    0    0  0.70352347187E+02 -0.12204152703E+02  0.19130610745E+02  0.73921406679E+02  0.00000000000E+00 0.  1.
         14    1    6    6    0    0 -0.22848423036E+02  0.68935076453E+01  0.25557626605E+02  0.34968030550E+02  0.00000000000E+00 0. -1.
         -5    1    3    3    0  503 -0.15666784808E+03  0.31961240525E+02 -0.11937792332E+03  0.19959838199E+03  0.47000000000E+01 0.  1.
         13    1    4    4    0    0 -0.19800916006E+02 -0.82101489041E+01 -0.13320157520E+03  0.13491531587E+03  0.00000000000E+00 0. -1.
        -14    1    4    4    0    0 -0.29461955934E+02 -0.28840933729E+02 -0.14310122129E+02  0.43641561626E+02  0.00000000000E+00 0.  1.
</event>
<event>
12    1  0.8488291E-002  0.2794176E+03  0.7818608E-02  0.1096011E+00
         21   -1    0    0  501  502  0.00000000000E+00  0.00000000000E+00  0.12362436094E+03  0.12362436094E+03  0.00000000000E+00 0. -1.
         21   -1    0    0  502  503 -0.00000000000E+00 -0.00000000000E+00 -0.63169158331E+03  0.63169158331E+03  0.00000000000E+00 0.  1.
         -6    2    1    2    0  503 -0.17748230002E+03 -0.12993549064E+03 -0.26090430287E+03  0.38226944305E+03  0.17226628598E+03 0.  0.
        -24    2    3    3    0    0 -0.10087855370E+03 -0.12320924157E+03 -0.10155965611E+03  0.20527740134E+03  0.80420444840E+02 0.  0.
          6    2    1    2  501    0  0.17748230002E+03  0.12993549064E+03 -0.24716291950E+03  0.37304650120E+03  0.17231072148E+03 0.  0.
         24    2    5    5    0    0  0.92706283965E+02  0.28747000223E+01 -0.83753471805E+02  0.14931417228E+03  0.81715108864E+02 0.  0.
          5    1    5    5  501    0  0.84776016053E+02  0.12706079061E+03 -0.16340944769E+03  0.22373232892E+03  0.47000000000E+01 0. -1.
        -11    1    6    6    0    0  0.37082069427E+02  0.16834858516E+02 -0.82439567893E+02  0.91949848769E+02  0.00000000000E+00 0.  1.
         12    1    6    6    0    0  0.55624214538E+02 -0.13960158494E+02 -0.13139039124E+01  0.57364323509E+02  0.00000000000E+00 0. -1.
         -5    1    3    3    0  503 -0.76603746317E+02 -0.67262490707E+01 -0.15934464676E+03  0.17699204171E+03  0.47000000000E+01 0.  1.
         11    1    4    4    0    0 -0.33721913445E+02 -0.92900380339E+02 -0.83584049840E+02  0.12943701751E+03  0.00000000000E+00 0. -1.
        -12    1    4    4    0    0 -0.67156640255E+02 -0.30308861227E+02 -0.17975606269E+02  0.75840383833E+02  0.00000000000E+00 0.  1.
</event>
<event>
12    1  0.8488291E-002  0.3458028E+03  0.7818608E-02  0.1064366E+00
         21   -1    0    0  503  502  0.00000000000E+00  0.00000000000E+00  0.17922682068E+04  0.17922682068E+04  0.00000000000E+00 0.  1.
         21   -1    0    0  501  503 -0.00000000000E+00 -0.00000000000E+00 -0.70671502538E+02  0.70671502538E+02  0.00000000000E+00 0. -1.
          6    2    1    2  501    0 -0.20847506991E+03 -0.21567901974E+03  0.63991531107E+03  0.72737281538E+03  0.17204741461E+03 0.  0.
         24    2    3    3    0    0 -0.11347084743E+03 -0.18635801048E+03  0.34085126317E+03  0.41217935316E+03  0.78149179676E+02 0.  0.
         -6    2    1    2    0  502  0.20847506991E+03  0.21567901974E+03  0.10816813932E+04  0.11355668940E+04  0.17175051664E+03 0.  0.
        -24    2    5    5    0    0  0.77759366909E+02  0.13639763384E+03  0.39802301977E+03  0.43500783528E+03  0.78477122950E+02 0.  0.
          5    1    3    3  501    0 -0.95004222481E+02 -0.29321009261E+02  0.29906404791E+03  0.31519346222E+03  0.47000000000E+01 0. -1.
        -11    1    4    4    0    0 -0.95770801633E+01 -0.28697230484E+02  0.10926923658E+03  0.11337996986E+03  0.00000000000E+00 0.  1.
         12    1    4    4    0    0 -0.10389376727E+03 -0.15766077999E+03  0.23158202659E+03  0.29879938330E+03  0.00000000000E+00 0. -1.
         -5    1    5    5    0  502  0.13071570300E+03  0.79281385895E+02  0.68365837343E+03  0.70055905869E+03  0.47000000000E+01 0.  1.
         11    1    6    6    0    0  0.24934702917E+02  0.11480990131E+03  0.28862396694E+03  0.31161971559E+03  0.00000000000E+00 0. -1.
        -12    1    6    6    0    0  0.52824663992E+02  0.21587732538E+02  0.10939905283E+03  0.12338811969E+03  0.00000000000E+00 0.  1.
</event>
<event>
12    1  0.8488291E-002  0.1789449E+03  0.7818608E-02  0.1169193E+00
         21   -1    0    0  501  502  0.00000000000E+00  0.00000000000E+00  0.63573256602E+02  0.63573256602E+02  0.00000000000E+00 0.  1.
         21   -1    0    0  502  503 -0.00000000000E+00 -0.00000000000E+00 -0.50373584392E+03  0.50373584392E+03  0.00000000000E+00 0. -1.
         -6    2    1    2    0  503 -0.71833530226E+00  0.45209495702E+02 -0.24516161998E+03  0.30264580195E+03  0.17159792253E+03 0.  0.
        -24    2    3    3    0    0 -0.24299349671E+02 -0.37211879747E+02 -0.13874774959E+03  0.16591486477E+03  0.79382755975E+02 0.  0.
          6    2    1    2  501    0  0.71833530226E+00 -0.45209495702E+02 -0.19500096733E+03  0.26466329858E+03  0.17313829687E+03 0.  0.
         24    2    5    5    0    0 -0.19873127773E+00  0.34854525033E+02 -0.58393217892E+02  0.10624973970E+03  0.81635543004E+02 0.  0.
          5    1    5    5  501    0  0.91706657998E+00 -0.80064020735E+02 -0.13660774944E+03  0.15841355887E+03  0.47000000000E+01 0. -1.
        -13    1    6    6    0    0  0.16009245908E+02  0.36874331604E+02 -0.73645178258E+02  0.83902470562E+02  0.00000000000E+00 0.  1.
         14    1    6    6    0    0 -0.16207977186E+02 -0.20198065703E+01  0.15251960365E+02  0.22347269140E+02  0.00000000000E+00 0. -1.
         -5    1    3    3    0  503  0.23581014369E+02  0.82421375449E+02 -0.10641387039E+03  0.13673093718E+03  0.47000000000E+01 0.  1.
         11    1    4    4    0    0  0.14353611204E+02  0.18201019739E+02 -0.40819636831E+02  0.46941943133E+02  0.00000000000E+00 0. -1.
        -12    1    4    4    0    0 -0.38652960875E+02 -0.55412899486E+02 -0.97928112758E+02  0.11897292163E+03  0.00000000000E+00 0.  1.
</event>
<event>
12    1  0.8488291E-002  0.1814262E+03  0.7818608E-02  0.1166556E+00
         21   -1    0    0  503  502  0.00000000000E+00  0.00000000000E+00  0.28375705473E+03  0.28375705473E+03  0.00000000000E+00 0. -1.
         21   -1    0    0  501  503 -0.00000000000E+00 -0.00000000000E+00 -0.45480836189E+03  0.45480836189E+03  0.00000000000E+00 0. -1.
          6    2    1    2  501    0  0.53660868158E+02  0.22607234154E+02 -0.40444462094E+03  0.44327297703E+03  0.17182812619E+03 0.  0.
         24    2    3    3    0    0 -0.27249246245E+02  0.32288519552E+02 -0.28316416437E+03  0.29708401354E+03  0.79321480091E+02 0.  0.
         -6    2    1    2    0  502 -0.53660868158E+02 -0.22607234154E+02  0.23339331378E+03  0.29529243959E+03  0.17127349519E+03 0.  0.
        -24    2    5    5    0    0  0.36614548154E+02 -0.17187269420E+02  0.12702284549E+03  0.15559350140E+03  0.80240308038E+02 0.  0.
          5    1    3    3  501    0  0.80910114403E+02 -0.96812853976E+01 -0.12128045657E+03  0.14618896349E+03  0.47000000000E+01 0. -1.
        -11    1    4    4    0    0 -0.19671390737E+02  0.11531400768E+02 -0.13464723475E+02  0.26480853374E+02  0.00000000000E+00 0.  1.
         12    1    4    4    0    0 -0.75778555083E+01  0.20757118784E+02 -0.26969944089E+03  0.27060316017E+03  0.00000000000E+00 0. -1.
         -5    1    5    5    0  502 -0.90275416312E+02 -0.54199647345E+01  0.10637046829E+03  0.13969893819E+03  0.47000000000E+01 0.  1.
         11    1    6    6    0    0  0.11885030722E+02  0.16501886422E+02  0.10760778488E+03  0.10951256356E+03  0.00000000000E+00 0. -1.
        -12    1    6    6    0    0  0.24729517432E+02 -0.33689155841E+02  0.19415060616E+02  0.46080937843E+02  0.00000000000E+00 0.  1.
</event>
<event>
12    1  0.8488291E-002  0.1790367E+03  0.7818608E-02  0.1168929E+00
         21   -1    0    0  503  502  0.00000000000E+00  0.00000000000E+00  0.40253829607E+03  0.40253829607E+03  0.00000000000E+00 0. -1.
         21   -1    0    0  501  503 -0.00000000000E+00 -0.00000000000E+00 -0.82515781663E+02  0.82515781663E+02  0.00000000000E+00 0. -1.
          6    2    1    2  501    0 -0.43995144533E+02  0.17527811247E+02  0.11168102065E+03  0.21035365943E+03  0.17185230506E+03 0.  0.
         24    2    3    3    0    0 -0.13039794601E+02 -0.52531429910E+02  0.86420685854E+02  0.12956563139E+03  0.79932036898E+02 0.  0.
         -6    2    1    2    0  502  0.43995144533E+02 -0.17527811247E+02  0.20834149376E+03  0.27470041830E+03  0.17265962147E+03 0.  0.
        -24    2    5    5    0    0 -0.33249333147E+02 -0.22260636104E+02  0.63837673629E+02  0.11071092780E+03  0.81120939874E+02 0.  0.
          5    1    3    3  501    0 -0.30955349932E+02  0.70059241156E+02  0.25260334798E+02  0.80788028042E+02  0.47000000000E+01 0. -1.
        -13    1    4    4    0    0  0.21066550672E+02 -0.36770106078E+02  0.81252756606E+02  0.91639787834E+02  0.00000000000E+00 0.  1.
         14    1    4    4    0    0 -0.34106345273E+02 -0.15761323831E+02  0.51679292481E+01  0.37925843557E+02  0.00000000000E+00 0. -1.
         -5    1    5    5    0  502  0.77244477679E+02  0.47328248568E+01  0.14450382013E+03  0.16398949050E+03  0.47000000000E+01 0.  1.
         13    1    6    6    0    0  0.18883829966E+02 -0.30850242850E+02  0.35820188949E+02  0.50906015897E+02  0.00000000000E+00 0. -1.
        -14    1    6    6    0    0 -0.52133163113E+02  0.85896067468E+01  0.28017484680E+02  0.59804911905E+02  0.00000000000E+00 0.  1.
</event>
<event>
12    1  0.8488291E-002  0.1848579E+03  0.7818608E-02  0.1163236E+00
         21   -1    0    0  501  502  0.00000000000E+00  0.00000000000E+00  0.42456563588E+03  0.42456563588E+03  0.00000000000E+00 0.  1.
         21   -1    0    0  502  503 -0.00000000000E+00 -0.00000000000E+00 -0.97991586718E+02  0.97991586718E+02  0.00000000000E+00 0.  1.
         -6    2    1    2    0  503 -0.41730754677E+02 -0.57488775827E+02  0.52465565184E+02  0.19193974962E+03  0.17041659755E+03 0.  0.
        -24    2    3    3    0    0 -0.84085557827E+02 -0.21837457835E+02  0.31829877321E+01  0.11767126192E+03  0.79304091137E+02 0.  0.
          6    2    1    2  501    0  0.41730754677E+02  0.57488775827E+02  0.27410848398E+03  0.33061747298E+03  0.17066352047E+03 0.  0.
         24    2    5    5    0    0  0.64881917584E+02  0.70608649736E+02  0.27651961561E+03  0.30348795048E+03  0.80290682057E+02 0.  0.
          5    1    5    5  501    0 -0.23151162907E+02 -0.13119873909E+02 -0.24111316299E+01  0.27129522500E+02  0.47000000000E+01 0. -1.
        -11    1    6    6    0    0  0.13160860414E+02  0.71771682888E+02  0.15025150789E+03  0.16703262656E+03  0.00000000000E+00 0.  1.
         12    1    6    6    0    0  0.51721057170E+02 -0.11630331515E+01  0.12626810772E+03  0.13645532393E+03  0.00000000000E+00 0. -1.
         -5    1    3    3    0  503  0.42354803150E+02 -0.35651317992E+02  0.49282577452E+02  0.74268487697E+02  0.47000000000E+01 0.  1.
         13    1    4    4    0    0  0.11962129002E+02 -0.12334889928E+02 -0.10579461102E+02  0.20178380436E+02  0.00000000000E+00 0. -1.
        -14    1    4    4    0    0 -0.96047686829E+02 -0.95025679071E+01  0.13762448834E+02  0.97492881484E+02  0.00000000000E+00 0.  1.
</event>
<event>
12    1  0.8488291E-002  0.1964969E+03  0.7818608E-02  0.1156666E+00
         21   -1    0    0  501  502  0.00000000000E+00  0.00000000000E+00  0.38596739711E+02  0.38596739711E+02  0.00000000000E+00 0.  1.
         21   -1    0    0  502  503 -0.00000000000E+00 -0.00000000000E+00 -0.92438743426E+03  0.92438743426E+03  0.00000000000E+00 0.  1.
         -6    2    1    2    0  503  0.41713135736E+02 -0.23324230830E+02 -0.47384977929E+03  0.50657827043E+03  0.17263813398E+03 0.  0.
        -24    2    3    3    0    0  0.66172221152E+02 -0.67854904154E+02 -0.27100006700E+03  0.29741010004E+03  0.77644577568E+02 0.  0.
          6    2    1    2  501    0 -0.41713135736E+02  0.23324230830E+02 -0.41194091525E+03  0.45640590353E+03  0.19059649966E+03 0.  0.
         24    2    5    5    0    0  0.50167462282E+02  0.39869693775E+02 -0.21494474968E+03  0.23835688178E+03  0.80662202576E+02 0.  0.
          5    1    5    5  501    0 -0.91880598018E+02 -0.16545462945E+02 -0.19699616557E+03  0.21804902175E+03  0.47000000000E+01 0. -1.
        -13    1    6    6    0    0 -0.12821677824E+02  0.35130999341E+02 -0.10626201812E+03  0.11265078354E+03  0.00000000000E+00 0.  1.
         14    1    6    6    0    0  0.62989140106E+02  0.47386944341E+01 -0.10868273156E+03  0.12570609824E+03  0.00000000000E+00 0. -1.
         -5    1    3    3    0  503 -0.24459085416E+02  0.44530673324E+02 -0.20284971230E+03  0.20916817039E+03  0.47000000000E+01 0.  1.
         13    1    4    4    0    0 -0.59105043349E+01  0.39310323753E+01  0.84975748275E+00  0.71490674083E+01  0.00000000000E+00 0. -1.
        -14    1    4    4    0    0  0.72082725487E+02 -0.71785936529E+02 -0.27184982448E+03  0.29026103264E+03  0.00000000000E+00 0.  1.
</event>
<event>
12    1  0.8488291E-002  0.1801580E+03  0.7818608E-02  0.1168285E+00
         21   -1    0    0  501  502  0.00000000000E+00  0.00000000000E+00  0.24321805338E+03  0.24321805338E+03  0.00000000000E+00 0. -1.
         21   -1    0    0  502  503 -0.00000000000E+00 -0.00000000000E+00 -0.19091294251E+03  0.19091294251E+03  0.00000000000E+00 0. -1.
         -6    2    1    2    0  503 -0.29277027326E+02  0.39305404487E+02 -0.95041892450E+02  0.20139067978E+03  0.17065516527E+03 0.  0.
        -24    2    3    3    0    0 -0.63066148387E+02  0.65012730010E+02 -0.10353823169E+03  0.15783784902E+03  0.77386219867E+02 0.  0.
          6    2    1    2  501    0  0.29277027326E+02 -0.39305404487E+02  0.14734700333E+03  0.23274031610E+03  0.17336336464E+03 0.  0.
         24    2    5    5    0    0 -0.26275073251E+02 -0.50614260645E+02  0.29833092829E+02  0.10218176500E+03  0.79365715618E+02 0.  0.
          5    1    5    5  501    0  0.55552100578E+02  0.11308856159E+02  0.11751391050E+03  0.13055855111E+03  0.47000000000E+01 0. -1.
        -11    1    6    6    0    0 -0.17793890457E+02 -0.10200847443E+02 -0.25761405851E+02  0.32929164241E+02  0.00000000000E+00 0.  1.
         12    1    6    6    0    0 -0.84811827942E+01 -0.40413413203E+02  0.55594498680E+02  0.69252600758E+02  0.00000000000E+00 0. -1.
         -5    1    3    3    0  503  0.33789121061E+02 -0.25707325523E+02  0.84963392362E+01  0.43552830770E+02  0.47000000000E+01 0.  1.
         13    1    4    4    0    0  0.85830936687E+00  0.29499487324E+02  0.18432132388E+01  0.29569475518E+02  0.00000000000E+00 0. -1.
        -14    1    4    4    0    0 -0.63924457754E+02  0.35513242685E+02 -0.10538144493E+03  0.12826837350E+03  0.00000000000E+00 0.  1.
</event>
<event>
12    1  0.8488291E-002  0.2186798E+03  0.7818608E-02  0.1134881E+00
         21   -1    0    0  503  502  0.00000000000E+00  0.00000000000E+00  0.10440062578E+03  0.10440062578E+03  0.00000000000E+00 0. -1.
         21   -1    0    0  501  503 -0.00000000000E+00 -0.00000000000E+00 -0.50459042623E+03  0.50459042623E+03  0.00000000000E+00 0. -1.
          6    2    1    2  501    0  0.10768870219E+03  0.80538592705E+02 -0.10753561626E+03  0.24368988276E+03  0.17244572683E+03 0.  0.
         24    2    3    3    0    0  0.31475727744E+02  0.99274062681E+02 -0.94916453341E+02  0.16406093964E+03  0.84028553741E+02 0.  0.
         -6    2    1    2    0  502 -0.10768870219E+03 -0.80538592705E+02 -0.29265418420E+03  0.36530116926E+03  0.17238083199E+03 0.  0.
        -24    2    5    5    0    0  0.61002932276E+01 -0.65686834242E+02 -0.14794009852E+03  0.18055061634E+03  0.79751354484E+02 0.  0.
          5    1    3    3  501    0  0.76212974446E+02 -0.18735469976E+02 -0.12619162914E+02  0.79628943116E+02  0.47000000000E+01 0. -1.
        -11    1    4    4    0    0  0.37425538804E+02  0.17683217761E+02 -0.37368109244E+01  0.41561170593E+02  0.00000000000E+00 0.  1.
         12    1    4    4    0    0 -0.59498110602E+01  0.81590844920E+02 -0.91179642416E+02  0.12249976905E+03  0.00000000000E+00 0. -1.
         -5    1    5    5    0  502 -0.11378899542E+03 -0.14851758463E+02 -0.14471408568E+03  0.18475055291E+03  0.47000000000E+01 0.  1.
         13    1    6    6    0    0 -0.23151481476E+01 -0.37612854105E+02 -0.92568574339E+01  0.38804331129E+02  0.00000000000E+00 0. -1.
        -14    1    6    6    0    0  0.84154413752E+01 -0.28073980137E+02 -0.13868324108E+03  0.14174628521E+03  0.00000000000E+00 0.  1.
</event>
<event>
12    1  0.8488291E-002  0.2760845E+03  0.7818608E-02  0.1098529E+00
         21   -1    0    0  503  502  0.00000000000E+00  0.00000000000E+00  0.67436601878E+03  0.67436601878E+03  0.00000000000E+00 0.  1.
         21   -1    0    0  501  503 -0.00000000000E+00 -0.00000000000E+00 -0.20609506062E+03  0.20609506062E+03  0.00000000000E+00 0.  1.
          6    2    1    2  501    0  0.16541843955E+03 -0.12933856305E+03 -0.63699381527E+02  0.28333770280E+03  0.17925099326E+03 0.  0.
         24    2    3    3    0    0  0.99772077266E+02 -0.10756215215E+03  0.25360798464E+02  0.17047733503E+03  0.83037748542E+02 0.  0.
         -6    2    1    2    0  502 -0.16541843955E+03  0.12933856305E+03  0.53197033968E+03  0.59712337661E+03  0.17167457749E+03 0.  0.
        -24    2    5    5    0    0 -0.63938594145E+02  0.11515864770E+03  0.21990757862E+03  0.26863519438E+03  0.80348407342E+02 0.  0.
          5    1    3    3  501    0  0.65646362284E+02 -0.21776410896E+02 -0.89060179990E+02  0.11286036777E+03  0.47000000000E+01 0. -1.
        -13    1    4    4    0    0  0.74512553591E+02 -0.10360229175E+03 -0.86732482511E+01  0.12790926758E+03  0.00000000000E+00 0.  1.
         14    1    4    4    0    0  0.25259523675E+02 -0.39598604068E+01  0.34034046715E+02  0.42568067451E+02  0.00000000000E+00 0. -1.
         -5    1    5    5    0  502 -0.10147984540E+03  0.14179915345E+02  0.31206276106E+03  0.32848818222E+03  0.47000000000E+01 0.  1.
         11    1    6    6    0    0 -0.19528146912E+02  0.79179906367E+01  0.12866849873E+01  0.21111576345E+02  0.00000000000E+00 0. -1.
        -12    1    6    6    0    0 -0.44410447233E+02  0.10724065707E+03  0.21862089364E+03  0.24752361804E+03  0.00000000000E+00 0.  1.
</event>
<event>
12    1  0.8488291E-002  0.1830379E+03  0.7818608E-02  0.1165391E+00
         21   -1    0    0  503  502  0.00000000000E+00  0.00000000000E+00  0.58706669223E+02  0.58706669223E+02  0.00000000000E+00 0.  1.
         21   -1    0    0  501  503 -0.00000000000E+00 -0.00000000000E+00 -0.69901817761E+03  0.69901817761E+03  0.00000000000E+00 0.  1.
          6    2    1    2  501    0  0.48849136052E+02 -0.39482288276E+02 -0.48505284819E+03  0.51770795755E+03  0.16970614189E+03 0.  0.
         24    2    3    3    0    0  0.53824713593E+02 -0.57453601295E+02 -0.18257564476E+03  0.21462006096E+03  0.80807724958E+02 0.  0.
         -6    2    1    2    0  502 -0.48849136052E+02  0.39482288276E+02 -0.15525866020E+03  0.24001688928E+03  0.17192372260E+03 0.  0.
        -24    2    5    5    0    0 -0.96065676554E+02  0.23949009420E+02 -0.14034632644E+03  0.18790976744E+03  0.76228735325E+02 0.  0.
          5    1    3    3  501    0 -0.49755775411E+01  0.17971313019E+02 -0.30247720343E+03  0.30308789659E+03  0.47000000000E+01 0. -1.
        -13    1    4    4    0    0  0.49102519072E+02  0.56924488250E+01 -0.76460278573E+02  0.91047435726E+02  0.00000000000E+00 0.  1.
         14    1    4    4    0    0  0.47221945207E+01 -0.63146050120E+02 -0.10611536618E+03  0.12357262523E+03  0.00000000000E+00 0. -1.
         -5    1    5    5    0  502  0.47216540502E+02  0.15533278856E+02 -0.14912333760E+02  0.52107121847E+02  0.47000000000E+01 0.  1.
         11    1    6    6    0    0 -0.19707118855E+02  0.39958164678E+02 -0.69319258671E+02  0.82402579332E+02  0.00000000000E+00 0. -1.
        -12    1    6    6    0    0 -0.76358557698E+02 -0.16009155258E+02 -0.71027067767E+02  0.10550718810E+03  0.00000000000E+00 0.  1.
</event>
<event>
12    1  0.8488291E-002  0.2165868E+03  0.7818608E-02  0.1137170E+00
         21   -1    0    0  503  502  0.00000000000E+00  0.00000000000E+00  0.97663584669E+03  0.97663584669E+03  0.00000000000E+00 0. -1.
         21   -1    0    0  501  503 -0.00000000000E+00 -0.00000000000E+00 -0.48926503700E+02  0.48926503700E+02  0.00000000000E+00 0. -1.
          6    2    1    2  501    0  0.73017725418E+02 -0.10948814820E+03  0.56384047444E+03  0.60400822053E+03  0.17201920540E+03 0.  0.
         24    2    3    3    0    0  0.69902898434E+02 -0.67570058763E+01  0.36546432812E+03  0.38053881506E+03  0.79457802024E+02 0.  0.
         -6    2    1    2    0  502 -0.73017725418E+02  0.10948814820E+03  0.36386886855E+03  0.42155412987E+03  0.16729640786E+03 0.  0.
        -24    2    5    5    0    0 -0.88188106297E+02  0.23061312758E+02  0.24989893243E+03  0.27764104957E+03  0.79536845159E+02 0.  0.
          5    1    3    3  501    0  0.31148269844E+01 -0.10273114232E+03  0.19837614632E+03  0.22346940546E+03  0.47000000000E+01 0. -1.
        -11    1    4    4    0    0  0.34256322564E+02 -0.67747108707E+01  0.32392301506E+03  0.32579980360E+03  0.00000000000E+00 0.  1.
         12    1    4    4    0    0  0.35646575869E+02  0.17704994345E-01  0.41541313064E+02  0.54739011461E+02  0.00000000000E+00 0. -1.
         -5    1    5    5    0  502  0.15170380879E+02  0.86426835443E+02  0.11396993613E+03  0.14391308030E+03  0.47000000000E+01 0.  1.
         11    1    6    6    0    0 -0.79553084829E+02  0.40519117997E+02  0.14009927277E+03  0.16612735614E+03  0.00000000000E+00 0. -1.
        -12    1    6    6    0    0 -0.86350214673E+01 -0.17457805240E+02  0.10979965966E+03  0.11151369342E+03  0.00000000000E+00 0.  1.
</event>
<event>
12    1  0.8488291E-002  0.1781748E+03  0.7818608E-02  0.1169841E+00
         21   -1    0    0  501  502  0.00000000000E+00  0.00000000000E+00  0.17695241037E+03  0.17695241037E+03  0.00000000000E+00 0. -1.
         21   -1    0    0  502  503 -0.00000000000E+00 -0.00000000000E+00 -0.25901459217E+03  0.25901459217E+03  0.00000000000E+00 0. -1.
         -6    2    1    2    0  503  0.33513941952E+01 -0.40347816608E+02 -0.16259756582E+03  0.24043639885E+03  0.17243119015E+03 0.  0.
        -24    2    3    3    0    0  0.41629642669E+02 -0.48980813335E+02 -0.37497262336E+02  0.10924215786E+03  0.79972852564E+02 0.  0.
          6    2    1    2  501    0 -0.33513941952E+01  0.40347816608E+02  0.80535384017E+02  0.19553060369E+03  0.17351394973E+03 0.  0.
         24    2    5    5    0    0 -0.31043677891E+02  0.55112102369E+02  0.11171041245E+03  0.15104668403E+03  0.79591649963E+02 0.  0.
          5    1    5    5  501    0  0.27692283696E+02 -0.14764285761E+02 -0.31175028429E+02  0.44483919655E+02  0.47000000000E+01 0. -1.
        -13    1    6    6    0    0 -0.15738906390E+02  0.45557790252E+02  0.11938207021E+02  0.49656280709E+02  0.00000000000E+00 0.  1.
         14    1    6    6    0    0 -0.15304771501E+02  0.95543121172E+01  0.99772205425E+02  0.10139040332E+03  0.00000000000E+00 0. -1.
         -5    1    3    3    0  503 -0.38278248474E+02  0.86329967273E+01 -0.12510030348E+03  0.13119424099E+03  0.47000000000E+01 0.  1.
         13    1    4    4    0    0  0.37934650689E+02  0.14998052581E+01  0.10602643990E+02  0.39417041978E+02  0.00000000000E+00 0. -1.
        -14    1    4    4    0    0  0.36949919800E+01 -0.50480618593E+02 -0.48099906325E+02  0.69825115881E+02  0.00000000000E+00 0.  1.
</event>
<event>
12    1  0.8488291E-002  0.2097958E+03  0.7818608E-02  0.1142623E+00
         21   -1    0    0  501  502  0.00000000000E+00  0.00000000000E+00  0.28486575936E+03  0.28486575936E+03  0.00000000000E+00 0.  1.
         21   -1    0    0  502  503 -0.00000000000E+00 -0.00000000000E+00 -0.16154826846E+03  0.16154826846E+03  0.00000000000E+00 0. -1.
         -6    2    1    2    0  503  0.11104399507E+03  0.28211852506E+01  0.11742180537E+03  0.23653535413E+03  0.17269153265E+03 0.  0.
        -24    2    3    3    0    0  0.47784009084E+02 -0.59171897641E+02  0.29619716687E+02  0.11173044665E+03  0.76300328293E+02 0.  0.
          6    2    1    2  501    0 -0.11104399507E+03 -0.28211852506E+01  0.58956855327E+01  0.20987867369E+03  0.17797632044E+03 0.  0.
         24    2    5    5    0    0 -0.95556851852E+02 -0.57698345339E+02  0.35275285331E+02  0.14556222798E+03  0.86508990688E+02 0.  0.
          5    1    5    5  501    0 -0.15487143220E+02  0.54877160088E+02 -0.29379599798E+02  0.64316445710E+02  0.47000000000E+01 0. -1.
        -11    1    6    6    0    0 -0.31909679735E+02 -0.48255608576E+02 -0.19511531786E+02  0.61053511713E+02  0.00000000000E+00 0.  1.
         12    1    6    6    0    0 -0.63647172117E+02 -0.94427367628E+01  0.54786817117E+02  0.84508716272E+02  0.00000000000E+00 0. -1.
         -5    1    3    3    0  503  0.63259985989E+02  0.61993082892E+02  0.87802088679E+02  0.12480490748E+03  0.47000000000E+01 0.  1.
         13    1    4    4    0    0  0.20669014397E+02  0.15782497166E+02 -0.17663094782E+01  0.26065594604E+02  0.00000000000E+00 0. -1.
        -14    1    4    4    0    0  0.27114994687E+02 -0.74954394807E+02  0.31386026165E+02  0.85664852047E+02  0.00000000000E+00 0.  1.
</event>
<event>
12    1  0.8488291E-002  0.2136125E+03  0.7818608E-02  0.1139298E+00
         21   -1    0    0  501  502  0.00000000000E+00  0.00000000000E+00  0.25878639121E+03  0.25878639121E+03  0.00000000000E+00 0.  1.
         21   -1    0    0  502  503 -0.00000000000E+00 -0.00000000000E+00 -0.27352156478E+03  0.27352156478E+03  0.00000000000E+00 0.  1.
         -6    2    1    2    0  503  0.21954784115E+02  0.12483355592E+03 -0.16791140980E+03  0.26945196903E+03  0.16835882170E+03 0.  0.
        -24    2    3    3    0    0  0.35746578405E+02  0.54236805449E+02 -0.16916022988E+03  0.19735644686E+03  0.78198048636E+02 0.  0.
          6    2    1    2  501    0 -0.21954784115E+02 -0.12483355592E+03  0.15317623623E+03  0.26285598695E+03  0.17194441340E+03 0.  0.
         24    2    5    5    0    0 -0.32049269990E+02 -0.13992266340E+03  0.17102177887E+03  0.23696905585E+03  0.79374915075E+02 0.  0.
          5    1    5    5  501    0  0.10094485875E+02  0.15089107481E+02 -0.17845542638E+02  0.25886931098E+02  0.47000000000E+01 0. -1.
        -11    1    6    6    0    0  0.90714496853E+01 -0.43622390008E+02  0.10267397877E+03  0.11192475162E+03  0.00000000000E+00 0.  1.
         12    1    6    6    0    0 -0.41120719676E+02 -0.96300273388E+02  0.68347800107E+02  0.12504430423E+03  0.00000000000E+00 0. -1.
         -5    1    3    3    0  503 -0.13791794290E+02  0.70596750467E+02  0.12488200735E+01  0.72095522176E+02  0.47000000000E+01 0.  1.
         13    1    4    4    0    0  0.49283343390E+02  0.49287401011E+01 -0.69478079435E+02  0.85324931507E+02  0.00000000000E+00 0. -1.
        -14    1    4    4    0    0 -0.13536764985E+02  0.49308065347E+02 -0.99682150443E+02  0.11203151535E+03  0.00000000000E+00 0.  1.
</event>
<event>
12    1  0.8488291E-002  0.2227744E+03  0.7818608E-02  0.1134093E+00
         21   -1    0    0  501  502  0.00000000000E+00  0.00000000000E+00  0.15825840168E+04  0.15825840168E+04  0.00000000000E+00 0. -1.
         21   -1    0    0  502  503 -0.00000000000E+00 -0.00000000000E+00 -0.60776544138E+02  0.60776544138E+02  0.00000000000E+00 0.  1.
         -6    2    1    2    0  503  0.82684542563E+02 -0.91945840778E+02  0.16315122683E+03  0.26656165597E+03  0.17072206186E+03 0.  0.
        -24    2    3    3    0    0  0.11672027313E+03 -0.97079099086E+02  0.15890365270E+03  0.23156289626E+03  0.72959101164E+02 0.  0.
          6    2    1    2  501    0 -0.82684542563E+02  0.91945840778E+02  0.13586562459E+04  0.13767989050E+04  0.18530423405E+03 0.  0.
         24    2    5    5    0    0 -0.10063659647E+03  0.89734707447E+02  0.67462987102E+03  0.69251728400E+03  0.79212899816E+02 0.  0.
          5    1    5    5  501    0  0.17952053908E+02  0.22111333307E+01  0.68402637484E+03  0.68428162099E+03  0.47000000000E+01 0. -1.
        -13    1    6    6    0    0 -0.68600088910E+02  0.86306209263E+02  0.36692339557E+03  0.38312858439E+03  0.00000000000E+00 0.  1.
         14    1    6    6    0    0 -0.32036507562E+02  0.34284981848E+01  0.30770647545E+03  0.30938869961E+03  0.00000000000E+00 0. -1.
         -5    1    3    3    0  503 -0.34035730562E+02  0.51332583077E+01  0.42475741255E+01  0.34998759717E+02  0.47000000000E+01 0.  1.
         11    1    4    4    0    0 -0.80105382280E+01 -0.15914305715E+02  0.76920028588E+01  0.19406204087E+02  0.00000000000E+00 0. -1.
        -12    1    4    4    0    0  0.12473081135E+03 -0.81164793371E+02  0.15121164984E+03  0.21215669217E+03  0.00000000000E+00 0.  1.
</event>
<event>
12    1  0.8488291E-002  0.1751399E+03  0.7818608E-02  0.1172786E+00
         21   -1    0    0  503  502  0.00000000000E+00  0.00000000000E+00  0.24897975179E+03  0.24897975179E+03  0.00000000000E+00 0. -1.
         21   -1    0    0  501  503 -0.00000000000E+00 -0.00000000000E+00 -0.12270694646E+03  0.12270694646E+03  0.00000000000E+00 0. -1.
          6    2    1    2  501    0  0.76324228634E-01 -0.33036603344E+02  0.66833512890E+02  0.18673536094E+03  0.17120734095E+03 0.  0.
         24    2    3    3    0    0  0.26865983528E+02 -0.32354604046E+01  0.10212074426E+03  0.13313430999E+03  0.81017583346E+02 0.  0.
         -6    2    1    2    0  502 -0.76324228634E-01  0.33036603344E+02  0.59439292432E+02  0.18495133731E+03  0.17199576943E+03 0.  0.
        -24    2    5    5    0    0 -0.26532401224E+02  0.69426628158E+02 -0.49241632374E+00  0.10986433690E+03  0.80906767553E+02 0.  0.
          5    1    3    3  501    0 -0.26789659299E+02 -0.29801142939E+02 -0.35287231374E+02  0.53601050959E+02  0.47000000000E+01 0. -1.
        -13    1    4    4    0    0  0.34356648400E+02  0.91138009370E+01  0.61380739979E+01  0.36070994014E+02  0.00000000000E+00 0.  1.
         14    1    4    4    0    0 -0.74906648719E+01 -0.12349261342E+02  0.95982670266E+02  0.97063315971E+02  0.00000000000E+00 0. -1.
         -5    1    5    5    0  502  0.26456076995E+02 -0.36390024814E+02  0.59931708756E+02  0.75087000409E+02  0.47000000000E+01 0.  1.
         11    1    6    6    0    0  0.27978876836E+02  0.11298685745E+02 -0.20315584819E+00  0.30174809376E+02  0.00000000000E+00 0. -1.
        -12    1    6    6    0    0 -0.54511278060E+02  0.58127942413E+02 -0.28926047555E+00  0.79689527521E+02  0.00000000000E+00 0.  1.
</event>
<event>
12    1  0.8488291E-002  0.1808870E+03  0.7818608E-02  0.1166955E+00
         21   -1    0    0  501  502  0.00000000000E+00  0.00000000000E+00  0.19262196332E+03  0.19262196332E+03  0.00000000000E+00 0. -1.
         21   -1    0    0  502  503 -0.00000000000E+00 -0.00000000000E+00 -0.46146357831E+03  0.46146357831E+03  0.00000000000E+00 0. -1.
         -6    2    1    2    0  503  0.29679419087E+02  0.45472676971E+02 -0.39440166551E+03  0.43389144581E+03  0.17251226252E+03 0.  0.
        -24    2    3    3    0    0 -0.77127140820E+01 -0.18713019342E+02 -0.10412254038E+03  0.13422156791E+03  0.82245138612E+02 0.  0.
          6    2    1    2  501    0 -0.29679419087E+02 -0.45472676971E+02  0.12556005052E+03  0.22019409583E+03  0.17254414299E+03 0.  0.
         24    2    5    5    0    0 -0.24488129864E+02 -0.87857199146E+02  0.88861374331E+02  0.16369383001E+03  0.10286287079E+03 0.  0.
          5    1    5    5  501    0 -0.51912892237E+01  0.42384522174E+02  0.36698676191E+02  0.56500265822E+02  0.47000000000E+01 0. -1.
        -13    1    6    6    0    0  0.32712200376E+02 -0.12105159853E+02  0.18555215533E+01  0.34929441862E+02  0.00000000000E+00 0.  1.
         14    1    6    6    0    0 -0.57200330240E+02 -0.75752039292E+02  0.87005852778E+02  0.12876438814E+03  0.00000000000E+00 0. -1.
         -5    1    3    3    0  503  0.37392133169E+02  0.64185696314E+02 -0.29027912513E+03  0.29966987790E+03  0.47000000000E+01 0.  1.
         13    1    4    4    0    0 -0.42924344972E+02 -0.34372866405E+01 -0.73224534595E+02  0.84947906374E+02  0.00000000000E+00 0. -1.
        -14    1    4    4    0    0  0.35211630890E+02 -0.15275732702E+02 -0.30898005786E+02  0.49273661535E+02  0.00000000000E+00 0.  1.
</event>
<event>
12    1  0.8488291E-002  0.2411643E+03  0.7818608E-02  0.1119335E+00
         21   -1    0    0  501  502  0.00000000000E+00  0.00000000000E+00  0.48087381166E+03  0.48087381166E+03  0.00000000000E+00 0. -1.
         21   -1    0    0  502  503 -0.00000000000E+00 -0.00000000000E+00 -0.25654814661E+03  0.25654814661E+03  0.00000000000E+00 0.  1.
         -6    2    1    2    0  503  0.16468321757E+03 -0.35480264894E+02 -0.15704101257E+03  0.28620054743E+03  0.16991015971E+03 0.  0.
        -24    2    3    3    0    0  0.17951403322E+02 -0.72475803556E+01 -0.22741404112E+02  0.85238400197E+02  0.79835036826E+02 0.  0.
          6    2    1    2  501    0 -0.16468321757E+03  0.35480264894E+02  0.38136667763E+03  0.45122141084E+03  0.17257116635E+03 0.  0.
         24    2    5    5    0    0 -0.97225583997E+02 -0.18390437527E+02  0.12005563278E+03  0.17597944989E+03  0.82245908395E+02 0.  0.
          5    1    5    5  501    0 -0.67457633571E+02  0.53870702421E+02  0.26131104485E+03  0.27524196095E+03  0.47000000000E+01 0. -1.
        -13    1    6    6    0    0  0.11182665141E+02  0.74297403217E+01  0.29405340805E+02  0.32325332307E+02  0.00000000000E+00 0.  1.
         14    1    6    6    0    0 -0.10840824914E+03 -0.25820177849E+02  0.90650291971E+02  0.14365411759E+03  0.00000000000E+00 0. -1.
         -5    1    3    3    0  503  0.14673181425E+03 -0.28232684538E+02 -0.13429960846E+03  0.20096214723E+03  0.47000000000E+01 0.  1.
         13    1    4    4    0    0  0.16253488289E+02  0.35334015906E+02 -0.16164675002E+02  0.42118467203E+02  0.00000000000E+00 0. -1.
        -14    1    4    4    0    0  0.16979150332E+01 -0.42581596262E+02 -0.65767291101E+01  0.43119932994E+02  0.00000000000E+00 0.  1.
</event>
<event>
12    1  0.8488291E-002  0.1828442E+03  0.7818608E-02  0.1165148E+00
         21   -1    0    0  503  502  0.00000000000E+00  0.00000000000E+00  0.11653121254E+03  0.11653121254E+03  0.00000000000E+00 0. -1.
         21   -1    0    0  501  503 -0.00000000000E+00 -0.00000000000E+00 -0.33486220633E+03  0.33486220633E+03  0.00000000000E+00 0. -1.
          6    2    1    2  501    0 -0.29503690650E+02 -0.56933657029E+02 -0.19492101079E+03  0.26705665528E+03  0.17091854088E+03 0.  0.
         24    2    3    3    0    0 -0.28877364184E+02 -0.48728620002E+01 -0.19119083927E+03  0.21464746865E+03  0.93069607433E+02 0.  0.
         -6    2    1    2    0  502  0.29503690650E+02  0.56933657029E+02 -0.23409983000E+02  0.18433676359E+03  0.17123114799E+03 0.  0.
        -24    2    5    5    0    0  0.39414342411E+02  0.94142485283E+02  0.15943324414E+02  0.12907836402E+03  0.77399848456E+02 0.  0.
          5    1    3    3  501    0 -0.62632646555E+00 -0.52060795029E+02 -0.37301715165E+01  0.52409186632E+02  0.47000000000E+01 0. -1.
        -11    1    4    4    0    0  0.18224827506E+02 -0.34380269977E+02 -0.53439411830E+02  0.66105355593E+02  0.00000000000E+00 0.  1.
         12    1    4    4    0    0 -0.47102191690E+02  0.29507407977E+02 -0.13775142744E+03  0.14854211305E+03  0.00000000000E+00 0. -1.
         -5    1    5    5    0  502 -0.99106517615E+01 -0.37208828254E+02 -0.39353307414E+02  0.55258399568E+02  0.47000000000E+01 0.  1.
         13    1    6    6    0    0  0.36792403823E+02  0.45621335845E+02  0.43709396633E+02  0.73112916898E+02  0.00000000000E+00 0. -1.
        -14    1    6    6    0    0  0.26219385879E+01  0.48521149438E+02 -0.27766072218E+02  0.55965447119E+02  0.00000000000E+00 0.  1.
</event>
<event>
12    1  0.8488291E-002  0.1778782E+03  0.7818608E-02  0.1170108E+00
         21   -1    0    0  501  502  0.00000000000E+00  0.00000000000E+00  0.94632384731E+02  0.94632384731E+02  0.00000000000E+00 0. -1.
         21   -1    0    0  502  503 -0.00000000000E+00 -0.00000000000E+00 -0.57643185787E+03  0.57643185787E+03  0.00000000000E+00 0. -1.
         -6    2    1    2    0  503  0.45100618961E+02  0.65793251118E+01 -0.45876927670E+03  0.49170138893E+03  0.17094927108E+03 0.  0.
        -24    2    3    3    0    0  0.33151610926E+02  0.69533497461E+00 -0.95300257464E+02  0.12795804799E+03  0.78686785267E+02 0.  0.
          6    2    1    2  501    0 -0.45100618961E+02 -0.65793251118E+01 -0.23030196446E+02  0.17936285368E+03  0.17193978592E+03 0.  0.
         24    2    5    5    0    0 -0.70936528534E+02 -0.52251030716E+02  0.68291372615E+01  0.11880652679E+03  0.79411538212E+02 0.  0.
          5    1    5    5  501    0  0.25835909572E+02  0.45671705605E+02 -0.29859333707E+02  0.60556326884E+02  0.47000000000E+01 0. -1.
        -13    1    6    6    0    0  0.14592199552E+02  0.21003457194E+01  0.93149468881E+01  0.17438806595E+02  0.00000000000E+00 0.  1.
         14    1    6    6    0    0 -0.85528728086E+02 -0.54351376436E+02 -0.24858096266E+01  0.10136772020E+03  0.00000000000E+00 0. -1.
         -5    1    3    3    0  503  0.11949008035E+02  0.58839901372E+01 -0.36346901923E+03  0.36374334094E+03  0.47000000000E+01 0.  1.
         11    1    4    4    0    0  0.19086364082E+02  0.32885971379E+02 -0.16052224278E+02  0.41272876223E+02  0.00000000000E+00 0. -1.
        -12    1    4    4    0    0  0.14065246844E+02 -0.32190636404E+02 -0.79248033186E+02  0.86685171770E+02  0.00000000000E+00 0.  1.
</event>
<event>
12    1  0.8488291E-002  0.2752059E+03  0.7818608E-02  0.1098359E+00
         21   -1    0    0  503  502  0.00000000000E+00  0.00000000000E+00  0.83701543499E+02  0.83701543499E+02  0.00000000000E+00 0. -1.
         21   -1    0    0  501  503 -0.00000000000E+00 -0.00000000000E+00 -0.90755223811E+03  0.90755223811E+03  0.00000000000E+00 0. -1.
          6    2    1    2  501    0  0.14846992916E+03 -0.15462920992E+03 -0.38231799566E+03  0.47097556514E+03  0.17232939600E+03 0.  0.
         24    2    3    3    0    0  0.13487643613E+03 -0.95727451567E+02 -0.16972099833E+03  0.24990142947E+03  0.79310208471E+02 0.  0.
         -6    2    1    2    0  502 -0.14846992916E+03  0.15462920992E+03 -0.44153269895E+03  0.52027821647E+03  0.17258269283E+03 0.  0.
        -24    2    5    5    0    0 -0.13677922053E+03  0.57035859774E+02 -0.33527543606E+03  0.37545477024E+03  0.81209740815E+02 0.  0.
          5    1    3    3  501    0  0.13593493034E+02 -0.58901758351E+02 -0.21259699733E+03  0.22107413568E+03  0.47000000000E+01 0. -1.
        -13    1    4    4    0    0 -0.92441913725E+01 -0.14081419163E+02 -0.23770058679E+02  0.29133436621E+02  0.00000000000E+00 0.  1.
         14    1    4    4    0    0  0.14412062750E+03 -0.81646032404E+02 -0.14595093965E+03  0.22076799284E+03  0.00000000000E+00 0. -1.
         -5    1    5    5    0  502 -0.11690708637E+02  0.97593350143E+02 -0.10625726288E+03  0.14482344622E+03  0.47000000000E+01 0.  1.
         13    1    6    6    0    0 -0.75749178131E+02  0.41351523194E+02 -0.10098132970E+03  0.13283491787E+03  0.00000000000E+00 0. -1.
        -14    1    6    6    0    0 -0.61030042395E+02  0.15684336580E+02 -0.23429410636E+03  0.24261985237E+03  0.00000000000E+00 0.  1.
</event>
<event>
12    1  0.8488291E-002  0.1867521E+03  0.7818608E-02  0.1161486E+00
         21   -1    0    0  503  502  0.00000000000E+00  0.00000000000E+00  0.45015913806E+02  0.45015913806E+02  0.00000000000E+00 0.  1.
         21   -1    0    0  501  503 -0.00000000000E+00 -0.00000000000E+00 -0.12243585765E+04  0.12243585765E+04  0.00000000000E+00 0.  1.
          6    2    1    2  501    0  0.45376546982E+02  0.54432203283E+02 -0.97502780252E+03  0.99275150622E+03  0.17278437902E+03 0.  0.
         24    2    3    3    0    0  0.95559712152E+02  0.19702176231E+02 -0.68638890859E+03  0.69769384078E+03  0.78275968761E+02 0.  0.
         -6    2    1    2    0  502 -0.45376546982E+02 -0.54432203283E+02 -0.20431486022E+03  0.27662298414E+03  0.17249294906E+03 0.  0.
        -24    2    5    5    0    0 -0.33624779506E+02 -0.22754627500E+02 -0.22053131127E+03  0.23885214709E+03  0.82267186960E+02 0.  0.
          5    1    3    3  501    0 -0.50183165170E+02  0.34730027052E+02 -0.28863889393E+03  0.29505766544E+03  0.47000000000E+01 0. -1.
        -13    1    4    4    0    0  0.59975545944E+02  0.49200692703E+02 -0.37990797917E+03  0.38774714300E+03  0.00000000000E+00 0.  1.
         14    1    4    4    0    0  0.35584166209E+02 -0.29498516471E+02 -0.30648092943E+03  0.30994669778E+03  0.00000000000E+00 0. -1.
         -5    1    5    5    0  502 -0.11751767476E+02 -0.31677575783E+02  0.16216451052E+02  0.37770837044E+02  0.47000000000E+01 0.  1.
         13    1    6    6    0    0  0.22895418174E+02 -0.24111165719E+02 -0.59158141416E+02  0.67861875759E+02  0.00000000000E+00 0. -1.
        -14    1    6    6    0    0 -0.56520197680E+02  0.13565382191E+01 -0.16137316986E+03  0.17099027134E+03  0.00000000000E+00 0.  1.
</event>
<event>
12    1  0.8488291E-002  0.2303490E+03  0.7818608E-02  0.1129411E+00
         21   -1    0    0  501  502  0.00000000000E+00  0.00000000000E+00  0.17797182950E+03  0.17797182950E+03  0.00000000000E+00 0.  1.
         21   -1    0    0  502  503 -0.00000000000E+00 -0.00000000000E+00 -0.28122516179E+03  0.28122516179E+03  0.00000000000E+00 0. -1.
         -6    2    1    2    0  503  0.12410598832E+03  0.29721448699E+02 -0.22136283670E+02  0.21498262769E+03  0.17158628821E+03 0.  0.
        -24    2    3    3    0    0  0.10612599854E+03  0.83994324603E+02 -0.34104112913E+02  0.15638105750E+03  0.70527799456E+02 0.  0.
          6    2    1    2  501    0 -0.12410598832E+03 -0.29721448699E+02 -0.81117048626E+02  0.24421436360E+03  0.19176813855E+03 0.  0.
         24    2    5    5    0    0 -0.45839940732E+01 -0.30669691798E+02 -0.95270586906E+02  0.12376180481E+03  0.72655740336E+02 0.  0.
          5    1    5    5  501    0 -0.11952199425E+03  0.94824309868E+00  0.14153538280E+02  0.12045255879E+03  0.47000000000E+01 0. -1.
        -13    1    6    6    0    0  0.13599081181E+02 -0.38478933192E+02 -0.19094625849E+02  0.45057386130E+02  0.00000000000E+00 0.  1.
         14    1    6    6    0    0 -0.18183075254E+02  0.78092413942E+01 -0.76175961057E+02  0.78704418680E+02  0.00000000000E+00 0. -1.
         -5    1    3    3    0  503  0.17979989776E+02 -0.54272875904E+02  0.11967829243E+02  0.58601570184E+02  0.47000000000E+01 0.  1.
         13    1    4    4    0    0  0.68968200102E+02  0.33409289196E+02 -0.50164633621E+02  0.91593033011E+02  0.00000000000E+00 0. -1.
        -14    1    4    4    0    0  0.37157798441E+02  0.50585035407E+02  0.16060520709E+02  0.64788024492E+02  0.00000000000E+00 0.  1.
</event>
<event>
12    1  0.8488291E-002  0.2099514E+03  0.7818608E-02  0.1142082E+00
         21   -1    0    0  501  502  0.00000000000E+00  0.00000000000E+00  0.60922279007E+03  0.60922279007E+03  0.00000000000E+00 0. -1.
         21   -1    0    0  502  503 -0.00000000000E+00 -0.00000000000E+00 -0.77841335708E+02  0.77841335708E+02  0.00000000000E+00 0. -1.
         -6    2    1    2    0  503 -0.71998009139E+02  0.96658216033E+02  0.16647861949E+03  0.26607282337E+03  0.16897660353E+03 0.  0.
        -24    2    3    3    0    0  0.25746834988E+02  0.59267245511E+02  0.99784467416E+02  0.14188611252E+03  0.77454651803E+02 0.  0.
          6    2    1    2  501    0  0.71998009139E+02 -0.96658216033E+02  0.36490283487E+03  0.42099130241E+03  0.17191007464E+03 0.  0.
         24    2    5    5    0    0  0.10475066314E+03 -0.71259953340E+02  0.33794586109E+03  0.37132666179E+03  0.87323549818E+02 0.  0.
          5    1    5    5  501    0 -0.32752654005E+02 -0.25398262693E+02  0.26956973779E+02  0.49664640616E+02  0.47000000000E+01 0. -1.
        -13    1    6    6    0    0  0.11843807623E+02  0.20240545244E+02  0.53680549074E+02  0.58579491288E+02  0.00000000000E+00 0.  1.
         14    1    6    6    0    0  0.92906855521E+02 -0.91500498584E+02  0.28426531202E+03  0.31274717051E+03  0.00000000000E+00 0. -1.
         -5    1    3    3    0  503 -0.97744844127E+02  0.37390970522E+02  0.66694152077E+02  0.12418671085E+03  0.47000000000E+01 0.  1.
         13    1    4    4    0    0 -0.83570318125E+01  0.53695416879E+02  0.25645428659E+02  0.60089315070E+02  0.00000000000E+00 0. -1.
        -14    1    4    4    0    0  0.34103866800E+02  0.55718286319E+01  0.74139038757E+02  0.81796797449E+02  0.00000000000E+00 0.  1.
</event>
<event>
12    1  0.8488291E-002  0.1854947E+03  0.7818608E-02  0.1162740E+00
         21   -1    0    0  503  502  0.00000000000E+00  0.00000000000E+00  0.34287643144E+03  0.34287643144E+03  0.00000000000E+00 0.  1.
         21   -1    0    0  501  503 -0.00000000000E+00 -0.00000000000E+00 -0.41676361427E+03  0.41676361427E+03  0.00000000000E+00 0. -1.
          6    2    1    2  501    0  0.97927734600E+01 -0.68387257509E+02 -0.36805875878E+03  0.41186828997E+03  0.17145122622E+03 0.  0.
         24    2    3    3    0    0 -0.49703692610E+02 -0.39478079497E+02 -0.12994079472E+03  0.16468854797E+03  0.78795506732E+02 0.  0.
         -6    2    1    2    0  502 -0.97927734600E+01  0.68387257509E+02  0.29417157596E+03  0.34777175574E+03  0.17214982598E+03 0.  0.
        -24    2    5    5    0    0 -0.19271226250E+02  0.80223020113E+02  0.99434917388E+02  0.15238909905E+03  0.80796173152E+02 0.  0.
          5    1    3    3  501    0  0.59496466070E+02 -0.28909178011E+02 -0.23811796406E+03  0.24717974200E+03  0.47000000000E+01 0. -1.
        -13    1    4    4    0    0 -0.15203276375E+02  0.10119946048E+01 -0.10471054978E+03  0.10581334028E+03  0.00000000000E+00 0.  1.
         14    1    4    4    0    0 -0.34500416235E+02 -0.40490074102E+02 -0.25230244937E+02  0.58875207692E+02  0.00000000000E+00 0. -1.
         -5    1    5    5    0  502  0.94784527900E+01 -0.11835762605E+02  0.19473665857E+03  0.19538265669E+03  0.47000000000E+01 0.  1.
         11    1    6    6    0    0 -0.88472882846E+00  0.14302538475E+02 -0.13919626836E+02  0.19977521448E+02  0.00000000000E+00 0. -1.
        -12    1    6    6    0    0 -0.18386497422E+02  0.65920481638E+02  0.11335454422E+03  0.13241157760E+03  0.00000000000E+00 0.  1.
</event>
<event>
12    1  0.8488291E-002  0.1948513E+03  0.7818608E-02  0.1154863E+00
         21   -1    0    0  503  502  0.00000000000E+00  0.00000000000E+00  0.30378198077E+02  0.30378198077E+02  0.00000000000E+00 0.  1.
         21   -1    0    0  501  503 -0.00000000000E+00 -0.00000000000E+00 -0.12504506440E+04  0.12504506440E+04  0.00000000000E+00 0.  1.
          6    2    1    2  501    0  0.81299848091E+02  0.29172769920E+02 -0.53178032154E+03  0.56635442248E+03  0.17466054415E+03 0.  0.
         24    2    3    3    0    0  0.12138407589E+03  0.19811988503E+01 -0.37634583464E+03  0.40347994145E+03  0.80136489004E+02 0.  0.
         -6    2    1    2    0  502 -0.81299848091E+02 -0.29172769920E+02 -0.68829212443E+03  0.71447441964E+03  0.17107580766E+03 0.  0.
        -24    2    5    5    0    0 -0.96347932590E+02 -0.34851571556E+02 -0.29944644648E+03  0.32526786151E+03  0.75056320628E+02 0.  0.
          5    1    3    3  501    0 -0.40084227795E+02  0.27191571070E+02 -0.15543448690E+03  0.16287448103E+03  0.47000000000E+01 0. -1.
        -13    1    4    4    0    0  0.32500345568E+02  0.25298762790E+02 -0.51812290327E+02  0.66187712528E+02  0.00000000000E+00 0.  1.
         14    1    4    4    0    0  0.88883730318E+02 -0.23317563940E+02 -0.32453354432E+03  0.33729222892E+03  0.00000000000E+00 0. -1.
         -5    1    5    5    0  502  0.15048084499E+02  0.56788016357E+01 -0.38884567794E+03  0.38920655813E+03  0.47000000000E+01 0.  1.
         13    1    6    6    0    0 -0.27785347568E+02  0.77663115139E+01 -0.17201298383E+03  0.17441561782E+03  0.00000000000E+00 0. -1.
        -14    1    6    6    0    0 -0.68562585022E+02 -0.42617883070E+02 -0.12743346265E+03  0.15085224369E+03  0.00000000000E+00 0.  1.
</event>
<event>
12    1  0.8488291E-002  0.2607867E+03  0.7818608E-02  0.1106766E+00
         21   -1    0    0  503  502  0.00000000000E+00  0.00000000000E+00  0.10217088958E+04  0.10217088958E+04  0.00000000000E+00 0.  1.
         21   -1    0    0  501  503 -0.00000000000E+00 -0.00000000000E+00 -0.74229609752E+02  0.74229609752E+02  0.00000000000E+00 0.  1.
          6    2    1    2  501    0  0.16248499138E+03  0.10811789411E+03  0.29529040021E+03  0.39354256152E+03  0.17201301061E+03 0.  0.
         24    2    3    3    0    0  0.55917202571E+02  0.11906342859E+03  0.20105391943E+03  0.25078716706E+03  0.71893609402E+02 0.  0.
         -6    2    1    2    0  502 -0.16248499138E+03 -0.10811789411E+03  0.65218888587E+03  0.70239594407E+03  0.17297071411E+03 0.  0.
        -24    2    5    5    0    0 -0.18076950805E+03 -0.72865111016E+02  0.60788604257E+03  0.64271416972E+03  0.74626562009E+02 0.  0.
          5    1    3    3  501    0  0.10656778881E+03 -0.10945534480E+02  0.94236480784E+02  0.14275539446E+03  0.47000000000E+01 0. -1.
        -11    1    4    4    0    0  0.23421922968E+02  0.98353468206E+02  0.98167132454E+02  0.14092117328E+03  0.00000000000E+00 0.  1.
         12    1    4    4    0    0  0.32495279603E+02  0.20709960383E+02  0.10288678697E+03  0.10986599378E+03  0.00000000000E+00 0. -1.
         -5    1    5    5    0  502  0.18284516667E+02 -0.35252783094E+02  0.44302843304E+02  0.59681774357E+02  0.47000000000E+01 0.  1.
         13    1    6    6    0    0 -0.17120521239E+02  0.14057830260E+02  0.45885210217E+02  0.50952795368E+02  0.00000000000E+00 0. -1.
        -14    1    6    6    0    0 -0.16364898681E+03 -0.86922941276E+02  0.56200083235E+03  0.59176137435E+03  0.00000000000E+00 0.  1.
</event>
<event>
12    1  0.8488291E-002  0.1938771E+03  0.7818608E-02  0.1156541E+00
         21   -1    0    0  501  502  0.00000000000E+00  0.00000000000E+00  0.17051104330E+03  0.17051104330E+03  0.00000000000E+00 0.  1.
         21   -1    0    0  502  503 -0.00000000000E+00 -0.00000000000E+00 -0.37960033258E+03  0.37960033258E+03  0.00000000000E+00 0.  1.
         -6    2    1    2    0  503  0.65746437816E+02  0.32702968052E+02 -0.28794217437E+03  0.34712967707E+03  0.17943310373E+03 0.  0.
        -24    2    3    3    0    0  0.25628922663E+02 -0.36492991842E+02 -0.23231047615E+03  0.24958752344E+03  0.79606497187E+02 0.  0.
          6    2    1    2  501    0 -0.65746437816E+02 -0.32702968052E+02  0.78852885094E+02  0.20298169882E+03  0.17202242401E+03 0.  0.
         24    2    5    5    0    0 -0.76128738965E+02 -0.29909190038E+01  0.11257391141E+03  0.15661580994E+03  0.77788790322E+02 0.  0.
          5    1    5    5  501    0  0.10382301149E+02 -0.29712049048E+02 -0.33721026317E+02  0.46365888880E+02  0.47000000000E+01 0. -1.
        -13    1    6    6    0    0 -0.47407973723E+02 -0.16895416762E+02  0.12895521058E+02  0.51954456435E+02  0.00000000000E+00 0.  1.
         14    1    6    6    0    0 -0.28720765242E+02  0.13904497759E+02  0.99678390353E+02  0.10466135350E+03  0.00000000000E+00 0. -1.
         -5    1    3    3    0  503  0.40117515154E+02  0.69195959894E+02 -0.55631698218E+02  0.97542153628E+02  0.47000000000E+01 0.  1.
         11    1    4    4    0    0  0.41995902237E+02 -0.11720306774E+01 -0.62060186320E+02  0.74943286469E+02  0.00000000000E+00 0. -1.
        -12    1    4    4    0    0 -0.16366979574E+02 -0.35320961165E+02 -0.17025028983E+03  0.17464423697E+03  0.00000000000E+00 0.  1.
</event>
<event>
12    1  0.8488291E-002  0.1919564E+03  0.7818608E-02  0.1156918E+00
         21   -1    0    0  501  502  0.00000000000E+00  0.00000000000E+00  0.13141768992E+04  0.13141768992E+04  0.00000000000E+00 0. -1.
         21   -1    0    0  502  503 -0.00000000000E+00 -0.00000000000E+00 -0.37169493656E+02  0.37169493656E+02  0.00000000000E+00 0. -1.
         -6    2    1    2    0  503  0.79558652108E+02  0.26854712599E+02  0.29993666092E+03  0.35559817474E+03  0.17157303577E+03 0.  0.
        -24    2    3    3    0    0  0.84357457869E+02  0.27675800420E+02  0.31467519753E+03  0.33938037022E+03  0.90974859838E+02 0.  0.
          6    2    1    2  501    0 -0.79558652108E+02 -0.26854712599E+02  0.97707074459E+03  0.99574821807E+03  0.17261668272E+03 0.  0.
         24    2    5    5    0    0  0.18286940466E+02  0.76923469101E+00  0.28915137991E+03  0.30034043501E+03  0.79125548868E+02 0.  0.
          5    1    5    5  501    0 -0.97845592574E+02 -0.27623947290E+02  0.68791936467E+03  0.69540778306E+03  0.47000000000E+01 0. -1.
        -11    1    6    6    0    0  0.90905140274E+00 -0.38136321152E+02  0.15256802877E+03  0.15726477282E+03  0.00000000000E+00 0.  1.
         12    1    6    6    0    0  0.17377889063E+02  0.38905555843E+02  0.13658335114E+03  0.14307566219E+03  0.00000000000E+00 0. -1.
         -5    1    3    3    0  503 -0.47988057613E+01 -0.82108782120E+00 -0.14738536615E+02  0.16217804521E+02  0.47000000000E+01 0.  1.
         13    1    4    4    0    0  0.59374297422E+02 -0.18117553407E+02  0.94177199007E+02  0.11279582328E+03  0.00000000000E+00 0. -1.
        -14    1    4    4    0    0  0.24983160447E+02  0.45793353827E+02  0.22049799852E+03  0.22658454694E+03  0.00000000000E+00 0.  1.
</event>
<event>
12    1  0.8488291E-002  0.1780542E+03  0.7818608E-02  0.1169802E+00
         21   -1    0    0  501  502  0.00000000000E+00  0.00000000000E+00  0.24531592592E+03  0.24531592592E+03  0.00000000000E+00 0. -1.
         21   -1    0    0  502  503 -0.00000000000E+00 -0.00000000000E+00 -0.33602433306E+03  0.33602433306E+03  0.00000000000E+00 0. -1.
         -6    2    1    2    0  503 -0.30362057169E+02  0.32037390809E+02 -0.27356424651E+03  0.32640572743E+03  0.17249653041E+03 0.  0.
        -24    2    3    3    0    0 -0.43545460684E+02  0.81381714376E+02 -0.22572003533E+03  0.25626427791E+03  0.78756937498E+02 0.  0.
          6    2    1    2  501    0  0.30362057169E+02 -0.32037390809E+02  0.18285583937E+03  0.25493453155E+03  0.17206716265E+03 0.  0.
         24    2    5    5    0    0 -0.38982507437E+02  0.19817374056E+02  0.98992037155E+02  0.13429949269E+03  0.79527140750E+02 0.  0.
          5    1    5    5  501    0  0.69344564606E+02 -0.51854764865E+02  0.83863802213E+02  0.12063503886E+03  0.47000000000E+01 0. -1.
        -11    1    6    6    0    0 -0.62622785555E+02  0.49358847947E+01  0.67788416767E+02  0.92418859964E+02  0.00000000000E+00 0.  1.
         12    1    6    6    0    0  0.23640278118E+02  0.14881489261E+02  0.31203620388E+02  0.41880632725E+02  0.00000000000E+00 0. -1.
         -5    1    3    3    0  503  0.13183403515E+02 -0.49344323566E+02 -0.47844211184E+02  0.70141449516E+02  0.47000000000E+01 0.  1.
         13    1    4    4    0    0 -0.22222648927E+02 -0.52367161046E+01 -0.97032427719E+02  0.99682302090E+02  0.00000000000E+00 0. -1.
        -14    1    4    4    0    0 -0.21322811757E+02  0.86618430480E+02 -0.12868760761E+03  0.15658197582E+03  0.00000000000E+00 0.  1.
</event>
<event>
12    1  0.8488291E-002  0.2577176E+03  0.7818608E-02  0.1109438E+00
         21   -1    0    0  503  502  0.00000000000E+00  0.00000000000E+00  0.32038633339E+04  0.32038633339E+04  0.00000000000E+00 0. -1.
         21   -1    0    0  501  503 -0.00000000000E+00 -0.00000000000E+00 -0.26649296603E+02  0.26649296603E+02  0.00000000000E+00 0. -1.
          6    2    1    2  501    0  0.17345284281E+03 -0.78489156545E+02  0.81152566915E+03  0.85146479107E+03  0.17370072645E+03 0.  0.
         24    2    3    3    0    0  0.88232022034E+02 -0.11146303947E+03  0.47024982537E+03  0.49813611010E+03  0.82436563767E+02 0.  0.
         -6    2    1    2    0  502 -0.17345284281E+03  0.78489156545E+02  0.23656883682E+04  0.23790478394E+04  0.16474444071E+03 0.  0.
        -24    2    5    5    0    0 -0.70110636700E+02  0.99941938507E+02  0.13381916728E+04  0.13461338148E+04  0.80096202371E+02 0.  0.
          5    1    3    3  501    0  0.85220820775E+02  0.32973882924E+02  0.34127584378E+03  0.35332868097E+03  0.47000000000E+01 0. -1.
        -13    1    4    4    0    0  0.31266182186E+02 -0.24988985083E+02  0.43969206026E+02  0.59458511607E+02  0.00000000000E+00 0.  1.
         14    1    4    4    0    0  0.56965839847E+02 -0.86474054386E+02  0.42628061934E+03  0.43867759849E+03  0.00000000000E+00 0. -1.
         -5    1    5    5    0  502 -0.10334220611E+03 -0.21452781962E+02  0.10274966953E+04  0.10329140246E+04  0.47000000000E+01 0.  1.
         11    1    6    6    0    0 -0.73308948464E+02  0.35457662049E+02  0.73712591794E+03  0.74161045477E+03  0.00000000000E+00 0. -1.
        -12    1    6    6    0    0  0.31983117639E+01  0.64484276459E+02  0.60106575490E+03  0.60452336003E+03  0.00000000000E+00 0.  1.
</event>
<event>
12    1  0.8488291E-002  0.2277580E+03  0.7818608E-02  0.1128339E+00
         21   -1    0    0  501  502  0.00000000000E+00  0.00000000000E+00  0.25037821576E+03  0.25037821576E+03  0.00000000000E+00 0.  1.
         21   -1    0    0  502  503 -0.00000000000E+00 -0.00000000000E+00 -0.65061364451E+03  0.65061364451E+03  0.00000000000E+00 0. -1.
         -6    2    1    2    0  503 -0.14801117507E+03  0.22125728537E+02 -0.57235665216E+03  0.61600798312E+03  0.17168821214E+03 0.  0.
        -24    2    3    3    0    0 -0.17125412264E+03  0.19959796545E+02 -0.40907572493E+03  0.45099987098E+03  0.79571143660E+02 0.  0.
          6    2    1    2  501    0  0.14801117507E+03 -0.22125728537E+02  0.17212122341E+03  0.28498387715E+03  0.17086029053E+03 0.  0.
         24    2    5    5    0    0  0.89587334622E+02 -0.29437574268E+02  0.18820515994E+03  0.22376630423E+03  0.75879611085E+02 0.  0.
          5    1    5    5  501    0  0.58423840447E+02  0.73118457315E+01 -0.16083936526E+02  0.61217572925E+02  0.47000000000E+01 0. -1.
        -11    1    6    6    0    0  0.99423391734E+01 -0.35325921539E+01  0.10561854831E+03  0.10614427475E+03  0.00000000000E+00 0.  1.
         12    1    6    6    0    0  0.79644995449E+02 -0.25904982114E+02  0.82586611625E+02  0.11762202948E+03  0.00000000000E+00 0. -1.
         -5    1    3    3    0  503  0.23242947570E+02  0.21659319911E+01 -0.16328092723E+03  0.16500811214E+03  0.47000000000E+01 0.  1.
         13    1    4    4    0    0 -0.29636101181E+02  0.20822591553E+02 -0.16396119866E+03  0.16791412531E+03  0.00000000000E+00 0. -1.
        -14    1    4    4    0    0 -0.14161802146E+03 -0.86279500727E+00 -0.24511452627E+03  0.28308574568E+03  0.00000000000E+00 0.  1.
</event>
<event>
12    1  0.8488291E-002  0.1977365E+03  0.7818608E-02  0.1151858E+00
         21   -1    0    0  501  502  0.00000000000E+00  0.00000000000E+00  0.11201000821E+04  0.11201000821E+04  0.00000000000E+00 0. -1.
         21   -1    0    0  502  503 -0.00000000000E+00 -0.00000000000E+00 -0.73018769352E+02  0.73018769352E+02  0.00000000000E+00 0. -1.
         -6    2    1    2    0  503 -0.40838306756E+01  0.95477164390E+02  0.92222394221E+02  0.21818503090E+03  0.17311028600E+03 0.  0.
        -24    2    3    3    0    0 -0.43273936046E+02  0.10464750799E+03  0.10722715600E+03  0.17497400873E+03  0.79337924585E+02 0.  0.
          6    2    1    2  501    0  0.40838306756E+01 -0.95477164390E+02  0.95485891848E+03  0.97493382051E+03  0.17206926970E+03 0.  0.
         24    2    5    5    0    0 -0.59525281796E+02 -0.63195745782E+02  0.46239541514E+03  0.47730886002E+03  0.80481466525E+02 0.  0.
          5    1    5    5  501    0  0.63609112472E+02 -0.32281418608E+02  0.49246350334E+03  0.49762496049E+03  0.47000000000E+01 0. -1.
        -13    1    6    6    0    0  0.78595108838E+01 -0.36625064071E+02  0.83008120116E+02  0.91068739064E+02  0.00000000000E+00 0.  1.
         14    1    6    6    0    0 -0.67384792680E+02 -0.26570681711E+02  0.37938729502E+03  0.38624012095E+03  0.00000000000E+00 0. -1.
         -5    1    3    3    0  503  0.39190105370E+02 -0.91703436012E+01 -0.15004761780E+02  0.43211022167E+02  0.47000000000E+01 0.  1.
         11    1    4    4    0    0  0.16113570394E+02  0.58075990352E+02  0.31274213218E+02  0.67900988348E+02  0.00000000000E+00 0. -1.
        -12    1    4    4    0    0 -0.59387506440E+02  0.46571517639E+02  0.75952942782E+02  0.10707302038E+03  0.00000000000E+00 0.  1.
</event>
<event>
12    1  0.8488291E-002  0.2308757E+03  0.7818608E-02  0.1126550E+00
         21   -1    0    0  503  502  0.00000000000E+00  0.00000000000E+00  0.39782495079E+02  0.39782495079E+02  0.00000000000E+00 0. -1.
         21   -1    0    0  501  503 -0.00000000000E+00 -0.00000000000E+00 -0.23751896217E+04  0.23751896217E+04  0.00000000000E+00 0.  1.
          6    2    1    2  501    0  0.13372075969E+03 -0.76578127840E+02 -0.19757295634E+04  0.19891734214E+04  0.17192481304E+03 0.  0.
         24    2    3    3    0    0  0.67592201100E+02 -0.11249448830E+03 -0.14116926724E+04  0.14201192274E+04  0.81478238212E+02 0.  0.
         -6    2    1    2    0  502 -0.13372075969E+03  0.76578127840E+02 -0.35967756321E+03  0.42579869540E+03  0.16790213904E+03 0.  0.
        -24    2    5    5    0    0 -0.99735299343E+02 -0.52700150056E+01 -0.13776480190E+03  0.18679766270E+03  0.77067004308E+02 0.  0.
          5    1    3    3  501    0  0.66128558589E+02  0.35916360463E+02 -0.56403689108E+03  0.56905419400E+03  0.47000000000E+01 0. -1.
        -11    1    4    4    0    0  0.57572833892E+02 -0.56137394301E+02 -0.11187753901E+04  0.11216614515E+04  0.00000000000E+00 0.  1.
         12    1    4    4    0    0  0.10019367208E+02 -0.56357094002E+02 -0.29291728224E+03  0.29845777590E+03  0.00000000000E+00 0. -1.
         -5    1    5    5    0  502 -0.33985460347E+02  0.81848142846E+02 -0.22191276131E+03  0.23900103270E+03  0.47000000000E+01 0.  1.
         13    1    6    6    0    0 -0.16065734089E+02  0.15183181266E+02  0.24498222019E+01  0.22240468385E+02  0.00000000000E+00 0. -1.
        -14    1    6    6    0    0 -0.83669565254E+02 -0.20453196271E+02 -0.14021462410E+03  0.16455719431E+03  0.00000000000E+00 0.  1.
</event>
<event>
12    1  0.8488291E-002  0.1775991E+03  0.7818608E-02  0.1170187E+00
         21   -1    0    0  503  502  0.00000000000E+00  0.00000000000E+00  0.46054049531E+03  0.46054049531E+03  0.00000000000E+00 0.  1.
         21   -1    0    0  501  503 -0.00000000000E+00 -0.00000000000E+00 -0.11558823176E+03  0.11558823176E+03  0.00000000000E+00 0.  1.
          6    2    1    2  501    0  0.43123691718E+02  0.78649585470E+01 -0.11483637933E+02  0.17796999794E+03  0.17210443302E+03 0.  0.
         24    2    3    3    0    0 -0.28210604984E+02  0.42976606644E+02 -0.22918286458E+02  0.97507268029E+02  0.79621558087E+02 0.  0.
         -6    2    1    2    0  502 -0.43123691718E+02 -0.78649585470E+01  0.35643590149E+03  0.39815872913E+03  0.17193694004E+03 0.  0.
        -24    2    5    5    0    0 -0.90196076049E+02  0.15482245138E+02  0.28038743509E+03  0.30560409376E+03  0.80010726261E+02 0.  0.
          5    1    3    3  501    0  0.71334296702E+02 -0.35111648097E+02  0.11434648525E+02  0.80462729912E+02  0.47000000000E+01 0. -1.
        -11    1    4    4    0    0 -0.56007156677E+02  0.32398231318E+02 -0.11884794692E+02  0.65785221262E+02  0.00000000000E+00 0.  1.
         12    1    4    4    0    0  0.27796551693E+02  0.10578375326E+02 -0.11033491766E+02  0.31722046767E+02  0.00000000000E+00 0. -1.
         -5    1    5    5    0  502  0.47072384331E+02 -0.23347203685E+02  0.76048466399E+02  0.92554635368E+02  0.47000000000E+01 0.  1.
         11    1    6    6    0    0 -0.35945500286E+02 -0.32640202648E+02  0.99260895704E+02  0.11049971600E+03  0.00000000000E+00 0. -1.
        -12    1    6    6    0    0 -0.54250575763E+02  0.48122447786E+02  0.18112653939E+03  0.19510437776E+03  0.00000000000E+00 0.  1.
</event>
<event>
12    1  0.8488291E-002  0.2352512E+03  0.7818608E-02  0.1123064E+00
         21   -1    0    0  501  502  0.00000000000E+00  0.00000000000E+00  0.35963671447E+03  0.35963671447E+03  0.00000000000E+00 0. -1.
         21   -1    0    0  502  503 -0.00000000000E+00 -0.00000000000E+00 -0.15980900804E+03  0.15980900804E+03  0.00000000000E+00 0.  1.
         -6    2    1    2    0  503  0.14129332839E+03 -0.74686568353E+02  0.48778228429E+02  0.23987630958E+03  0.17210299296E+03 0.  0.
        -24    2    3    3    0    0  0.12324535475E+03 -0.12391966486E+02 -0.15639121926E+02  0.14834472049E+03  0.80116138578E+02 0.  0.
          6    2    1    2  501    0 -0.14129332839E+03  0.74686568353E+02  0.15104947801E+03  0.27956941294E+03  0.17263030934E+03 0.  0.
         24    2    5    5    0    0 -0.10797362962E+03  0.54144282384E+02  0.24105299107E+02  0.14664423701E+03  0.79583659093E+02 0.  0.
          5    1    5    5  501    0 -0.33319698776E+02  0.20542285969E+02  0.12694417890E+03  0.13292517593E+03  0.47000000000E+01 0. -1.
        -11    1    6    6    0    0 -0.23570345297E+02 -0.18570826712E+02 -0.73262888042E+01  0.30888691941E+02  0.00000000000E+00 0.  1.
         12    1    6    6    0    0 -0.84403284321E+02  0.72715109095E+02  0.31431587911E+02  0.11575554507E+03  0.00000000000E+00 0. -1.
         -5    1    3    3    0  503  0.18047973644E+02 -0.62294601867E+02  0.64417350356E+02  0.91531589090E+02  0.47000000000E+01 0.  1.
         13    1    4    4    0    0  0.27357037194E+02 -0.33412051060E+02  0.14670165965E+02  0.45606868008E+02  0.00000000000E+00 0. -1.
        -14    1    4    4    0    0  0.95888317556E+02  0.21020084575E+02 -0.30309287891E+02  0.10273785248E+03  0.00000000000E+00 0.  1.
</event>
<event>
12    1  0.8488291E-002  0.1807286E+03  0.7818608E-02  0.1167156E+00
         21   -1    0    0  503  502  0.00000000000E+00  0.00000000000E+00  0.85745416774E+02  0.85745416774E+02  0.00000000000E+00 0. -1.
         21   -1    0    0  501  503 -0.00000000000E+00 -0.00000000000E+00 -0.39961119405E+03  0.39961119405E+03  0.00000000000E+00 0. -1.
          6    2    1    2  501    0  0.50161378961E+02 -0.24381070393E+02 -0.10367705436E+03  0.20815250107E+03  0.17166226017E+03 0.  0.
         24    2    3    3    0    0  0.63461514180E+02 -0.74321209578E+02 -0.90767626598E+02  0.15467676429E+03  0.78327092364E+02 0.  0.
         -6    2    1    2    0  502 -0.50161378961E+02  0.24381070393E+02 -0.21018872291E+03  0.27720410976E+03  0.17190758765E+03 0.  0.
        -24    2    5    5    0    0 -0.84961563182E+02  0.49121780456E+02 -0.19521247009E+03  0.23171198181E+03  0.77143486454E+02 0.  0.
          5    1    3    3  501    0 -0.13300135219E+02  0.49940139185E+02 -0.12909427763E+02  0.53475736776E+02  0.47000000000E+01 0. -1.
        -11    1    4    4    0    0 -0.15713644793E+02 -0.18459964286E+02 -0.35913431596E+02  0.43329706705E+02  0.00000000000E+00 0.  1.
         12    1    4    4    0    0  0.79175158973E+02 -0.55861245292E+02 -0.54854195002E+02  0.11134705759E+03  0.00000000000E+00 0. -1.
         -5    1    5    5    0  502  0.34800184221E+02 -0.24740710062E+02 -0.14976252822E+02  0.45492127943E+02  0.47000000000E+01 0.  1.
         13    1    6    6    0    0 -0.68904425371E+02 -0.27683704637E+01 -0.12700085395E+03  0.14451539923E+03  0.00000000000E+00 0. -1.
        -14    1    6    6    0    0 -0.16057137811E+02  0.51890150919E+02 -0.68211616141E+02  0.87196582580E+02  0.00000000000E+00 0.  1.
</event>
<event>
12    1  0.8488291E-002  0.2109927E+03  0.7818608E-02  0.1141063E+00
         21   -1    0    0  501  502  0.00000000000E+00  0.00000000000E+00  0.61505935488E+03  0.61505935488E+03  0.00000000000E+00 0. -1.
         21   -1    0    0  502  503 -0.00000000000E+00 -0.00000000000E+00 -0.12394910737E+03  0.12394910737E+03  0.00000000000E+00 0.  1.
         -6    2    1    2    0  503  0.44529779638E+02 -0.11396024502E+03  0.56167169776E+01  0.20964856159E+03  0.17015032515E+03 0.  0.
        -24    2    3    3    0    0  0.94045623244E+01 -0.12873015101E+03  0.41481714910E+02  0.15710982264E+03  0.79390592169E+02 0.  0.
          6    2    1    2  501    0 -0.44529779638E+02  0.11396024502E+03  0.48549353054E+03  0.52935990066E+03  0.17189560062E+03 0.  0.
         24    2    5    5    0    0 -0.89784143286E+02  0.48043736049E+02  0.30586292573E+03  0.33268202247E+03  0.82193708898E+02 0.  0.
          5    1    5    5  501    0  0.45254363647E+02  0.65916508966E+02  0.17963060481E+03  0.19667787819E+03  0.47000000000E+01 0. -1.
        -13    1    6    6    0    0 -0.48592445162E+02 -0.14661388652E+02  0.17078377641E+03  0.17816643996E+03  0.00000000000E+00 0.  1.
         14    1    6    6    0    0 -0.41191698124E+02  0.62705124701E+02  0.13507914932E+03  0.15451558251E+03  0.00000000000E+00 0. -1.
         -5    1    3    3    0  503  0.35125217314E+02  0.14769905997E+02 -0.35864997932E+02  0.52538738957E+02  0.47000000000E+01 0.  1.
         13    1    4    4    0    0  0.37295008079E+02 -0.88479291674E+02  0.51903311501E+01  0.96158422513E+02  0.00000000000E+00 0. -1.
        -14    1    4    4    0    0 -0.27890445755E+02 -0.40250859338E+02  0.36291383760E+02  0.60951400124E+02  0.00000000000E+00 0.  1.
</event>
<event>
12    1  0.8488291E-002  0.1843660E+03  0.7818608E-02  0.1163800E+00
         21   -1    0    0  503  502  0.00000000000E+00  0.00000000000E+00  0.36085615574E+03  0.36085615574E+03  0.00000000000E+00 0. -1.
         21   -1    0    0  501  503 -0.00000000000E+00 -0.00000000000E+00 -0.12402365085E+03  0.12402365085E+03  0.00000000000E+00 0. -1.
          6    2    1    2  501    0 -0.25155535827E+02  0.61566469734E+02 -0.13185503333E+01  0.18370417990E+03  0.17123742570E+03 0.  0.
         24    2    3    3    0    0 -0.46549763613E+02  0.53587745683E+02 -0.50533025885E+02  0.12924752169E+03  0.95461029625E+02 0.  0.
         -6    2    1    2    0  502  0.25155535827E+02 -0.61566469734E+02  0.23815105523E+03  0.30117562669E+03  0.17195232429E+03 0.  0.
        -24    2    5    5    0    0 -0.48169762876E+02 -0.35880075489E+02  0.11414065146E+03  0.15476162285E+03  0.85529911252E+02 0.  0.
          5    1    3    3  501    0  0.21394227786E+02  0.79787240518E+01  0.49214475552E+02  0.54456658214E+02  0.47000000000E+01 0. -1.
        -11    1    4    4    0    0 -0.36998761474E+02  0.25064868274E+02  0.22666207522E+02  0.50109010524E+02  0.00000000000E+00 0.  1.
         12    1    4    4    0    0 -0.95510021393E+01  0.28522877408E+02 -0.73199233407E+02  0.79138511162E+02  0.00000000000E+00 0. -1.
         -5    1    5    5    0  502  0.73325298703E+02 -0.25686394245E+02  0.12401040377E+03  0.14641400385E+03  0.47000000000E+01 0.  1.
         13    1    6    6    0    0 -0.16700190620E+02 -0.54539567179E+02  0.10080058663E+03  0.11581976956E+03  0.00000000000E+00 0. -1.
        -14    1    6    6    0    0 -0.31469572255E+02  0.18659491690E+02  0.13340064823E+02  0.38941853289E+02  0.00000000000E+00 0.  1.
</event>
<event>
12    1  0.8488291E-002  0.2660148E+03  0.7818608E-02  0.1103880E+00
         21   -1    0    0  503  502  0.00000000000E+00  0.00000000000E+00  0.39649330774E+03  0.39649330774E+03  0.00000000000E+00 0. -1.
         21   -1    0    0  501  503 -0.00000000000E+00 -0.00000000000E+00 -0.21801117767E+03  0.21801117767E+03  0.00000000000E+00 0. -1.
          6    2    1    2  501    0  0.88062951809E+02  0.17979402702E+03 -0.44110578954E+02  0.26764517500E+03  0.17206748935E+03 0.  0.
         24    2    3    3    0    0  0.78886659510E+02  0.43871760591E+02  0.87852323408E+01  0.12142915773E+03  0.80746663179E+02 0.  0.
         -6    2    1    2    0  502 -0.88062951809E+02 -0.17979402702E+03  0.22259270902E+03  0.34685931041E+03  0.17516532613E+03 0.  0.
        -24    2    5    5    0    0 -0.96450852890E+02 -0.10937742469E+03  0.74628045627E+02  0.18271155264E+03  0.80919578716E+02 0.  0.
          5    1    3    3  501    0  0.91762922992E+01  0.13592226643E+03 -0.52895811295E+02  0.14621601727E+03  0.47000000000E+01 0. -1.
        -11    1    4    4    0    0  0.18761153965E+02  0.16800391273E+02 -0.34380774876E+02  0.42617739571E+02  0.00000000000E+00 0.  1.
         12    1    4    4    0    0  0.60125505544E+02  0.27071369318E+02  0.43166007217E+02  0.78811418162E+02  0.00000000000E+00 0. -1.
         -5    1    5    5    0  502  0.83879010810E+01 -0.70416602338E+02  0.14796466339E+03  0.16414775778E+03  0.47000000000E+01 0.  1.
         13    1    6    6    0    0 -0.13465358281E+02 -0.75839462547E+02  0.39450385830E+02  0.86540585249E+02  0.00000000000E+00 0. -1.
        -14    1    6    6    0    0 -0.82985494609E+02 -0.33537962139E+02  0.35177659797E+02  0.96170967390E+02  0.00000000000E+00 0.  1.
</event>
<event>
12    1  0.8488291E-002  0.1840831E+03  0.7818608E-02  0.1164335E+00
         21   -1    0    0  503  502  0.00000000000E+00  0.00000000000E+00  0.61717967941E+03  0.61717967941E+03  0.00000000000E+00 0. -1.
         21   -1    0    0  501  503 -0.00000000000E+00 -0.00000000000E+00 -0.80864337809E+02  0.80864337809E+02  0.00000000000E+00 0.  1.
          6    2    1    2  501    0  0.54524132511E+02 -0.33571651880E+02  0.69263867571E+02  0.19668269095E+03  0.17258812455E+03 0.  0.
         24    2    3    3    0    0 -0.19026293023E+02 -0.44968651944E+02 -0.25710729545E+01  0.93136057078E+02  0.79268753164E+02 0.  0.
         -6    2    1    2    0  502 -0.54524132511E+02  0.33571651880E+02  0.46705147403E+03  0.50136132626E+03  0.17066388969E+03 0.  0.
        -24    2    5    5    0    0 -0.93993882318E+02  0.74809622100E+01  0.24650234173E+03  0.27574529183E+03  0.79882706372E+02 0.  0.
          5    1    3    3  501    0  0.73550425535E+02  0.11397000064E+02  0.71834940525E+02  0.10354663388E+03  0.47000000000E+01 0. -1.
        -11    1    4    4    0    0 -0.18141697931E+00 -0.45784896195E+02 -0.33622388952E+02  0.56804530370E+02  0.00000000000E+00 0.  1.
         12    1    4    4    0    0 -0.18844876044E+02  0.81624425128E+00  0.31051315997E+02  0.36331526708E+02  0.00000000000E+00 0. -1.
         -5    1    5    5    0  502  0.39469749807E+02  0.26090689670E+02  0.22054913230E+03  0.22561603443E+03  0.47000000000E+01 0.  1.
         13    1    6    6    0    0 -0.68226662672E+02 -0.98927322823E+00  0.23759143057E+03  0.24719535602E+03  0.00000000000E+00 0. -1.
        -14    1    6    6    0    0 -0.25767219646E+02  0.84702354383E+01  0.89109111652E+01  0.28549935805E+02  0.00000000000E+00 0.  1.
</event>
<event>
12    1  0.8488291E-002  0.2039604E+03  0.7818608E-02  0.1147612E+00
         21   -1    0    0  503  502  0.00000000000E+00  0.00000000000E+00  0.11144582632E+04  0.11144582632E+04  0.00000000000E+00 0.  1.
         21   -1    0    0  501  503 -0.00000000000E+00 -0.00000000000E+00 -0.52865311854E+02  0.52865311854E+02  0.00000000000E+00 0.  1.
          6    2    1    2  501    0  0.38339610637E+02  0.90574799023E+02  0.20925175829E+03  0.29220907753E+03  0.17867883670E+03 0.  0.
         24    2    3    3    0    0  0.46919230200E+02  0.13124352772E+03  0.15151949653E+03  0.22091630502E+03  0.80122270695E+02 0.  0.
         -6    2    1    2    0  502 -0.38339610637E+02 -0.90574799023E+02  0.85234119305E+03  0.87511449751E+03  0.17223865546E+03 0.  0.
        -24    2    5    5    0    0 -0.58008379801E+02  0.70064733784E+01  0.45415404298E+03  0.46464639682E+03  0.78907011934E+02 0.  0.
          5    1    3    3  501    0 -0.85796195627E+01 -0.40668728696E+02  0.57732261758E+02  0.71292772518E+02  0.47000000000E+01 0. -1.
        -11    1    4    4    0    0 -0.22215255149E+02  0.35850202425E+02  0.30699927873E+02  0.52165507250E+02  0.00000000000E+00 0.  1.
         12    1    4    4    0    0  0.69134485349E+02  0.95393325293E+02  0.12081956866E+03  0.16875079777E+03  0.00000000000E+00 0. -1.
         -5    1    5    5    0  502  0.19668769164E+02 -0.97581272402E+02  0.39818715007E+03  0.41046810069E+03  0.47000000000E+01 0.  1.
         11    1    6    6    0    0 -0.17649244811E+02 -0.68238178957E+01  0.17067116687E+02  0.25482284141E+02  0.00000000000E+00 0. -1.
        -12    1    6    6    0    0 -0.40359134990E+02  0.13830291274E+02  0.43708692629E+03  0.43916411268E+03  0.00000000000E+00 0.  1.
</event>
<event>
12    1  0.8488291E-002  0.2087841E+03  0.7818608E-02  0.1142749E+00
         21   -1    0    0  501  502  0.00000000000E+00  0.00000000000E+00  0.20419572753E+03  0.20419572753E+03  0.00000000000E+00 0.  1.
         21   -1    0    0  502  503 -0.00000000000E+00 -0.00000000000E+00 -0.21241364860E+03  0.21241364860E+03  0.00000000000E+00 0.  1.
         -6    2    1    2    0  503  0.11513537943E+02 -0.11527014019E+03 -0.12082491644E+01  0.20878757734E+03  0.17369808811E+03 0.  0.
        -24    2    3    3    0    0  0.67626824948E+02 -0.46245578196E+02 -0.27676889921E+02  0.11585873316E+03  0.77105089711E+02 0.  0.
          6    2    1    2  501    0 -0.11513537943E+02  0.11527014019E+03 -0.70096719035E+01  0.20782179879E+03  0.17239778936E+03 0.  0.
         24    2    5    5    0    0  0.20885317775E+02 -0.65779591546E+01  0.41134005106E+00  0.81434273356E+02  0.78434084627E+02 0.  0.
          5    1    5    5  501    0 -0.32398855718E+02  0.12184809935E+03 -0.74210119546E+01  0.12638752543E+03  0.47000000000E+01 0. -1.
        -11    1    6    6    0    0 -0.60125561318E+00  0.34801135713E+02  0.44216486813E+00  0.34809137665E+02  0.00000000000E+00 0.  1.
         12    1    6    6    0    0  0.21486573389E+02 -0.41379094868E+02 -0.30824817075E-01  0.46625135691E+02  0.00000000000E+00 0. -1.
         -5    1    3    3    0  503 -0.56113287005E+02 -0.69024561997E+02  0.26468640756E+02  0.92928844181E+02  0.47000000000E+01 0.  1.
         13    1    4    4    0    0 -0.12180775436E+02 -0.13798036031E+02 -0.23168221259E+02  0.29589247453E+02  0.00000000000E+00 0. -1.
        -14    1    4    4    0    0  0.79807600384E+02 -0.32447542165E+02 -0.45086686613E+01  0.86269485710E+02  0.00000000000E+00 0.  1.
</event>
<event>
12    1  0.8488291E-002  0.1964871E+03  0.7818608E-02  0.1153858E+00
         21   -1    0    0  501  502  0.00000000000E+00  0.00000000000E+00  0.58943291523E+03  0.58943291523E+03  0.00000000000E+00 0.  1.
         21   -1    0    0  502  503 -0.00000000000E+00 -0.00000000000E+00 -0.90464821916E+02  0.90464821916E+02  0.00000000000E+00 0.  1.
         -6    2    1    2    0  503 -0.14616609659E+02  0.83345730046E+02  0.62620542189E+02  0.20135162364E+03  0.17164203461E+03 0.  0.
        -24    2    3    3    0    0  0.17996786210E+02 -0.17042463607E+02  0.17208217344E+02  0.86348179075E+02  0.80904606827E+02 0.  0.
          6    2    1    2  501    0  0.14616609659E+02 -0.83345730046E+02  0.43634755113E+03  0.47854611350E+03  0.17733313672E+03 0.  0.
         24    2    5    5    0    0  0.14380804930E+02  0.19759419305E+02  0.12286921870E+03  0.14851356613E+03  0.79763351347E+02 0.  0.
          5    1    5    5  501    0  0.23580472905E+00 -0.10310514935E+03  0.31347833242E+03  0.33003254737E+03  0.47000000000E+01 0. -1.
        -13    1    6    6    0    0  0.44241158069E+02  0.19492436695E+01  0.91640484567E+02  0.10177945780E+03  0.00000000000E+00 0.  1.
         14    1    6    6    0    0 -0.29860353138E+02  0.17810175635E+02  0.31228734135E+02  0.46734108330E+02  0.00000000000E+00 0. -1.
         -5    1    3    3    0  503 -0.32613395869E+02  0.10038819365E+03  0.45412324845E+02  0.11500344457E+03  0.47000000000E+01 0.  1.
         11    1    4    4    0    0 -0.21577077907E+02  0.28784645237E+01  0.32811607205E+02  0.39375848136E+02  0.00000000000E+00 0. -1.
        -12    1    4    4    0    0  0.39573864117E+02 -0.19920928130E+02 -0.15603389861E+02  0.46972330940E+02  0.00000000000E+00 0.  1.
</event>
<event>
12    1  0.8488291E-002  0.2321073E+03  0.7818608E-02  0.1125585E+00
         21   -1    0    0  503  502  0.00000000000E+00  0.00000000000E+00  0.52609957494E+02  0.52609957494E+02  0.00000000000E+00 0. -1.
         21   -1    0    0  501  503 -0.00000000000E+00 -0.00000000000E+00 -0.20380291681E+04  0.20380291681E+04  0.00000000000E+00 0. -1.
          6    2    1    2  501    0 -0.14407261346E+03 -0.59539057244E+02 -0.25411757814E+03  0.34416501041E+03  0.17196509410E+03 0.  0.
         24    2    3    3    0    0 -0.76680022004E+02 -0.88455595065E+02 -0.97263954943E+02  0.17095104836E+03  0.77844498394E+02 0.  0.
         -6    2    1    2    0  502  0.14407261346E+03  0.59539057244E+02 -0.17313016325E+04  0.17464741152E+04  0.16871477443E+03 0.  0.
        -24    2    5    5    0    0  0.61146617863E+02  0.79432619863E+02 -0.13360014340E+04  0.13420525387E+04  0.78464865473E+02 0.  0.
          5    1    3    3  501    0 -0.67392591457E+02  0.28916537821E+02 -0.15685362319E+03  0.17321396206E+03  0.47000000000E+01 0. -1.
        -11    1    4    4    0    0  0.62029576349E+01  0.76627485340E+01 -0.20175517922E+02  0.22455420770E+02  0.00000000000E+00 0.  1.
         12    1    4    4    0    0 -0.82882979639E+02 -0.96118343599E+02 -0.77088437021E+02  0.14849562759E+03  0.00000000000E+00 0. -1.
         -5    1    5    5    0  502  0.82925995599E+02 -0.19893562618E+02 -0.39530019850E+03  0.40442157647E+03  0.47000000000E+01 0.  1.
         13    1    6    6    0    0  0.43141809130E+02  0.31144914951E+02 -0.29391427407E+03  0.29869185112E+03  0.00000000000E+00 0. -1.
        -14    1    6    6    0    0  0.18004808732E+02  0.48287704911E+02 -0.10420871599E+04  0.10433606876E+04  0.00000000000E+00 0.  1.
</event>
<event>
12    1  0.8488291E-002  0.2446451E+03  0.7818608E-02  0.1116739E+00
         21   -1    0    0  501  502  0.00000000000E+00  0.00000000000E+00  0.74133079712E+02  0.74133079712E+02  0.00000000000E+00 0.  1.
         21   -1    0    0  502  503 -0.00000000000E+00 -0.00000000000E+00 -0.89030618871E+03  0.89030618871E+03  0.00000000000E+00 0.  1.
         -6    2    1    2    0  503  0.15919359776E+03  0.71067538946E+02 -0.26082843058E+03  0.35759584513E+03  0.17161037731E+03 0.  0.
        -24    2    3    3    0    0  0.13657561739E+03  0.13154205279E+02 -0.10512640247E+03  0.18987363787E+03  0.78578021614E+02 0.  0.
          6    2    1    2  501    0 -0.15919359776E+03 -0.71067538946E+02 -0.55534467842E+03  0.60684342329E+03  0.17163342296E+03 0.  0.
         24    2    5    5    0    0 -0.16338647966E+03 -0.86330443414E+02 -0.55451718567E+03  0.59031129531E+03  0.82643989274E+02 0.  0.
          5    1    5    5  501    0  0.41928818975E+01  0.15262904468E+02 -0.82749274789E+00  0.16532127983E+02  0.47000000000E+01 0. -1.
        -13    1    6    6    0    0 -0.10721518759E+03 -0.30375133720E+02 -0.22106925240E+03  0.24756687895E+03  0.00000000000E+00 0.  1.
         14    1    6    6    0    0 -0.56171292067E+02 -0.55955309694E+02 -0.33344793328E+03  0.34274441635E+03  0.00000000000E+00 0. -1.
         -5    1    3    3    0  503  0.22617980372E+02  0.57913333667E+02 -0.15570202811E+03  0.16772220726E+03  0.47000000000E+01 0.  1.
         11    1    4    4    0    0  0.53265768418E+02 -0.93193081317E+01 -0.85846784811E+02  0.10145817883E+03  0.00000000000E+00 0. -1.
        -12    1    4    4    0    0  0.83309848969E+02  0.22473513411E+02 -0.19279617660E+02  0.88415459041E+02  0.00000000000E+00 0.  1.
</event>
<event>
12    1  0.8488291E-002  0.1880963E+03  0.7818608E-02  0.1160308E+00
         21   -1    0    0  501  502  0.00000000000E+00  0.00000000000E+00  0.10230614923E+03  0.10230614923E+03  0.00000000000E+00 0. -1.
         21   -1    0    0  502  503 -0.00000000000E+00 -0.00000000000E+00 -0.65748545362E+03  0.65748545362E+03  0.00000000000E+00 0.  1.
         -6    2    1    2    0  503 -0.71858455578E+02  0.18030648345E+02 -0.53934164001E+03  0.57102976080E+03  0.17232771441E+03 0.  0.
        -24    2    3    3    0    0 -0.52947550934E+02  0.40605106525E+01 -0.53848509362E+03  0.54703787190E+03  0.80400910084E+02 0.  0.
          6    2    1    2  501    0  0.71858455578E+02 -0.18030648345E+02 -0.15837664370E+02  0.18876184205E+03  0.17289146735E+03 0.  0.
         24    2    5    5    0    0  0.53091166795E+02  0.56018613741E+02 -0.48598093546E+01  0.11144361881E+03  0.80245282410E+02 0.  0.
          5    1    5    5  501    0  0.18767288784E+02 -0.74049262086E+02 -0.10977855016E+02  0.77318223237E+02  0.47000000000E+01 0. -1.
        -13    1    6    6    0    0  0.55750318869E+02  0.15316306126E+02 -0.28330293658E+02  0.64383948512E+02  0.00000000000E+00 0.  1.
         14    1    6    6    0    0 -0.26591520738E+01  0.40702307616E+02  0.23470484303E+02  0.47059670296E+02  0.00000000000E+00 0. -1.
         -5    1    3    3    0  503 -0.18910904644E+02  0.13970137692E+02 -0.85654639335E+00  0.23991888907E+02  0.47000000000E+01 0.  1.
         13    1    4    4    0    0 -0.16443135168E+02  0.14623981636E+02 -0.30373522395E+02  0.37507177923E+02  0.00000000000E+00 0. -1.
        -14    1    4    4    0    0 -0.36504415766E+02 -0.10563470984E+02 -0.50811157122E+03  0.50953069397E+03  0.00000000000E+00 0.  1.
</event>
<event>
12    1  0.8488291E-002  0.3316783E+03  0.7818608E-02  0.1070516E+00
         21   -1    0    0  501  502  0.00000000000E+00  0.00000000000E+00  0.59739107872E+03  0.59739107872E+03  0.00000000000E+00 0.  1.
         21   -1    0    0  502  503 -0.00000000000E+00 -0.00000000000E+00 -0.20172635070E+03  0.20172635070E+03  0.00000000000E+00 0. -1.
         -6    2    1    2    0  503 -0.19438834595E+03  0.20846813682E+03  0.77596103855E+02  0.33957616812E+03  0.16746649072E+03 0.  0.
        -24    2    3    3    0    0 -0.21581901583E+03  0.16760049915E+03  0.67670564675E+02  0.29214154207E+03  0.78099938372E+02 0.  0.
          6    2    1    2  501    0  0.19438834595E+03 -0.20846813682E+03  0.31806862417E+03  0.45954126129E+03  0.16960167463E+03 0.  0.
         24    2    5    5    0    0  0.18540942321E+03 -0.13253642423E+03  0.17664428658E+03  0.29870227568E+03  0.77956959601E+02 0.  0.
          5    1    5    5  501    0  0.89789227314E+01 -0.75931712593E+02  0.14142433758E+03  0.16083898561E+03  0.47000000000E+01 0. -1.
        -13    1    6    6    0    0  0.18460240301E+02 -0.55624927838E+01  0.50233034174E+02  0.53805943169E+02  0.00000000000E+00 0.  1.
         14    1    6    6    0    0  0.16694918291E+03 -0.12697393144E+03  0.12641125241E+03  0.24489633251E+03  0.00000000000E+00 0. -1.
         -5    1    3    3    0  503  0.21430669882E+02  0.40867637674E+02  0.99255391799E+01  0.47434626052E+02  0.47000000000E+01 0.  1.
         11    1    4    4    0    0 -0.14611160336E+02  0.10952418672E+02 -0.15471050431E+02  0.23933133571E+02  0.00000000000E+00 0. -1.
        -12    1    4    4    0    0 -0.20120785549E+03  0.15664808047E+03  0.83141615106E+02  0.26820840850E+03  0.00000000000E+00 0.  1.
</event>
<event>
12    1  0.8488291E-002  0.1863622E+03  0.7818608E-02  0.1161787E+00
         21   -1    0    0  501  502  0.00000000000E+00  0.00000000000E+00  0.16468886954E+04  0.16468886954E+04  0.00000000000E+00 0. -1.
         21   -1    0    0  502  503 -0.00000000000E+00 -0.00000000000E+00 -0.39909590940E+02  0.39909590940E+02  0.00000000000E+00 0. -1.
         -6    2    1    2    0  503 -0.65293846824E+02  0.29042249743E+02  0.22430066593E+03  0.29161901100E+03  0.17211658878E+03 0.  0.
        -24    2    3    3    0    0 -0.10699876599E+03 -0.24607808995E+01  0.16267430368E+03  0.21067681097E+03  0.80417648776E+02 0.  0.
          6    2    1    2  501    0  0.65293846824E+02 -0.29042249743E+02  0.13826784385E+04  0.13951792753E+04  0.17210115420E+03 0.  0.
         24    2    5    5    0    0 -0.77889314071E+01  0.37690867061E+02  0.56419904788E+03  0.57072490773E+03  0.76974578720E+02 0.  0.
          5    1    5    5  501    0  0.73082778231E+02 -0.66733116803E+02  0.81847939065E+03  0.82445436761E+03  0.47000000000E+01 0. -1.
        -13    1    6    6    0    0 -0.27664702698E+02  0.43587144390E+02  0.51143554884E+03  0.51403452759E+03  0.00000000000E+00 0.  1.
         14    1    6    6    0    0  0.19875771291E+02 -0.58962773288E+01  0.52763499034E+02  0.56690380146E+02  0.00000000000E+00 0. -1.
         -5    1    3    3    0  503  0.41704919162E+02  0.31503030642E+02  0.61626362250E+02  0.80942200032E+02  0.47000000000E+01 0.  1.
         13    1    4    4    0    0 -0.42460742029E+01  0.26664547717E+02  0.30123574835E+02  0.40453145884E+02  0.00000000000E+00 0. -1.
        -14    1    4    4    0    0 -0.10275269178E+03 -0.29125328616E+02  0.13255072885E+03  0.17022366508E+03  0.00000000000E+00 0.  1.
</event>
<event>
12    1  0.8488291E-002  0.1865366E+03  0.7818608E-02  0.1162053E+00
         21   -1    0    0  501  502  0.00000000000E+00  0.00000000000E+00  0.46503018607E+03  0.46503018607E+03  0.00000000000E+00 0. -1.
         21   -1    0    0  502  503 -0.00000000000E+00 -0.00000000000E+00 -0.14710738493E+03  0.14710738493E+03  0.00000000000E+00 0. -1.
         -6    2    1    2    0  503 -0.50854877960E+02  0.44821897219E+02 -0.57078943710E+02  0.19330322316E+03  0.17179321636E+03 0.  0.
        -24    2    3    3    0    0 -0.89569616287E+02  0.60261109254E+02 -0.15862823161E+02  0.13449796128E+03  0.78638126753E+02 0.  0.
          6    2    1    2  501    0  0.50854877960E+02 -0.44821897219E+02  0.37500174485E+03  0.41883434784E+03  0.17378343190E+03 0.  0.
         24    2    5    5    0    0 -0.21020489266E+02 -0.12114178829E+02  0.29416924480E+03  0.30573330310E+03  0.79678690617E+02 0.  0.
          5    1    5    5  501    0  0.71875367226E+02 -0.32707718391E+02  0.80832500053E+02  0.11310104474E+03  0.47000000000E+01 0. -1.
        -11    1    6    6    0    0 -0.33363780986E+02 -0.38382463074E+02  0.14227826356E+03  0.15109420782E+03  0.00000000000E+00 0.  1.
         12    1    6    6    0    0  0.12343291721E+02  0.26268284246E+02  0.15189098124E+03  0.15463909528E+03  0.00000000000E+00 0. -1.
         -5    1    3    3    0  503  0.38714738327E+02 -0.15439212034E+02 -0.41216120549E+02  0.58805261882E+02  0.47000000000E+01 0.  1.
         11    1    4    4    0    0 -0.53898599622E+02  0.75717402309E+02 -0.12017223264E+01  0.92949600269E+02  0.00000000000E+00 0. -1.
        -12    1    4    4    0    0 -0.35671016666E+02 -0.15456293055E+02 -0.14661100835E+02  0.41548361010E+02  0.00000000000E+00 0.  1.
</event>
<event>
12    1  0.8488291E-002  0.1825431E+03  0.7818608E-02  0.1166009E+00
         21   -1    0    0  501  502  0.00000000000E+00  0.00000000000E+00  0.12367378579E+04  0.12367378579E+04  0.00000000000E+00 0.  1.
         21   -1    0    0  502  503 -0.00000000000E+00 -0.00000000000E+00 -0.15764222499E+03  0.15764222499E+03  0.00000000000E+00 0.  1.
         -6    2    1    2    0  503 -0.38692220652E+02 -0.47482595984E+02 -0.96904070801E+02  0.20429718685E+03  0.16910132098E+03 0.  0.
        -24    2    3    3    0    0 -0.69735086256E+02  0.95789179577E+01 -0.87947833134E+02  0.13855541877E+03  0.80672453737E+02 0.  0.
          6    2    1    2  501    0  0.38692220652E+02  0.47482595984E+02  0.11759997037E+04  0.11900828960E+04  0.17196020303E+03 0.  0.
         24    2    5    5    0    0 -0.34748254296E+02 -0.10796207904E+02  0.54376354128E+03  0.55091579938E+03  0.80656245294E+02 0.  0.
          5    1    5    5  501    0  0.73440474948E+02  0.58278803888E+02  0.63223616240E+03  0.63916709661E+03  0.47000000000E+01 0. -1.
        -13    1    6    6    0    0  0.25774857436E+02 -0.36704050251E+01  0.21298647227E+03  0.21457178873E+03  0.00000000000E+00 0.  1.
         14    1    6    6    0    0 -0.60523111732E+02 -0.71258028794E+01  0.33077706900E+03  0.33634401065E+03  0.00000000000E+00 0. -1.
         -5    1    3    3    0  503  0.31042865604E+02 -0.57061513941E+02 -0.89562376677E+01  0.65741768088E+02  0.47000000000E+01 0.  1.
         11    1    4    4    0    0 -0.12006373578E+02 -0.87636961163E+01  0.13708583142E+02  0.20220796915E+02  0.00000000000E+00 0. -1.
        -12    1    4    4    0    0 -0.57728712678E+02  0.18342614074E+02 -0.10165641628E+03  0.11833462185E+03  0.00000000000E+00 0.  1.
</event>
<event>
12    1  0.8488291E-002  0.2149668E+03  0.7818608E-02  0.1138337E+00
         21   -1    0    0  503  502  0.00000000000E+00  0.00000000000E+00  0.30436046496E+03  0.30436046496E+03  0.00000000000E+00 0. -1.
         21   -1    0    0  501  503 -0.00000000000E+00 -0.00000000000E+00 -0.90043767076E+03  0.90043767076E+03  0.00000000000E+00 0. -1.
          6    2    1    2  501    0  0.70117696342E+02  0.10345686307E+03 -0.84777715453E+03  0.87379419946E+03  0.17079339979E+03 0.  0.
         24    2    3    3    0    0 -0.22295231289E+02  0.19408455526E+02 -0.30722316812E+03  0.31897442131E+03  0.80528510078E+02 0.  0.
         -6    2    1    2    0  502 -0.70117696342E+02 -0.10345686307E+03  0.25169994873E+03  0.33100393625E+03  0.17490262368E+03 0.  0.
        -24    2    5    5    0    0  0.25881126913E+02 -0.37574747183E+02  0.72630668968E+02  0.11735908091E+03  0.80101469658E+02 0.  0.
          5    1    3    3  501    0  0.92412927631E+02  0.84048407543E+02 -0.54055398641E+03  0.55481977815E+03  0.47000000000E+01 0. -1.
        -13    1    4    4    0    0 -0.90062302871E+01  0.97625775655E+01 -0.30118648887E+03  0.30147922181E+03  0.00000000000E+00 0.  1.
         14    1    4    4    0    0 -0.13289001002E+02  0.96458779602E+01 -0.60366792543E+01  0.17495199504E+02  0.00000000000E+00 0. -1.
         -5    1    5    5    0  502 -0.95998823255E+02 -0.65882115885E+02  0.17906927976E+03  0.21364485534E+03  0.47000000000E+01 0.  1.
         11    1    6    6    0    0  0.37890166415E+02 -0.56333878737E+02  0.43277048558E+02  0.80511325517E+02  0.00000000000E+00 0. -1.
        -12    1    6    6    0    0 -0.12009039502E+02  0.18759131554E+02  0.29353620410E+02  0.36847755394E+02  0.00000000000E+00 0.  1.
</event>
<event>
12    1  0.8488291E-002  0.1734788E+03  0.7818608E-02  0.1174421E+00
         21   -1    0    0  503  502  0.00000000000E+00  0.00000000000E+00  0.53396326373E+03  0.53396326373E+03  0.00000000000E+00 0. -1.
         21   -1    0    0  501  503 -0.00000000000E+00 -0.00000000000E+00 -0.57333078641E+02  0.57333078641E+02  0.00000000000E+00 0. -1.
          6    2    1    2  501    0 -0.14263056666E+02  0.12054835277E+02  0.28089938140E+03  0.33015051997E+03  0.17247072079E+03 0.  0.
         24    2    3    3    0    0  0.42438097107E+02 -0.34909193583E+02  0.18723167447E+03  0.21091809919E+03  0.80069349665E+02 0.  0.
         -6    2    1    2    0  502  0.14263056666E+02 -0.12054835277E+02  0.19573080369E+03  0.26114582240E+03  0.17186575925E+03 0.  0.
        -24    2    5    5    0    0  0.68295989753E+02 -0.32978254077E+02  0.97980132188E+02  0.14741530278E+03  0.79870255623E+02 0.  0.
          5    1    3    3  501    0 -0.56701153773E+02  0.46964028861E+02  0.93667706923E+02  0.11923242078E+03  0.47000000000E+01 0. -1.
        -11    1    4    4    0    0 -0.17212060070E+01 -0.45105172061E+02  0.13181324844E+03  0.13932756928E+03  0.00000000000E+00 0.  1.
         12    1    4    4    0    0  0.44159303114E+02  0.10195978477E+02  0.55418426036E+02  0.71590529911E+02  0.00000000000E+00 0. -1.
         -5    1    5    5    0  502 -0.54032933087E+02  0.20923418800E+02  0.97750671504E+02  0.11373051961E+03  0.47000000000E+01 0.  1.
         13    1    6    6    0    0 -0.27425010290E+01 -0.28674287225E+02  0.60438557539E+02  0.66951887929E+02  0.00000000000E+00 0. -1.
        -14    1    6    6    0    0  0.71038490782E+02 -0.43039668517E+01  0.37541574649E+02  0.80463414856E+02  0.00000000000E+00 0.  1.
</event>
<event>
12    1  0.8488291E-002  0.2825722E+03  0.7818608E-02  0.1094575E+00
         21   -1    0    0  503  502  0.00000000000E+00  0.00000000000E+00  0.13082668553E+04  0.13082668553E+04  0.00000000000E+00 0.  1.
         21   -1    0    0  501  503 -0.00000000000E+00 -0.00000000000E+00 -0.65310982895E+02  0.65310982895E+02  0.00000000000E+00 0.  1.
          6    2    1    2  501    0  0.10753807015E+02  0.22295049498E+03  0.43882983979E+03  0.52193741097E+03  0.17327569103E+03 0.  0.
         24    2    3    3    0    0  0.54205928826E+02  0.20964482701E+03  0.31862463813E+03  0.39334305575E+03  0.79422057793E+02 0.  0.
         -6    2    1    2    0  502 -0.10753807015E+02 -0.22295049498E+03  0.80412603258E+03  0.85164042719E+03  0.16985338788E+03 0.  0.
        -24    2    5    5    0    0  0.58977197527E+02 -0.14252580052E+03  0.50446212630E+03  0.53359783382E+03  0.80328685661E+02 0.  0.
          5    1    3    3  501    0 -0.43452121811E+02  0.13305667965E+02  0.12020520166E+03  0.12859435522E+03  0.47000000000E+01 0. -1.
        -13    1    4    4    0    0 -0.10833418568E+02  0.11262072452E+03  0.14150339066E+03  0.18117394988E+03  0.00000000000E+00 0.  1.
         14    1    4    4    0    0  0.65039347394E+02  0.97024102493E+02  0.17712124748E+03  0.21216910586E+03  0.00000000000E+00 0. -1.
         -5    1    5    5    0  502 -0.69731004543E+02 -0.80424694459E+02  0.29966390628E+03  0.31804259337E+03  0.47000000000E+01 0.  1.
         11    1    6    6    0    0  0.17068758479E+02  0.49863173355E+01  0.29000952725E+02  0.34018541056E+02  0.00000000000E+00 0. -1.
        -12    1    6    6    0    0  0.41908439048E+02 -0.14751211786E+03  0.47546117358E+03  0.49957929276E+03  0.00000000000E+00 0.  1.
</event>
<event>
12    1  0.8488291E-002  0.2278049E+03  0.7818608E-02  0.1128234E+00
         21   -1    0    0  503  502  0.00000000000E+00  0.00000000000E+00  0.13828072637E+04  0.13828072637E+04  0.00000000000E+00 0.  1.
         21   -1    0    0  501  503 -0.00000000000E+00 -0.00000000000E+00 -0.17231080270E+03  0.17231080270E+03  0.00000000000E+00 0.  1.
          6    2    1    2  501    0  0.72254533269E+02 -0.13028553978E+03 -0.82600454105E+02  0.24210827390E+03  0.17204226754E+03 0.  0.
         24    2    3    3    0    0  0.11050461705E+03 -0.11969831259E+03 -0.43828570331E+02  0.18642607513E+03  0.79339658977E+02 0.  0.
         -6    2    1    2    0  502 -0.72254533269E+02  0.13028553978E+03  0.12930969151E+04  0.13130097925E+04  0.17233700677E+03 0.  0.
        -24    2    5    5    0    0 -0.52310334191E+02  0.15076835822E+03  0.82559828465E+03  0.84461425836E+03  0.79330000018E+02 0.  0.
          5    1    3    3  501    0 -0.38250083780E+02 -0.10587227189E+02 -0.38771883774E+02  0.55682198772E+02  0.47000000000E+01 0. -1.
        -13    1    4    4    0    0  0.76545695280E+02 -0.76505590165E+02  0.11029785019E+02  0.10878421278E+03  0.00000000000E+00 0.  1.
         14    1    4    4    0    0  0.33958921769E+02 -0.43192722422E+02 -0.54858355350E+02  0.77641862353E+02  0.00000000000E+00 0. -1.
         -5    1    5    5    0  502 -0.19944199078E+02 -0.20482818447E+02  0.46749863042E+03  0.46839553410E+03  0.47000000000E+01 0.  1.
         13    1    6    6    0    0 -0.15122334246E+02  0.13467130277E+03  0.57449347108E+03  0.59026078397E+03  0.00000000000E+00 0. -1.
        -14    1    6    6    0    0 -0.37187999946E+02  0.16097055449E+02  0.25110481357E+03  0.25435347439E+03  0.00000000000E+00 0.  1.
</event>
<event>
12    1  0.8488291E-002  0.2472027E+03  0.7818608E-02  0.1115371E+00
         21   -1    0    0  503  502  0.00000000000E+00  0.00000000000E+00  0.36465502292E+03  0.36465502292E+03  0.00000000000E+00 0.  1.
         21   -1    0    0  501  503 -0.00000000000E+00 -0.00000000000E+00 -0.61122966145E+03  0.61122966145E+03  0.00000000000E+00 0.  1.
          6    2    1    2  501    0  0.13683208822E+03 -0.11049783597E+03 -0.53943278007E+03  0.59264183434E+03  0.17118360750E+03 0.  0.
         24    2    3    3    0    0  0.61301976354E+02 -0.75968597923E+02 -0.46219497325E+03  0.47913044777E+03  0.80078914267E+02 0.  0.
         -6    2    1    2    0  502 -0.13683208822E+03  0.11049783597E+03  0.29285814153E+03  0.38324285003E+03  0.17371355422E+03 0.  0.
        -24    2    5    5    0    0 -0.85117237919E+02  0.97071511477E+02  0.29299332779E+03  0.32960703918E+03  0.78280825327E+02 0.  0.
          5    1    3    3  501    0  0.75530111863E+02 -0.34529238050E+02 -0.77237806823E+02  0.11351138657E+03  0.47000000000E+01 0. -1.
        -11    1    4    4    0    0  0.69170336292E+02 -0.45270624928E+02 -0.40850369704E+03  0.41678439918E+03  0.00000000000E+00 0.  1.
         12    1    4    4    0    0 -0.78683599373E+01 -0.30697972995E+02 -0.53691276206E+02  0.62346048590E+02  0.00000000000E+00 0. -1.
         -5    1    5    5    0  502 -0.51714850298E+02  0.13426324495E+02 -0.13518625790E+00  0.53635810855E+02  0.47000000000E+01 0.  1.
         13    1    6    6    0    0 -0.19127524353E+02 -0.29362656390E+01  0.89388391116E+01  0.21316347915E+02  0.00000000000E+00 0. -1.
        -14    1    6    6    0    0 -0.65989713566E+02  0.10000777712E+03  0.28405448868E+03  0.30829069126E+03  0.00000000000E+00 0.  1.
</event>
<event>
12    1  0.8488291E-002  0.2320203E+03  0.7818608E-02  0.1125439E+00
         21   -1    0    0  501  502  0.00000000000E+00  0.00000000000E+00  0.87874553627E+03  0.87874553627E+03  0.00000000000E+00 0.  1.
         21   -1    0    0  502  503 -0.00000000000E+00 -0.00000000000E+00 -0.57663578458E+03  0.57663578458E+03  0.00000000000E+00 0.  1.
         -6    2    1    2    0  503 -0.15551638997E+03 -0.48941010891E+01 -0.53715305982E+03  0.58463709527E+03  0.17046355537E+03 0.  0.
        -24    2    3    3    0    0 -0.10326811167E+03 -0.27545869409E+02 -0.49829831221E+03  0.51553740926E+03  0.77810889941E+02 0.  0.
          6    2    1    2  501    0  0.15551638997E+03  0.48941010891E+01  0.83926281151E+03  0.87074422558E+03  0.17211664602E+03 0.  0.
         24    2    5    5    0    0  0.80382246993E+02 -0.59261005394E+02  0.37370770165E+03  0.39479814939E+03  0.78961763529E+02 0.  0.
          5    1    5    5  501    0  0.75134142973E+02  0.64155106483E+02  0.46555510986E+03  0.47594607619E+03  0.47000000000E+01 0. -1.
        -11    1    6    6    0    0  0.84056471840E+02 -0.18576904865E+02  0.26723258873E+03  0.28075585182E+03  0.00000000000E+00 0.  1.
         12    1    6    6    0    0 -0.36742248467E+01 -0.40684100529E+02  0.10647511292E+03  0.11404229757E+03  0.00000000000E+00 0. -1.
         -5    1    3    3    0  503 -0.52248278298E+02  0.22651768320E+02 -0.38854747616E+02  0.69099686001E+02  0.47000000000E+01 0.  1.
         11    1    4    4    0    0 -0.64064439462E+02 -0.54761512956E+02 -0.30435885113E+03  0.31581226380E+03  0.00000000000E+00 0. -1.
        -12    1    4    4    0    0 -0.39203672206E+02  0.27215643547E+02 -0.19393946107E+03  0.19972514546E+03  0.00000000000E+00 0.  1.
</event>
<event>
12    1  0.8488291E-002  0.1883709E+03  0.7818608E-02  0.1160051E+00
         21   -1    0    0  503  502  0.00000000000E+00  0.00000000000E+00  0.16406714663E+03  0.16406714663E+03  0.00000000000E+00 0.  1.
         21   -1    0    0  501  503 -0.00000000000E+00 -0.00000000000E+00 -0.21723099964E+03  0.21723099964E+03  0.00000000000E+00 0.  1.
          6    2    1    2  501    0 -0.45061710993E+02 -0.56493286556E+02 -0.42566850396E+02  0.19312046645E+03  0.17395841051E+03 0.  0.
         24    2    3    3    0    0 -0.24389646913E+02 -0.41272400981E+01  0.42635189105E+02  0.90890262550E+02  0.76363548170E+02 0.  0.
         -6    2    1    2    0  502  0.45061710993E+02  0.56493286556E+02 -0.10597002615E+02  0.18817767982E+03  0.17342575788E+03 0.  0.
        -24    2    5    5    0    0  0.50216851901E+02  0.96874080327E+02  0.18697889203E+02  0.13780442631E+03  0.82061740143E+02 0.  0.
          5    1    3    3  501    0 -0.20672064080E+02 -0.52366046458E+02 -0.85202039500E+02  0.10223020390E+03  0.47000000000E+01 0. -1.
        -11    1    4    4    0    0 -0.45916997355E+02 -0.23246831865E+02  0.28078895403E+02  0.58627725565E+02  0.00000000000E+00 0.  1.
         12    1    4    4    0    0  0.21527350442E+02  0.19119591767E+02  0.14556293702E+02  0.32262536985E+02  0.00000000000E+00 0. -1.
         -5    1    5    5    0  502 -0.51551409080E+01 -0.40380793770E+02 -0.29294891818E+02  0.50373253517E+02  0.47000000000E+01 0.  1.
         11    1    6    6    0    0  0.22175851283E+02  0.79245800842E+02  0.46536473592E+02  0.94537340271E+02  0.00000000000E+00 0. -1.
        -12    1    6    6    0    0  0.28041000619E+02  0.17628279485E+02 -0.27838584389E+02  0.43267086036E+02  0.00000000000E+00 0.  1.
</event>
<event>
12    1  0.8488291E-002  0.2341852E+03  0.7818608E-02  0.1123884E+00
         21   -1    0    0  503  502  0.00000000000E+00  0.00000000000E+00  0.53859316715E+03  0.53859316715E+03  0.00000000000E+00 0.  1.
         21   -1    0    0  501  503 -0.00000000000E+00 -0.00000000000E+00 -0.12694756399E+03  0.12694756399E+03  0.00000000000E+00 0. -1.
          6    2    1    2  501    0 -0.12193398008E+03 -0.10111415966E+03  0.56954361787E+02  0.24101144511E+03  0.17248405307E+03 0.  0.
         24    2    3    3    0    0 -0.14811847377E+03 -0.97670131197E+02  0.22446801909E+02  0.19730388592E+03  0.83345231919E+02 0.  0.
         -6    2    1    2    0  502  0.12193398008E+03  0.10111415966E+03  0.35469124138E+03  0.42452928603E+03  0.17125206336E+03 0.  0.
        -24    2    5    5    0    0  0.18400963453E+02 -0.50291092858E+01  0.10114101131E+03  0.13076868921E+03  0.80666340645E+02 0.  0.
          5    1    3    3  501    0  0.26184493686E+02 -0.34440284676E+01  0.34507559877E+02  0.43707559190E+02  0.47000000000E+01 0. -1.
        -13    1    4    4    0    0 -0.64210403347E+02 -0.38362433251E+02  0.51154494465E+02  0.90616965778E+02  0.00000000000E+00 0.  1.
         14    1    4    4    0    0 -0.83908070421E+02 -0.59307697946E+02 -0.28707692555E+02  0.10668692014E+03  0.00000000000E+00 0. -1.
         -5    1    5    5    0  502  0.10353301663E+03  0.10614326895E+03  0.25355023007E+03  0.29376059682E+03  0.47000000000E+01 0.  1.
         13    1    6    6    0    0 -0.15684853540E+02  0.85613122096E+01  0.90944092934E+02  0.92683001337E+02  0.00000000000E+00 0. -1.
        -14    1    6    6    0    0  0.34085816993E+02 -0.13590421495E+02  0.10196918377E+02  0.38085687875E+02  0.00000000000E+00 0.  1.
</event>
<event>
12    1  0.8488291E-002  0.2021822E+03  0.7818608E-02  0.1148116E+00
         21   -1    0    0  503  502  0.00000000000E+00  0.00000000000E+00  0.14615792291E+03  0.14615792291E+03  0.00000000000E+00 0. -1.
         21   -1    0    0  501  503 -0.00000000000E+00 -0.00000000000E+00 -0.37684434813E+03  0.37684434813E+03  0.00000000000E+00 0. -1.
          6    2    1    2  501    0 -0.10507489030E+03  0.16916669769E+02 -0.24884254151E+03  0.32000653016E+03  0.17074736482E+03 0.  0.
         24    2    3    3    0    0 -0.12445912371E+03  0.54608476940E+02 -0.20182697140E+03  0.25653232543E+03  0.81256066718E+02 0.  0.
         -6    2    1    2    0  502  0.10507489030E+03 -0.16916669769E+02  0.18156116285E+02  0.20299574088E+03  0.17190322850E+03 0.  0.
        -24    2    5    5    0    0  0.10287010954E+03 -0.25134778396E+02  0.71342988182E+02  0.14892789730E+03  0.76652985001E+02 0.  0.
          5    1    3    3  501    0  0.19384233415E+02 -0.37691807171E+02 -0.47015570111E+02  0.63474204727E+02  0.47000000000E+01 0. -1.
        -11    1    4    4    0    0 -0.67440609065E+02  0.23955878680E+02 -0.39438392734E+02  0.81716012482E+02  0.00000000000E+00 0.  1.
         12    1    4    4    0    0 -0.57018514648E+02  0.30652598260E+02 -0.16238857867E+03  0.17481631295E+03  0.00000000000E+00 0. -1.
         -5    1    5    5    0  502  0.22047807615E+01  0.82181086270E+01 -0.53186871896E+02  0.54067843583E+02  0.47000000000E+01 0.  1.
         11    1    6    6    0    0  0.19584904095E+02  0.15905731798E+02  0.46354704621E+02  0.52776125407E+02  0.00000000000E+00 0. -1.
        -12    1    6    6    0    0  0.83285205441E+02 -0.41040510193E+02  0.24988283560E+02  0.96151771890E+02  0.00000000000E+00 0.  1.
</event>
<event>
12    1  0.8488291E-002  0.2716811E+03  0.7818608E-02  0.1100767E+00
         21   -1    0    0  503  502  0.00000000000E+00  0.00000000000E+00  0.11085820367E+03  0.11085820367E+03  0.00000000000E+00 0. -1.
         21   -1    0    0  501  503 -0.00000000000E+00 -0.00000000000E+00 -0.66149579850E+03  0.66149579850E+03  0.00000000000E+00 0.  1.
          6    2    1    2  501    0 -0.16865533432E+03 -0.12177213041E+03 -0.30102847353E+03  0.40341589346E+03  0.16986220203E+03 0.  0.
         24    2    3    3    0    0 -0.11783714596E+03 -0.72105963029E+02 -0.29030042109E+03  0.33139924566E+03  0.80413075221E+02 0.  0.
         -6    2    1    2    0  502  0.16865533432E+03  0.12177213041E+03 -0.24960912130E+03  0.36893810872E+03  0.17474993872E+03 0.  0.
        -24    2    5    5    0    0  0.10333455921E+03  0.14893241675E+03 -0.15182629300E+03  0.24815708237E+03  0.75311475849E+02 0.  0.
          5    1    3    3  501    0 -0.50818188362E+02 -0.49666167386E+02 -0.10728052443E+02  0.72016647800E+02  0.47000000000E+01 0. -1.
        -13    1    4    4    0    0 -0.96556531723E+02 -0.57039117531E+02 -0.14260000620E+03  0.18141495670E+03  0.00000000000E+00 0.  1.
         14    1    4    4    0    0 -0.21280614240E+02 -0.15066845498E+02 -0.14770041489E+03  0.14998428896E+03  0.00000000000E+00 0. -1.
         -5    1    5    5    0  502  0.65320775115E+02 -0.27160286340E+02 -0.97782828301E+02  0.12078102635E+03  0.47000000000E+01 0.  1.
         13    1    6    6    0    0  0.49054393197E+02  0.11970490188E+03 -0.12822124079E+03  0.18214357967E+03  0.00000000000E+00 0. -1.
        -14    1    6    6    0    0  0.54280166013E+02  0.29227514873E+02 -0.23605052214E+02  0.66013502695E+02  0.00000000000E+00 0.  1.
</event>
<event>
12    1  0.8488291E-002  0.2002147E+03  0.7818608E-02  0.1149664E+00
         21   -1    0    0  503  502  0.00000000000E+00  0.00000000000E+00  0.30142238410E+03  0.30142238410E+03  0.00000000000E+00 0.  1.
         21   -1    0    0  501  503 -0.00000000000E+00 -0.00000000000E+00 -0.28223382827E+03  0.28223382827E+03  0.00000000000E+00 0.  1.
          6    2    1    2  501    0  0.90353345787E+02  0.46172441043E+02 -0.20286198927E+03  0.28467066828E+03  0.17201389851E+03 0.  0.
         24    2    3    3    0    0  0.71648965316E+02  0.96023188303E+02 -0.12945292017E+03  0.19386355249E+03  0.80442473373E+02 0.  0.
         -6    2    1    2    0  502 -0.90353345787E+02 -0.46172441043E+02  0.22205054510E+03  0.29898554409E+03  0.17259863727E+03 0.  0.
        -24    2    5    5    0    0 -0.76260402754E+02  0.12749409190E+02  0.20827463203E+03  0.23667774956E+03  0.81607832497E+02 0.  0.
          5    1    3    3  501    0  0.18704380472E+02 -0.49850747259E+02 -0.73409069095E+02  0.90807115782E+02  0.47000000000E+01 0. -1.
        -13    1    4    4    0    0  0.40885110298E+02  0.65693426156E+01 -0.12119119495E+02  0.43146512766E+02  0.00000000000E+00 0.  1.
         14    1    4    4    0    0  0.30763855018E+02  0.89453845687E+02 -0.11733380067E+03  0.15071703973E+03  0.00000000000E+00 0. -1.
         -5    1    5    5    0  502 -0.14092943033E+02 -0.58921850234E+02  0.13775913065E+02  0.62307794529E+02  0.47000000000E+01 0.  1.
         13    1    6    6    0    0  0.15672090747E+02  0.18712421122E+01  0.58596420443E+02  0.60684894860E+02  0.00000000000E+00 0. -1.
        -14    1    6    6    0    0 -0.91932493501E+02  0.10878167078E+02  0.14967821159E+03  0.17599285470E+03  0.00000000000E+00 0.  1.
</event>
<event>
12    1  0.8488291E-002  0.2328715E+03  0.7818608E-02  0.1124663E+00
         21   -1    0    0  501  502  0.00000000000E+00  0.00000000000E+00  0.95059039352E+03  0.95059039352E+03  0.00000000000E+00 0. -1.
         21   -1    0    0  502  503 -0.00000000000E+00 -0.00000000000E+00 -0.63226092520E+02  0.63226092520E+02  0.00000000000E+00 0. -1.
         -6    2    1    2    0  503 -0.36947713937E+02 -0.15261020596E+03  0.28485267456E+03  0.36792688966E+03  0.17197133890E+03 0.  0.
        -24    2    3    3    0    0  0.13799639494E+01 -0.17070802149E+03  0.25131793985E+03  0.31367552791E+03  0.78028821732E+02 0.  0.
          6    2    1    2  501    0  0.36947713937E+02  0.15261020596E+03  0.60251162645E+03  0.64588959638E+03  0.17175011554E+03 0.  0.
         24    2    5    5    0    0  0.61883956054E+02  0.10645781393E+03  0.26690161647E+03  0.30617202508E+03  0.85685155663E+02 0.  0.
          5    1    5    5  501    0 -0.24936242117E+02  0.46152392026E+02  0.33561000997E+03  0.33971757131E+03  0.47000000000E+01 0. -1.
        -11    1    6    6    0    0  0.28263497320E+02  0.15174323485E+02  0.15325920857E+03  0.15658055558E+03  0.00000000000E+00 0.  1.
         12    1    6    6    0    0  0.33620458734E+02  0.91283490444E+02  0.11364240791E+03  0.14959146950E+03  0.00000000000E+00 0. -1.
         -5    1    3    3    0  503 -0.38327677886E+02  0.18097815533E+02  0.33534734709E+02  0.54251361745E+02  0.47000000000E+01 0.  1.
         11    1    4    4    0    0  0.12561160678E+02 -0.15793027477E+03  0.17745676920E+03  0.23788791348E+03  0.00000000000E+00 0. -1.
        -12    1    4    4    0    0 -0.11181196729E+02 -0.12777746720E+02  0.73861170650E+02  0.75787614433E+02  0.00000000000E+00 0.  1.
</event>
<event>
12    1  0.8488291E-002  0.1748588E+03  0.7818608E-02  0.1172963E+00
         21   -1    0    0  503  502  0.00000000000E+00  0.00000000000E+00  0.12747754760E+03  0.12747754760E+03  0.00000000000E+00 0. -1.
         21   -1    0    0  501  503 -0.00000000000E+00 -0.00000000000E+00 -0.27570645015E+03  0.27570645015E+03  0.00000000000E+00 0. -1.
          6    2    1    2  501    0 -0.28619994595E+02  0.21968904007E+01 -0.14736864135E+03  0.22867685437E+03  0.17248668602E+03 0.  0.
         24    2    3    3    0    0 -0.74589717571E+02  0.12339466846E+02 -0.13278864682E+03  0.17917176849E+03  0.93561795037E+02 0.  0.
         -6    2    1    2    0  502  0.28619994595E+02 -0.21968904007E+01 -0.86026119809E+00  0.17450714338E+03  0.17212807041E+03 0.  0.
        -24    2    5    5    0    0  0.61583927232E+02 -0.10533019875E+02  0.50375059435E+02  0.11283656700E+03  0.79315317809E+02 0.  0.
          5    1    3    3  501    0  0.45969722976E+02 -0.10142576446E+02 -0.14579994529E+02  0.49505085879E+02  0.47000000000E+01 0. -1.
        -11    1    4    4    0    0 -0.59424447448E+02 -0.32312330410E+02 -0.50815508659E+02  0.84602408780E+02  0.00000000000E+00 0.  1.
         12    1    4    4    0    0 -0.15165270123E+02  0.44651797256E+02 -0.81973138165E+02  0.94569359714E+02  0.00000000000E+00 0. -1.
         -5    1    5    5    0  502 -0.32963932637E+02  0.83361294740E+01 -0.51235320633E+02  0.61670576371E+02  0.47000000000E+01 0.  1.
         11    1    6    6    0    0  0.23042349915E+02 -0.33497949472E+02  0.54261410125E+02  0.67803857834E+02  0.00000000000E+00 0. -1.
        -12    1    6    6    0    0  0.38541577317E+02  0.22964929597E+02 -0.38863506901E+01  0.45032709170E+02  0.00000000000E+00 0.  1.
</event>
<event>
12    1  0.8488291E-002  0.3434057E+03  0.7818608E-02  0.1065425E+00
         21   -1    0    0  503  502  0.00000000000E+00  0.00000000000E+00  0.33156051456E+03  0.33156051456E+03  0.00000000000E+00 0. -1.
         21   -1    0    0  501  503 -0.00000000000E+00 -0.00000000000E+00 -0.37051622087E+03  0.37051622087E+03  0.00000000000E+00 0.  1.
          6    2    1    2  501    0  0.17920422029E+03 -0.23768691642E+03  0.52384475418E+02  0.34737816107E+03  0.17122567188E+03 0.  0.
         24    2    3    3    0    0  0.12888142330E+03 -0.70374962215E+02  0.40150025256E+02  0.17217129565E+03  0.80423093324E+02 0.  0.
         -6    2    1    2    0  502 -0.17920422029E+03  0.23768691642E+03 -0.91340181726E+02  0.35469857436E+03  0.16987885992E+03 0.  0.
        -24    2    5    5    0    0 -0.71211515617E+02  0.20302909863E+03 -0.72528983041E+02  0.23963537524E+03  0.76633966590E+02 0.  0.
          5    1    3    3  501    0  0.50322796993E+02 -0.16731195421E+03  0.12234450163E+02  0.17520686541E+03  0.47000000000E+01 0. -1.
        -13    1    4    4    0    0  0.46600034124E+02  0.22052627009E+01 -0.15483108832E+02  0.49154379490E+02  0.00000000000E+00 0.  1.
         14    1    4    4    0    0  0.82281389176E+02 -0.72580224916E+02  0.55633134088E+02  0.12301691616E+03  0.00000000000E+00 0. -1.
         -5    1    5    5    0  502 -0.10799270468E+03  0.34657817787E+02 -0.18811198685E+02  0.11506319913E+03  0.47000000000E+01 0.  1.
         13    1    6    6    0    0 -0.82065877274E+02  0.14372231170E+03 -0.36772351470E+02  0.16953795128E+03  0.00000000000E+00 0. -1.
        -14    1    6    6    0    0  0.10854361657E+02  0.59306786939E+02 -0.35756631571E+02  0.70097423957E+02  0.00000000000E+00 0.  1.
</event>
<event>
12    1  0.8488291E-002  0.2957183E+03  0.7818608E-02  0.1088529E+00
         21   -1    0    0  501  502  0.00000000000E+00  0.00000000000E+00  0.12369581867E+03  0.12369581867E+03  0.00000000000E+00 0. -1.
         21   -1    0    0  502  503 -0.00000000000E+00 -0.00000000000E+00 -0.78949499388E+03  0.78949499388E+03  0.00000000000E+00 0. -1.
         -6    2    1    2    0  503  0.32339029063E+02 -0.22791627819E+03 -0.49365150537E+03  0.57101520199E+03  0.17139110093E+03 0.  0.
        -24    2    3    3    0    0  0.58517899663E+02 -0.19168624517E+03 -0.47539857590E+03  0.52250532678E+03  0.82704591012E+02 0.  0.
          6    2    1    2  501    0 -0.32339029063E+02  0.22791627819E+03 -0.17214766985E+03  0.34217561056E+03  0.18562781464E+03 0.  0.
         24    2    5    5    0    0  0.12882188178E+01  0.15287088398E+03 -0.25313003694E+02  0.17381554352E+03  0.78739623671E+02 0.  0.
          5    1    5    5  501    0 -0.33627247881E+02  0.75045394210E+02 -0.14683466615E+03  0.16836006705E+03  0.47000000000E+01 0. -1.
        -11    1    6    6    0    0 -0.36840726122E+02  0.93016205649E+02 -0.58001371919E+01  0.10021424652E+03  0.00000000000E+00 0.  1.
         12    1    6    6    0    0  0.38128944940E+02  0.59854678327E+02 -0.19512866502E+02  0.73601296993E+02  0.00000000000E+00 0. -1.
         -5    1    3    3    0  503 -0.26178870600E+02 -0.36230033014E+02 -0.18252929466E+02  0.48509875203E+02  0.47000000000E+01 0.  1.
         13    1    4    4    0    0 -0.10611684097E+02 -0.10613311148E+03 -0.24405452555E+03  0.26634462006E+03  0.00000000000E+00 0. -1.
        -14    1    4    4    0    0  0.69129583760E+02 -0.85553133688E+02 -0.23134405036E+03  0.25616070672E+03  0.00000000000E+00 0.  1.
</event>
<event>
12    1  0.8488291E-002  0.2042200E+03  0.7818608E-02  0.1146960E+00
         21   -1    0    0  503  502  0.00000000000E+00  0.00000000000E+00  0.67932778961E+03  0.67932778961E+03  0.00000000000E+00 0.  1.
         21   -1    0    0  501  503 -0.00000000000E+00 -0.00000000000E+00 -0.65899699619E+02  0.65899699619E+02  0.00000000000E+00 0.  1.
          6    2    1    2  501    0  0.82709570761E+02  0.67207597107E+02  0.20088373060E+03  0.28646131383E+03  0.17420699440E+03 0.  0.
         24    2    3    3    0    0  0.86080547593E+02  0.71311680761E+02  0.67556759264E+02  0.15294585303E+03  0.79582044150E+02 0.  0.
         -6    2    1    2    0  502 -0.82709570761E+02 -0.67207597107E+02  0.41254435939E+03  0.45876617539E+03  0.17004652603E+03 0.  0.
        -24    2    5    5    0    0 -0.19190757422E+02  0.11332644334E+02  0.10044201823E+03  0.13069122888E+03  0.80590844898E+02 0.  0.
          5    1    3    3  501    0 -0.33709768317E+01 -0.41040836533E+01  0.13332697133E+03  0.13351546080E+03  0.47000000000E+01 0. -1.
        -13    1    4    4    0    0  0.77400505982E+02  0.18455012234E+02  0.58168495663E+02  0.98564697993E+02  0.00000000000E+00 0.  1.
         14    1    4    4    0    0  0.86800416112E+01  0.52856668526E+02  0.93882636006E+01  0.54381155040E+02  0.00000000000E+00 0. -1.
         -5    1    5    5    0  502 -0.63518813339E+02 -0.78540241442E+02  0.31210234116E+03  0.32807494651E+03  0.47000000000E+01 0.  1.
         13    1    6    6    0    0  0.96470029770E+01  0.19871909889E+01  0.99887464405E+02  0.10037190413E+03  0.00000000000E+00 0. -1.
        -14    1    6    6    0    0 -0.28837760399E+02  0.93454533454E+01  0.55455382865E+00  0.30319324745E+02  0.00000000000E+00 0.  1.
</event>
<event>
12    1  0.8488291E-002  0.1884297E+03  0.7818608E-02  0.1159949E+00
         21   -1    0    0  501  502  0.00000000000E+00  0.00000000000E+00  0.83294754085E+03  0.83294754085E+03  0.00000000000E+00 0. -1.
         21   -1    0    0  502  503 -0.00000000000E+00 -0.00000000000E+00 -0.67922166053E+02  0.67922166053E+02  0.00000000000E+00 0. -1.
         -6    2    1    2    0  503  0.61591985344E+02 -0.45641661288E+02  0.10746349216E+03  0.21691967837E+03  0.17213079566E+03 0.  0.
        -24    2    3    3    0    0  0.57316413637E+02 -0.93902132586E+02  0.58810802924E+02  0.14809724182E+03  0.79820427940E+02 0.  0.
          6    2    1    2  501    0 -0.61591985344E+02  0.45641661288E+02  0.65756188264E+03  0.68395002853E+03  0.17182339226E+03 0.  0.
         24    2    5    5    0    0  0.38707138991E+01  0.63451510388E+01  0.52735901879E+03  0.53293858372E+03  0.76555574271E+02 0.  0.
          5    1    5    5  501    0 -0.65462699243E+02  0.39296510249E+02  0.13020286385E+03  0.15101144481E+03  0.47000000000E+01 0. -1.
        -13    1    6    6    0    0  0.33670810768E+02 -0.24612846645E+01  0.12816550580E+03  0.13253745998E+03  0.00000000000E+00 0.  1.
         14    1    6    6    0    0 -0.29800096869E+02  0.88064357033E+01  0.39919351299E+03  0.40040112374E+03  0.00000000000E+00 0. -1.
         -5    1    3    3    0  503  0.42755717077E+01  0.48260471298E+02  0.48652689235E+02  0.68822436553E+02  0.47000000000E+01 0.  1.
         11    1    4    4    0    0 -0.91330033729E+01  0.23060415653E+01 -0.89187235737E+01  0.12972016362E+02  0.00000000000E+00 0. -1.
        -12    1    4    4    0    0  0.66449417010E+02 -0.96208174151E+02  0.67729526498E+02  0.13512522545E+03  0.00000000000E+00 0.  1.
</event>
<event>
12    1  0.8488291E-002  0.1741770E+03  0.7818608E-02  0.1173689E+00
         21   -1    0    0  503  502  0.00000000000E+00  0.00000000000E+00  0.22211627714E+03  0.22211627714E+03  0.00000000000E+00 0. -1.
         21   -1    0    0  501  503 -0.00000000000E+00 -0.00000000000E+00 -0.16157830238E+03  0.16157830238E+03  0.00000000000E+00 0. -1.
          6    2    1    2  501    0  0.17497749083E+02 -0.66962797591E+01 -0.45746125256E+02  0.18008426437E+03  0.17316646013E+03 0.  0.
         24    2    3    3    0    0  0.57005797134E+02 -0.45226861342E+02  0.43640899235E+01  0.10539413622E+03  0.76116678694E+02 0.  0.
         -6    2    1    2    0  502 -0.17497749083E+02  0.66962797591E+01  0.10628410002E+03  0.20361031515E+03  0.17265526095E+03 0.  0.
        -24    2    5    5    0    0 -0.61791934498E+02  0.47717027564E+02  0.62256815809E+02  0.12874264278E+03  0.81262531745E+02 0.  0.
          5    1    3    3  501    0 -0.39508048051E+02  0.38530581583E+02 -0.50110215180E+02  0.74690128152E+02  0.47000000000E+01 0. -1.
        -11    1    4    4    0    0 -0.10542226024E+02  0.12313546670E+02 -0.24735722603E+01  0.16397576677E+02  0.00000000000E+00 0.  1.
         12    1    4    4    0    0  0.67548023158E+02 -0.57540408012E+02  0.68376621838E+01  0.88996559545E+02  0.00000000000E+00 0. -1.
         -5    1    5    5    0  502  0.44294185415E+02 -0.41020747804E+02  0.44027284207E+02  0.74867672374E+02  0.47000000000E+01 0.  1.
         13    1    6    6    0    0 -0.64493876200E+02  0.33338158724E+02  0.85782362319E+01  0.73105943885E+02  0.00000000000E+00 0. -1.
        -14    1    6    6    0    0  0.27019417020E+01  0.14378868839E+02  0.53678579577E+02  0.55636698891E+02  0.00000000000E+00 0.  1.
</event>
<event>
12    1  0.8488291E-002  0.1766212E+03  0.7818608E-02  0.1172491E+00
         21   -1    0    0  503  502  0.00000000000E+00  0.00000000000E+00  0.39367878895E+03  0.39367878895E+03  0.00000000000E+00 0.  1.
         21   -1    0    0  501  503 -0.00000000000E+00 -0.00000000000E+00 -0.14145183207E+03  0.14145183207E+03  0.00000000000E+00 0. -1.
          6    2    1    2  501    0 -0.43135649360E+02 -0.20424663022E+01 -0.53678000270E+02  0.18459790669E+03  0.17126063041E+03 0.  0.
         24    2    3    3    0    0 -0.55987495721E+02 -0.41446856006E+02  0.99448154084E+01  0.10852012704E+03  0.82615235088E+02 0.  0.
         -6    2    1    2    0  502  0.43135649360E+02  0.20424663022E+01  0.30590495715E+03  0.35053271433E+03  0.16562151155E+03 0.  0.
        -24    2    5    5    0    0  0.72422178414E+01 -0.38842568516E+02  0.83236740242E+02  0.12126616788E+03  0.78841192900E+02 0.  0.
          5    1    3    3  501    0  0.12851846361E+02  0.39404389704E+02 -0.63622815678E+02  0.76077779658E+02  0.47000000000E+01 0. -1.
        -11    1    4    4    0    0 -0.12449447519E+02 -0.59506239958E+02  0.82794555785E+01  0.61355771710E+02  0.00000000000E+00 0.  1.
         12    1    4    4    0    0 -0.43538048203E+02  0.18059383952E+02  0.16653598299E+01  0.47164355327E+02  0.00000000000E+00 0. -1.
         -5    1    5    5    0  502  0.35893431519E+02  0.40885034818E+02  0.22266821691E+03  0.22926654645E+03  0.47000000000E+01 0.  1.
         13    1    6    6    0    0  0.21554725106E+01  0.19126105592E+02 -0.54890817737E+00  0.19255006545E+02  0.00000000000E+00 0. -1.
        -14    1    6    6    0    0  0.50867453308E+01 -0.57968674108E+02  0.83785648419E+02  0.10201116133E+03  0.00000000000E+00 0.  1.
</event>
<event>
12    1  0.8488291E-002  0.2057609E+03  0.7818608E-02  0.1145079E+00
         21   -1    0    0  501  502  0.00000000000E+00  0.00000000000E+00  0.52813026591E+03  0.52813026591E+03  0.00000000000E+00 0.  1.
         21   -1    0    0  502  503 -0.00000000000E+00 -0.00000000000E+00 -0.83597865069E+02  0.83597865069E+02  0.00000000000E+00 0.  1.
         -6    2    1    2    0  503  0.88871191328E+02  0.69910720318E+02  0.28585916322E+03  0.35189212074E+03  0.17125129483E+03 0.  0.
        -24    2    3    3    0    0  0.26863560671E+02  0.86006249811E+02  0.25182680231E+03  0.27919890291E+03  0.80103452647E+02 0.  0.
          6    2    1    2  501    0 -0.88871191328E+02 -0.69910720318E+02  0.15867323763E+03  0.25983601024E+03  0.17190683063E+03 0.  0.
         24    2    5    5    0    0 -0.39731866002E+02 -0.10553167937E+03  0.77795432179E+02  0.15860935649E+03  0.79932735291E+02 0.  0.
          5    1    5    5  501    0 -0.49139325326E+02  0.35620959047E+02  0.80877805446E+02  0.10122665376E+03  0.47000000000E+01 0. -1.
        -11    1    6    6    0    0 -0.60875161102E+02 -0.83648374180E+02  0.75537802644E+02  0.12809682030E+03  0.00000000000E+00 0.  1.
         12    1    6    6    0    0  0.21143295099E+02 -0.21883305185E+02  0.22576295353E+01  0.30512536188E+02  0.00000000000E+00 0. -1.
         -5    1    3    3    0  503  0.62007630657E+02 -0.16095529492E+02  0.34032360906E+02  0.72693217828E+02  0.47000000000E+01 0.  1.
         11    1    4    4    0    0 -0.25277860831E+02  0.78750655816E+01  0.49702149895E+02  0.56314213217E+02  0.00000000000E+00 0. -1.
        -12    1    4    4    0    0  0.52141421502E+02  0.78131184229E+02  0.20212465242E+03  0.22288468970E+03  0.00000000000E+00 0.  1.
</event>
<event>
12    1  0.8488291E-002  0.1956659E+03  0.7818608E-02  0.1153999E+00
         21   -1    0    0  503  502  0.00000000000E+00  0.00000000000E+00  0.61558575437E+02  0.61558575437E+02  0.00000000000E+00 0.  1.
         21   -1    0    0  501  503 -0.00000000000E+00 -0.00000000000E+00 -0.65949609868E+03  0.65949609868E+03  0.00000000000E+00 0.  1.
          6    2    1    2  501    0  0.85508616761E+02  0.23625324787E+02 -0.39551815188E+03  0.44127061789E+03  0.17439974265E+03 0.  0.
         24    2    3    3    0    0  0.34895233790E+02 -0.96552249571E+01 -0.36126813968E+03  0.37152491650E+03  0.78773054535E+02 0.  0.
         -6    2    1    2    0  502 -0.85508616761E+02 -0.23625324787E+02 -0.20241937137E+03  0.27978405623E+03  0.17156816926E+03 0.  0.
        -24    2    5    5    0    0 -0.16456290832E+02  0.37133923484E+02 -0.14585588738E+03  0.17170340261E+03  0.80983830499E+02 0.  0.
          5    1    3    3  501    0  0.50613382970E+02  0.33280549745E+02 -0.34250012198E+02  0.69745701391E+02  0.47000000000E+01 0. -1.
        -13    1    4    4    0    0  0.45694937629E+02  0.23793202826E+02 -0.21939338486E+03  0.22536104621E+03  0.00000000000E+00 0.  1.
         14    1    4    4    0    0 -0.10799703839E+02 -0.33448427783E+02 -0.14187475482E+03  0.14616387029E+03  0.00000000000E+00 0. -1.
         -5    1    5    5    0  502 -0.69052325929E+02 -0.60759248271E+02 -0.56563483985E+02  0.10808065362E+03  0.47000000000E+01 0.  1.
         13    1    6    6    0    0  0.31697845254E+02  0.14210806805E+02 -0.78093167211E+02  0.85470715388E+02  0.00000000000E+00 0. -1.
        -14    1    6    6    0    0 -0.48154136086E+02  0.22923116678E+02 -0.67762720171E+02  0.86232687221E+02  0.00000000000E+00 0.  1.
</event>
<event>
12    1  0.8488291E-002  0.1746486E+03  0.7818608E-02  0.1173368E+00
         21   -1    0    0  503  502  0.00000000000E+00  0.00000000000E+00  0.65884372902E+03  0.65884372902E+03  0.00000000000E+00 0. -1.
         21   -1    0    0  501  503 -0.00000000000E+00 -0.00000000000E+00 -0.45999705790E+02  0.45999705790E+02  0.00000000000E+00 0. -1.
          6    2    1    2  501    0 -0.13596301017E+02 -0.12971287886E+02  0.30698135735E+03  0.35318507798E+03  0.17363476563E+03 0.  0.
         24    2    3    3    0    0  0.13305392347E+01  0.59917039567E+02  0.18191384538E+03  0.20758462678E+03  0.80043164413E+02 0.  0.
         -6    2    1    2    0  502  0.13596301017E+02  0.12971287886E+02  0.30586266588E+03  0.35165835683E+03  0.17250656753E+03 0.  0.
        -24    2    5    5    0    0  0.72153151840E+01  0.33720688897E+02  0.31546889814E+03  0.32745868079E+03  0.80742902466E+02 0.  0.
          5    1    3    3  501    0 -0.14926840252E+02 -0.72888327452E+02  0.12506751197E+03  0.14560045120E+03  0.47000000000E+01 0. -1.
        -11    1    4    4    0    0  0.39486742927E+02  0.39972091796E+02  0.90216175130E+02  0.10628230918E+03  0.00000000000E+00 0.  1.
         12    1    4    4    0    0 -0.38156203693E+02  0.19944947771E+02  0.91697670249E+02  0.10130231760E+03  0.00000000000E+00 0. -1.
         -5    1    5    5    0  502  0.63809858330E+01 -0.20749401012E+02 -0.96062322563E+01  0.24199676045E+02  0.47000000000E+01 0.  1.
         13    1    6    6    0    0  0.43553966941E+02  0.10945200667E+02  0.15978640536E+03  0.16597722974E+03  0.00000000000E+00 0. -1.
        -14    1    6    6    0    0 -0.36338651757E+02  0.22775488230E+02  0.15568249278E+03  0.16148145105E+03  0.00000000000E+00 0.  1.
</event>
<event>
12    1  0.8488291E-002  0.2257957E+03  0.7818608E-02  0.1129676E+00
         21   -1    0    0  503  502  0.00000000000E+00  0.00000000000E+00  0.55474611800E+03  0.55474611800E+03  0.00000000000E+00 0. -1.
         21   -1    0    0  501  503 -0.00000000000E+00 -0.00000000000E+00 -0.10642387488E+03  0.10642387488E+03  0.00000000000E+00 0. -1.
          6    2    1    2  501    0  0.49973977898E+02 -0.13659533132E+03  0.10176066737E+03  0.24766697767E+03  0.17270789037E+03 0.  0.
         24    2    3    3    0    0  0.68539032837E+02 -0.13432473680E+03  0.13077942299E+03  0.21282454604E+03  0.73826119896E+02 0.  0.
         -6    2    1    2    0  502 -0.49973977898E+02  0.13659533132E+03  0.34656157574E+03  0.41350301521E+03  0.17240688734E+03 0.  0.
        -24    2    5    5    0    0 -0.95566197243E+01  0.13819989675E+03  0.33542684504E+03  0.37128678966E+03  0.78435778580E+02 0.  0.
          5    1    3    3  501    0 -0.18565054939E+02 -0.22705945183E+01 -0.29018755617E+02  0.34842431630E+02  0.47000000000E+01 0. -1.
        -11    1    4    4    0    0 -0.55721429768E+00  0.46335713049E+01 -0.48422738780E+01  0.67251830548E+01  0.00000000000E+00 0.  1.
         12    1    4    4    0    0  0.69096247135E+02 -0.13895830811E+03  0.13562169687E+03  0.20609936298E+03  0.00000000000E+00 0. -1.
         -5    1    5    5    0  502 -0.40417358174E+02 -0.16045654263E+01  0.11134730703E+02  0.42216225551E+02  0.47000000000E+01 0.  1.
         11    1    6    6    0    0 -0.43528524157E+02  0.66419798490E+02  0.15509204534E+03  0.17424082350E+03  0.00000000000E+00 0. -1.
        -12    1    6    6    0    0  0.33971904433E+02  0.71780098259E+02  0.18033479970E+03  0.19704596616E+03  0.00000000000E+00 0.  1.
</event>
<event>
12    1  0.8488291E-002  0.2330836E+03  0.7818608E-02  0.1126131E+00
         21   -1    0    0  501  502  0.00000000000E+00  0.00000000000E+00  0.26171672989E+03  0.26171672989E+03  0.00000000000E+00 0. -1.
         21   -1    0    0  502  503 -0.00000000000E+00 -0.00000000000E+00 -0.40444246802E+03  0.40444246802E+03  0.00000000000E+00 0. -1.
         -6    2    1    2    0  503 -0.38608563498E+02  0.13713789929E+03  0.16649460493E+03  0.27893162539E+03  0.17258323667E+03 0.  0.
        -24    2    3    3    0    0 -0.76073060930E+02  0.13736466527E+03  0.16564153582E+03  0.24116315021E+03  0.77886999979E+02 0.  0.
          6    2    1    2  501    0  0.38608563498E+02 -0.13713789929E+03 -0.30922034306E+03  0.38722757252E+03  0.18447370478E+03 0.  0.
         24    2    5    5    0    0  0.79948120930E+02 -0.11133614170E+03 -0.29730388608E+03  0.33684124847E+03  0.79277913123E+02 0.  0.
          5    1    5    5  501    0 -0.41339557432E+02 -0.25801757589E+02 -0.11916456986E+02  0.50386324042E+02  0.47000000000E+01 0. -1.
        -11    1    6    6    0    0  0.18927739249E+02 -0.25209004578E+02 -0.13962293344E+02  0.34477512386E+02  0.00000000000E+00 0.  1.
         12    1    6    6    0    0  0.61020381680E+02 -0.86127137120E+02 -0.28334159273E+03  0.30236373609E+03  0.00000000000E+00 0. -1.
         -5    1    3    3    0  503  0.37464497432E+02 -0.22676598569E+00  0.85306910726E+00  0.37768475182E+02  0.47000000000E+01 0.  1.
         13    1    4    4    0    0 -0.33655806615E+02  0.85705790516E+01  0.59773712625E+02  0.69130780880E+02  0.00000000000E+00 0. -1.
        -14    1    4    4    0    0 -0.42417254315E+02  0.12879408622E+03  0.10586782320E+03  0.17203236933E+03  0.00000000000E+00 0.  1.
</event>
<event>
12    1  0.8488291E-002  0.2120190E+03  0.7818608E-02  0.1140376E+00
         21   -1    0    0  503  502  0.00000000000E+00  0.00000000000E+00  0.17811219746E+04  0.17811219746E+04  0.00000000000E+00 0.  1.
         21   -1    0    0  501  503 -0.00000000000E+00 -0.00000000000E+00 -0.38449246480E+02  0.38449246480E+02  0.00000000000E+00 0. -1.
          6    2    1    2  501    0 -0.84641804062E+02  0.92094038118E+02  0.33047060572E+03  0.39154220499E+03  0.16866810663E+03 0.  0.
         24    2    3    3    0    0 -0.10068511469E+03  0.50418708148E+02  0.31543055126E+03  0.34418701328E+03  0.79301506871E+02 0.  0.
         -6    2    1    2    0  502  0.84641804062E+02 -0.92094038118E+02  0.14122021224E+04  0.14280290161E+04  0.17119138245E+03 0.  0.
        -24    2    5    5    0    0  0.48071796307E+02 -0.91579856220E+02  0.13453007363E+04  0.13516384714E+04  0.79966985186E+02 0.  0.
          5    1    3    3  501    0  0.16043310625E+02  0.41675329969E+02  0.15040054460E+02  0.47355191711E+02  0.47000000000E+01 0. -1.
        -13    1    4    4    0    0  0.14850596836E+01 -0.60639834191E+01 -0.15151035819E+01  0.64243938262E+01  0.00000000000E+00 0.  1.
         14    1    4    4    0    0 -0.10217017437E+03  0.56482691567E+02  0.31694565484E+03  0.33776261945E+03  0.00000000000E+00 0. -1.
         -5    1    5    5    0  502  0.36570007755E+02 -0.51418189736E+00  0.66901386140E+02  0.76390544687E+02  0.47000000000E+01 0.  1.
         11    1    6    6    0    0  0.14363887597E+02 -0.41962543298E+02  0.20415557446E+03  0.20891786638E+03  0.00000000000E+00 0. -1.
        -12    1    6    6    0    0  0.33707908710E+02 -0.49617312922E+02  0.11411451618E+04  0.11427206051E+04  0.00000000000E+00 0.  1.
</event>
<event>
12    1  0.8488291E-002  0.2869408E+03  0.7818608E-02  0.1092002E+00
         21   -1    0    0  501  502  0.00000000000E+00  0.00000000000E+00  0.33249614900E+03  0.33249614900E+03  0.00000000000E+00 0.  1.
         21   -1    0    0  502  503 -0.00000000000E+00 -0.00000000000E+00 -0.25137862922E+03  0.25137862922E+03  0.00000000000E+00 0.  1.
         -6    2    1    2    0  503 -0.15160911985E+03 -0.17152192451E+03  0.77608502798E+02  0.29725089110E+03  0.17300264954E+03 0.  0.
        -24    2    3    3    0    0 -0.48130261199E+02 -0.15360783573E+03  0.67363695684E+02  0.19162970555E+03  0.79197142075E+02 0.  0.
          6    2    1    2  501    0  0.15160911985E+03  0.17152192451E+03  0.35090169844E+01  0.28662388712E+03  0.17244084105E+03 0.  0.
         24    2    5    5    0    0  0.38936787883E+02  0.13556845525E+03  0.29691152444E+02  0.16539971231E+03  0.81121025574E+02 0.  0.
          5    1    5    5  501    0  0.11267233196E+03  0.35953469260E+02 -0.26182135460E+02  0.12122417481E+03  0.47000000000E+01 0. -1.
        -13    1    6    6    0    0  0.47342987749E+02  0.71497131136E+02 -0.14698975959E+02  0.87001483573E+02  0.00000000000E+00 0.  1.
         14    1    6    6    0    0 -0.84061998659E+01  0.64071324112E+02  0.44390128403E+02  0.78398228738E+02  0.00000000000E+00 0. -1.
         -5    1    3    3    0  503 -0.10347885865E+03 -0.17914088776E+02  0.10244807113E+02  0.10562118555E+03  0.47000000000E+01 0.  1.
         11    1    4    4    0    0  0.16657551158E+02 -0.99629052283E+01  0.18072717208E+02  0.26520870997E+02  0.00000000000E+00 0. -1.
        -12    1    4    4    0    0 -0.64787812357E+02 -0.14364493050E+03  0.49290978477E+02  0.16510883456E+03  0.00000000000E+00 0.  1.
</event>
<event>
12    1  0.8488291E-002  0.2195166E+03  0.7818608E-02  0.1135039E+00
         21   -1    0    0  503  502  0.00000000000E+00  0.00000000000E+00  0.13561478837E+04  0.13561478837E+04  0.00000000000E+00 0.  1.
         21   -1    0    0  501  503 -0.00000000000E+00 -0.00000000000E+00 -0.11043125703E+03  0.11043125703E+03  0.00000000000E+00 0.  1.
          6    2    1    2  501    0  0.13392417515E+03 -0.91157027813E+01  0.14336656834E+02  0.21578571983E+03  0.16834237859E+03 0.  0.
         24    2    3    3    0    0  0.15963252874E+03 -0.26645544861E+02  0.25438360993E+02  0.18241578362E+03  0.80223927914E+02 0.  0.
         -6    2    1    2    0  502 -0.13392417515E+03  0.91157027813E+01  0.12313799699E+04  0.12507934209E+04  0.17369159709E+03 0.  0.
        -24    2    5    5    0    0 -0.12786589638E+03  0.14803898017E+02  0.12319604946E+04  0.12412286253E+04  0.79705690423E+02 0.  0.
          5    1    3    3  501    0 -0.25708353594E+02  0.17529842080E+02 -0.11101704160E+02  0.33369936216E+02  0.47000000000E+01 0. -1.
        -11    1    4    4    0    0  0.52653887646E+02 -0.47956113757E+02  0.15472961389E+02  0.72880952690E+02  0.00000000000E+00 0.  1.
         12    1    4    4    0    0  0.10697864109E+03  0.21310568896E+02  0.99653996043E+01  0.10953483093E+03  0.00000000000E+00 0. -1.
         -5    1    5    5    0  502 -0.60582787680E+01 -0.56881952356E+01 -0.58052474013E+00  0.95647956404E+01  0.47000000000E+01 0.  1.
         11    1    6    6    0    0 -0.48220503334E+02 -0.26154069055E+02  0.29995111180E+03  0.30492609226E+03  0.00000000000E+00 0. -1.
        -12    1    6    6    0    0 -0.79645393044E+02  0.40957967072E+02  0.93200938283E+03  0.93630253304E+03  0.00000000000E+00 0.  1.
</event>
<event>
12    1  0.8488291E-002  0.4193311E+03  0.7818608E-02  0.1037626E+00
         21   -1    0    0  501  502  0.00000000000E+00  0.00000000000E+00  0.10024563334E+04  0.10024563334E+04  0.00000000000E+00 0. -1.
         21   -1    0    0  502  503 -0.00000000000E+00 -0.00000000000E+00 -0.56342304283E+03  0.56342304283E+03  0.00000000000E+00 0.  1.
         -6    2    1    2    0  503 -0.33770255881E+03  0.17943446420E+03 -0.43133321629E+03  0.60157038858E+03  0.17204314508E+03 0.  0.
        -24    2    3    3    0    0 -0.79232281226E+02  0.93013538325E+02 -0.13563633074E+03  0.19940848219E+03  0.80232511200E+02 0.  0.
          6    2    1    2  501    0  0.33770255881E+03 -0.17943446420E+03  0.87036650684E+03  0.96430898763E+03  0.16159895492E+03 0.  0.
         24    2    5    5    0    0  0.11933336722E+03 -0.16156101613E+02  0.28530275224E+03  0.31881180370E+03  0.75774887582E+02 0.  0.
          5    1    5    5  501    0  0.21836919159E+03 -0.16327836259E+03  0.58506375460E+03  0.64549718394E+03  0.47000000000E+01 0. -1.
        -11    1    6    6    0    0  0.46087457121E+02 -0.27653392490E+02  0.55137115829E+02  0.76999125723E+02  0.00000000000E+00 0.  1.
         12    1    6    6    0    0  0.73245910099E+02  0.11497290877E+02  0.23016563641E+03  0.24181267798E+03  0.00000000000E+00 0. -1.
         -5    1    3    3    0  503 -0.25847027759E+03  0.86420925877E+02 -0.29569688555E+03  0.40216190638E+03  0.47000000000E+01 0.  1.
         13    1    4    4    0    0  0.36467268161E+01 -0.27283216014E+01 -0.41175413283E+02  0.41426525491E+02  0.00000000000E+00 0. -1.
        -14    1    4    4    0    0 -0.82879008042E+02  0.95741859926E+02 -0.94460917456E+02  0.15798195670E+03  0.00000000000E+00 0.  1.
</event>
<event>
12    1  0.8488291E-002  0.2347549E+03  0.7818608E-02  0.1123525E+00
         21   -1    0    0  503  502  0.00000000000E+00  0.00000000000E+00  0.26636864490E+03  0.26636864490E+03  0.00000000000E+00 0.  1.
         21   -1    0    0  501  503 -0.00000000000E+00 -0.00000000000E+00 -0.20959831264E+03  0.20959831264E+03  0.00000000000E+00 0. -1.
          6    2    1    2  501    0 -0.15014502133E+03  0.51616958244E+02 -0.31709616938E+01  0.23368032792E+03  0.17143104402E+03 0.  0.
         24    2    3    3    0    0 -0.11742145164E+03  0.98643442736E+01  0.57127027408E+02  0.15323127401E+03  0.79568985665E+02 0.  0.
         -6    2    1    2    0  502  0.15014502133E+03 -0.51616958244E+02  0.59941293960E+02  0.24228662962E+03  0.17292198924E+03 0.  0.
        -24    2    5    5    0    0  0.35085416497E+02 -0.51803169682E+02 -0.16990309662E+02  0.10379724745E+03  0.81059503547E+02 0.  0.
          5    1    3    3  501    0 -0.32723569681E+02  0.41752613971E+02 -0.60297989102E+02  0.80449053915E+02  0.47000000000E+01 0. -1.
        -13    1    4    4    0    0  0.26406197766E+01  0.53589942911E+01  0.29301894143E+02  0.29904726933E+02  0.00000000000E+00 0.  1.
         14    1    4    4    0    0 -0.12006207142E+03  0.45053499825E+01  0.27825133265E+02  0.12332654708E+03  0.00000000000E+00 0. -1.
         -5    1    5    5    0  502  0.11505960483E+03  0.18621143799E+00  0.76931603622E+02  0.13848938217E+03  0.47000000000E+01 0.  1.
         13    1    6    6    0    0  0.17483633673E+02  0.10076112621E+02 -0.31910630638E+02  0.37755712676E+02  0.00000000000E+00 0. -1.
        -14    1    6    6    0    0  0.17601782824E+02 -0.61879282303E+02  0.14920320976E+02  0.66041534771E+02  0.00000000000E+00 0.  1.
</event>
<event>
12    1  0.8488291E-002  0.2579854E+03  0.7818608E-02  0.1108365E+00
         21   -1    0    0  501  502  0.00000000000E+00  0.00000000000E+00  0.31168510947E+03  0.31168510947E+03  0.00000000000E+00 0.  1.
         21   -1    0    0  502  503 -0.00000000000E+00 -0.00000000000E+00 -0.22907711514E+03  0.22907711514E+03  0.00000000000E+00 0.  1.
         -6    2    1    2    0  503 -0.19149595533E+03  0.58653906783E+01 -0.29184603158E+02  0.25959673769E+03  0.17272411945E+03 0.  0.
        -24    2    3    3    0    0 -0.16905894536E+03 -0.46285703098E+02  0.57621551679E+01  0.19276469510E+03  0.80010823820E+02 0.  0.
          6    2    1    2  501    0  0.19149595533E+03 -0.58653906783E+01  0.11179259749E+03  0.28116548692E+03  0.17277541048E+03 0.  0.
         24    2    5    5    0    0  0.15812314582E+03 -0.41793732926E+02  0.28087682328E+02  0.18404086073E+03  0.79576850677E+02 0.  0.
          5    1    5    5  501    0  0.33372809518E+02  0.35928342247E+02  0.83704915161E+02  0.97124626197E+02  0.47000000000E+01 0. -1.
        -13    1    6    6    0    0  0.70781147223E+02  0.29319371006E+01  0.45758309609E+02  0.84334986546E+02  0.00000000000E+00 0.  1.
         14    1    6    6    0    0  0.87341998592E+02 -0.44725670026E+02 -0.17670627282E+02  0.99705874179E+02  0.00000000000E+00 0. -1.
         -5    1    3    3    0  503 -0.22437009976E+02  0.52151093776E+02 -0.34946758326E+02  0.66832042586E+02  0.47000000000E+01 0.  1.
         13    1    4    4    0    0  0.25230219696E+01 -0.18718223825E+02  0.11071299171E+01  0.18919917539E+02  0.00000000000E+00 0. -1.
        -14    1    4    4    0    0 -0.17158196733E+03 -0.27567479272E+02  0.46550252508E+01  0.17384477756E+03  0.00000000000E+00 0.  1.
</event>
<event>
12    1  0.8488291E-002  0.1737869E+03  0.7818608E-02  0.1174068E+00
         21   -1    0    0  501  502  0.00000000000E+00  0.00000000000E+00  0.73600643830E+02  0.73600643830E+02  0.00000000000E+00 0.  1.
         21   -1    0    0  502  503 -0.00000000000E+00 -0.00000000000E+00 -0.45068907238E+03  0.45068907238E+03  0.00000000000E+00 0.  1.
         -6    2    1    2    0  503 -0.27727492857E+01  0.21617927644E+02 -0.26820566968E+03  0.31958752194E+03  0.17241484853E+03 0.  0.
        -24    2    3    3    0    0  0.39753372938E+02 -0.21732046417E+02 -0.23046362591E+03  0.24793388846E+03  0.79404771129E+02 0.  0.
          6    2    1    2  501    0  0.27727492857E+01 -0.21617927644E+02 -0.10888275887E+03  0.20470219427E+03  0.17196659625E+03 0.  0.
         24    2    5    5    0    0  0.21217602474E+02  0.50489891246E+02 -0.80074490389E+02  0.12475373283E+03  0.78435668360E+02 0.  0.
          5    1    5    5  501    0 -0.18444853188E+02 -0.72107818890E+02 -0.28808268477E+02  0.79948461442E+02  0.47000000000E+01 0. -1.
        -11    1    6    6    0    0 -0.22988408395E+02  0.44776833428E+02 -0.34611354212E+02  0.61085002846E+02  0.00000000000E+00 0.  1.
         12    1    6    6    0    0  0.44206010869E+02  0.57130578183E+01 -0.45463136177E+02  0.63668729983E+02  0.00000000000E+00 0. -1.
         -5    1    3    3    0  503 -0.42526122224E+02  0.43349974061E+02 -0.37742043776E+02  0.71653633480E+02  0.47000000000E+01 0.  1.
         11    1    4    4    0    0 -0.19790555787E+02 -0.24542190714E+02 -0.70670750033E+02  0.77384366210E+02  0.00000000000E+00 0. -1.
        -12    1    4    4    0    0  0.59543928725E+02  0.28101442964E+01 -0.15979287587E+03  0.17054952225E+03  0.00000000000E+00 0.  1.
</event>
<event>
12    1  0.8488291E-002  0.2219132E+03  0.7818608E-02  0.1132993E+00
         21   -1    0    0  501  502  0.00000000000E+00  0.00000000000E+00  0.36046800969E+02  0.36046800969E+02  0.00000000000E+00 0. -1.
         21   -1    0    0  502  503 -0.00000000000E+00 -0.00000000000E+00 -0.16972207641E+04  0.16972207641E+04  0.00000000000E+00 0. -1.
         -6    2    1    2    0  503  0.13558499514E+03 -0.58458777647E+01 -0.12190444151E+04  0.12385717123E+04  0.17196841386E+03 0.  0.
        -24    2    3    3    0    0  0.12752799482E+02  0.36476525341E+02 -0.56548317567E+03  0.57220595856E+03  0.78455504891E+02 0.  0.
          6    2    1    2  501    0 -0.13558499514E+03  0.58458777647E+01 -0.44212954801E+03  0.49469585273E+03  0.17557899731E+03 0.  0.
         24    2    5    5    0    0 -0.14882331808E+03 -0.26847489179E+02 -0.27755212541E+03  0.32631554668E+03  0.81101701632E+02 0.  0.
          5    1    5    5  501    0  0.13238322945E+02  0.32693366943E+02 -0.16457742260E+03  0.16838030605E+03  0.47000000000E+01 0. -1.
        -13    1    6    6    0    0 -0.28547163514E+02 -0.33858753108E+02 -0.38768437380E+02  0.58858707458E+02  0.00000000000E+00 0.  1.
         14    1    6    6    0    0 -0.12027615457E+03  0.70112639289E+01 -0.23878368803E+03  0.26745683922E+03  0.00000000000E+00 0. -1.
         -5    1    3    3    0  503  0.12283219565E+03 -0.42322403106E+02 -0.65356123944E+03  0.66636575376E+03  0.47000000000E+01 0.  1.
         13    1    4    4    0    0  0.12598481596E+02  0.12558792432E+02 -0.22436827435E+02  0.28633131705E+02  0.00000000000E+00 0. -1.
        -14    1    4    4    0    0  0.15431788564E+00  0.23917732909E+02 -0.54304634824E+03  0.54357282686E+03  0.00000000000E+00 0.  1.
</event>
<event>
12    1  0.8488291E-002  0.1796959E+03  0.7818608E-02  0.1168457E+00
         21   -1    0    0  501  502  0.00000000000E+00  0.00000000000E+00  0.66633536734E+02  0.66633536734E+02  0.00000000000E+00 0. -1.
         21   -1    0    0  502  503 -0.00000000000E+00 -0.00000000000E+00 -0.12061781478E+04  0.12061781478E+04  0.00000000000E+00 0.  1.
         -6    2    1    2    0  503  0.37423452646E+02 -0.27376012315E+02 -0.10624189568E+04  0.10772637983E+04  0.17208512573E+03 0.  0.
        -24    2    3    3    0    0 -0.17188226783E+02 -0.71537992166E+02 -0.66512847809E+03  0.67378575619E+03  0.78601739208E+02 0.  0.
          6    2    1    2  501    0 -0.37423452646E+02  0.27376012315E+02 -0.77125654181E+02  0.19554788615E+03  0.17361062291E+03 0.  0.
         24    2    5    5    0    0 -0.54239304566E+02  0.43354121835E+02 -0.11169361352E+03  0.15365389288E+03  0.79451705187E+02 0.  0.
          5    1    5    5  501    0  0.16815851920E+02 -0.15978109519E+02  0.34567959335E+02  0.41893993271E+02  0.47000000000E+01 0. -1.
        -11    1    6    6    0    0  0.20565598481E+02  0.11330725033E+02 -0.18193147276E+02  0.29703868072E+02  0.00000000000E+00 0.  1.
         12    1    6    6    0    0 -0.74804903048E+02  0.32023396801E+02 -0.93500466240E+02  0.12395002481E+03  0.00000000000E+00 0. -1.
         -5    1    3    3    0  503  0.54611679429E+02  0.44161979851E+02 -0.39729047875E+03  0.40347804215E+03  0.47000000000E+01 0.  1.
         11    1    4    4    0    0 -0.44676832274E+02 -0.19781837922E+02 -0.28210347778E+03  0.28630353234E+03  0.00000000000E+00 0. -1.
        -12    1    4    4    0    0  0.27488605491E+02 -0.51756154245E+02 -0.38302500031E+03  0.38748222385E+03  0.00000000000E+00 0.  1.
</event>
<event>
12    1  0.8488291E-002  0.1923980E+03  0.7818608E-02  0.1156371E+00
         21   -1    0    0  501  502  0.00000000000E+00  0.00000000000E+00  0.91389405236E+03  0.91389405236E+03  0.00000000000E+00 0.  1.
         21   -1    0    0  502  503 -0.00000000000E+00 -0.00000000000E+00 -0.64113155641E+02  0.64113155641E+02  0.00000000000E+00 0.  1.
         -6    2    1    2    0  503 -0.91109508207E+01  0.83083461945E+02  0.12765103683E+03  0.23068630928E+03  0.17301882849E+03 0.  0.
        -24    2    3    3    0    0  0.29130617939E+02  0.10978530433E+03  0.65255117456E+02  0.15264307304E+03  0.78359884147E+02 0.  0.
          6    2    1    2  501    0  0.91109508207E+01 -0.83083461945E+02  0.72212985988E+03  0.74732089872E+03  0.17329489332E+03 0.  0.
         24    2    5    5    0    0  0.48437935461E+02 -0.75075325536E+02  0.66966798427E+03  0.68110095940E+03  0.86375746886E+02 0.  0.
          5    1    5    5  501    0 -0.39326984640E+02 -0.80081364089E+01  0.52461875614E+02  0.66219939313E+02  0.47000000000E+01 0. -1.
        -11    1    6    6    0    0  0.64141280430E+02 -0.53953231690E+02  0.61197364477E+03  0.61768664949E+03  0.00000000000E+00 0.  1.
         12    1    6    6    0    0 -0.15703344969E+02 -0.21122093846E+02  0.57694339501E+02  0.63414309916E+02  0.00000000000E+00 0. -1.
         -5    1    3    3    0  503 -0.38241568760E+02 -0.26701842389E+02  0.62395919377E+02  0.78043236242E+02  0.47000000000E+01 0.  1.
         13    1    4    4    0    0 -0.93197972568E+01  0.42029910354E+02  0.60947492788E+02  0.74618823781E+02  0.00000000000E+00 0. -1.
        -14    1    4    4    0    0  0.38450415196E+02  0.67755393981E+02  0.43076246683E+01  0.78024249259E+02  0.00000000000E+00 0.  1.
</event>
<event>
12    1  0.8488291E-002  0.2168131E+03  0.7818608E-02  0.1136345E+00
         21   -1    0    0  503  502  0.00000000000E+00  0.00000000000E+00  0.38073835866E+02  0.38073835866E+02  0.00000000000E+00 0.  1.
         21   -1    0    0  501  503 -0.00000000000E+00 -0.00000000000E+00 -0.13718603117E+04  0.13718603117E+04  0.00000000000E+00 0. -1.
          6    2    1    2  501    0 -0.89168372128E+02 -0.96287872844E+02 -0.89092346602E+03  0.91684637794E+03  0.17216360066E+03 0.  0.
         24    2    3    3    0    0 -0.58178477086E+01 -0.17963267495E+02 -0.23325417467E+03  0.24928885944E+03  0.85912159257E+02 0.  0.
         -6    2    1    2    0  502  0.89168372128E+02  0.96287872844E+02 -0.44286300979E+03  0.49308776960E+03  0.17258490677E+03 0.  0.
        -24    2    5    5    0    0 -0.63797673459E+00 -0.41206090852E+01 -0.18561429634E+03  0.20266388265E+03  0.81256359087E+02 0.  0.
          5    1    3    3  501    0 -0.83350524420E+02 -0.78324605349E+02 -0.65766929136E+03  0.66755751851E+03  0.47000000000E+01 0. -1.
        -13    1    4    4    0    0 -0.42274330423E+02 -0.25169315533E+02 -0.10884672164E+03  0.11944966417E+03  0.00000000000E+00 0.  1.
         14    1    4    4    0    0  0.36456482714E+02  0.72060480379E+01 -0.12440745303E+03  0.12983919527E+03  0.00000000000E+00 0. -1.
         -5    1    5    5    0  502  0.89806348863E+02  0.10040848193E+03 -0.25724871345E+03  0.29042388695E+03  0.47000000000E+01 0.  1.
         13    1    6    6    0    0 -0.36597277111E+02  0.11639532001E+02 -0.12207497316E+03  0.12797319433E+03  0.00000000000E+00 0. -1.
        -14    1    6    6    0    0  0.35959300376E+02 -0.15760141086E+02 -0.63539323183E+02  0.74690688316E+02  0.00000000000E+00 0.  1.
</event>
<event>
12    1  0.8488291E-002  0.2025969E+03  0.7818608E-02  0.1149306E+00
         21   -1    0    0  501  502  0.00000000000E+00  0.00000000000E+00  0.12070969399E+04  0.12070969399E+04  0.00000000000E+00 0.  1.
         21   -1    0    0  502  503 -0.00000000000E+00 -0.00000000000E+00 -0.39275150904E+02  0.39275150904E+02  0.00000000000E+00 0. -1.
         -6    2    1    2    0  503 -0.16732120372E+02  0.10353548745E+03  0.85002279191E+03  0.87383306966E+03  0.17333760658E+03 0.  0.
        -24    2    3    3    0    0  0.18039996967E+02 -0.10308897946E+02  0.30306867447E+03  0.31405584539E+03  0.79678966552E+02 0.  0.
          6    2    1    2  501    0  0.16732120372E+02 -0.10353548745E+03  0.31779899714E+03  0.37253902119E+03  0.16367516219E+03 0.  0.
         24    2    5    5    0    0 -0.78806158864E+01 -0.10218227656E+03  0.13518394372E+03  0.18820789061E+03  0.81511899128E+02 0.  0.
          5    1    5    5  501    0  0.24612736258E+02 -0.13532108864E+01  0.18261505342E+03  0.18433113058E+03  0.47000000000E+01 0. -1.
        -11    1    6    6    0    0 -0.10148879561E+02  0.97976558254E+01  0.35761419501E+02  0.38443113047E+02  0.00000000000E+00 0.  1.
         12    1    6    6    0    0  0.22682636748E+01 -0.11197993239E+03  0.99422524215E+02  0.14976477756E+03  0.00000000000E+00 0. -1.
         -5    1    3    3    0  503 -0.34772117339E+02  0.11384438539E+03  0.54695411743E+03  0.55977722427E+03  0.47000000000E+01 0.  1.
         11    1    4    4    0    0  0.18035507211E+02 -0.35960758520E+02  0.80288171200E+02  0.89803374705E+02  0.00000000000E+00 0. -1.
        -12    1    4    4    0    0  0.44897562771E-02  0.25651860573E+02  0.22278050327E+03  0.22425247069E+03  0.00000000000E+00 0.  1.
</event>
<event>
12    1  0.8488291E-002  0.1768497E+03  0.7818608E-02  0.1171396E+00
         21   -1    0    0  501  502  0.00000000000E+00  0.00000000000E+00  0.98902992331E+03  0.98902992331E+03  0.00000000000E+00 0. -1.
         21   -1    0    0  502  503 -0.00000000000E+00 -0.00000000000E+00 -0.31671118327E+02  0.31671118327E+02  0.00000000000E+00 0. -1.
         -6    2    1    2    0  503  0.29377943011E+02  0.18786136320E+02  0.53967987899E+03  0.56791742765E+03  0.17337776784E+03 0.  0.
        -24    2    3    3    0    0  0.12633067386E+02 -0.53539314118E+02  0.28285693662E+03  0.30053852914E+03  0.85377446394E+02 0.  0.
          6    2    1    2  501    0 -0.29377943011E+02 -0.18786136320E+02  0.41767892599E+03  0.45278361399E+03  0.17129312137E+03 0.  0.
         24    2    5    5    0    0  0.19144084360E+01 -0.32978004510E+02  0.96916762142E+02  0.13015212740E+03  0.80346149515E+02 0.  0.
          5    1    5    5  501    0 -0.31292351447E+02  0.14191868190E+02  0.32076216385E+03  0.32263148659E+03  0.47000000000E+01 0. -1.
        -11    1    6    6    0    0 -0.27099135903E+02 -0.38088456986E+01  0.28889625425E+01  0.27517568512E+02  0.00000000000E+00 0.  1.
         12    1    6    6    0    0  0.29013544339E+02 -0.29169158811E+02  0.94027799599E+02  0.10263455889E+03  0.00000000000E+00 0. -1.
         -5    1    3    3    0  503  0.16744875626E+02  0.72325450438E+02  0.25682294237E+03  0.26737889851E+03  0.47000000000E+01 0.  1.
         11    1    4    4    0    0 -0.23703671408E+02 -0.81534117372E+01  0.22225060632E+02  0.33500678818E+02  0.00000000000E+00 0. -1.
        -12    1    4    4    0    0  0.36336738793E+02 -0.45385902381E+02  0.26063187599E+03  0.26703785032E+03  0.00000000000E+00 0.  1.
</event>
<event>
12    1  0.8488291E-002  0.1902007E+03  0.7818608E-02  0.1158287E+00
         21   -1    0    0  503  502  0.00000000000E+00  0.00000000000E+00  0.22626753992E+03  0.22626753992E+03  0.00000000000E+00 0. -1.
         21   -1    0    0  501  503 -0.00000000000E+00 -0.00000000000E+00 -0.19096339542E+03  0.19096339542E+03  0.00000000000E+00 0.  1.
          6    2    1    2  501    0 -0.24488678880E+02  0.76268973105E+02 -0.66544264326E+02  0.20150545613E+03  0.17250987822E+03 0.  0.
         24    2    3    3    0    0 -0.78345153742E+02  0.57869536416E+02 -0.18631761954E+02  0.12696179753E+03  0.79279941457E+02 0.  0.
         -6    2    1    2    0  502  0.24488678880E+02 -0.76268973105E+02  0.10184840883E+03  0.21572547920E+03  0.17247530938E+03 0.  0.
        -24    2    5    5    0    0  0.34801032761E+01  0.14986311769E+02  0.92881999210E+02  0.12153750881E+03  0.76860910807E+02 0.  0.
          5    1    3    3  501    0  0.53856474861E+02  0.18399436688E+02 -0.47912502372E+02  0.74543658607E+02  0.47000000000E+01 0. -1.
        -11    1    4    4    0    0  0.46432622638E+01  0.17774985766E+02 -0.28879196688E+02  0.34227445198E+02  0.00000000000E+00 0.  1.
         12    1    4    4    0    0 -0.82988416005E+02  0.40094550651E+02  0.10247434733E+02  0.92734352327E+02  0.00000000000E+00 0. -1.
         -5    1    5    5    0  502  0.21008575604E+02 -0.91255284873E+02  0.89664096190E+01  0.94187970398E+02  0.47000000000E+01 0.  1.
         13    1    6    6    0    0 -0.22286284997E+02  0.32665233280E+02  0.24933121516E+02  0.46747796876E+02  0.00000000000E+00 0. -1.
        -14    1    6    6    0    0  0.25766388273E+02 -0.17678921512E+02  0.67948877695E+02  0.74789711929E+02  0.00000000000E+00 0.  1.
</event>
<event>
12    1  0.8488291E-002  0.4719063E+03  0.7818608E-02  0.1021391E+00
         21   -1    0    0  503  502  0.00000000000E+00  0.00000000000E+00  0.57806269678E+03  0.57806269678E+03  0.00000000000E+00 0. -1.
         21   -1    0    0  501  503 -0.00000000000E+00 -0.00000000000E+00 -0.13065161718E+04  0.13065161718E+04  0.00000000000E+00 0.  1.
          6    2    1    2  501    0 -0.81087507906E+02 -0.43184147997E+03 -0.11555380629E+04  0.12481841852E+04  0.17214324767E+03 0.  0.
         24    2    3    3    0    0 -0.10217343921E+03 -0.41106207712E+03 -0.98607030593E+03  0.10760859263E+04  0.78834190553E+02 0.  0.
         -6    2    1    2    0  502  0.81087507906E+02  0.43184147997E+03  0.42708458780E+03  0.63639468342E+03  0.17185662683E+03 0.  0.
        -24    2    5    5    0    0 -0.14506499978E+02  0.24326126454E+03  0.23625014685E+03  0.35154281692E+03  0.91551837087E+02 0.  0.
          5    1    3    3  501    0  0.21085931301E+02 -0.20779402844E+02 -0.16946775694E+03  0.17209825892E+03  0.47000000000E+01 0. -1.
        -13    1    4    4    0    0 -0.85727119186E+02 -0.27487723363E+03 -0.74522100956E+03  0.79891237669E+03  0.00000000000E+00 0.  1.
         14    1    4    4    0    0 -0.16446320021E+02 -0.13618484350E+03 -0.24084929637E+03  0.27717354961E+03  0.00000000000E+00 0. -1.
         -5    1    5    5    0  502  0.95594007884E+02  0.18858021543E+03  0.19083444095E+03  0.28485186650E+03  0.47000000000E+01 0.  1.
         13    1    6    6    0    0  0.24240681670E+02  0.20092398051E+03  0.17428536153E+03  0.26708321519E+03  0.00000000000E+00 0. -1.
        -14    1    6    6    0    0 -0.38747181648E+02  0.42337284026E+02  0.61964785319E+02  0.84459601728E+02  0.00000000000E+00 0.  1.
</event>
<event>
12    1  0.8488291E-002  0.1765716E+03  0.7818608E-02  0.1171325E+00
         21   -1    0    0  503  502  0.00000000000E+00  0.00000000000E+00  0.22897316740E+03  0.22897316740E+03  0.00000000000E+00 0. -1.
         21   -1    0    0  501  503 -0.00000000000E+00 -0.00000000000E+00 -0.15703802251E+03  0.15703802251E+03  0.00000000000E+00 0. -1.
          6    2    1    2  501    0 -0.20946373493E+02  0.27619856218E+02 -0.35187220000E+02  0.18004354347E+03  0.17313558292E+03 0.  0.
         24    2    3    3    0    0 -0.24497064861E+02 -0.49406390137E+02 -0.19641177482E+02  0.10124367370E+03  0.82603922661E+02 0.  0.
         -6    2    1    2    0  502  0.20946373493E+02 -0.27619856218E+02  0.10712236490E+03  0.20596764644E+03  0.17246989100E+03 0.  0.
        -24    2    5    5    0    0 -0.61833260762E+01 -0.23203992105E+02 -0.12189533612E+02  0.83440345076E+02  0.78974981391E+02 0.  0.
          5    1    3    3  501    0  0.35506913672E+01  0.77026246355E+02 -0.15546042518E+02  0.78799869764E+02  0.47000000000E+01 0. -1.
        -11    1    4    4    0    0  0.19293524212E+02 -0.45502522044E+01  0.19119626009E+02  0.27540968944E+02  0.00000000000E+00 0.  1.
         12    1    4    4    0    0 -0.43790589073E+02 -0.44856137933E+02 -0.38760803491E+02  0.73702704759E+02  0.00000000000E+00 0. -1.
         -5    1    5    5    0  502  0.27129699570E+02 -0.44158641129E+01  0.11931189851E+03  0.12252730137E+03  0.47000000000E+01 0.  1.
         13    1    6    6    0    0  0.16807152664E+02 -0.16688627664E+02  0.28005728947E+02  0.36678488625E+02  0.00000000000E+00 0. -1.
        -14    1    6    6    0    0 -0.22990478740E+02 -0.65153644406E+01 -0.40195262559E+02  0.46761856450E+02  0.00000000000E+00 0.  1.
</event>
<event>
12    1  0.8488291E-002  0.2462154E+03  0.7818608E-02  0.1115918E+00
         21   -1    0    0  501  502  0.00000000000E+00  0.00000000000E+00  0.90671663622E+03  0.90671663622E+03  0.00000000000E+00 0. -1.
         21   -1    0    0  502  503 -0.00000000000E+00 -0.00000000000E+00 -0.20027789317E+03  0.20027789317E+03  0.00000000000E+00 0.  1.
         -6    2    1    2    0  503  0.22452408140E+02  0.17281485283E+03 -0.98809064638E+02  0.26530223151E+03  0.17393377704E+03 0.  0.
        -24    2    3    3    0    0  0.60662041096E+02  0.17852847651E+03 -0.66749552859E+02  0.21487878615E+03  0.78518085640E+02 0.  0.
          6    2    1    2  501    0 -0.22452408140E+02 -0.17281485283E+03  0.80524780769E+03  0.84169229788E+03  0.17219990864E+03 0.  0.
         24    2    5    5    0    0  0.69695657069E+01 -0.44343211076E+02  0.51148573866E+03  0.51968475374E+03  0.80247661709E+02 0.  0.
          5    1    5    5  501    0 -0.29421973847E+02 -0.12847164175E+03  0.29376206903E+03  0.32200754414E+03  0.47000000000E+01 0. -1.
        -11    1    6    6    0    0  0.28152403260E+02 -0.94223626195E+01  0.39741717023E+03  0.39852446088E+03  0.00000000000E+00 0.  1.
         12    1    6    6    0    0 -0.21182837553E+02 -0.34920848457E+02  0.11406856843E+03  0.12116029287E+03  0.00000000000E+00 0. -1.
         -5    1    3    3    0  503 -0.38209632956E+02 -0.57136236843E+01 -0.32059511779E+02  0.50423445358E+02  0.47000000000E+01 0.  1.
         13    1    4    4    0    0  0.27753136040E+02  0.12318279956E+03 -0.60924995830E+01  0.12641739286E+03  0.00000000000E+00 0. -1.
        -14    1    4    4    0    0  0.32908905057E+02  0.55345676958E+02 -0.60657053276E+02  0.88461393286E+02  0.00000000000E+00 0.  1.
</event>
<event>
12    1  0.8488291E-002  0.1847156E+03  0.7818608E-02  0.1163449E+00
         21   -1    0    0  501  502  0.00000000000E+00  0.00000000000E+00  0.35128519548E+03  0.35128519548E+03  0.00000000000E+00 0. -1.
         21   -1    0    0  502  503 -0.00000000000E+00 -0.00000000000E+00 -0.20563048309E+03  0.20563048309E+03  0.00000000000E+00 0. -1.
         -6    2    1    2    0  503 -0.59679945992E+02 -0.28447407002E+02 -0.12977390492E+03  0.22528217657E+03  0.17187158510E+03 0.  0.
        -24    2    3    3    0    0  0.37521919685E+02 -0.14965403274E+02 -0.31814796889E+02  0.86544856568E+02  0.69613024251E+02 0.  0.
          6    2    1    2  501    0  0.59679945992E+02  0.28447407002E+02  0.27542861731E+03  0.33163350200E+03  0.17247871027E+03 0.  0.
         24    2    5    5    0    0  0.21870534405E+02 -0.49067665777E+02  0.11308259190E+03  0.14774097883E+03  0.78445956778E+02 0.  0.
          5    1    5    5  501    0  0.37809411587E+02  0.77515072779E+02  0.16234602540E+03  0.18389252317E+03  0.47000000000E+01 0. -1.
        -11    1    6    6    0    0 -0.98569407333E+01 -0.50391196278E+02  0.10184475500E+03  0.11405606545E+03  0.00000000000E+00 0.  1.
         12    1    6    6    0    0  0.31727475138E+02  0.13235305016E+01  0.11237836897E+02  0.33684913385E+02  0.00000000000E+00 0. -1.
         -5    1    3    3    0  503 -0.97201865678E+02 -0.13482003728E+02 -0.97959108027E+02  0.13873732000E+03  0.47000000000E+01 0.  1.
         13    1    4    4    0    0 -0.41898202201E+01  0.51641170955E+01 -0.39099162028E+02  0.39660650147E+02  0.00000000000E+00 0. -1.
        -14    1    4    4    0    0  0.41711739906E+02 -0.20129520370E+02  0.72843651386E+01  0.46884206421E+02  0.00000000000E+00 0.  1.
</event>
<event>
12    1  0.8488291E-002  0.2231716E+03  0.7818608E-02  0.1132226E+00
         21   -1    0    0  503  502  0.00000000000E+00  0.00000000000E+00  0.28876850033E+03  0.28876850033E+03  0.00000000000E+00 0. -1.
         21   -1    0    0  501  503 -0.00000000000E+00 -0.00000000000E+00 -0.25445384791E+03  0.25445384791E+03  0.00000000000E+00 0. -1.
          6    2    1    2  501    0  0.14136172034E+03  0.40108868300E+01 -0.13976598451E+03  0.26018592087E+03  0.16781823441E+03 0.  0.
         24    2    3    3    0    0  0.65149093686E+02  0.19345353355E+01 -0.15100835303E+03  0.18297739448E+03  0.80181402892E+02 0.  0.
         -6    2    1    2    0  502 -0.14136172034E+03 -0.40108868300E+01  0.17408063693E+03  0.28303642736E+03  0.17264509223E+03 0.  0.
        -24    2    5    5    0    0 -0.13695693969E+03 -0.45456904241E+02  0.86720172612E+02  0.18612866102E+03  0.79372266211E+02 0.  0.
          5    1    3    3  501    0  0.76212626654E+02  0.20763514945E+01  0.11242368521E+02  0.77208526387E+02  0.47000000000E+01 0. -1.
        -11    1    4    4    0    0  0.15791282566E+01  0.11356392097E+02  0.62758404776E+01  0.13070863063E+02  0.00000000000E+00 0.  1.
         12    1    4    4    0    0  0.63569965430E+02 -0.94218567620E+01 -0.15728419351E+03  0.16990653142E+03  0.00000000000E+00 0. -1.
         -5    1    5    5    0  502 -0.44047806514E+01  0.41446017411E+02  0.87360464319E+02  0.96907766344E+02  0.47000000000E+01 0.  1.
         13    1    6    6    0    0 -0.11754782275E+03 -0.11060917268E+02  0.39344600938E+02  0.12445011912E+03  0.00000000000E+00 0. -1.
        -14    1    6    6    0    0 -0.19409116934E+02 -0.34395986973E+02  0.47375571674E+02  0.61678541904E+02  0.00000000000E+00 0.  1.
</event>
<event>
12    1  0.8488291E-002  0.1767737E+03  0.7818608E-02  0.1171496E+00
         21   -1    0    0  501  502  0.00000000000E+00  0.00000000000E+00  0.13037121514E+04  0.13037121514E+04  0.00000000000E+00 0. -1.
         21   -1    0    0  502  503 -0.00000000000E+00 -0.00000000000E+00 -0.25292100892E+03  0.25292100892E+03  0.00000000000E+00 0. -1.
         -6    2    1    2    0  503  0.21983649610E+02  0.13663576248E+02 -0.21588902786E+03  0.27767749632E+03  0.17270421374E+03 0.  0.
        -24    2    3    3    0    0  0.25104111815E+01 -0.47061390726E+02 -0.10824998481E+03  0.15247772708E+03  0.96490006642E+02 0.  0.
          6    2    1    2  501    0 -0.21983649610E+02 -0.13663576248E+02  0.12666801704E+04  0.12789556640E+04  0.17486841453E+03 0.  0.
         24    2    5    5    0    0 -0.45007057234E+02  0.19182365346E+02  0.38569847003E+03  0.39704876446E+03  0.80565583467E+02 0.  0.
          5    1    5    5  501    0  0.23023407624E+02 -0.32845941594E+02  0.88098170033E+03  0.88190689956E+03  0.47000000000E+01 0. -1.
        -13    1    6    6    0    0  0.19723504760E+02  0.21088748630E+02  0.14100150234E+03  0.14392767497E+03  0.00000000000E+00 0.  1.
         14    1    6    6    0    0 -0.64730561994E+02 -0.19063832834E+01  0.24469696768E+03  0.25312108950E+03  0.00000000000E+00 0. -1.
         -5    1    3    3    0  503  0.19473238429E+02  0.60724966974E+02 -0.10763904305E+03  0.12519976924E+03  0.47000000000E+01 0.  1.
         11    1    4    4    0    0 -0.38884189273E+02 -0.49733917144E+02 -0.81616068239E+02  0.10318248536E+03  0.00000000000E+00 0. -1.
        -12    1    4    4    0    0  0.41394600454E+02  0.26725264176E+01 -0.26633916571E+02  0.49295241719E+02  0.00000000000E+00 0.  1.
</event>
<event>
12    1  0.8488291E-002  0.2502538E+03  0.7818608E-02  0.1113505E+00
         21   -1    0    0  503  502  0.00000000000E+00  0.00000000000E+00  0.37125365943E+03  0.37125365943E+03  0.00000000000E+00 0.  1.
         21   -1    0    0  501  503 -0.00000000000E+00 -0.00000000000E+00 -0.24399975612E+03  0.24399975612E+03  0.00000000000E+00 0. -1.
          6    2    1    2  501    0  0.84646035074E+02 -0.15797530513E+03 -0.10920193442E+03  0.27095944050E+03  0.17138496908E+03 0.  0.
         24    2    3    3    0    0  0.81394577275E+02 -0.90857351501E+02 -0.39014677988E+01  0.14595676073E+03  0.80050103183E+02 0.  0.
         -6    2    1    2    0  502 -0.84646035074E+02  0.15797530513E+03  0.23645583773E+03  0.34429397506E+03  0.17465918177E+03 0.  0.
        -24    2    5    5    0    0  0.10018834924E+02  0.21252574442E+02  0.93122938225E+02  0.12470127759E+03  0.79539160389E+02 0.  0.
          5    1    3    3  501    0  0.32514577991E+01 -0.67117953631E+02 -0.10530046663E+03  0.12500267977E+03  0.47000000000E+01 0. -1.
        -13    1    4    4    0    0  0.87428737751E+02 -0.91098621937E+02  0.14024357360E+02  0.12704103944E+03  0.00000000000E+00 0.  1.
         14    1    4    4    0    0 -0.60341604762E+01  0.24127043662E+00 -0.17925825159E+02  0.18915721284E+02  0.00000000000E+00 0. -1.
         -5    1    5    5    0  502 -0.94664869998E+02  0.13672273069E+03  0.14333289951E+03  0.21959269747E+03  0.47000000000E+01 0.  1.
         11    1    6    6    0    0  0.33676542028E+02  0.17329161048E+02  0.11429209372E+02  0.39560537566E+02  0.00000000000E+00 0. -1.
        -12    1    6    6    0    0 -0.23657707104E+02  0.39234133931E+01  0.81693728853E+02  0.85140740025E+02  0.00000000000E+00 0.  1.
</event>
<event>
12    1  0.8488291E-002  0.3324693E+03  0.7818608E-02  0.1070072E+00
         21   -1    0    0  501  502  0.00000000000E+00  0.00000000000E+00  0.27547287556E+03  0.27547287556E+03  0.00000000000E+00 0. -1.
         21   -1    0    0  502  503 -0.00000000000E+00 -0.00000000000E+00 -0.90287943673E+03  0.90287943673E+03  0.00000000000E+00 0.  1.
         -6    2    1    2    0  503  0.12209559262E+03 -0.25692081707E+03 -0.75292411015E+03  0.82297853919E+03  0.17170707717E+03 0.  0.
        -24    2    3    3    0    0  0.73393164267E+02 -0.16892515668E+03 -0.64256835854E+03  0.67359432086E+03  0.83144143367E+02 0.  0.
          6    2    1    2  501    0 -0.12209559262E+03  0.25692081707E+03  0.12551754898E+03  0.35537377310E+03  0.17210526874E+03 0.  0.
         24    2    5    5    0    0 -0.91052749041E+02  0.12098342825E+03  0.13164303841E+03  0.21572334010E+03  0.79240626474E+02 0.  0.
          5    1    5    5  501    0 -0.31042843576E+02  0.13593738882E+03 -0.61254894326E+01  0.13965043300E+03  0.47000000000E+01 0. -1.
        -11    1    6    6    0    0  0.14784570732E+02  0.12878928229E+02  0.15575389640E+02  0.25040828391E+02  0.00000000000E+00 0.  1.
         12    1    6    6    0    0 -0.10583731977E+03  0.10810450002E+03  0.11606764877E+03  0.19068251171E+03  0.00000000000E+00 0. -1.
         -5    1    3    3    0  503  0.48702428351E+02 -0.87995660388E+02 -0.11035575161E+03  0.14938421834E+03  0.47000000000E+01 0.  1.
         13    1    4    4    0    0  0.56933100043E+02 -0.43734895654E+02 -0.30074392834E+03  0.30919416135E+03  0.00000000000E+00 0. -1.
        -14    1    4    4    0    0  0.16460064224E+02 -0.12519026103E+03 -0.34182443020E+03  0.36440015951E+03  0.00000000000E+00 0.  1.
</event>
<event>
12    1  0.8488291E-002  0.1826830E+03  0.7818608E-02  0.1165518E+00
         21   -1    0    0  503  502  0.00000000000E+00  0.00000000000E+00  0.49956769739E+02  0.49956769739E+02  0.00000000000E+00 0.  1.
         21   -1    0    0  501  503 -0.00000000000E+00 -0.00000000000E+00 -0.67327248977E+03  0.67327248977E+03  0.00000000000E+00 0.  1.
          6    2    1    2  501    0  0.61850566515E+02  0.51101743863E+01 -0.26943413612E+03  0.32552699119E+03  0.17181810680E+03 0.  0.
         24    2    3    3    0    0  0.39037452406E+02 -0.41266090480E+02 -0.69859631045E+02  0.11931528155E+03  0.78287645556E+02 0.  0.
         -6    2    1    2    0  502 -0.61850566515E+02 -0.51101743863E+01 -0.35388158391E+03  0.39770226832E+03  0.17053830166E+03 0.  0.
        -24    2    5    5    0    0 -0.21170531223E+02  0.39212438177E+02 -0.31046368552E+03  0.32336141040E+03  0.78670801498E+02 0.  0.
          5    1    3    3  501    0  0.22813114109E+02  0.46376264867E+02 -0.19957450507E+03  0.20621170964E+03  0.47000000000E+01 0. -1.
        -11    1    4    4    0    0  0.17491124224E+02 -0.54143893748E+02 -0.74546574363E+02  0.93780021359E+02  0.00000000000E+00 0.  1.
         12    1    4    4    0    0  0.21546328182E+02  0.12877803268E+02  0.46869433184E+01  0.25535260187E+02  0.00000000000E+00 0. -1.
         -5    1    5    5    0  502 -0.40680035292E+02 -0.44322612563E+02 -0.43417898392E+02  0.74340857921E+02  0.47000000000E+01 0.  1.
         13    1    6    6    0    0  0.19112996739E+02 -0.94149085816E+01 -0.13932676606E+03  0.14094642560E+03  0.00000000000E+00 0. -1.
        -14    1    6    6    0    0 -0.40283527962E+02  0.48627346758E+02 -0.17113691946E+03  0.18241498480E+03  0.00000000000E+00 0.  1.
</event>
<event>
12    1  0.8488291E-002  0.4180634E+03  0.7818608E-02  0.1037923E+00
         21   -1    0    0  503  502  0.00000000000E+00  0.00000000000E+00  0.20394471048E+03  0.20394471048E+03  0.00000000000E+00 0. -1.
         21   -1    0    0  501  503 -0.00000000000E+00 -0.00000000000E+00 -0.15189543001E+04  0.15189543001E+04  0.00000000000E+00 0. -1.
          6    2    1    2  501    0  0.35212538512E+03  0.13616130239E+03 -0.12273839169E+04  0.12957511837E+04  0.17311170767E+03 0.  0.
         24    2    3    3    0    0  0.23510535654E+03  0.15980499582E+03 -0.88809173729E+03  0.93603743012E+03  0.81528960411E+02 0.  0.
         -6    2    1    2    0  502 -0.35212538512E+03 -0.13616130239E+03 -0.87625672664E+02  0.42714782688E+03  0.17956842814E+03 0.  0.
        -24    2    5    5    0    0 -0.17711193299E+03 -0.57369207810E+01 -0.73804231725E+02  0.20839374126E+03  0.81113116748E+02 0.  0.
          5    1    3    3  501    0  0.11702002858E+03 -0.23643693425E+02 -0.33929217964E+03  0.35971375355E+03  0.47000000000E+01 0. -1.
        -13    1    4    4    0    0  0.17060958591E+02  0.12743409943E+02 -0.20886666907E+02  0.29828235944E+02  0.00000000000E+00 0.  1.
         14    1    4    4    0    0  0.21804439795E+03  0.14706158588E+03 -0.86720507038E+03  0.90620919418E+03  0.00000000000E+00 0. -1.
         -5    1    5    5    0  502 -0.17501345213E+03 -0.13042438161E+03 -0.13821440939E+02  0.21875408562E+03  0.47000000000E+01 0.  1.
         11    1    6    6    0    0 -0.15069158363E+03 -0.29378848629E+02 -0.38332433433E+02  0.15824173147E+03  0.00000000000E+00 0. -1.
        -12    1    6    6    0    0 -0.26420349362E+02  0.23641927848E+02 -0.35471798292E+02  0.50152009799E+02  0.00000000000E+00 0.  1.
</event>
<event>
12    1  0.8488291E-002  0.1740905E+03  0.7818608E-02  0.1173688E+00
         21   -1    0    0  503  502  0.00000000000E+00  0.00000000000E+00  0.53487597715E+02  0.53487597715E+02  0.00000000000E+00 0. -1.
         21   -1    0    0  501  503 -0.00000000000E+00 -0.00000000000E+00 -0.70469257473E+03  0.70469257473E+03  0.00000000000E+00 0. -1.
          6    2    1    2  501    0  0.84070287741E+01 -0.23970759435E+02 -0.49359540425E+03  0.52334348566E+03  0.17206599156E+03 0.  0.
         24    2    3    3    0    0 -0.50348821265E+02  0.41236119364E+01 -0.18155662840E+03  0.20454600881E+03  0.79525168500E+02 0.  0.
         -6    2    1    2    0  502 -0.84070287741E+01  0.23970759435E+02 -0.15760957276E+03  0.23483668678E+03  0.17222722372E+03 0.  0.
        -24    2    5    5    0    0  0.55019452224E+02  0.96875192155E+01 -0.13444069785E+03  0.16565709291E+03  0.79037858281E+02 0.  0.
          5    1    3    3  501    0  0.58755850039E+02 -0.28094371372E+02 -0.31203877585E+03  0.31879747686E+03  0.47000000000E+01 0. -1.
        -13    1    4    4    0    0 -0.83637882710E+01 -0.24162724503E+01  0.70560851550E+01  0.11206233288E+02  0.00000000000E+00 0.  1.
         14    1    4    4    0    0 -0.41985032994E+02  0.65398843867E+01 -0.18861271355E+03  0.19333977552E+03  0.00000000000E+00 0. -1.
         -5    1    5    5    0  502 -0.63426480998E+02  0.14283240220E+02 -0.23168874912E+02  0.69179593867E+02  0.47000000000E+01 0.  1.
         13    1    6    6    0    0  0.72511004076E+00  0.31508460986E+01  0.10371149067E+02  0.10863440922E+02  0.00000000000E+00 0. -1.
        -14    1    6    6    0    0  0.54294342183E+02  0.65366731169E+01 -0.14481184692E+03  0.15479365199E+03  0.00000000000E+00 0.  1.
</event>
<event>
12    1  0.8488291E-002  0.1934327E+03  0.7818608E-02  0.1155644E+00
         21   -1    0    0  501  502  0.00000000000E+00  0.00000000000E+00  0.16986710294E+04  0.16986710294E+04  0.00000000000E+00 0.  1.
         21   -1    0    0  502  503 -0.00000000000E+00 -0.00000000000E+00 -0.38280170466E+02  0.38280170466E+02  0.00000000000E+00 0.  1.
         -6    2    1    2    0  503  0.63785887092E+02 -0.59936880280E+02  0.26077322916E+03  0.32403021659E+03  0.17126539406E+03 0.  0.
        -24    2    3    3    0    0  0.81058573431E+02 -0.19106801676E+02  0.80307578281E+02  0.13813943639E+03  0.75482677224E+02 0.  0.
          6    2    1    2  501    0 -0.63785887092E+02  0.59936880280E+02  0.13996176298E+04  0.14129209833E+04  0.17249674321E+03 0.  0.
         24    2    5    5    0    0 -0.81277293984E+02  0.34220297852E+02  0.13423855945E+04  0.13476148749E+04  0.79307877980E+02 0.  0.
          5    1    5    5  501    0  0.17491406892E+02  0.25716582428E+02  0.57232035289E+02  0.65306108368E+02  0.47000000000E+01 0. -1.
        -11    1    6    6    0    0 -0.62325934168E+02  0.49634065277E+02  0.12312978779E+04  0.12338729783E+04  0.00000000000E+00 0.  1.
         12    1    6    6    0    0 -0.18951359816E+02 -0.15413767425E+02  0.11108771658E+03  0.11374189659E+03  0.00000000000E+00 0. -1.
         -5    1    3    3    0  503 -0.17272686339E+02 -0.40830078604E+02  0.18046565088E+03  0.18589078019E+03  0.47000000000E+01 0.  1.
         11    1    4    4    0    0 -0.56520562122E+01 -0.19473472891E+02  0.34637518201E+02  0.40136262320E+02  0.00000000000E+00 0. -1.
        -12    1    4    4    0    0  0.86710629643E+02  0.36667121462E+00  0.45670060079E+02  0.98003174074E+02  0.00000000000E+00 0.  1.
</event>
<event>
12    1  0.8488291E-002  0.1828595E+03  0.7818608E-02  0.1165439E+00
         21   -1    0    0  501  502  0.00000000000E+00  0.00000000000E+00  0.33662423335E+02  0.33662423335E+02  0.00000000000E+00 0. -1.
         21   -1    0    0  502  503 -0.00000000000E+00 -0.00000000000E+00 -0.10401234977E+04  0.10401234977E+04  0.00000000000E+00 0. -1.
         -6    2    1    2    0  503 -0.49462275028E+02 -0.26431641633E+02 -0.62913741733E+03  0.65517286216E+03  0.17404723810E+03 0.  0.
        -24    2    3    3    0    0 -0.34956551801E+02 -0.76563626346E+02 -0.29660336671E+03  0.31853564389E+03  0.80046548298E+02 0.  0.
          6    2    1    2  501    0  0.49462275028E+02  0.26431641633E+02 -0.37732365700E+03  0.41861305885E+03  0.17239084248E+03 0.  0.
         24    2    5    5    0    0  0.76980790754E+02  0.52579623774E+01 -0.36595039315E+03  0.38177510923E+03  0.76673694775E+02 0.  0.
          5    1    5    5  501    0 -0.27518515727E+02  0.21173679256E+02 -0.11373263853E+02  0.36837949613E+02  0.47000000000E+01 0. -1.
        -11    1    6    6    0    0  0.12993568847E+02 -0.23665162302E+00 -0.24041113375E+03  0.24076212755E+03  0.00000000000E+00 0.  1.
         12    1    6    6    0    0  0.63987221908E+02  0.54946140004E+01 -0.12553925940E+03  0.14101298168E+03  0.00000000000E+00 0. -1.
         -5    1    3    3    0  503 -0.14505723226E+02  0.50131984713E+02 -0.33253405062E+03  0.33663721827E+03  0.47000000000E+01 0.  1.
         13    1    4    4    0    0 -0.46097219380E+02 -0.76519908609E+02 -0.29375312062E+03  0.30703606616E+03  0.00000000000E+00 0. -1.
        -14    1    4    4    0    0  0.11140667579E+02 -0.43717736485E-01 -0.28502460912E+01  0.11499577737E+02  0.00000000000E+00 0.  1.
</event>
<event>
12    1  0.8488291E-002  0.2828021E+03  0.7818608E-02  0.1094555E+00
         21   -1    0    0  501  502  0.00000000000E+00  0.00000000000E+00  0.48766480416E+03  0.48766480416E+03  0.00000000000E+00 0.  1.
         21   -1    0    0  502  503 -0.00000000000E+00 -0.00000000000E+00 -0.35738645743E+03  0.35738645743E+03  0.00000000000E+00 0. -1.
         -6    2    1    2    0  503  0.15599894654E+03  0.16062593197E+03 -0.24714428156E+03  0.37343185779E+03  0.16803182782E+03 0.  0.
        -24    2    3    3    0    0  0.16975320218E+03  0.16711267000E+03 -0.19143640072E+03  0.31549469091E+03  0.78397770032E+02 0.  0.
          6    2    1    2  501    0 -0.15599894654E+03 -0.16062593197E+03  0.37742262829E+03  0.47161940380E+03  0.17274449441E+03 0.  0.
         24    2    5    5    0    0 -0.66167253894E+02 -0.88168775829E+02  0.92772723774E+02  0.16442658060E+03  0.79230572466E+02 0.  0.
          5    1    5    5  501    0 -0.89831692650E+02 -0.72457156138E+02  0.28464990452E+03  0.30719282319E+03  0.47000000000E+01 0. -1.
        -11    1    6    6    0    0 -0.75258925325E+01 -0.11392891235E+02  0.61326722020E+02  0.62828368297E+02  0.00000000000E+00 0.  1.
         12    1    6    6    0    0 -0.58641361362E+02 -0.76775884594E+02  0.31446001754E+02  0.10159821231E+03  0.00000000000E+00 0. -1.
         -5    1    3    3    0  503 -0.13754255636E+02 -0.64867380305E+01 -0.55707880842E+02  0.57937166882E+02  0.47000000000E+01 0.  1.
         11    1    4    4    0    0  0.48885277086E+00  0.34750100167E+02 -0.37786513597E+02  0.51338377930E+02  0.00000000000E+00 0. -1.
        -12    1    4    4    0    0  0.16926434941E+03  0.13236256983E+03 -0.15364988712E+03  0.26415631298E+03  0.00000000000E+00 0.  1.
</event>
<event>
12    1  0.8488291E-002  0.3626222E+03  0.7818608E-02  0.1057591E+00
         21   -1    0    0  503  502  0.00000000000E+00  0.00000000000E+00  0.14255131262E+03  0.14255131262E+03  0.00000000000E+00 0. -1.
         21   -1    0    0  501  503 -0.00000000000E+00 -0.00000000000E+00 -0.98667065353E+03  0.98667065353E+03  0.00000000000E+00 0.  1.
          6    2    1    2  501    0 -0.76831444380E+02 -0.30987167861E+03 -0.27705939392E+03  0.45635156875E+03  0.17196313119E+03 0.  0.
         24    2    3    3    0    0 -0.51006976972E+02 -0.12205152337E+03 -0.55210205985E+02  0.16449121512E+03  0.80690191166E+02 0.  0.
         -6    2    1    2    0  502  0.76831444380E+02  0.30987167861E+03 -0.56705994699E+03  0.67287039740E+03  0.17109663984E+03 0.  0.
        -24    2    5    5    0    0  0.79818426713E+01  0.25019198613E+03 -0.34980423142E+03  0.43723493891E+03  0.78432466155E+02 0.  0.
          5    1    3    3  501    0 -0.25824467408E+02 -0.18782015525E+03 -0.22184918794E+03  0.29186035363E+03  0.47000000000E+01 0. -1.
        -11    1    4    4    0    0 -0.60435845640E+02 -0.82529508021E+02 -0.66882692278E+02  0.12221663413E+03  0.00000000000E+00 0.  1.
         12    1    4    4    0    0  0.94288686680E+01 -0.39522015345E+02  0.11672486292E+02  0.42274580985E+02  0.00000000000E+00 0. -1.
         -5    1    5    5    0  502  0.68849601709E+02  0.59679692483E+02 -0.21725571557E+03  0.23563545849E+03  0.47000000000E+01 0.  1.
         11    1    6    6    0    0 -0.32558838209E+02  0.16196464766E+03 -0.22282322582E+03  0.27738567916E+03  0.00000000000E+00 0. -1.
        -12    1    6    6    0    0  0.40540680880E+02  0.88227338470E+02 -0.12698100560E+03  0.15984925975E+03  0.00000000000E+00 0.  1.
</event>
<event>
12    1  0.8488291E-002  0.2806155E+03  0.7818608E-02  0.1096104E+00
         21   -1    0    0  503  502  0.00000000000E+00  0.00000000000E+00  0.84000583745E+03  0.84000583745E+03  0.00000000000E+00 0.  1.
         21   -1    0    0  501  503 -0.00000000000E+00 -0.00000000000E+00 -0.26683038575E+03  0.26683038575E+03  0.00000000000E+00 0. -1.
          6    2    1    2  501    0 -0.17632969214E+02 -0.21933694165E+03 -0.16243070116E+03  0.31952340566E+03  0.16520247731E+03 0.  0.
         24    2    3    3    0    0  0.38203069896E+02 -0.90577871942E+02 -0.11537583583E+03  0.17142610100E+03  0.80071837601E+02 0.  0.
         -6    2    1    2    0  502  0.17632969214E+02  0.21933694165E+03  0.73560615286E+03  0.78731281753E+03  0.17414202522E+03 0.  0.
        -24    2    5    5    0    0  0.63401974802E+02  0.76366382782E+02  0.32282036482E+03  0.34805255370E+03  0.84118709953E+02 0.  0.
          5    1    3    3  501    0 -0.55836039110E+02 -0.12875906971E+03 -0.47054865334E+02  0.14809730466E+03  0.47000000000E+01 0. -1.
        -13    1    4    4    0    0  0.10374452881E+02 -0.10139663385E+02 -0.76480503817E+02  0.77844136004E+02  0.00000000000E+00 0.  1.
         14    1    4    4    0    0  0.27828617015E+02 -0.80438208556E+02 -0.38895332013E+02  0.93581964999E+02  0.00000000000E+00 0. -1.
         -5    1    5    5    0  502 -0.45769005588E+02  0.14297055887E+03  0.41278578804E+03  0.43926026383E+03  0.47000000000E+01 0.  1.
         13    1    6    6    0    0  0.53993541442E+02  0.64774705157E+02  0.13192009052E+03  0.15656939429E+03  0.00000000000E+00 0. -1.
        -14    1    6    6    0    0  0.94084333597E+01  0.11591677624E+02  0.19090027430E+03  0.19148315941E+03  0.00000000000E+00 0.  1.
</event>
<event>
12    1  0.8488291E-002  0.2603430E+03  0.7818608E-02  0.1107027E+00
         21   -1    0    0  501  502  0.00000000000E+00  0.00000000000E+00  0.25630202627E+04  0.25630202627E+04  0.00000000000E+00 0.  1.
         21   -1    0    0  502  503 -0.00000000000E+00 -0.00000000000E+00 -0.33320105357E+02  0.33320105357E+02  0.00000000000E+00 0.  1.
         -6    2    1    2    0  503  0.19123395790E+02  0.19364259688E+03  0.18582696879E+04  0.18764180538E+04  0.17296045794E+03 0.  0.
        -24    2    3    3    0    0  0.67781223888E+02  0.65786443659E+02  0.82858157551E+03  0.83767146345E+03  0.78891716358E+02 0.  0.
          6    2    1    2  501    0 -0.19123395790E+02 -0.19364259688E+03  0.67143046943E+03  0.71992231426E+03  0.17206424293E+03 0.  0.
         24    2    5    5    0    0  0.54671192382E+02 -0.91951050268E+02  0.37158078989E+03  0.39477814283E+03  0.79583690015E+02 0.  0.
          5    1    5    5  501    0 -0.73794588172E+02 -0.10169154661E+03  0.29984967954E+03  0.32514417143E+03  0.47000000000E+01 0. -1.
        -11    1    6    6    0    0  0.39552962067E+02 -0.10084270310E+03  0.35291558379E+03  0.36916540583E+03  0.00000000000E+00 0.  1.
         12    1    6    6    0    0  0.15118230315E+02  0.88916528310E+01  0.18665206100E+02  0.25612737001E+02  0.00000000000E+00 0. -1.
         -5    1    3    3    0  503 -0.48657828098E+02  0.12785615322E+03  0.10296881124E+04  0.10387465903E+04  0.47000000000E+01 0.  1.
         13    1    4    4    0    0  0.30500617503E+02 -0.10826125598E+01  0.87979585982E+02  0.93122861143E+02  0.00000000000E+00 0. -1.
        -14    1    4    4    0    0  0.37280606385E+02  0.66869056219E+02  0.74060198953E+03  0.74454860230E+03  0.00000000000E+00 0.  1.
</event>
<event>
12    1  0.8488291E-002  0.1763196E+03  0.7818608E-02  0.1171580E+00
         21   -1    0    0  503  502  0.00000000000E+00  0.00000000000E+00  0.41309205299E+03  0.41309205299E+03  0.00000000000E+00 0.  1.
         21   -1    0    0  501  503 -0.00000000000E+00 -0.00000000000E+00 -0.76738586238E+02  0.76738586238E+02  0.00000000000E+00 0.  1.
          6    2    1    2  501    0 -0.37153099304E+02  0.15261112438E+02  0.13070992371E+03  0.21894714311E+03  0.17099565194E+03 0.  0.
         24    2    3    3    0    0  0.22707520362E+02 -0.11340343836E+02  0.14430106706E+02  0.85403078832E+02  0.80257230298E+02 0.  0.
         -6    2    1    2    0  502  0.37153099304E+02 -0.15261112438E+02  0.20564354305E+03  0.27088349612E+03  0.17168385868E+03 0.  0.
        -24    2    5    5    0    0  0.65307592766E+02 -0.17744332514E+02  0.56332238182E+02  0.11884798170E+03  0.79822169141E+02 0.  0.
          5    1    3    3  501    0 -0.59860619666E+02  0.26601456274E+02  0.11627981700E+03  0.13354406428E+03  0.47000000000E+01 0. -1.
        -13    1    4    4    0    0 -0.27023141153E+02 -0.44055957719E+01 -0.10523308550E+02  0.29332566453E+02  0.00000000000E+00 0.  1.
         14    1    4    4    0    0  0.49730661516E+02 -0.69347480644E+01  0.24953415256E+02  0.56070512379E+02  0.00000000000E+00 0. -1.
         -5    1    5    5    0  502 -0.28154493463E+02  0.24832200762E+01  0.14931130486E+03  0.15203551442E+03  0.47000000000E+01 0.  1.
         13    1    6    6    0    0  0.14789097367E+02  0.47660978717E+01 -0.19535327924E+02  0.24961212449E+02  0.00000000000E+00 0. -1.
        -14    1    6    6    0    0  0.50518495400E+02 -0.22510430386E+02  0.75867566106E+02  0.93886769252E+02  0.00000000000E+00 0.  1.
</event>
<event>
12    1  0.8488291E-002  0.2075039E+03  0.7818608E-02  0.1143914E+00
         21   -1    0    0  503  502  0.00000000000E+00  0.00000000000E+00  0.88476641448E+02  0.88476641448E+02  0.00000000000E+00 0.  1.
         21   -1    0    0  501  503 -0.00000000000E+00 -0.00000000000E+00 -0.73104312679E+03  0.73104312679E+03  0.00000000000E+00 0.  1.
          6    2    1    2  501    0 -0.18357831523E+02  0.11145805698E+03 -0.55928339249E+03  0.59592655671E+03  0.17196115675E+03 0.  0.
         24    2    3    3    0    0 -0.64664246557E+02  0.11720050381E+03 -0.39258101788E+03  0.42275314226E+03  0.81749255780E+02 0.  0.
         -6    2    1    2    0  502  0.18357831523E+02 -0.11145805698E+03 -0.83283092859E+02  0.22359321154E+03  0.17406304101E+03 0.  0.
        -24    2    5    5    0    0 -0.27298958809E+01 -0.60729685449E+02  0.23326377017E+02  0.10356934311E+03  0.80541554122E+02 0.  0.
          5    1    3    3  501    0  0.46306415034E+02 -0.57424468235E+01 -0.16670237461E+03  0.17317341444E+03  0.47000000000E+01 0. -1.
        -13    1    4    4    0    0 -0.29449824804E+02  0.64979364912E+02 -0.96275473209E+02  0.11982727898E+03  0.00000000000E+00 0.  1.
         14    1    4    4    0    0 -0.35214421753E+02  0.52221138896E+02 -0.29630554467E+03  0.30292586329E+03  0.00000000000E+00 0. -1.
         -5    1    5    5    0  502  0.21087727404E+02 -0.50728371536E+02 -0.10660946988E+03  0.12002386843E+03  0.47000000000E+01 0.  1.
         11    1    6    6    0    0 -0.21321435917E+02  0.43667113883E+01 -0.14372415450E+02  0.26081375036E+02  0.00000000000E+00 0. -1.
        -12    1    6    6    0    0  0.18591540036E+02 -0.65096396837E+02  0.37698792467E+02  0.77487968070E+02  0.00000000000E+00 0.  1.
</event>
<event>
12    1  0.8488291E-002  0.2268814E+03  0.7818608E-02  0.1129557E+00
         21   -1    0    0  503  502  0.00000000000E+00  0.00000000000E+00  0.11983313161E+04  0.11983313161E+04  0.00000000000E+00 0. -1.
         21   -1    0    0  501  503 -0.00000000000E+00 -0.00000000000E+00 -0.42453926331E+02  0.42453926331E+02  0.00000000000E+00 0. -1.
          6    2    1    2  501    0 -0.11441709163E+03  0.94219850989E+02  0.52718062372E+03  0.57240302416E+03  0.16660480445E+03 0.  0.
         24    2    3    3    0    0 -0.13727248731E+03  0.42813000918E+02  0.42596745418E+03  0.45650984474E+03  0.79222960772E+02 0.  0.
         -6    2    1    2    0  502  0.11441709163E+03 -0.94219850989E+02  0.62869676604E+03  0.66838221826E+03  0.17177460488E+03 0.  0.
        -24    2    5    5    0    0  0.25033769581E+02  0.96339185055E+01  0.18818270158E+03  0.20702583250E+03  0.82021120099E+02 0.  0.
          5    1    3    3  501    0  0.22855395676E+02  0.51406850071E+02  0.10121316955E+03  0.11589317942E+03  0.47000000000E+01 0. -1.
        -13    1    4    4    0    0  0.15610272965E+01  0.27715257666E+01 -0.26829335510E+01  0.41612851061E+01  0.00000000000E+00 0.  1.
         14    1    4    4    0    0 -0.13883351460E+03  0.40041475151E+02  0.42865038773E+03  0.45234855964E+03  0.00000000000E+00 0. -1.
         -5    1    5    5    0  502  0.89383322048E+02 -0.10385376949E+03  0.44051406446E+03  0.46135638576E+03  0.47000000000E+01 0.  1.
         13    1    6    6    0    0 -0.16335605301E+01 -0.33270529937E+02  0.99955138869E+02  0.10535951057E+03  0.00000000000E+00 0. -1.
        -14    1    6    6    0    0  0.26667330111E+02  0.42904448442E+02  0.88227562713E+02  0.10166632192E+03  0.00000000000E+00 0.  1.
</event>
<event>
12    1  0.8488291E-002  0.1862770E+03  0.7818608E-02  0.1161896E+00
         21   -1    0    0  503  502  0.00000000000E+00  0.00000000000E+00  0.90709558590E+02  0.90709558590E+02  0.00000000000E+00 0. -1.
         21   -1    0    0  501  503 -0.00000000000E+00 -0.00000000000E+00 -0.38691154227E+03  0.38691154227E+03  0.00000000000E+00 0. -1.
          6    2    1    2  501    0 -0.27648021052E+02  0.65739525696E+02 -0.17441722652E+03  0.25518713291E+03  0.17208429791E+03 0.  0.
         24    2    3    3    0    0 -0.82759032598E+02  0.42785912408E+02 -0.14043814882E+03  0.18633395812E+03  0.79484454629E+02 0.  0.
         -6    2    1    2    0  502  0.27648021052E+02 -0.65739525696E+02 -0.12178475716E+03  0.22243396796E+03  0.17192802191E+03 0.  0.
        -24    2    5    5    0    0  0.68798106659E+01 -0.10077126783E+03 -0.46609337454E+02  0.13680701398E+03  0.79633840304E+02 0.  0.
          5    1    3    3  501    0  0.55111011546E+02  0.22953613288E+02 -0.33979077706E+02  0.68853174788E+02  0.47000000000E+01 0. -1.
        -11    1    4    4    0    0  0.71810340193E+01 -0.11413032555E+01  0.56753887730E+01  0.92238744805E+01  0.00000000000E+00 0.  1.
         12    1    4    4    0    0 -0.89940066618E+02  0.43927215663E+02 -0.14611353759E+03  0.17711008364E+03  0.00000000000E+00 0. -1.
         -5    1    5    5    0  502  0.20768210386E+02  0.35031742131E+02 -0.75175419708E+02  0.85626953978E+02  0.47000000000E+01 0.  1.
         11    1    6    6    0    0  0.12824830791E+02 -0.33108472591E+02  0.20768590369E+02  0.41133703797E+02  0.00000000000E+00 0. -1.
        -12    1    6    6    0    0 -0.59450201251E+01 -0.67662795236E+02 -0.67377927823E+02  0.95673310182E+02  0.00000000000E+00 0.  1.
</event>
<event>
12    1  0.8488291E-002  0.5152873E+03  0.7818608E-02  0.1009877E+00
         21   -1    0    0  501  502  0.00000000000E+00  0.00000000000E+00  0.54498141081E+03  0.54498141081E+03  0.00000000000E+00 0. -1.
         21   -1    0    0  502  503 -0.00000000000E+00 -0.00000000000E+00 -0.50324741041E+03  0.50324741041E+03  0.00000000000E+00 0.  1.
         -6    2    1    2    0  503  0.40116352151E+02  0.48450002363E+03  0.11499696139E+03  0.52796333999E+03  0.17079634843E+03 0.  0.
        -24    2    3    3    0    0 -0.39012610034E+02  0.27915517073E+03  0.89165219840E+02  0.30633917583E+03  0.80272418246E+02 0.  0.
          6    2    1    2  501    0 -0.40116352151E+02 -0.48450002363E+03 -0.73262960988E+02  0.52026548123E+03  0.17017377852E+03 0.  0.
         24    2    5    5    0    0  0.49622669870E+01 -0.10461617450E+03 -0.13476680905E+02  0.13304421371E+03  0.80931908491E+02 0.  0.
          5    1    5    5  501    0 -0.45078619138E+02 -0.37988384913E+03 -0.59786280082E+02  0.38722126752E+03  0.47000000000E+01 0. -1.
        -13    1    6    6    0    0 -0.23610694553E+02 -0.99662586019E+02 -0.17032837631E+02  0.10382780700E+03  0.00000000000E+00 0.  1.
         14    1    6    6    0    0  0.28572961540E+02 -0.49535884801E+01  0.35561567253E+01  0.29216406703E+02  0.00000000000E+00 0. -1.
         -5    1    3    3    0  503  0.79128962185E+02  0.20534485290E+03  0.25831741549E+02  0.22162416416E+03  0.47000000000E+01 0.  1.
         11    1    4    4    0    0  0.17399162623E+02  0.10547012867E+03  0.56207981400E+02  0.12077257998E+03  0.00000000000E+00 0. -1.
        -12    1    4    4    0    0 -0.56411772657E+02  0.17368504206E+03  0.32957238440E+02  0.18556659585E+03  0.00000000000E+00 0.  1.
</event>
<event>
12    1  0.8488291E-002  0.1894324E+03  0.7818608E-02  0.1159676E+00
         21   -1    0    0  501  502  0.00000000000E+00  0.00000000000E+00  0.19424964788E+02  0.19424964788E+02  0.00000000000E+00 0. -1.
         21   -1    0    0  502  503 -0.00000000000E+00 -0.00000000000E+00 -0.23406680126E+04  0.23406680126E+04  0.00000000000E+00 0. -1.
         -6    2    1    2    0  503  0.12412207669E+02 -0.78121875482E+02 -0.17258605188E+04  0.17362255472E+04  0.17212649473E+03 0.  0.
        -24    2    3    3    0    0 -0.17344554768E+02 -0.87493614153E+02 -0.73568497269E+03  0.74554749836E+03  0.81564251848E+02 0.  0.
          6    2    1    2  501    0 -0.12412207669E+02  0.78121875482E+02 -0.59538252901E+03  0.62386743015E+03  0.16873981221E+03 0.  0.
         24    2    5    5    0    0  0.56755039360E+02  0.40129707695E+02 -0.29904560965E+03  0.31716696936E+03  0.79593227532E+02 0.  0.
          5    1    5    5  501    0 -0.69167247029E+02  0.37992167787E+02 -0.29633691935E+03  0.30670046078E+03  0.47000000000E+01 0. -1.
        -11    1    6    6    0    0 -0.15192413428E+02 -0.29730544061E+01 -0.99725846185E+02  0.10092023026E+03  0.00000000000E+00 0.  1.
         12    1    6    6    0    0  0.71947452789E+02  0.43102762101E+02 -0.19931976347E+03  0.21624673910E+03  0.00000000000E+00 0. -1.
         -5    1    3    3    0  503  0.29756762437E+02  0.93717386708E+01 -0.99017554608E+03  0.99067804884E+03  0.47000000000E+01 0.  1.
         13    1    4    4    0    0  0.28564255706E+02 -0.35597933504E+02 -0.41258319807E+03  0.41510001795E+03  0.00000000000E+00 0. -1.
        -14    1    4    4    0    0 -0.45908810474E+02 -0.51895680649E+02 -0.32310177462E+03  0.33044748041E+03  0.00000000000E+00 0.  1.
</event>
<event>
12    1  0.8488291E-002  0.2077129E+03  0.7818608E-02  0.1143492E+00
         21   -1    0    0  503  502  0.00000000000E+00  0.00000000000E+00  0.39001116957E+02  0.39001116957E+02  0.00000000000E+00 0.  1.
         21   -1    0    0  501  503 -0.00000000000E+00 -0.00000000000E+00 -0.12599529965E+04  0.12599529965E+04  0.00000000000E+00 0.  1.
          6    2    1    2  501    0 -0.11610756415E+03 -0.30536275809E+01 -0.83996792444E+03  0.86526919643E+03  0.17220446305E+03 0.  0.
         24    2    3    3    0    0 -0.13690700101E+03  0.32667432409E+02 -0.73056970906E+03  0.74822787795E+03  0.79386204636E+02 0.  0.
         -6    2    1    2    0  502  0.11610756415E+03  0.30536275809E+01 -0.38098395510E+03  0.43368491703E+03  0.17159120643E+03 0.  0.
        -24    2    5    5    0    0  0.71277591520E+02  0.52964203081E+02 -0.32461210592E+03  0.34593147053E+03  0.80061608356E+02 0.  0.
          5    1    3    3  501    0  0.20799436861E+02 -0.35721059990E+02 -0.10939821539E+03  0.11704131847E+03  0.47000000000E+01 0. -1.
        -11    1    4    4    0    0 -0.22914915001E+01  0.25688252809E+02 -0.89612128684E+02  0.93249508701E+02  0.00000000000E+00 0.  1.
         12    1    4    4    0    0 -0.13461550951E+03  0.69791795994E+01 -0.64095758037E+03  0.65497836925E+03  0.00000000000E+00 0. -1.
         -5    1    5    5    0  502  0.44829972631E+02 -0.49910575500E+02 -0.56371849177E+02  0.87753446500E+02  0.47000000000E+01 0.  1.
         13    1    6    6    0    0 -0.38679658086E+00 -0.51616743946E+01  0.27164307853E+01  0.58456385761E+01  0.00000000000E+00 0. -1.
        -14    1    6    6    0    0  0.71664388100E+02  0.58125877476E+02 -0.32732853671E+03  0.34008583196E+03  0.00000000000E+00 0.  1.
</event>
<event>
12    1  0.8488291E-002  0.1750430E+03  0.7818608E-02  0.1173179E+00
         21   -1    0    0  501  502  0.00000000000E+00  0.00000000000E+00  0.52804282680E+03  0.52804282680E+03  0.00000000000E+00 0. -1.
         21   -1    0    0  502  503 -0.00000000000E+00 -0.00000000000E+00 -0.12029932534E+03  0.12029932534E+03  0.00000000000E+00 0. -1.
         -6    2    1    2    0  503 -0.28530225861E+02 -0.12363109244E+02 -0.31105244549E+02  0.17587177490E+03  0.17028365955E+03 0.  0.
        -24    2    3    3    0    0 -0.41687508866E+02  0.53414699454E+02 -0.29646831967E+02  0.10861070756E+03  0.79538497828E+02 0.  0.
          6    2    1    2  501    0  0.28530225861E+02  0.12363109244E+02  0.43884874602E+03  0.47247037724E+03  0.17225915137E+03 0.  0.
         24    2    5    5    0    0  0.66922444685E+02  0.41070448442E+02  0.37990486696E+03  0.39634847061E+03  0.81234271595E+02 0.  0.
          5    1    5    5  501    0 -0.38392218825E+02 -0.28707339197E+02  0.58943879059E+02  0.76121906628E+02  0.47000000000E+01 0. -1.
        -11    1    6    6    0    0  0.65424433993E+02 -0.48432446739E+01  0.25363226976E+03  0.26197927751E+03  0.00000000000E+00 0.  1.
         12    1    6    6    0    0  0.14980106921E+01  0.45913693116E+02  0.12627259719E+03  0.13436919310E+03  0.00000000000E+00 0. -1.
         -5    1    3    3    0  503  0.13157283005E+02 -0.65777808698E+02 -0.14584125820E+01  0.67261067346E+02  0.47000000000E+01 0.  1.
         11    1    4    4    0    0 -0.25020810509E+02 -0.20026320972E+01 -0.42474263429E+02  0.49336746423E+02  0.00000000000E+00 0. -1.
        -12    1    4    4    0    0 -0.16666698357E+02  0.55417331551E+02  0.12827431462E+02  0.59273961132E+02  0.00000000000E+00 0.  1.
</event>
<event>
12    1  0.8488291E-002  0.2951851E+03  0.7818608E-02  0.1087944E+00
         21   -1    0    0  501  502  0.00000000000E+00  0.00000000000E+00  0.16287823768E+03  0.16287823768E+03  0.00000000000E+00 0. -1.
         21   -1    0    0  502  503 -0.00000000000E+00 -0.00000000000E+00 -0.90814706541E+03  0.90814706541E+03  0.00000000000E+00 0.  1.
         -6    2    1    2    0  503 -0.17620918866E+03  0.16349666856E+03 -0.71688838255E+03  0.77447901070E+03  0.16765424592E+03 0.  0.
        -24    2    3    3    0    0 -0.15782928551E+03  0.18559585801E+03 -0.57454444428E+03  0.62918592147E+03  0.80110545175E+02 0.  0.
          6    2    1    2  501    0  0.17620918866E+03 -0.16349666856E+03 -0.28380445176E+02  0.29654629239E+03  0.17132838371E+03 0.  0.
         24    2    5    5    0    0  0.64351576538E+02 -0.98933973362E+02  0.44015626503E+02  0.14841206882E+03  0.78483821935E+02 0.  0.
          5    1    5    5  501    0  0.11185761212E+03 -0.64562695199E+02 -0.72396071679E+02  0.14813422358E+03  0.47000000000E+01 0. -1.
        -13    1    6    6    0    0  0.65488698372E+02 -0.10540006115E+03  0.54908156219E+02  0.13569395021E+03  0.00000000000E+00 0.  1.
         14    1    6    6    0    0 -0.11371218344E+01  0.64660877832E+01 -0.10892529716E+02  0.12718118607E+02  0.00000000000E+00 0. -1.
         -5    1    3    3    0  503 -0.18379903143E+02 -0.22099189453E+02 -0.14234393827E+03  0.14529308922E+03  0.47000000000E+01 0.  1.
         13    1    4    4    0    0  0.21886810473E+01  0.26099075203E+02 -0.10347928802E+03  0.10674228356E+03  0.00000000000E+00 0. -1.
        -14    1    4    4    0    0 -0.16001796656E+03  0.15949678281E+03 -0.47106515626E+03  0.52244363791E+03  0.00000000000E+00 0.  1.
</event>
<event>
12    1  0.8488291E-002  0.1735416E+03  0.7818608E-02  0.1174524E+00
         21   -1    0    0  503  502  0.00000000000E+00  0.00000000000E+00  0.25592699100E+03  0.25592699100E+03  0.00000000000E+00 0.  1.
         21   -1    0    0  501  503 -0.00000000000E+00 -0.00000000000E+00 -0.33405688199E+03  0.33405688199E+03  0.00000000000E+00 0.  1.
          6    2    1    2  501    0  0.89209036963E+01 -0.23069282210E+01 -0.27699434208E+03  0.32686777128E+03  0.17329676833E+03 0.  0.
         24    2    3    3    0    0  0.65118607449E+02 -0.52292859880E+01 -0.10742961290E+03  0.14814729269E+03  0.78349984920E+02 0.  0.
         -6    2    1    2    0  502 -0.89209036963E+01  0.23069282210E+01  0.19886445108E+03  0.26311610171E+03  0.17204100859E+03 0.  0.
        -24    2    5    5    0    0 -0.18813811294E+01  0.29585974194E+02  0.29634338402E+02  0.91492611873E+02  0.81325485248E+02 0.  0.
          5    1    3    3  501    0 -0.56197703753E+02  0.29223577671E+01 -0.16956472918E+03  0.17872047858E+03  0.47000000000E+01 0. -1.
        -13    1    4    4    0    0  0.58845272527E+02 -0.36399556197E+02 -0.63469863081E+02  0.93894181448E+02  0.00000000000E+00 0.  1.
         14    1    4    4    0    0  0.62733349217E+01  0.31170270209E+02 -0.43959749815E+02  0.54253111245E+02  0.00000000000E+00 0. -1.
         -5    1    5    5    0  502 -0.70395225670E+01 -0.27279045973E+02  0.16923011268E+03  0.17162348984E+03  0.47000000000E+01 0.  1.
         13    1    6    6    0    0 -0.14793372164E+02 -0.20658046405E+02 -0.88435769488E+01  0.26903672509E+02  0.00000000000E+00 0. -1.
        -14    1    6    6    0    0  0.12911991035E+02  0.50244020598E+02  0.38477915351E+02  0.64588939364E+02  0.00000000000E+00 0.  1.
</event>
<event>
12    1  0.8488291E-002  0.1792350E+03  0.7818608E-02  0.1168575E+00
         21   -1    0    0  503  502  0.00000000000E+00  0.00000000000E+00  0.14109107845E+03  0.14109107845E+03  0.00000000000E+00 0.  1.
         21   -1    0    0  501  503 -0.00000000000E+00 -0.00000000000E+00 -0.60443664880E+03  0.60443664880E+03  0.00000000000E+00 0.  1.
          6    2    1    2  501    0 -0.51378589521E+02  0.85376363804E+01 -0.52605704912E+03  0.55575283653E+03  0.17150086205E+03 0.  0.
         24    2    3    3    0    0  0.14240566966E+02 -0.46622282814E+02 -0.27158358681E+03  0.28718753087E+03  0.79640456179E+02 0.  0.
         -6    2    1    2    0  502  0.51378589521E+02 -0.85376363804E+01  0.62711478768E+02  0.18977489073E+03  0.17137423636E+03 0.  0.
        -24    2    5    5    0    0  0.32103908280E+02 -0.50155422831E+02  0.92543818533E+02  0.13486030267E+03  0.77953290641E+02 0.  0.
          5    1    3    3  501    0 -0.65619156488E+02  0.55159919195E+02 -0.25447346231E+03  0.26856530566E+03  0.47000000000E+01 0. -1.
        -13    1    4    4    0    0  0.27068688504E+02  0.95332105046E+01 -0.14908073065E+03  0.15181785221E+03  0.00000000000E+00 0.  1.
         14    1    4    4    0    0 -0.12828121538E+02 -0.56155493319E+02 -0.12250285616E+03  0.13536967866E+03  0.00000000000E+00 0. -1.
         -5    1    5    5    0  502  0.19274681241E+02  0.41617786450E+02 -0.29832339766E+02  0.54914588060E+02  0.47000000000E+01 0.  1.
         11    1    6    6    0    0  0.24342288118E+02 -0.44117329549E+02  0.95480825527E+01  0.51284029071E+02  0.00000000000E+00 0. -1.
        -12    1    6    6    0    0  0.77616201628E+01 -0.60380932820E+01  0.82995735981E+02  0.83576273601E+02  0.00000000000E+00 0.  1.
</event>
<event>
12    1  0.8488291E-002  0.1864838E+03  0.7818608E-02  0.1162127E+00
         21   -1    0    0  501  502  0.00000000000E+00  0.00000000000E+00  0.86061076373E+02  0.86061076373E+02  0.00000000000E+00 0.  1.
         21   -1    0    0  502  503 -0.00000000000E+00 -0.00000000000E+00 -0.11968728429E+04  0.11968728429E+04  0.00000000000E+00 0.  1.
         -6    2    1    2    0  503 -0.27797457295E+02  0.64672993993E+02 -0.10778854563E+04  0.10935656068E+04  0.17056783006E+03 0.  0.
        -24    2    3    3    0    0  0.37180235582E+02 -0.99144325129E+00 -0.63640506907E+03  0.64249915802E+03  0.80064993860E+02 0.  0.
          6    2    1    2  501    0  0.27797457295E+02 -0.64672993993E+02 -0.32926310242E+02  0.18936831250E+03  0.17268735070E+03 0.  0.
         24    2    5    5    0    0 -0.28140748916E+02 -0.60571900047E+02  0.29718475614E+02  0.10515215562E+03  0.75583934891E+02 0.  0.
          5    1    5    5  501    0  0.55938206211E+02 -0.41010939463E+01 -0.62644785856E+02  0.84216156885E+02  0.47000000000E+01 0. -1.
        -13    1    6    6    0    0 -0.33474014619E+01 -0.69697810761E+02  0.66777462885E+01  0.70096948699E+02  0.00000000000E+00 0.  1.
         14    1    6    6    0    0 -0.24793347454E+02  0.91259107143E+01  0.23040729325E+02  0.35055206920E+02  0.00000000000E+00 0. -1.
         -5    1    3    3    0  503 -0.64977692877E+02  0.65664437244E+02 -0.44148038720E+03  0.45106644873E+03  0.47000000000E+01 0.  1.
         13    1    4    4    0    0  0.31554972339E+02 -0.30063652562E+02 -0.18261207162E+03  0.18774106686E+03  0.00000000000E+00 0. -1.
        -14    1    4    4    0    0  0.56252632431E+01  0.29072209311E+02 -0.45379299746E+03  0.45475809117E+03  0.00000000000E+00 0.  1.
</event>
<event>
12    1  0.8488291E-002  0.2053569E+03  0.7818608E-02  0.1145339E+00
         21   -1    0    0  501  502  0.00000000000E+00  0.00000000000E+00  0.35301209194E+03  0.35301209194E+03  0.00000000000E+00 0.  1.
         21   -1    0    0  502  503 -0.00000000000E+00 -0.00000000000E+00 -0.15118551932E+03  0.15118551932E+03  0.00000000000E+00 0. -1.
         -6    2    1    2    0  503  0.10822902758E+03  0.31049497004E+02  0.21657345754E+03  0.29831191243E+03  0.17148860286E+03 0.  0.
        -24    2    3    3    0    0  0.96509831132E+02  0.71640201621E+02  0.10953289762E+03  0.18313936216E+03  0.84238377943E+02 0.  0.
          6    2    1    2  501    0 -0.10822902758E+03 -0.31049497004E+02 -0.14746884927E+02  0.20588569883E+03  0.17173775558E+03 0.  0.
         24    2    5    5    0    0  0.10027292858E+02  0.74012188866E+01 -0.12009528450E+02  0.81416433561E+02  0.79555529268E+02 0.  0.
          5    1    5    5  501    0 -0.11825632044E+03 -0.38450715891E+02 -0.27373564775E+01  0.12446926527E+03  0.47000000000E+01 0. -1.
        -13    1    6    6    0    0  0.17663095756E+02 -0.15522579666E+02  0.26829063571E+02  0.35675398853E+02  0.00000000000E+00 0.  1.
         14    1    6    6    0    0 -0.76358028981E+01  0.22923798553E+02 -0.38838592021E+02  0.45741034708E+02  0.00000000000E+00 0. -1.
         -5    1    3    3    0  503  0.11719196449E+02 -0.40590704617E+02  0.10704055992E+03  0.11517255027E+03  0.47000000000E+01 0.  1.
         13    1    4    4    0    0  0.60362159747E+02  0.27275126842E+01  0.18104272478E+02  0.63077684935E+02  0.00000000000E+00 0. -1.
        -14    1    4    4    0    0  0.36147671384E+02  0.68912688937E+02  0.91428625144E+02  0.12006167723E+03  0.00000000000E+00 0.  1.
</event>
<event>
12    1  0.8488291E-002  0.1873279E+03  0.7818608E-02  0.1161314E+00
         21   -1    0    0  501  502  0.00000000000E+00  0.00000000000E+00  0.24941600434E+03  0.24941600434E+03  0.00000000000E+00 0.  1.
         21   -1    0    0  502  503 -0.00000000000E+00 -0.00000000000E+00 -0.18804689785E+03  0.18804689785E+03  0.00000000000E+00 0.  1.
         -6    2    1    2    0  503  0.51568597668E+02  0.44817896895E+02 -0.80532955314E+02  0.20390516354E+03  0.17442418031E+03 0.  0.
        -24    2    3    3    0    0  0.15035039893E+02 -0.43128331489E+02 -0.32959011787E+02  0.97347151013E+02  0.79398148283E+02 0.  0.
          6    2    1    2  501    0 -0.51568597668E+02 -0.44817896895E+02  0.14190206180E+03  0.23355773866E+03  0.17246755636E+03 0.  0.
         24    2    5    5    0    0 -0.88278062807E+02  0.19510262782E+02  0.86991268399E+02  0.14123773979E+03  0.64861017860E+02 0.  0.
          5    1    5    5  501    0  0.36709465140E+02 -0.64328159677E+02  0.54910793405E+02  0.92319998866E+02  0.47000000000E+01 0. -1.
        -11    1    6    6    0    0 -0.67353182822E+02  0.10421765191E+02  0.95122465224E+02  0.11701857894E+03  0.00000000000E+00 0.  1.
         12    1    6    6    0    0 -0.20924879985E+02  0.90884975912E+01 -0.81311968253E+01  0.24219160858E+02  0.00000000000E+00 0. -1.
         -5    1    3    3    0  503  0.36533557775E+02  0.87946228384E+02 -0.47573943527E+02  0.10655801253E+03  0.47000000000E+01 0.  1.
         13    1    4    4    0    0 -0.17797429501E+02 -0.41259663889E+02  0.71287815683E+01  0.45496460167E+02  0.00000000000E+00 0. -1.
        -14    1    4    4    0    0  0.32832469394E+02 -0.18686676000E+01 -0.40087793356E+02  0.51850690846E+02  0.00000000000E+00 0.  1.
</event>
<event>
12    1  0.8488291E-002  0.3057141E+03  0.7818608E-02  0.1082442E+00
         21   -1    0    0  503  502  0.00000000000E+00  0.00000000000E+00  0.52711920214E+03  0.52711920214E+03  0.00000000000E+00 0. -1.
         21   -1    0    0  501  503 -0.00000000000E+00 -0.00000000000E+00 -0.17930515429E+03  0.17930515429E+03  0.00000000000E+00 0.  1.
          6    2    1    2  501    0  0.24546914184E+03 -0.57563244153E+02  0.13553287699E+03  0.33423570864E+03  0.17255642993E+03 0.  0.
         24    2    3    3    0    0  0.13523411252E+03 -0.80164317309E+01  0.83340931036E+01  0.15871286416E+03  0.82266565356E+02 0.  0.
         -6    2    1    2    0  502 -0.24546914184E+03  0.57563244153E+02  0.21228117085E+03  0.37218864779E+03  0.17289438213E+03 0.  0.
        -24    2    5    5    0    0 -0.69486911112E+02  0.58338409671E+02  0.43436548259E+02  0.12826049650E+03  0.79575249785E+02 0.  0.
          5    1    3    3  501    0  0.11023502932E+03 -0.49546812422E+02  0.12719878389E+03  0.17552284448E+03  0.47000000000E+01 0. -1.
        -13    1    4    4    0    0  0.13687266890E+03 -0.19351866050E+01  0.26551364341E+02  0.13943761110E+03  0.00000000000E+00 0.  1.
         14    1    4    4    0    0 -0.16385563856E+01 -0.60812451259E+01 -0.18217271237E+02  0.19275253063E+02  0.00000000000E+00 0. -1.
         -5    1    5    5    0  502 -0.17598223073E+03 -0.77516551814E+00  0.16884462260E+03  0.24392815129E+03  0.47000000000E+01 0.  1.
         13    1    6    6    0    0  0.95556987225E+01  0.75725013052E+01  0.31235166729E+02  0.33530430875E+02  0.00000000000E+00 0. -1.
        -14    1    6    6    0    0 -0.79042609835E+02  0.50765908366E+02  0.12201381530E+02  0.94730065623E+02  0.00000000000E+00 0.  1.
</event>
<event>
12    1  0.8488291E-002  0.1783443E+03  0.7818608E-02  0.1169830E+00
         21   -1    0    0  503  502  0.00000000000E+00  0.00000000000E+00  0.11805074202E+03  0.11805074202E+03  0.00000000000E+00 0.  1.
         21   -1    0    0  501  503 -0.00000000000E+00 -0.00000000000E+00 -0.34817550684E+03  0.34817550684E+03  0.00000000000E+00 0.  1.
          6    2    1    2  501    0 -0.26750893009E+02  0.29943238867E+02 -0.22727785786E+03  0.28785925868E+03  0.17203348599E+03 0.  0.
         24    2    3    3    0    0 -0.19915309837E+01  0.22058149073E+02 -0.27775011602E+02  0.86616429455E+02  0.78996369828E+02 0.  0.
         -6    2    1    2    0  502  0.26750893009E+02 -0.29943238867E+02 -0.28469069650E+01  0.17836699018E+03  0.17376556182E+03 0.  0.
        -24    2    5    5    0    0  0.64054502229E+02 -0.61763256681E+02  0.24992029697E+02  0.12178811436E+03  0.79309924473E+02 0.  0.
          5    1    3    3  501    0 -0.24759362025E+02  0.78850897943E+01 -0.19950284626E+03  0.20124282923E+03  0.47000000000E+01 0. -1.
        -11    1    4    4    0    0 -0.22957818912E+02  0.42570177247E+02 -0.30466321793E+02  0.57161859694E+02  0.00000000000E+00 0.  1.
         12    1    4    4    0    0  0.20966287928E+02 -0.20512028174E+02  0.26913101909E+01  0.29454569762E+02  0.00000000000E+00 0. -1.
         -5    1    5    5    0  502 -0.37303609219E+02  0.31820017814E+02 -0.27838936662E+02  0.56578875819E+02  0.47000000000E+01 0.  1.
         13    1    6    6    0    0  0.42028440391E+02  0.10301348266E+02  0.14868311216E+02  0.45755592622E+02  0.00000000000E+00 0. -1.
        -14    1    6    6    0    0  0.22026061838E+02 -0.72064604947E+02  0.10123718481E+02  0.76032521739E+02  0.00000000000E+00 0.  1.
</event>
<event>
12    1  0.8488291E-002  0.2807761E+03  0.7818608E-02  0.1095304E+00
         21   -1    0    0  503  502  0.00000000000E+00  0.00000000000E+00  0.54240256223E+02  0.54240256223E+02  0.00000000000E+00 0. -1.
         21   -1    0    0  501  503 -0.00000000000E+00 -0.00000000000E+00 -0.21874964822E+04  0.21874964822E+04  0.00000000000E+00 0. -1.
          6    2    1    2  501    0 -0.19384160105E+03 -0.10788784400E+03 -0.17162126181E+04  0.17389837101E+04  0.17165150789E+03 0.  0.
         24    2    3    3    0    0 -0.12756155452E+03 -0.24092929511E+02 -0.13078231841E+04  0.13168241999E+04  0.82292605932E+02 0.  0.
         -6    2    1    2    0  502  0.19384160105E+03  0.10788784400E+03 -0.41704360784E+03  0.50275302833E+03  0.17210718599E+03 0.  0.
        -24    2    5    5    0    0  0.17185911772E+03  0.20439615848E+02 -0.28744065859E+03  0.34479912165E+03  0.79441600175E+02 0.  0.
          5    1    3    3  501    0 -0.66280046526E+02 -0.83794914492E+02 -0.40838943398E+03  0.42215951020E+03  0.47000000000E+01 0. -1.
        -11    1    4    4    0    0  0.50549182679E+01  0.14681600603E+02 -0.13580539647E+03  0.13669018730E+03  0.00000000000E+00 0.  1.
         12    1    4    4    0    0 -0.13261647279E+03 -0.38774530114E+02 -0.11720177876E+04  0.11801340126E+04  0.00000000000E+00 0. -1.
         -5    1    5    5    0  502  0.21982483331E+02  0.87448228154E+02 -0.12960294925E+03  0.15795390668E+03  0.47000000000E+01 0.  1.
         11    1    6    6    0    0  0.15393399501E+03  0.30743828870E+02 -0.28304798893E+03  0.32366189438E+03  0.00000000000E+00 0. -1.
        -12    1    6    6    0    0  0.17925122704E+02 -0.10304213021E+02 -0.43926696624E+01  0.21137227271E+02  0.00000000000E+00 0.  1.
</event>
<event>
12    1  0.8488291E-002  0.1824196E+03  0.7818608E-02  0.1165956E+00
         21   -1    0    0  503  502  0.00000000000E+00  0.00000000000E+00  0.14363603892E+04  0.14363603892E+04  0.00000000000E+00 0. -1.
         21   -1    0    0  501  503 -0.00000000000E+00 -0.00000000000E+00 -0.39528734889E+02  0.39528734889E+02  0.00000000000E+00 0. -1.
          6    2    1    2  501    0 -0.28061471309E+02 -0.51237924823E+02  0.21781637418E+03  0.28284514282E+03  0.17071798630E+03 0.  0.
         24    2    3    3    0    0  0.47746161799E+02 -0.46231795479E+02  0.10399884628E+03  0.14592042546E+03  0.77845588568E+02 0.  0.
         -6    2    1    2    0  502  0.28061471309E+02  0.51237924823E+02  0.11790152802E+04  0.11930439813E+04  0.17281243974E+03 0.  0.
        -24    2    5    5    0    0  0.82166422065E+02  0.52451959368E+02  0.90559040537E+03  0.91427513129E+03  0.79388314263E+02 0.  0.
          5    1    3    3  501    0 -0.75807633107E+02 -0.50061293442E+01  0.11381752790E+03  0.13692471736E+03  0.47000000000E+01 0. -1.
        -11    1    4    4    0    0  0.13492681294E+02 -0.34910583214E+02  0.10326360500E+03  0.10983703103E+03  0.00000000000E+00 0.  1.
         12    1    4    4    0    0  0.34253480504E+02 -0.11321212265E+02  0.73524128256E+00  0.36083394430E+02  0.00000000000E+00 0. -1.
         -5    1    5    5    0  502 -0.54104950756E+02 -0.12140345448E+01  0.27342487479E+03  0.27876885000E+03  0.47000000000E+01 0.  1.
         13    1    6    6    0    0  0.10783861732E+02  0.43808853539E+01  0.47636668716E+03  0.47650887134E+03  0.00000000000E+00 0. -1.
        -14    1    6    6    0    0  0.71382560333E+02  0.48071074014E+02  0.42922371821E+03  0.43776625995E+03  0.00000000000E+00 0.  1.
</event>
<event>
12    1  0.8488291E-002  0.1973195E+03  0.7818608E-02  0.1152023E+00
         21   -1    0    0  501  502  0.00000000000E+00  0.00000000000E+00  0.17426870554E+03  0.17426870554E+03  0.00000000000E+00 0.  1.
         21   -1    0    0  502  503 -0.00000000000E+00 -0.00000000000E+00 -0.34676006106E+03  0.34676006106E+03  0.00000000000E+00 0.  1.
         -6    2    1    2    0  503 -0.87654442932E+02  0.46613974114E+02  0.69133293427E+02  0.20907983610E+03  0.17052507633E+03 0.  0.
        -24    2    3    3    0    0  0.17697206243E+02 -0.22143686658E+02 -0.18680070550E+01  0.64546585367E+02  0.57958936020E+02 0.  0.
          6    2    1    2  501    0  0.87654442932E+02 -0.46613974114E+02 -0.24162464895E+03  0.31194893050E+03  0.17050953144E+03 0.  0.
         24    2    5    5    0    0  0.11327959458E+03 -0.23510823607E+00 -0.14279425259E+03  0.19971174931E+03  0.81622683213E+02 0.  0.
          5    1    5    5  501    0 -0.25625151652E+02 -0.46378865877E+02 -0.98830396359E+02  0.11223718119E+03  0.47000000000E+01 0. -1.
        -13    1    6    6    0    0  0.10548583056E+03 -0.19030578378E+02 -0.80136538322E+02  0.13383306070E+03  0.00000000000E+00 0.  1.
         14    1    6    6    0    0  0.77937640235E+01  0.18795470142E+02 -0.62657714269E+02  0.65878688610E+02  0.00000000000E+00 0. -1.
         -5    1    3    3    0  503 -0.10535164917E+03  0.68757660771E+02  0.71001300482E+02  0.14453325074E+03  0.47000000000E+01 0.  1.
         13    1    4    4    0    0  0.10402960409E+02 -0.61396957014E+01  0.27657069138E+02  0.30179975511E+02  0.00000000000E+00 0. -1.
        -14    1    4    4    0    0  0.72942458335E+01 -0.16003990956E+02 -0.29525076193E+02  0.34366609856E+02  0.00000000000E+00 0.  1.
</event>
<event>
12    1  0.8488291E-002  0.3136819E+03  0.7818608E-02  0.1078689E+00
         21   -1    0    0  501  502  0.00000000000E+00  0.00000000000E+00  0.12762535718E+04  0.12762535718E+04  0.00000000000E+00 0. -1.
         21   -1    0    0  502  503 -0.00000000000E+00 -0.00000000000E+00 -0.10204633310E+03  0.10204633310E+03  0.00000000000E+00 0.  1.
         -6    2    1    2    0  503  0.54152359570E+02  0.25630821169E+03  0.24444956115E+03  0.39705289041E+03  0.17108194647E+03 0.  0.
        -24    2    3    3    0    0  0.62457621359E+02  0.21591937783E+03  0.25950853345E+03  0.35290430130E+03  0.81698437880E+02 0.  0.
          6    2    1    2  501    0 -0.54152359570E+02 -0.25630821169E+03  0.92975767753E+03  0.98124701448E+03  0.17253981298E+03 0.  0.
         24    2    5    5    0    0 -0.12973129163E+02 -0.27873089934E+02  0.11541018763E+03  0.13445172742E+03  0.61745804516E+02 0.  0.
          5    1    5    5  501    0 -0.41179230407E+02 -0.22843512176E+03  0.81434748990E+03  0.84679528705E+03  0.47000000000E+01 0. -1.
        -13    1    6    6    0    0  0.14909379201E+02 -0.34502661595E+02  0.46307313930E+02  0.59641349488E+02  0.00000000000E+00 0.  1.
         14    1    6    6    0    0 -0.27882508364E+02  0.66295716607E+01  0.69102873702E+02  0.74810377936E+02  0.00000000000E+00 0. -1.
         -5    1    3    3    0  503 -0.83052617887E+01  0.40388833858E+02 -0.15058972299E+02  0.44148589111E+02  0.47000000000E+01 0.  1.
         13    1    4    4    0    0 -0.48382797405E+01  0.89914481619E+01  0.49333922880E+02  0.50379470399E+02  0.00000000000E+00 0. -1.
        -14    1    4    4    0    0  0.67295901099E+02  0.20692792967E+03  0.21017461057E+03  0.30252483090E+03  0.00000000000E+00 0.  1.
</event>
<event>
12    1  0.8488291E-002  0.2041554E+03  0.7818608E-02  0.1147210E+00
         21   -1    0    0  501  502  0.00000000000E+00  0.00000000000E+00  0.98598291955E+03  0.98598291955E+03  0.00000000000E+00 0. -1.
         21   -1    0    0  502  503 -0.00000000000E+00 -0.00000000000E+00 -0.13622903101E+03  0.13622903101E+03  0.00000000000E+00 0.  1.
         -6    2    1    2    0  503 -0.86268327672E+02  0.63132860035E+02 -0.41952981240E+02  0.20842141235E+03  0.17392944005E+03 0.  0.
        -24    2    3    3    0    0 -0.43910442638E+02  0.10869210364E+03 -0.27860113626E+02  0.14446412958E+03  0.79696916111E+02 0.  0.
          6    2    1    2  501    0  0.86268327672E+02 -0.63132860035E+02  0.89170686978E+03  0.91379053821E+03  0.16865356127E+03 0.  0.
         24    2    5    5    0    0  0.38754755838E+02  0.13037940871E+02  0.65060921884E+03  0.65647808669E+03  0.77454526384E+02 0.  0.
          5    1    5    5  501    0  0.47513571835E+02 -0.76170800907E+02  0.24109765094E+03  0.25731245152E+03  0.47000000000E+01 0. -1.
        -13    1    6    6    0    0  0.24209334266E+02  0.29478923430E+02  0.13191522234E+03  0.13731978982E+03  0.00000000000E+00 0.  1.
         14    1    6    6    0    0  0.14545421572E+02 -0.16440982558E+02  0.51869399650E+03  0.51915829686E+03  0.00000000000E+00 0. -1.
         -5    1    3    3    0  503 -0.42357885034E+02 -0.45559243601E+02 -0.14092867614E+02  0.63957282772E+02  0.47000000000E+01 0.  1.
         11    1    4    4    0    0  0.45983961264E+00  0.28660406908E+02  0.25644758039E+02  0.38461461120E+02  0.00000000000E+00 0. -1.
        -12    1    4    4    0    0 -0.44370282251E+02  0.80031696728E+02 -0.53504871664E+02  0.10600266846E+03  0.00000000000E+00 0.  1.
</event>
<event>
12    1  0.8488291E-002  0.3885684E+03  0.7818608E-02  0.1047888E+00
         21   -1    0    0  501  502  0.00000000000E+00  0.00000000000E+00  0.82211311560E+03  0.82211311560E+03  0.00000000000E+00 0. -1.
         21   -1    0    0  502  503 -0.00000000000E+00 -0.00000000000E+00 -0.18416762186E+03  0.18416762186E+03  0.00000000000E+00 0.  1.
         -6    2    1    2    0  503  0.16687470043E+03  0.30466662171E+03  0.28320266118E+03  0.48013636300E+03  0.17221574769E+03 0.  0.
        -24    2    3    3    0    0  0.39979623152E+02  0.18332574713E+03  0.10308946806E+03  0.22856366811E+03  0.80045063102E+02 0.  0.
          6    2    1    2  501    0 -0.16687470043E+03 -0.30466662171E+03  0.35474283256E+03  0.52614437445E+03  0.17411636766E+03 0.  0.
         24    2    5    5    0    0 -0.42998720767E+02 -0.12437392838E+03  0.74140512909E+02  0.17032073078E+03  0.78705600998E+02 0.  0.
          5    1    5    5  501    0 -0.12387597966E+03 -0.18029269333E+03  0.28060231965E+03  0.35582364367E+03  0.47000000000E+01 0. -1.
        -11    1    6    6    0    0 -0.47016630290E+02 -0.57881573795E+02  0.56598624231E+01  0.74785521002E+02  0.00000000000E+00 0.  1.
         12    1    6    6    0    0  0.40179095233E+01 -0.66492354589E+02  0.68480650486E+02  0.95535209774E+02  0.00000000000E+00 0. -1.
         -5    1    3    3    0  503  0.12689507728E+03  0.12134087458E+03  0.18011319311E+03  0.25157269489E+03  0.47000000000E+01 0.  1.
         13    1    4    4    0    0  0.55771182221E+02  0.98590488467E+02  0.81969937865E+02  0.13981981224E+03  0.00000000000E+00 0. -1.
        -14    1    4    4    0    0 -0.15791559069E+02  0.84735258661E+02  0.21119530200E+02  0.88743855866E+02  0.00000000000E+00 0.  1.
</event>
<event>
12    1  0.8488291E-002  0.1827486E+03  0.7818608E-02  0.1167062E+00
         21   -1    0    0  501  502  0.00000000000E+00  0.00000000000E+00  0.15876250772E+03  0.15876250772E+03  0.00000000000E+00 0.  1.
         21   -1    0    0  502  503 -0.00000000000E+00 -0.00000000000E+00 -0.46423135757E+03  0.46423135757E+03  0.00000000000E+00 0.  1.
         -6    2    1    2    0  503 -0.33865523437E+02  0.22925220808E+02 -0.38850233209E+03  0.42933800951E+03  0.17811407845E+03 0.  0.
        -24    2    3    3    0    0  0.13547690064E+02 -0.38650952594E+02 -0.28815073632E+03  0.30232552698E+03  0.81807343050E+02 0.  0.
          6    2    1    2  501    0  0.33865523437E+02 -0.22925220808E+02  0.83033482245E+02  0.19365585579E+03  0.17010464979E+03 0.  0.
         24    2    5    5    0    0 -0.15392698169E+02 -0.64097513664E+01  0.10765484692E+03  0.13597193493E+03  0.81368181468E+02 0.  0.
          5    1    5    5  501    0  0.49258221606E+02 -0.16515469442E+02 -0.24621364672E+02  0.57683920853E+02  0.47000000000E+01 0. -1.
        -13    1    6    6    0    0  0.10493445387E+02 -0.36309843358E+02  0.77545495890E+02  0.86265990133E+02  0.00000000000E+00 0.  1.
         14    1    6    6    0    0 -0.25886143555E+02  0.29900091992E+02  0.30109351026E+02  0.49705944800E+02  0.00000000000E+00 0. -1.
         -5    1    3    3    0  503 -0.47413213501E+02  0.61576173402E+02 -0.10035159576E+03  0.12701248253E+03  0.47000000000E+01 0.  1.
         13    1    4    4    0    0 -0.86147982759E+01 -0.44034566665E+02 -0.71062014957E+02  0.84042059592E+02  0.00000000000E+00 0. -1.
        -14    1    4    4    0    0  0.22162488340E+02  0.53836140713E+01 -0.21708872137E+03  0.21828346739E+03  0.00000000000E+00 0.  1.
</event>
<event>
12    1  0.8488291E-002  0.2165540E+03  0.7818608E-02  0.1137004E+00
         21   -1    0    0  501  502  0.00000000000E+00  0.00000000000E+00  0.12706750330E+03  0.12706750330E+03  0.00000000000E+00 0.  1.
         21   -1    0    0  502  503 -0.00000000000E+00 -0.00000000000E+00 -0.38685287416E+03  0.38685287416E+03  0.00000000000E+00 0.  1.
         -6    2    1    2    0  503 -0.59935658068E+01  0.13189184739E+03 -0.19102006537E+03  0.28671059983E+03  0.16817526702E+03 0.  0.
        -24    2    3    3    0    0 -0.44301694801E+02  0.11695274234E+03 -0.80852793895E+02  0.16902624525E+03  0.79950692309E+02 0.  0.
          6    2    1    2  501    0  0.59935658068E+01 -0.13189184739E+03 -0.68765305493E+02  0.22720977763E+03  0.17165148870E+03 0.  0.
         24    2    5    5    0    0 -0.37690193161E+02 -0.14810755694E+03 -0.39785941670E+02  0.17213606738E+03  0.68494565139E+02 0.  0.
          5    1    5    5  501    0  0.43683758968E+02  0.16215709550E+02 -0.28979363823E+02  0.55073710256E+02  0.47000000000E+01 0. -1.
        -13    1    6    6    0    0 -0.26860391445E+02 -0.14118734055E+03 -0.53487629032E+02  0.15335016211E+03  0.00000000000E+00 0.  1.
         14    1    6    6    0    0 -0.10829801715E+02 -0.69202163931E+01  0.13701687362E+02  0.18785905266E+02  0.00000000000E+00 0. -1.
         -5    1    3    3    0  503  0.38308128994E+02  0.14939105056E+02 -0.11016727148E+03  0.11768435458E+03  0.47000000000E+01 0.  1.
         11    1    4    4    0    0 -0.20533473583E+02  0.32431708095E+02  0.12981378410E+02  0.40521049008E+02  0.00000000000E+00 0. -1.
        -12    1    4    4    0    0 -0.23768221218E+02  0.84521034241E+02 -0.93834172304E+02  0.12850519624E+03  0.00000000000E+00 0.  1.
</event>
<event>
12    1  0.8488291E-002  0.2727315E+03  0.7818608E-02  0.1100000E+00
         21   -1    0    0  503  502  0.00000000000E+00  0.00000000000E+00  0.57626540621E+03  0.57626540621E+03  0.00000000000E+00 0. -1.
         21   -1    0    0  501  503 -0.00000000000E+00 -0.00000000000E+00 -0.13340626829E+03  0.13340626829E+03  0.00000000000E+00 0. -1.
          6    2    1    2  501    0 -0.15660711127E+03  0.14006532728E+03  0.29252432161E+03  0.39994119883E+03  0.17389192213E+03 0.  0.
         24    2    3    3    0    0 -0.10941296857E+03  0.93980744652E+01  0.16920669260E+03  0.21411723459E+03  0.71803647748E+02 0.  0.
         -6    2    1    2    0  502  0.15660711127E+03 -0.14006532728E+03  0.15033481631E+03  0.30973047567E+03  0.17084591702E+03 0.  0.
        -24    2    5    5    0    0  0.81548571250E+02 -0.34743174542E+02  0.11005978615E+02  0.11956960878E+03  0.79489006330E+02 0.  0.
          5    1    3    3  501    0 -0.47194142695E+02  0.13066725281E+03  0.12331762901E+03  0.18582396424E+03  0.47000000000E+01 0. -1.
        -13    1    4    4    0    0 -0.17597261307E+02 -0.22221137841E+02  0.15503047100E+02  0.32307693230E+02  0.00000000000E+00 0.  1.
         14    1    4    4    0    0 -0.91815707264E+02  0.31619212306E+02  0.15370364550E+03  0.18180954136E+03  0.00000000000E+00 0. -1.
         -5    1    5    5    0  502  0.75058540016E+02 -0.10532215273E+03  0.13932883770E+03  0.19016086690E+03  0.47000000000E+01 0.  1.
         13    1    6    6    0    0  0.11235904427E+02 -0.46223628089E+02  0.81955256146E+01  0.48270446260E+02  0.00000000000E+00 0. -1.
        -14    1    6    6    0    0  0.70312666823E+02  0.11480453547E+02  0.28104530009E+01  0.71299162516E+02  0.00000000000E+00 0.  1.
</event>
<event>
12    1  0.8488291E-002  0.1918254E+03  0.7818608E-02  0.1157306E+00
         21   -1    0    0  501  502  0.00000000000E+00  0.00000000000E+00  0.20004302052E+03  0.20004302052E+03  0.00000000000E+00 0. -1.
         21   -1    0    0  502  503 -0.00000000000E+00 -0.00000000000E+00 -0.31762012519E+03  0.31762012519E+03  0.00000000000E+00 0. -1.
         -6    2    1    2    0  503  0.43820368813E+02 -0.69764466733E+02 -0.22779618702E+03  0.29642746254E+03  0.17085324752E+03 0.  0.
        -24    2    3    3    0    0  0.37295794728E+02 -0.93796633646E+02 -0.23641052135E+03  0.26966159119E+03  0.81477937932E+02 0.  0.
          6    2    1    2  501    0 -0.43820368813E+02  0.69764466733E+02  0.11021908236E+03  0.22123568316E+03  0.17323301027E+03 0.  0.
         24    2    5    5    0    0 -0.16758876162E+02 -0.29689749958E+02  0.40115183405E+02  0.96495504187E+02  0.80869111568E+02 0.  0.
          5    1    5    5  501    0 -0.27061492651E+02  0.99454216691E+02  0.70103898950E+02  0.12474017897E+03  0.47000000000E+01 0. -1.
        -11    1    6    6    0    0 -0.49387149228E+02 -0.19521409660E+02  0.29283726197E+02  0.60644146988E+02  0.00000000000E+00 0.  1.
         12    1    6    6    0    0  0.32628273066E+02 -0.10168340298E+02  0.10831457209E+02  0.35851357198E+02  0.00000000000E+00 0. -1.
         -5    1    3    3    0  503  0.65245740851E+01  0.24032166913E+02  0.86143343289E+01  0.26765871356E+02  0.47000000000E+01 0.  1.
         11    1    4    4    0    0  0.42218279613E+02 -0.77079997229E+01 -0.66956699201E+02  0.79529843211E+02  0.00000000000E+00 0. -1.
        -12    1    4    4    0    0 -0.49224848849E+01 -0.86088633923E+02 -0.16945382215E+03  0.19013174798E+03  0.00000000000E+00 0.  1.
</event>
<event>
12    1  0.8488291E-002  0.1788357E+03  0.7818608E-02  0.1172134E+00
         21   -1    0    0  501  502  0.00000000000E+00  0.00000000000E+00  0.86504720330E+03  0.86504720330E+03  0.00000000000E+00 0. -1.
         21   -1    0    0  502  503 -0.00000000000E+00 -0.00000000000E+00 -0.25444137009E+03  0.25444137009E+03  0.00000000000E+00 0. -1.
         -6    2    1    2    0  503  0.48773874504E+02  0.23430020879E+01 -0.21667831842E+03  0.27309547353E+03  0.15889387495E+03 0.  0.
        -24    2    3    3    0    0  0.31791305129E+02 -0.39455803160E+02 -0.20547604913E+03  0.22637151159E+03  0.80350525862E+02 0.  0.
          6    2    1    2  501    0 -0.48773874504E+02 -0.23430020879E+01  0.82728415163E+03  0.84639309986E+03  0.17204020300E+03 0.  0.
         24    2    5    5    0    0 -0.41097393340E+02 -0.34657966257E+02  0.25155000534E+03  0.26968252905E+03  0.81000561257E+02 0.  0.
          5    1    5    5  501    0 -0.76764811638E+01  0.32314964169E+02  0.57573414630E+03  0.57671057081E+03  0.47000000000E+01 0. -1.
        -13    1    6    6    0    0 -0.71320182267E+01 -0.28313065306E+02  0.19584000536E+02  0.35157195963E+02  0.00000000000E+00 0.  1.
         14    1    6    6    0    0 -0.33965375114E+02 -0.63449009503E+01  0.23196600480E+03  0.23452533308E+03  0.00000000000E+00 0. -1.
         -5    1    3    3    0  503  0.16982569375E+02  0.41798805248E+02 -0.11202269292E+02  0.46723961947E+02  0.47000000000E+01 0.  1.
         11    1    4    4    0    0  0.32523231444E+02  0.16984128740E+02 -0.10357728302E+03  0.10988391497E+03  0.00000000000E+00 0. -1.
        -12    1    4    4    0    0 -0.73192631512E+00 -0.56439931900E+02 -0.10189876611E+03  0.11648759661E+03  0.00000000000E+00 0.  1.
</event>
<event>
12    1  0.8488291E-002  0.1756020E+03  0.7818608E-02  0.1172257E+00
         21   -1    0    0  503  502  0.00000000000E+00  0.00000000000E+00  0.12619762222E+03  0.12619762222E+03  0.00000000000E+00 0. -1.
         21   -1    0    0  501  503 -0.00000000000E+00 -0.00000000000E+00 -0.29948848656E+03  0.29948848656E+03  0.00000000000E+00 0. -1.
          6    2    1    2  501    0 -0.25763652156E+02  0.17659576383E+02 -0.17866658929E+03  0.25051510561E+03  0.17280174072E+03 0.  0.
         24    2    3    3    0    0 -0.22612115659E+02  0.77760232700E+02 -0.12873680777E+03  0.17217549777E+03  0.80704862277E+02 0.  0.
         -6    2    1    2    0  502  0.25763652156E+02 -0.17659576383E+02  0.53757249532E+01  0.17517100318E+03  0.17227987557E+03 0.  0.
        -24    2    5    5    0    0  0.64670198860E+02 -0.22056346392E+02  0.50888964749E+02  0.11494977802E+03  0.77168955525E+02 0.  0.
          5    1    3    3  501    0 -0.31515364966E+01 -0.60100656317E+02 -0.49929781529E+02  0.78339607834E+02  0.47000000000E+01 0. -1.
        -11    1    4    4    0    0 -0.13224358454E+02  0.70175085679E+02 -0.13904046169E+03  0.15630635398E+03  0.00000000000E+00 0.  1.
         12    1    4    4    0    0 -0.93877572051E+01  0.75851470212E+01  0.10303653923E+02  0.15869143797E+02  0.00000000000E+00 0. -1.
         -5    1    5    5    0  502 -0.38906546704E+02  0.43967700094E+01 -0.45513239795E+02  0.60221225159E+02  0.47000000000E+01 0.  1.
         13    1    6    6    0    0  0.70048575429E+02  0.94747960487E+01  0.30280538053E+02  0.76899191572E+02  0.00000000000E+00 0. -1.
        -14    1    6    6    0    0 -0.53783765681E+01 -0.31531142441E+02  0.20608426696E+02  0.38050586448E+02  0.00000000000E+00 0.  1.
</event>
<event>
12    1  0.8488291E-002  0.3483906E+03  0.7818608E-02  0.1063283E+00
         21   -1    0    0  503  502  0.00000000000E+00  0.00000000000E+00  0.12735224416E+04  0.12735224416E+04  0.00000000000E+00 0. -1.
         21   -1    0    0  501  503 -0.00000000000E+00 -0.00000000000E+00 -0.95400925994E+02  0.95400925994E+02  0.00000000000E+00 0.  1.
          6    2    1    2  501    0  0.23070507097E+03 -0.19542860274E+03  0.61192300702E+03  0.70412509114E+03  0.17298904275E+03 0.  0.
         24    2    3    3    0    0  0.66123076296E+02 -0.31032944884E+02  0.12752407776E+03  0.16674479939E+03  0.78779012611E+02 0.  0.
         -6    2    1    2    0  502 -0.23070507097E+03  0.19542860274E+03  0.56619850854E+03  0.66479827641E+03  0.17308618866E+03 0.  0.
        -24    2    5    5    0    0 -0.12897153558E+03  0.15418735139E+03  0.47535449088E+03  0.52223152509E+03  0.79727520234E+02 0.  0.
          5    1    3    3  501    0  0.16458199467E+03 -0.16439565786E+03  0.48439892926E+03  0.53738029175E+03  0.47000000000E+01 0. -1.
        -13    1    4    4    0    0  0.60378098508E+02 -0.52934216382E+02  0.76419519494E+02  0.11084894678E+03  0.00000000000E+00 0.  1.
         14    1    4    4    0    0  0.57449777881E+01  0.21901271498E+02  0.51104558266E+02  0.55895852606E+02  0.00000000000E+00 0. -1.
         -5    1    5    5    0  502 -0.10173353539E+03  0.41241251344E+02  0.90844017663E+02  0.14256675132E+03  0.47000000000E+01 0.  1.
         13    1    6    6    0    0 -0.19597580951E+02 -0.74582007207E+01  0.41393724916E+02  0.46401836165E+02  0.00000000000E+00 0. -1.
        -14    1    6    6    0    0 -0.10937395463E+03  0.16164555212E+03  0.43396076596E+03  0.47582968893E+03  0.00000000000E+00 0.  1.
</event>
<event>
12    1  0.8488291E-002  0.1728518E+03  0.7818608E-02  0.1175299E+00
         21   -1    0    0  503  502  0.00000000000E+00  0.00000000000E+00  0.21997126190E+03  0.21997126190E+03  0.00000000000E+00 0. -1.
         21   -1    0    0  501  503 -0.00000000000E+00 -0.00000000000E+00 -0.13751413099E+03  0.13751413099E+03  0.00000000000E+00 0. -1.
          6    2    1    2  501    0 -0.26913199667E+02  0.12092885588E+02  0.15499389834E+02  0.17354530101E+03  0.17031495008E+03 0.  0.
         24    2    3    3    0    0  0.18251760919E+02 -0.38960444245E+02  0.38660974546E+02  0.10140054959E+03  0.83284797599E+02 0.  0.
         -6    2    1    2    0  502  0.26913199667E+02 -0.12092885588E+02  0.66957741083E+02  0.18394009188E+03  0.16876036298E+03 0.  0.
        -24    2    5    5    0    0  0.31516862713E+02  0.73259201731E+01 -0.25065699252E+02  0.89660256805E+02  0.79772743652E+02 0.  0.
          5    1    3    3  501    0 -0.45164960586E+02  0.51053329833E+02 -0.23161584712E+02  0.72144751425E+02  0.47000000000E+01 0. -1.
        -13    1    4    4    0    0 -0.29947152498E+02 -0.26265271826E+02  0.32039801518E+02  0.51119911269E+02  0.00000000000E+00 0.  1.
         14    1    4    4    0    0  0.48198913417E+02 -0.12695172419E+02  0.66211730286E+01  0.50280638317E+02  0.00000000000E+00 0. -1.
         -5    1    5    5    0  502 -0.46036630466E+01 -0.19418805761E+02  0.92023440334E+02  0.94279835074E+02  0.47000000000E+01 0.  1.
         13    1    6    6    0    0 -0.19940161212E+02 -0.19126367626E+02 -0.32274680844E+01  0.27818061003E+02  0.00000000000E+00 0. -1.
        -14    1    6    6    0    0  0.51457023925E+02  0.26452287800E+02 -0.21838231167E+02  0.61842195802E+02  0.00000000000E+00 0.  1.
</event>
<event>
12    1  0.8488291E-002  0.1794023E+03  0.7818608E-02  0.1168597E+00
         21   -1    0    0  503  502  0.00000000000E+00  0.00000000000E+00  0.71140598039E+03  0.71140598039E+03  0.00000000000E+00 0. -1.
         21   -1    0    0  501  503 -0.00000000000E+00 -0.00000000000E+00 -0.79265592680E+02  0.79265592680E+02  0.00000000000E+00 0. -1.
          6    2    1    2  501    0 -0.33396061670E+02  0.14877315531E+02  0.56660061225E+02  0.18813705454E+03  0.17563757372E+03 0.  0.
         24    2    3    3    0    0 -0.67273616826E+02 -0.31552620279E+02  0.21607955537E+01  0.10879168517E+03  0.79433332780E+02 0.  0.
         -6    2    1    2    0  502  0.33396061670E+02 -0.14877315531E+02  0.57548032648E+03  0.60253451852E+03  0.17473868603E+03 0.  0.
        -24    2    5    5    0    0  0.54410051486E+02 -0.57405332388E+02  0.26543235040E+03  0.28884349624E+03  0.81978087290E+02 0.  0.
          5    1    3    3  501    0  0.33877555156E+02  0.46429935810E+02  0.54499265671E+02  0.79345369376E+02  0.47000000000E+01 0. -1.
        -13    1    4    4    0    0 -0.33997268842E+02 -0.36640743275E+02  0.35582468115E+02  0.61355280079E+02  0.00000000000E+00 0.  1.
         14    1    4    4    0    0 -0.33276347983E+02  0.50881229957E+01 -0.33421672562E+02  0.47436405087E+02  0.00000000000E+00 0. -1.
         -5    1    5    5    0  502 -0.21013989816E+02  0.42528016857E+02  0.31004797608E+03  0.31369102228E+03  0.47000000000E+01 0.  1.
         11    1    6    6    0    0  0.34227753326E+02 -0.22119232598E+02  0.23382870232E+03  0.23735345285E+03  0.00000000000E+00 0. -1.
        -12    1    6    6    0    0  0.20182298160E+02 -0.35286099790E+02  0.31603648075E+02  0.51490043397E+02  0.00000000000E+00 0.  1.
</event>
<event>
12    1  0.8488291E-002  0.1757286E+03  0.7818608E-02  0.1172180E+00
         21   -1    0    0  503  502  0.00000000000E+00  0.00000000000E+00  0.37652367389E+02  0.37652367389E+02  0.00000000000E+00 0.  1.
         21   -1    0    0  501  503 -0.00000000000E+00 -0.00000000000E+00 -0.81683467418E+03  0.81683467418E+03  0.00000000000E+00 0.  1.
          6    2    1    2  501    0 -0.21793708320E+02 -0.27843592924E+02 -0.38893298739E+03  0.42649748622E+03  0.17140888448E+03 0.  0.
         24    2    3    3    0    0 -0.26385208926E+02  0.41532884107E+02 -0.14208978467E+03  0.17000609421E+03  0.79318380277E+02 0.  0.
         -6    2    1    2    0  502  0.21793708320E+02  0.27843592924E+02 -0.39024931940E+03  0.42798955535E+03  0.17213453113E+03 0.  0.
        -24    2    5    5    0    0  0.64765299005E+02  0.48022919021E+02 -0.18498615828E+03  0.21725555686E+03  0.80494431634E+02 0.  0.
          5    1    3    3  501    0  0.45915006058E+01 -0.69376477031E+02 -0.24684320272E+03  0.25649139200E+03  0.47000000000E+01 0. -1.
        -11    1    4    4    0    0  0.72043699436E+01 -0.21080976707E+02 -0.32944813546E+02  0.39770230887E+02  0.00000000000E+00 0.  1.
         12    1    4    4    0    0 -0.33589578870E+02  0.62613860814E+02 -0.10914497112E+03  0.13023586333E+03  0.00000000000E+00 0. -1.
         -5    1    5    5    0  502 -0.42971590684E+02 -0.20179326097E+02 -0.20526316112E+03  0.21073399849E+03  0.47000000000E+01 0.  1.
         13    1    6    6    0    0  0.41849939189E+02 -0.44000722897E+01 -0.28993057865E+02  0.51101618865E+02  0.00000000000E+00 0. -1.
        -14    1    6    6    0    0  0.22915359816E+02  0.52422991311E+02 -0.15599310042E+03  0.16615393800E+03  0.00000000000E+00 0.  1.
</event>
<event>
12    1  0.8488291E-002  0.1824385E+03  0.7818608E-02  0.1165499E+00
         21   -1    0    0  503  502  0.00000000000E+00  0.00000000000E+00  0.15892711215E+03  0.15892711215E+03  0.00000000000E+00 0. -1.
         21   -1    0    0  501  503 -0.00000000000E+00 -0.00000000000E+00 -0.50850527630E+03  0.50850527630E+03  0.00000000000E+00 0. -1.
          6    2    1    2  501    0 -0.40993142175E+02  0.44386872396E+02 -0.43082235716E+03  0.46785865892E+03  0.17214293234E+03 0.  0.
         24    2    3    3    0    0  0.12947508506E+02  0.76588103788E+02 -0.20856177275E+03  0.23684270605E+03  0.81012830702E+02 0.  0.
         -6    2    1    2    0  502  0.40993142175E+02 -0.44386872396E+02  0.81244193008E+02  0.19957372952E+03  0.17198378549E+03 0.  0.
        -24    2    5    5    0    0  0.44509019522E+02  0.33055007541E+02  0.73119591290E+02  0.12148592436E+03  0.79615757520E+02 0.  0.
          5    1    3    3  501    0 -0.53940650681E+02 -0.32201231392E+02 -0.22226058441E+03  0.23101595287E+03  0.47000000000E+01 0. -1.
        -13    1    4    4    0    0  0.26028272994E+02  0.70771569330E+02 -0.20933898903E+03  0.22250595126E+03  0.00000000000E+00 0.  1.
         14    1    4    4    0    0 -0.13080764488E+02  0.58165344580E+01  0.77721627799E+00  0.14336754787E+02  0.00000000000E+00 0. -1.
         -5    1    5    5    0  502 -0.35158773466E+01 -0.77441879938E+02  0.81246017183E+01  0.78087805161E+02  0.47000000000E+01 0.  1.
         11    1    6    6    0    0 -0.12580283184E+02 -0.83726586831E+01  0.41538599447E+02  0.44202038216E+02  0.00000000000E+00 0. -1.
        -12    1    6    6    0    0  0.57089302705E+02  0.41427666225E+02  0.31580991842E+02  0.77283886147E+02  0.00000000000E+00 0.  1.
</event>
<event>
12    1  0.8488291E-002  0.2210160E+03  0.7818608E-02  0.1133562E+00
         21   -1    0    0  503  502  0.00000000000E+00  0.00000000000E+00  0.26065039123E+03  0.26065039123E+03  0.00000000000E+00 0. -1.
         21   -1    0    0  501  503 -0.00000000000E+00 -0.00000000000E+00 -0.31928169882E+03  0.31928169882E+03  0.00000000000E+00 0.  1.
          6    2    1    2  501    0  0.79124041151E+02 -0.11402497746E+03 -0.21714580013E+03  0.30983923731E+03  0.17200507285E+03 0.  0.
         24    2    3    3    0    0  0.10702878410E+03 -0.62648517123E+02 -0.20250608615E+03  0.24938572970E+03  0.76187465669E+02 0.  0.
         -6    2    1    2    0  502 -0.79124041151E+02  0.11402497746E+03  0.15851449254E+03  0.27009285275E+03  0.16899998635E+03 0.  0.
        -24    2    5    5    0    0 -0.48441022309E+02  0.14688546263E+03  0.12670724608E+03  0.21482034549E+03  0.78556876552E+02 0.  0.
          5    1    3    3  501    0 -0.27904742954E+02 -0.51376460342E+02 -0.14639713980E+02  0.60453507608E+02  0.47000000000E+01 0. -1.
        -11    1    4    4    0    0  0.97198526093E+02 -0.21583492667E+02 -0.11423863812E+03  0.15153833531E+03  0.00000000000E+00 0.  1.
         12    1    4    4    0    0  0.98302580122E+01 -0.41065024455E+02 -0.88267448032E+02  0.97847394386E+02  0.00000000000E+00 0. -1.
         -5    1    5    5    0  502 -0.30683018841E+02 -0.32860485166E+02  0.31807246468E+02  0.55272507257E+02  0.47000000000E+01 0.  1.
         13    1    6    6    0    0 -0.28385616479E+02  0.65736371279E+02  0.10731499869E+03  0.12900977744E+03  0.00000000000E+00 0. -1.
        -14    1    6    6    0    0 -0.20055405831E+02  0.81149091352E+02  0.19392247388E+02  0.85810568050E+02  0.00000000000E+00 0.  1.
</event>
<event>
12    1  0.8488291E-002  0.1911184E+03  0.7818608E-02  0.1157561E+00
         21   -1    0    0  503  502  0.00000000000E+00  0.00000000000E+00  0.46045660224E+03  0.46045660224E+03  0.00000000000E+00 0.  1.
         21   -1    0    0  501  503 -0.00000000000E+00 -0.00000000000E+00 -0.79372701035E+02  0.79372701035E+02  0.00000000000E+00 0.  1.
          6    2    1    2  501    0 -0.42601404638E+02  0.69758791251E+02  0.17595216911E+03  0.25977957448E+03  0.17275732364E+03 0.  0.
         24    2    3    3    0    0 -0.21566331197E+02  0.11238230533E+03  0.10935547593E+03  0.17782563736E+03  0.81045962237E+02 0.  0.
         -6    2    1    2    0  502  0.42601404638E+02 -0.69758791251E+02  0.20513173210E+03  0.28004972880E+03  0.17224300987E+03 0.  0.
        -24    2    5    5    0    0  0.66920457734E+02 -0.10452877283E+03  0.17730064910E+03  0.22908869326E+03  0.75109900769E+02 0.  0.
          5    1    3    3  501    0 -0.21035073441E+02 -0.42623514079E+02  0.66596693176E+02  0.81953937118E+02  0.47000000000E+01 0. -1.
        -13    1    4    4    0    0  0.23964876126E+02  0.34026738443E+02  0.64364890472E+02  0.76648374688E+02  0.00000000000E+00 0.  1.
         14    1    4    4    0    0 -0.45531207323E+02  0.78355566887E+02  0.44990585459E+02  0.10117726268E+03  0.00000000000E+00 0. -1.
         -5    1    5    5    0  502 -0.24319053096E+02  0.34769981579E+02  0.27831083003E+02  0.50961035543E+02  0.47000000000E+01 0.  1.
         13    1    6    6    0    0  0.53058498545E+02 -0.63620105313E+02  0.16426336811E+03  0.18397058507E+03  0.00000000000E+00 0. -1.
        -14    1    6    6    0    0  0.13861959190E+02 -0.40908667517E+02  0.13037280988E+02  0.45118108185E+02  0.00000000000E+00 0.  1.
</event>
<event>
12    1  0.8488291E-002  0.2316430E+03  0.7818608E-02  0.1125510E+00
         21   -1    0    0  503  502  0.00000000000E+00  0.00000000000E+00  0.41416124260E+03  0.41416124260E+03  0.00000000000E+00 0. -1.
         21   -1    0    0  501  503 -0.00000000000E+00 -0.00000000000E+00 -0.31588767703E+03  0.31588767703E+03  0.00000000000E+00 0. -1.
          6    2    1    2  501    0  0.73651634062E+02 -0.13675055103E+03 -0.23125657238E+03  0.32731950652E+03  0.17185220589E+03 0.  0.
         24    2    3    3    0    0 -0.11186315466E+02 -0.95163989960E+02 -0.17957279146E+03  0.21952236856E+03  0.82233595483E+02 0.  0.
         -6    2    1    2    0  502 -0.73651634062E+02  0.13675055103E+03  0.32953013795E+03  0.40272941311E+03  0.17168457113E+03 0.  0.
        -24    2    5    5    0    0 -0.33442619826E+02  0.14655859232E+03  0.31677202864E+03  0.35916541591E+03  0.77829609062E+02 0.  0.
          5    1    3    3  501    0  0.84837949528E+02 -0.41586561073E+02 -0.51683780923E+02  0.10779713796E+03  0.47000000000E+01 0. -1.
        -13    1    4    4    0    0 -0.19015718633E+02 -0.10589299033E+03 -0.17509266787E+03  0.20550514665E+03  0.00000000000E+00 0.  1.
         14    1    4    4    0    0  0.78294031669E+01  0.10729000366E+02 -0.44801235873E+01  0.14017221913E+02  0.00000000000E+00 0. -1.
         -5    1    5    5    0  502 -0.40209014236E+02 -0.98080412882E+01  0.12758109303E+02  0.43563997208E+02  0.47000000000E+01 0.  1.
         13    1    6    6    0    0 -0.29697619016E+02  0.10490406586E+03  0.28920883585E+03  0.30907695214E+03  0.00000000000E+00 0. -1.
        -14    1    6    6    0    0 -0.37450008096E+01  0.41654526457E+02  0.27563192796E+02  0.50088463767E+02  0.00000000000E+00 0.  1.
</event>
<event>
12    1  0.8488291E-002  0.1988835E+03  0.7818608E-02  0.1152344E+00
         21   -1    0    0  501  502  0.00000000000E+00  0.00000000000E+00  0.13482706019E+03  0.13482706019E+03  0.00000000000E+00 0. -1.
         21   -1    0    0  502  503 -0.00000000000E+00 -0.00000000000E+00 -0.42859014334E+03  0.42859014334E+03  0.00000000000E+00 0. -1.
         -6    2    1    2    0  503 -0.47484030834E+02  0.86543049938E+02 -0.31339672559E+03  0.37117671631E+03  0.17265634782E+03 0.  0.
        -24    2    3    3    0    0 -0.86340205112E+02  0.98341594075E+02 -0.27600637578E+03  0.31577693127E+03  0.80061543255E+02 0.  0.
          6    2    1    2  501    0  0.47484030834E+02 -0.86543049938E+02  0.19633642437E+02  0.19224048722E+03  0.16378794929E+03 0.  0.
         24    2    5    5    0    0  0.19230230335E+02 -0.98826758040E+02  0.60436336541E+02  0.14089736135E+03  0.77865177060E+02 0.  0.
          5    1    5    5  501    0  0.28253800499E+02  0.12283708102E+02 -0.40802694103E+02  0.51343125864E+02  0.47000000000E+01 0. -1.
        -11    1    6    6    0    0 -0.59074376252E+01  0.12082280465E+02  0.82022667400E+01  0.15752983851E+02  0.00000000000E+00 0.  1.
         12    1    6    6    0    0  0.25137667960E+02 -0.11090903851E+03  0.52234069801E+02  0.12514437750E+03  0.00000000000E+00 0. -1.
         -5    1    3    3    0  503  0.38856174278E+02 -0.11798544137E+02 -0.37390349817E+02  0.55399785042E+02  0.47000000000E+01 0.  1.
         13    1    4    4    0    0 -0.16284460892E+02  0.16710484159E+02 -0.14215556900E+03  0.14405773060E+03  0.00000000000E+00 0. -1.
        -14    1    4    4    0    0 -0.70055744220E+02  0.81631109917E+02 -0.13385080678E+03  0.17171920067E+03  0.00000000000E+00 0.  1.
</event>
<event>
12    1  0.8488291E-002  0.1846861E+03  0.7818608E-02  0.1163644E+00
         21   -1    0    0  501  502  0.00000000000E+00  0.00000000000E+00  0.21339270207E+03  0.21339270207E+03  0.00000000000E+00 0. -1.
         21   -1    0    0  502  503 -0.00000000000E+00 -0.00000000000E+00 -0.25711861751E+03  0.25711861751E+03  0.00000000000E+00 0. -1.
         -6    2    1    2    0  503  0.42324583114E+02  0.52145623390E+02 -0.16743395571E+03  0.24928518423E+03  0.17204196341E+03 0.  0.
        -24    2    3    3    0    0 -0.15661280946E+02  0.24970020805E+02 -0.12604708700E+02  0.81669374898E+02  0.75114781867E+02 0.  0.
          6    2    1    2  501    0 -0.42324583114E+02 -0.52145623390E+02  0.12370804028E+03  0.22122613535E+03  0.17066571816E+03 0.  0.
         24    2    5    5    0    0 -0.12872999333E+01 -0.70948440912E+02  0.13719578432E+03  0.17388045131E+03  0.79852299305E+02 0.  0.
          5    1    5    5  501    0 -0.41037283181E+02  0.18802817522E+02 -0.13487744040E+02  0.47345684037E+02  0.47000000000E+01 0. -1.
        -13    1    6    6    0    0  0.25397780874E+02 -0.41303442554E+00  0.63693653717E+02  0.68571855703E+02  0.00000000000E+00 0.  1.
         14    1    6    6    0    0 -0.26685080807E+02 -0.70535406486E+02  0.73502130601E+02  0.10530859561E+03  0.00000000000E+00 0. -1.
         -5    1    3    3    0  503  0.57985864060E+02  0.27175602586E+02 -0.15482924701E+03  0.16761580933E+03  0.47000000000E+01 0.  1.
         11    1    4    4    0    0 -0.20041285748E+02  0.19916075805E+02 -0.42500184952E+02  0.51034977524E+02  0.00000000000E+00 0. -1.
        -12    1    4    4    0    0  0.43800048023E+01  0.50539449997E+01  0.29895476252E+02  0.30634397374E+02  0.00000000000E+00 0.  1.
</event>
<event>
12    1  0.8488291E-002  0.1903772E+03  0.7818608E-02  0.1158534E+00
         21   -1    0    0  503  502  0.00000000000E+00  0.00000000000E+00  0.49749560671E+03  0.49749560671E+03  0.00000000000E+00 0.  1.
         21   -1    0    0  501  503 -0.00000000000E+00 -0.00000000000E+00 -0.72966992864E+02  0.72966992864E+02  0.00000000000E+00 0.  1.
          6    2    1    2  501    0 -0.24572548277E+02 -0.76889421105E+02  0.24134866314E+03  0.30626880225E+03  0.17039838269E+03 0.  0.
         24    2    3    3    0    0 -0.95039195461E+01 -0.11067874956E+03  0.12673832236E+03  0.18574327590E+03  0.78088744989E+02 0.  0.
         -6    2    1    2    0  502  0.24572548277E+02  0.76889421105E+02  0.18317995070E+03  0.26419379732E+03  0.17241715401E+03 0.  0.
        -24    2    5    5    0    0 -0.16696929039E+02  0.10996695132E+03  0.12747131234E+03  0.18723383922E+03  0.80225041341E+02 0.  0.
          5    1    3    3  501    0 -0.15068628731E+02  0.33789328457E+02  0.11461034078E+03  0.12052552635E+03  0.47000000000E+01 0. -1.
        -11    1    4    4    0    0  0.20256991655E+02 -0.96914486379E+02  0.73859592767E+02  0.12352328859E+03  0.00000000000E+00 0.  1.
         12    1    4    4    0    0 -0.29760911201E+02 -0.13764263184E+02  0.52878729595E+02  0.62219987304E+02  0.00000000000E+00 0. -1.
         -5    1    5    5    0  502  0.41269477316E+02 -0.33077530211E+02  0.55708638361E+02  0.76959958100E+02  0.47000000000E+01 0.  1.
         11    1    6    6    0    0 -0.15448693087E+02  0.61479477267E+01  0.62684449525E+02  0.64852136369E+02  0.00000000000E+00 0. -1.
        -12    1    6    6    0    0 -0.12482359520E+01  0.10381900359E+03  0.64786862816E+02  0.12238170285E+03  0.00000000000E+00 0.  1.
</event>
<event>
12    1  0.8488291E-002  0.1752808E+03  0.7818608E-02  0.1172518E+00
         21   -1    0    0  501  502  0.00000000000E+00  0.00000000000E+00  0.27234347570E+03  0.27234347570E+03  0.00000000000E+00 0.  1.
         21   -1    0    0  502  503 -0.00000000000E+00 -0.00000000000E+00 -0.28569412364E+03  0.28569412364E+03  0.00000000000E+00 0.  1.
         -6    2    1    2    0  503 -0.20278415876E+02 -0.25637544319E+02 -0.22383624866E+03  0.28429919772E+03  0.17220589358E+03 0.  0.
        -24    2    3    3    0    0 -0.38896054036E+01  0.41943339155E+02 -0.64021440927E+02  0.10994716392E+03  0.78836928063E+02 0.  0.
          6    2    1    2  501    0  0.20278415876E+02  0.25637544319E+02  0.21048560072E+03  0.27373840162E+03  0.17193029570E+03 0.  0.
         24    2    5    5    0    0 -0.40110223211E+02  0.58442985740E+02  0.12753409265E+03  0.16591434397E+03  0.78982353453E+02 0.  0.
          5    1    5    5  501    0  0.60388639086E+02 -0.32805441421E+02  0.82951508069E+02  0.10782405765E+03  0.47000000000E+01 0. -1.
        -11    1    6    6    0    0  0.24080187259E+02  0.12105167946E+02  0.33141665586E+02  0.42717215584E+02  0.00000000000E+00 0.  1.
         12    1    6    6    0    0 -0.64190410470E+02  0.46337817794E+02  0.94392427069E+02  0.12319712838E+03  0.00000000000E+00 0. -1.
         -5    1    3    3    0  503 -0.16388810472E+02 -0.67580883474E+02 -0.15981480773E+03  0.17435203380E+03  0.47000000000E+01 0.  1.
         11    1    4    4    0    0  0.16434493813E+01  0.59581560986E+02 -0.68626015784E+02  0.90896608175E+02  0.00000000000E+00 0. -1.
        -12    1    4    4    0    0 -0.55330547849E+01 -0.17638221831E+02  0.46045748570E+01  0.19050555746E+02  0.00000000000E+00 0.  1.
</event>
<event>
12    1  0.8488291E-002  0.2136948E+03  0.7818608E-02  0.1138931E+00
         21   -1    0    0  503  502  0.00000000000E+00  0.00000000000E+00  0.71439834626E+03  0.71439834626E+03  0.00000000000E+00 0.  1.
         21   -1    0    0  501  503 -0.00000000000E+00 -0.00000000000E+00 -0.67937441769E+02  0.67937441769E+02  0.00000000000E+00 0.  1.
          6    2    1    2  501    0 -0.11724411331E+03 -0.44268884647E+02  0.22448277183E+03  0.30993225546E+03  0.17308833546E+03 0.  0.
         24    2    3    3    0    0 -0.14797796343E+03 -0.19491977117E+02  0.15932613299E+03  0.23360439505E+03  0.83119082649E+02 0.  0.
         -6    2    1    2    0  502  0.11724411331E+03  0.44268884647E+02  0.42197813266E+03  0.47240353257E+03  0.17144572577E+03 0.  0.
        -24    2    5    5    0    0  0.84166357810E+02 -0.34227642667E+02  0.29876048548E+03  0.32253518605E+03  0.80719336296E+02 0.  0.
          5    1    3    3  501    0  0.30733850122E+02 -0.24776907530E+02  0.65156638845E+02  0.76327860415E+02  0.47000000000E+01 0. -1.
        -11    1    4    4    0    0 -0.10267066661E+03 -0.48115306069E+02  0.83780877747E+02  0.14098079280E+03  0.00000000000E+00 0.  1.
         12    1    4    4    0    0 -0.45307296814E+02  0.28623328951E+02  0.75545255239E+02  0.92623602251E+02  0.00000000000E+00 0. -1.
         -5    1    5    5    0  502  0.33077755497E+02  0.78496527314E+02  0.12321764719E+03  0.14986834652E+03  0.47000000000E+01 0.  1.
         13    1    6    6    0    0  0.75789701573E+02 -0.10104917466E+02  0.28153431811E+03  0.29173234393E+03  0.00000000000E+00 0. -1.
        -14    1    6    6    0    0  0.83766562376E+01 -0.24122725201E+02  0.17226167366E+02  0.30802842125E+02  0.00000000000E+00 0.  1.
</event>
<event>
12    1  0.8488291E-002  0.2013891E+03  0.7818608E-02  0.1148749E+00
         21   -1    0    0  501  502  0.00000000000E+00  0.00000000000E+00  0.12345177489E+03  0.12345177489E+03  0.00000000000E+00 0.  1.
         21   -1    0    0  502  503 -0.00000000000E+00 -0.00000000000E+00 -0.10525202952E+04  0.10525202952E+04  0.00000000000E+00 0.  1.
         -6    2    1    2    0  503 -0.52329534295E+02  0.88689902353E+02 -0.95235444901E+03  0.97324119444E+03  0.17209051996E+03 0.  0.
        -24    2    3    3    0    0  0.39091861366E+02  0.33100853305E+02 -0.51090194175E+03  0.51898309586E+03  0.75490526478E+02 0.  0.
          6    2    1    2  501    0  0.52329534295E+02 -0.88689902353E+02  0.23285928730E+02  0.20273087563E+03  0.17307020112E+03 0.  0.
         24    2    5    5    0    0  0.17654744357E+02 -0.28418308493E+02  0.78367275502E+02  0.11389928864E+03  0.75579943292E+02 0.  0.
          5    1    5    5  501    0  0.34674789938E+02 -0.60271593860E+02 -0.55081346771E+02  0.88831586982E+02  0.47000000000E+01 0. -1.
        -13    1    6    6    0    0 -0.25061983300E+02 -0.30806013908E+02  0.41240244781E+02  0.57252696787E+02  0.00000000000E+00 0.  1.
         14    1    6    6    0    0  0.42716727657E+02  0.23877054141E+01  0.37127030721E+02  0.56646591857E+02  0.00000000000E+00 0. -1.
         -5    1    3    3    0  503 -0.91421395661E+02  0.55589049048E+02 -0.44145250726E+03  0.45425809858E+03  0.47000000000E+01 0.  1.
         11    1    4    4    0    0  0.20698466075E+02  0.16880164458E+02 -0.44240714884E+02  0.51677918915E+02  0.00000000000E+00 0. -1.
        -12    1    4    4    0    0  0.18393395291E+02  0.16220688847E+02 -0.46666122687E+03  0.46730517695E+03  0.00000000000E+00 0.  1.
</event>
<event>
12    1  0.8488291E-002  0.2096552E+03  0.7818608E-02  0.1142616E+00
         21   -1    0    0  501  502  0.00000000000E+00  0.00000000000E+00  0.14745552966E+03  0.14745552966E+03  0.00000000000E+00 0.  1.
         21   -1    0    0  502  503 -0.00000000000E+00 -0.00000000000E+00 -0.30900111023E+03  0.30900111023E+03  0.00000000000E+00 0. -1.
         -6    2    1    2    0  503  0.93739763326E+02  0.62136526997E+02 -0.13405657569E+03  0.24885027768E+03  0.17693841866E+03 0.  0.
        -24    2    3    3    0    0  0.89016122491E+02 -0.21421190249E+02 -0.60508262857E+02  0.13733503560E+03  0.82564669652E+02 0.  0.
          6    2    1    2  501    0 -0.93739763326E+02 -0.62136526997E+02 -0.27489004881E+02  0.20760636221E+03  0.17232720338E+03 0.  0.
         24    2    5    5    0    0 -0.23904888107E+02 -0.14432841206E+02 -0.70296192656E+02  0.11270063657E+03  0.83547161535E+02 0.  0.
          5    1    5    5  501    0 -0.69834875220E+02 -0.47703685791E+02  0.42807187774E+02  0.94905725644E+02  0.47000000000E+01 0. -1.
        -11    1    6    6    0    0  0.85957206709E+01  0.14423075221E+01  0.16504843125E+02  0.18664846943E+02  0.00000000000E+00 0.  1.
         12    1    6    6    0    0 -0.32500608778E+02 -0.15875148729E+02 -0.86801035780E+02  0.94035789626E+02  0.00000000000E+00 0. -1.
         -5    1    3    3    0  503  0.47236408356E+01  0.83557717246E+02 -0.73548312837E+02  0.11151524208E+03  0.47000000000E+01 0.  1.
         13    1    4    4    0    0  0.12679258272E+02  0.20851717390E+02 -0.41322520029E+02  0.47990711289E+02  0.00000000000E+00 0. -1.
        -14    1    4    4    0    0  0.76336864219E+02 -0.42272907639E+02 -0.19185742827E+02  0.89344324313E+02  0.00000000000E+00 0.  1.
</event>
<event>
12    1  0.8488291E-002  0.1786418E+03  0.7818608E-02  0.1169324E+00
         21   -1    0    0  501  502  0.00000000000E+00  0.00000000000E+00  0.52562450607E+03  0.52562450607E+03  0.00000000000E+00 0.  1.
         21   -1    0    0  502  503 -0.00000000000E+00 -0.00000000000E+00 -0.11547491984E+03  0.11547491984E+03  0.00000000000E+00 0.  1.
         -6    2    1    2    0  503 -0.24396028787E+02  0.42945840460E+02 -0.15979750366E+02  0.17935510792E+03  0.17167816076E+03 0.  0.
        -24    2    3    3    0    0  0.35712620096E+02 -0.23884532693E+02 -0.50942982845E+01  0.88691269960E+02  0.77423041506E+02 0.  0.
          6    2    1    2  501    0  0.24396028787E+02 -0.42945840460E+02  0.42612933660E+03  0.46174431799E+03  0.17082766829E+03 0.  0.
         24    2    5    5    0    0  0.31836078844E+02  0.38616877144E+02  0.18451388447E+03  0.20658172678E+03  0.78267727445E+02 0.  0.
          5    1    5    5  501    0 -0.74400500563E+01 -0.81562717604E+02  0.24161545213E+03  0.25516259122E+03  0.47000000000E+01 0. -1.
        -11    1    6    6    0    0 -0.12332010779E+01 -0.22006062789E+02  0.29000180277E+02  0.36425239059E+02  0.00000000000E+00 0.  1.
         12    1    6    6    0    0  0.33069279922E+02  0.60622939934E+02  0.15551370419E+03  0.17015648772E+03  0.00000000000E+00 0. -1.
         -5    1    3    3    0  503 -0.60108648883E+02  0.66830373152E+02 -0.10885452082E+02  0.90663837958E+02  0.47000000000E+01 0.  1.
         13    1    4    4    0    0  0.52349730931E+02  0.51851015828E+01  0.70236769883E+01  0.53072701508E+02  0.00000000000E+00 0. -1.
        -14    1    4    4    0    0 -0.16637110835E+02 -0.29069634276E+02 -0.12117975273E+02  0.35618568452E+02  0.00000000000E+00 0.  1.
</event>
<event>
12    1  0.8488291E-002  0.1762695E+03  0.7818608E-02  0.1171651E+00
         21   -1    0    0  501  502  0.00000000000E+00  0.00000000000E+00  0.22316731288E+02  0.22316731288E+02  0.00000000000E+00 0.  1.
         21   -1    0    0  502  503 -0.00000000000E+00 -0.00000000000E+00 -0.17356745989E+04  0.17356745989E+04  0.00000000000E+00 0.  1.
         -6    2    1    2    0  503 -0.29602667290E+02 -0.17392632261E+02 -0.12495670851E+04  0.12618332815E+04  0.17212352707E+03 0.  0.
        -24    2    3    3    0    0  0.95853623794E+01 -0.69268089804E+02 -0.63215213797E+03  0.64098702702E+03  0.79737668821E+02 0.  0.
          6    2    1    2  501    0  0.29602667290E+02  0.17392632261E+02 -0.46379078245E+03  0.49615804863E+03  0.17289331324E+03 0.  0.
         24    2    5    5    0    0 -0.36519810793E+02  0.12349334395E+02 -0.14248515808E+03  0.16804676992E+03  0.80321192517E+02 0.  0.
          5    1    5    5  501    0  0.66122478082E+02  0.50432978662E+01 -0.32130562438E+03  0.32811127871E+03  0.47000000000E+01 0. -1.
        -11    1    6    6    0    0 -0.44230507085E+02  0.39450743368E+02 -0.11072237620E+03  0.12558719481E+03  0.00000000000E+00 0.  1.
         12    1    6    6    0    0  0.77106962924E+01 -0.27101408973E+02 -0.31762781877E+02  0.42459575106E+02  0.00000000000E+00 0. -1.
         -5    1    3    3    0  503 -0.39188029669E+02  0.51875457543E+02 -0.61741494716E+03  0.62084625451E+03  0.47000000000E+01 0.  1.
         13    1    4    4    0    0  0.56258489935E+01 -0.53458274293E+02 -0.61493260804E+03  0.61727753053E+03  0.00000000000E+00 0. -1.
        -14    1    4    4    0    0  0.39595133858E+01 -0.15809815511E+02 -0.17219529934E+02  0.23709496492E+02  0.00000000000E+00 0.  1.
</event>
<event>
12    1  0.8488291E-002  0.1858379E+03  0.7818608E-02  0.1162298E+00
         21   -1    0    0  501  502  0.00000000000E+00  0.00000000000E+00  0.30120798988E+03  0.30120798988E+03  0.00000000000E+00 0.  1.
         21   -1    0    0  502  503 -0.00000000000E+00 -0.00000000000E+00 -0.16868348754E+03  0.16868348754E+03  0.00000000000E+00 0.  1.
         -6    2    1    2    0  503 -0.65087549304E+02  0.19738029992E+02 -0.66806732687E+02  0.19736869356E+03  0.17281574802E+03 0.  0.
        -24    2    3    3    0    0  0.27033049589E+02  0.34373474055E+02 -0.81319181734E+01  0.87072615567E+02  0.74854464127E+02 0.  0.
          6    2    1    2  501    0  0.65087549304E+02 -0.19738029992E+02  0.19933123503E+03  0.27252278386E+03  0.17294434817E+03 0.  0.
         24    2    5    5    0    0 -0.53761840177E+01 -0.62210320736E+02  0.13077002706E+03  0.16532314565E+03  0.79573331908E+02 0.  0.
          5    1    5    5  501    0  0.70463733322E+02  0.42472290744E+02  0.68561207972E+02  0.10719963821E+03  0.47000000000E+01 0. -1.
        -11    1    6    6    0    0  0.36859724135E+02 -0.33517585310E+02  0.70593627150E+02  0.86403286874E+02  0.00000000000E+00 0.  1.
         12    1    6    6    0    0 -0.42235908153E+02 -0.28692735426E+02  0.60176399906E+02  0.78919858777E+02  0.00000000000E+00 0. -1.
         -5    1    3    3    0  503 -0.92120598893E+02 -0.14635444063E+02 -0.58674814514E+02  0.11029607800E+03  0.47000000000E+01 0.  1.
         11    1    4    4    0    0  0.44442411729E+01 -0.23798903875E+02 -0.39293026966E+01  0.24527097769E+02  0.00000000000E+00 0. -1.
        -12    1    4    4    0    0  0.22588808416E+02  0.58172377931E+02 -0.42026154768E+01  0.62545517798E+02  0.00000000000E+00 0.  1.
</event>
<event>
12    1  0.8488291E-002  0.1785558E+03  0.7818608E-02  0.1169289E+00
         21   -1    0    0  501  502  0.00000000000E+00  0.00000000000E+00  0.39935447232E+03  0.39935447232E+03  0.00000000000E+00 0. -1.
         21   -1    0    0  502  503 -0.00000000000E+00 -0.00000000000E+00 -0.87943023696E+02  0.87943023696E+02  0.00000000000E+00 0.  1.
         -6    2    1    2    0  503 -0.17076098122E+01  0.45229711964E+02  0.23022913762E+03  0.29115283508E+03  0.17238293069E+03 0.  0.
        -24    2    3    3    0    0 -0.26925851571E+02  0.87845216961E+02  0.19731369560E+03  0.23150757285E+03  0.78875079647E+02 0.  0.
          6    2    1    2  501    0  0.17076098122E+01 -0.45229711964E+02  0.81182311005E+02  0.19614466094E+03  0.17272381891E+03 0.  0.
         24    2    5    5    0    0 -0.60174795175E+02 -0.38467493917E+02  0.82346683566E+02  0.13370584766E+03  0.77430764825E+02 0.  0.
          5    1    5    5  501    0  0.61882404987E+02 -0.67622180464E+01 -0.11643725609E+01  0.62438813276E+02  0.47000000000E+01 0. -1.
        -13    1    6    6    0    0  0.32230457520E+01 -0.38058153638E+01 -0.13086931027E+02  0.14004999757E+02  0.00000000000E+00 0.  1.
         14    1    6    6    0    0 -0.63397840927E+02 -0.34661678553E+02  0.95433614593E+02  0.11970084790E+03  0.00000000000E+00 0. -1.
         -5    1    3    3    0  503  0.25218241759E+02 -0.42615504997E+02  0.32915442021E+02  0.59645262234E+02  0.47000000000E+01 0.  1.
         13    1    4    4    0    0  0.16858835679E+02  0.59118497089E+02  0.14496935805E+03  0.15746533527E+03  0.00000000000E+00 0. -1.
        -14    1    4    4    0    0 -0.43784687250E+02  0.28726719871E+02  0.52344337554E+02  0.74042237582E+02  0.00000000000E+00 0.  1.
</event>
<event>
12    1  0.8488291E-002  0.1889569E+03  0.7818608E-02  0.1160213E+00
         21   -1    0    0  503  502  0.00000000000E+00  0.00000000000E+00  0.20620133828E+04  0.20620133828E+04  0.00000000000E+00 0.  1.
         21   -1    0    0  501  503 -0.00000000000E+00 -0.00000000000E+00 -0.55040631716E+02  0.55040631716E+02  0.00000000000E+00 0.  1.
          6    2    1    2  501    0  0.43106368619E+02 -0.51791881196E+02  0.12634352801E+03  0.22730462100E+03  0.17653369561E+03 0.  0.
         24    2    3    3    0    0  0.73971256381E+02 -0.53639911569E+02  0.28222692844E+02  0.12431993861E+03  0.79435129899E+02 0.  0.
         -6    2    1    2    0  502 -0.43106368619E+02  0.51791881196E+02  0.18806292231E+04  0.18897493935E+04  0.17275976855E+03 0.  0.
        -24    2    5    5    0    0 -0.66320246291E+02  0.35451316468E+02  0.67981445431E+03  0.68858991324E+03  0.79706997296E+02 0.  0.
          5    1    3    3  501    0 -0.30864887762E+02  0.18480303728E+01  0.98120835168E+02  0.10298468239E+03  0.47000000000E+01 0. -1.
        -11    1    4    4    0    0  0.20354365341E+02 -0.46722166706E+02 -0.17118768804E+02  0.53761634048E+02  0.00000000000E+00 0.  1.
         12    1    4    4    0    0  0.53616891041E+02 -0.69177448624E+01  0.45341461649E+02  0.70558304566E+02  0.00000000000E+00 0. -1.
         -5    1    5    5    0  502  0.23213877672E+02  0.16340564729E+02  0.12008147687E+04  0.12011594803E+04  0.47000000000E+01 0.  1.
         11    1    6    6    0    0  0.14741163045E+02  0.38956915622E+00  0.38586743930E+02  0.41308479265E+02  0.00000000000E+00 0. -1.
        -12    1    6    6    0    0 -0.81061409336E+02  0.35061747311E+02  0.64122771038E+03  0.64728143398E+03  0.00000000000E+00 0.  1.
</event>
<event>
12    1  0.8488291E-002  0.2041372E+03  0.7818608E-02  0.1146428E+00
         21   -1    0    0  501  502  0.00000000000E+00  0.00000000000E+00  0.19473074485E+03  0.19473074485E+03  0.00000000000E+00 0.  1.
         21   -1    0    0  502  503 -0.00000000000E+00 -0.00000000000E+00 -0.39421064891E+03  0.39421064891E+03  0.00000000000E+00 0. -1.
         -6    2    1    2    0  503 -0.80800423613E+01 -0.11011286766E+03 -0.29930138537E+03  0.36228901829E+03  0.17170289100E+03 0.  0.
        -24    2    3    3    0    0  0.97908466901E+01  0.98763633968E+01 -0.11974791830E+03  0.14554418725E+03  0.81548410602E+02 0.  0.
          6    2    1    2  501    0  0.80800423613E+01  0.11011286766E+03  0.99821481312E+02  0.22665237548E+03  0.17092934350E+03 0.  0.
         24    2    5    5    0    0 -0.43377486973E+02  0.10815090101E+03  0.10325283149E+03  0.17482968930E+03  0.79536465127E+02 0.  0.
          5    1    5    5  501    0  0.51457529334E+02  0.19619666525E+01 -0.34313501801E+01  0.51822686175E+02  0.47000000000E+01 0. -1.
        -11    1    6    6    0    0 -0.92076977187E+00  0.19008427950E+02  0.66995972014E+02  0.69646453005E+02  0.00000000000E+00 0.  1.
         12    1    6    6    0    0 -0.42456717201E+02  0.89142473059E+02  0.36256859479E+02  0.10518323630E+03  0.00000000000E+00 0. -1.
         -5    1    3    3    0  503 -0.17870889051E+02 -0.11998923106E+03 -0.17955346707E+03  0.21674483104E+03  0.47000000000E+01 0.  1.
         11    1    4    4    0    0 -0.39372055096E+01  0.17398094603E+02 -0.12703234620E+03  0.12827865085E+03  0.00000000000E+00 0. -1.
        -12    1    4    4    0    0  0.13728052200E+02 -0.75217312057E+01  0.72844278939E+01  0.17265536403E+02  0.00000000000E+00 0.  1.
</event>
<event>
12    1  0.8488291E-002  0.2000809E+03  0.7818608E-02  0.1150762E+00
         21   -1    0    0  501  502  0.00000000000E+00  0.00000000000E+00  0.32236282619E+03  0.32236282619E+03  0.00000000000E+00 0.  1.
         21   -1    0    0  502  503 -0.00000000000E+00 -0.00000000000E+00 -0.18091027904E+03  0.18091027904E+03  0.00000000000E+00 0.  1.
         -6    2    1    2    0  503  0.79027238481E+00  0.10125590909E+03 -0.74640966002E+02  0.20877562794E+03  0.16662114319E+03 0.  0.
        -24    2    3    3    0    0 -0.44331895176E+02  0.10281242504E+03 -0.21482968904E+02  0.13887358646E+03  0.79300967149E+02 0.  0.
          6    2    1    2  501    0 -0.79027238481E+00 -0.10125590909E+03  0.21609351315E+03  0.29449747729E+03  0.17256585423E+03 0.  0.
         24    2    5    5    0    0  0.58315087185E+01 -0.35669095436E+02  0.24807464040E+02  0.92116844086E+02  0.81017355111E+02 0.  0.
          5    1    5    5  501    0 -0.66217811033E+01 -0.65586813658E+02  0.19128604911E+03  0.20238063320E+03  0.47000000000E+01 0. -1.
        -13    1    6    6    0    0  0.20273496000E+02 -0.28934717509E+02  0.50650929783E+02  0.61755560116E+02  0.00000000000E+00 0.  1.
         14    1    6    6    0    0 -0.14441987281E+02 -0.67343779269E+01 -0.25843465743E+02  0.30361283970E+02  0.00000000000E+00 0. -1.
         -5    1    3    3    0  503  0.45122167561E+02 -0.15565159452E+01 -0.53157997098E+02  0.69902041478E+02  0.47000000000E+01 0.  1.
         13    1    4    4    0    0  0.13684727678E+02  0.12647268035E+02  0.16737180037E+02  0.25047122708E+02  0.00000000000E+00 0. -1.
        -14    1    4    4    0    0 -0.58016622854E+02  0.90165157004E+02 -0.38220148941E+02  0.11382646375E+03  0.00000000000E+00 0.  1.
</event>
<event>
12    1  0.8488291E-002  0.1780521E+03  0.7818608E-02  0.1169781E+00
         21   -1    0    0  503  502  0.00000000000E+00  0.00000000000E+00  0.16998319014E+03  0.16998319014E+03  0.00000000000E+00 0.  1.
         21   -1    0    0  501  503 -0.00000000000E+00 -0.00000000000E+00 -0.35903332358E+03  0.35903332358E+03  0.00000000000E+00 0.  1.
          6    2    1    2  501    0 -0.37304744813E+02  0.28067521615E+02 -0.27801927011E+03  0.32997367380E+03  0.17148901158E+03 0.  0.
         24    2    3    3    0    0 -0.46926427693E+02  0.10151144928E+02 -0.29083147442E+03  0.30548253429E+03  0.80196613899E+02 0.  0.
         -6    2    1    2    0  502  0.37304744813E+02 -0.28067521615E+02  0.88969136670E+02  0.19904283992E+03  0.17182291783E+03 0.  0.
        -24    2    5    5    0    0  0.46120867897E+02 -0.73436116650E+02  0.27467803987E+02  0.12196795839E+03  0.81250876511E+02 0.  0.
          5    1    3    3  501    0  0.96216828799E+01  0.17916376687E+02  0.12812204316E+02  0.24491139510E+02  0.47000000000E+01 0. -1.
        -11    1    4    4    0    0 -0.19713071191E+02  0.17876465990E+02 -0.26748117499E+03  0.26880169677E+03  0.00000000000E+00 0.  1.
         12    1    4    4    0    0 -0.27213356501E+02 -0.77253210618E+01 -0.23350299437E+02  0.36680837523E+02  0.00000000000E+00 0. -1.
         -5    1    5    5    0  502 -0.88161230843E+01  0.45368595035E+02  0.61501332683E+02  0.77074881534E+02  0.47000000000E+01 0.  1.
         13    1    6    6    0    0 -0.20933627558E+02 -0.40175228520E+01  0.11240284874E+02  0.24097743809E+02  0.00000000000E+00 0. -1.
        -14    1    6    6    0    0  0.67054495455E+02 -0.69418593798E+02  0.16227519113E+02  0.97870214582E+02  0.00000000000E+00 0.  1.
</event>
<event>
12    1  0.8488291E-002  0.1746768E+03  0.7818608E-02  0.1173438E+00
         21   -1    0    0  503  502  0.00000000000E+00  0.00000000000E+00  0.38272021523E+02  0.38272021523E+02  0.00000000000E+00 0. -1.
         21   -1    0    0  501  503 -0.00000000000E+00 -0.00000000000E+00 -0.95087286392E+03  0.95087286392E+03  0.00000000000E+00 0. -1.
          6    2    1    2  501    0  0.76595868405E+00  0.36008584188E+02 -0.66114591708E+03  0.68383178677E+03  0.17092332814E+03 0.  0.
         24    2    3    3    0    0 -0.35114731036E+02  0.70643014853E+02 -0.55894372327E+03  0.57001462593E+03  0.79215579977E+02 0.  0.
         -6    2    1    2    0  502 -0.76595868405E+00 -0.36008584188E+02 -0.25145492532E+03  0.30531309867E+03  0.16937917205E+03 0.  0.
        -24    2    5    5    0    0  0.34685163887E+02 -0.54658595851E+02 -0.10614038205E+03  0.15450523577E+03  0.91735840789E+02 0.  0.
          5    1    3    3  501    0  0.35880689721E+02 -0.34634430665E+02 -0.10220219382E+03  0.11381716085E+03  0.47000000000E+01 0. -1.
        -11    1    4    4    0    0 -0.33998004712E+02  0.48775585203E+02 -0.16366133892E+03  0.17412626422E+03  0.00000000000E+00 0.  1.
         12    1    4    4    0    0 -0.11167263245E+01  0.21867429650E+02 -0.39528238435E+03  0.39588836171E+03  0.00000000000E+00 0. -1.
         -5    1    5    5    0  502 -0.35451122571E+02  0.18650011662E+02 -0.14531454327E+03  0.15080786290E+03  0.47000000000E+01 0.  1.
         13    1    6    6    0    0 -0.13794291516E+02 -0.55946205490E+02 -0.31996366943E+02  0.65909239752E+02  0.00000000000E+00 0. -1.
        -14    1    6    6    0    0  0.48479455403E+02  0.12876096392E+01 -0.74144015109E+02  0.88595996023E+02  0.00000000000E+00 0.  1.
</event>
<event>
12    1  0.8488291E-002  0.5717549E+03  0.7818608E-02  0.9965889E-01
         21   -1    0    0  503  502  0.00000000000E+00  0.00000000000E+00  0.15627941675E+04  0.15627941675E+04  0.00000000000E+00 0. -1.
         21   -1    0    0  501  503 -0.00000000000E+00 -0.00000000000E+00 -0.69161793625E+03  0.69161793625E+03  0.00000000000E+00 0.  1.
          6    2    1    2  501    0  0.50755367409E+03  0.19937864000E+03 -0.50592264651E+03  0.76333699627E+03  0.17135656236E+03 0.  0.
         24    2    3    3    0    0  0.20491326616E+03  0.61456560212E+02 -0.28071096613E+03  0.36164543851E+03  0.78882325300E+02 0.  0.
         -6    2    1    2    0  502 -0.50755367409E+03 -0.19937864000E+03  0.13770988778E+04  0.14910751075E+04  0.17187519563E+03 0.  0.
        -24    2    5    5    0    0 -0.49813918231E+03 -0.18530517969E+03  0.13707777686E+04  0.14724004894E+04  0.80317218863E+02 0.  0.
          5    1    3    3  501    0  0.30264040792E+03  0.13792207979E+03 -0.22521168037E+03  0.40169155776E+03  0.47000000000E+01 0. -1.
        -11    1    4    4    0    0  0.93395727562E+02  0.63314211025E+02 -0.10894641884E+03  0.15684633697E+03  0.00000000000E+00 0.  1.
         12    1    4    4    0    0  0.11151753860E+03 -0.18576508125E+01 -0.17176454730E+03  0.20479910154E+03  0.00000000000E+00 0. -1.
         -5    1    5    5    0  502 -0.94144917774E+01 -0.14073460312E+02  0.63211091548E+01  0.18674618109E+02  0.47000000000E+01 0.  1.
         13    1    6    6    0    0 -0.32251016656E+03 -0.13711281655E+03  0.80331463420E+03  0.87642862431E+03  0.00000000000E+00 0. -1.
        -14    1    6    6    0    0 -0.17562901575E+03 -0.48192363141E+02  0.56746313443E+03  0.59597186508E+03  0.00000000000E+00 0.  1.
</event>
<event>
12    1  0.8488291E-002  0.1797649E+03  0.7818608E-02  0.1169209E+00
         21   -1    0    0  501  502  0.00000000000E+00  0.00000000000E+00  0.29323966097E+02  0.29323966097E+02  0.00000000000E+00 0. -1.
         21   -1    0    0  502  503 -0.00000000000E+00 -0.00000000000E+00 -0.12087860856E+04  0.12087860856E+04  0.00000000000E+00 0. -1.
         -6    2    1    2    0  503 -0.37659954548E+00 -0.48443344039E+02 -0.79025848370E+03  0.80939697577E+03  0.16813118067E+03 0.  0.
        -24    2    3    3    0    0 -0.53678327971E+02 -0.38673085927E+02 -0.66019535678E+03  0.66841811501E+03  0.80919076170E+02 0.  0.
          6    2    1    2  501    0  0.37659954548E+00  0.48443344039E+02 -0.38920363579E+03  0.42871307592E+03  0.17311421646E+03 0.  0.
         24    2    5    5    0    0 -0.51468543377E+02 -0.10487886274E+02 -0.15917677949E+03  0.18561792300E+03  0.79735559794E+02 0.  0.
          5    1    5    5  501    0  0.51845142922E+02  0.58931230313E+02 -0.23002685630E+03  0.24309515292E+03  0.47000000000E+01 0. -1.
        -13    1    6    6    0    0 -0.61889980051E+02 -0.38812504850E+01 -0.16155870444E+03  0.17305100033E+03  0.00000000000E+00 0.  1.
         14    1    6    6    0    0  0.10421436674E+02 -0.66066357893E+01  0.23819249552E+01  0.12566922666E+02  0.00000000000E+00 0. -1.
         -5    1    3    3    0  503  0.53301728425E+02 -0.97702581113E+01 -0.13006312692E+03  0.14097886076E+03  0.47000000000E+01 0.  1.
         13    1    4    4    0    0 -0.97975312226E+00 -0.44612938508E+02 -0.42403361511E+03  0.42637516455E+03  0.00000000000E+00 0. -1.
        -14    1    4    4    0    0 -0.52698574848E+02  0.59398525803E+01 -0.23616174167E+03  0.24204295046E+03  0.00000000000E+00 0.  1.
</event>
<event>
12    1  0.8488291E-002  0.2153988E+03  0.7818608E-02  0.1137374E+00
         21   -1    0    0  501  502  0.00000000000E+00  0.00000000000E+00  0.40088212539E+03  0.40088212539E+03  0.00000000000E+00 0.  1.
         21   -1    0    0  502  503 -0.00000000000E+00 -0.00000000000E+00 -0.12119873284E+03  0.12119873284E+03  0.00000000000E+00 0.  1.
         -6    2    1    2    0  503  0.25657609697E+02 -0.12664341484E+03  0.84220125995E+02  0.23121572730E+03  0.17225218567E+03 0.  0.
        -24    2    3    3    0    0 -0.18611366124E+01 -0.57030584398E+02  0.11366624770E+03  0.15064034865E+03  0.80725134814E+02 0.  0.
          6    2    1    2  501    0 -0.25657609697E+02  0.12664341484E+03  0.19546326656E+03  0.29086513094E+03  0.17233620737E+03 0.  0.
         24    2    5    5    0    0 -0.69780252592E+02  0.81681829156E+02  0.18290329658E+03  0.22645865108E+03  0.79301323329E+02 0.  0.
          5    1    5    5  501    0  0.44122642895E+02  0.44961585681E+02  0.12559969973E+02  0.64406479865E+02  0.47000000000E+01 0. -1.
        -11    1    6    6    0    0 -0.18199788476E+02  0.71875535729E+02  0.14091201090E+03  0.15922788623E+03  0.00000000000E+00 0.  1.
         12    1    6    6    0    0 -0.51580464116E+02  0.98062934266E+01  0.41991285686E+02  0.67230764853E+02  0.00000000000E+00 0. -1.
         -5    1    3    3    0  503  0.27518746310E+02 -0.69612830439E+02 -0.29446121701E+02  0.80575378643E+02  0.47000000000E+01 0.  1.
         13    1    4    4    0    0  0.27294656725E+02  0.52427374458E+01  0.48535045434E+02  0.55929734640E+02  0.00000000000E+00 0. -1.
        -14    1    4    4    0    0 -0.29155793337E+02 -0.62273321843E+02  0.65131202262E+02  0.94710614013E+02  0.00000000000E+00 0.  1.
</event>
<event>
12    1  0.8488291E-002  0.1808971E+03  0.7818608E-02  0.1167484E+00
         21   -1    0    0  501  502  0.00000000000E+00  0.00000000000E+00  0.12683264522E+03  0.12683264522E+03  0.00000000000E+00 0.  1.
         21   -1    0    0  502  503 -0.00000000000E+00 -0.00000000000E+00 -0.26816591323E+03  0.26816591323E+03  0.00000000000E+00 0.  1.
         -6    2    1    2    0  503  0.20023073776E+02  0.49896803717E+02 -0.11518604080E+03  0.21445645065E+03  0.17272269892E+03 0.  0.
        -24    2    3    3    0    0 -0.24343418555E+02 -0.10922245324E+02 -0.11082304803E+03  0.13890204592E+03  0.79373376623E+02 0.  0.
          6    2    1    2  501    0 -0.20023073776E+02 -0.49896803717E+02 -0.26147227200E+02  0.18054210781E+03  0.17035598227E+03 0.  0.
         24    2    5    5    0    0 -0.47994486325E+02 -0.83142788615E+02 -0.46258533348E+02  0.13243545477E+03  0.78632714280E+02 0.  0.
          5    1    5    5  501    0  0.27971412549E+02  0.33245984898E+02  0.20111306148E+02  0.48106653041E+02  0.47000000000E+01 0. -1.
        -11    1    6    6    0    0 -0.45853581613E+02 -0.35298729081E+02  0.98153609351E+01  0.58693206862E+02  0.00000000000E+00 0.  1.
         12    1    6    6    0    0 -0.21409047116E+01 -0.47844059534E+02 -0.56073894283E+02  0.73742247903E+02  0.00000000000E+00 0. -1.
         -5    1    3    3    0  503  0.44366492331E+02  0.60819049040E+02 -0.43629927777E+01  0.75554404729E+02  0.47000000000E+01 0.  1.
         13    1    4    4    0    0 -0.36822540979E+02  0.16175453490E+02 -0.98917368681E+02  0.10678104067E+03  0.00000000000E+00 0. -1.
        -14    1    4    4    0    0  0.12479122424E+02 -0.27097698813E+02 -0.11905679344E+02  0.32121005247E+02  0.00000000000E+00 0.  1.
</event>
<event>
12    1  0.8488291E-002  0.2705014E+03  0.7818608E-02  0.1101516E+00
         21   -1    0    0  503  502  0.00000000000E+00  0.00000000000E+00  0.10661394132E+04  0.10661394132E+04  0.00000000000E+00 0.  1.
         21   -1    0    0  501  503 -0.00000000000E+00 -0.00000000000E+00 -0.13305024552E+03  0.13305024552E+03  0.00000000000E+00 0.  1.
          6    2    1    2  501    0 -0.19559156441E+03 -0.56685112409E+02  0.44767196489E+02  0.27059559962E+03  0.17247786702E+03 0.  0.
         24    2    3    3    0    0 -0.61983094270E+02 -0.69230044541E+02  0.76113471468E+02  0.13270695769E+03  0.56419615730E+02 0.  0.
         -6    2    1    2    0  502  0.19559156441E+03  0.56685112409E+02  0.88832197114E+03  0.92859405906E+03  0.17804982465E+03 0.  0.
        -24    2    5    5    0    0  0.20906683539E+03  0.31588986674E+02  0.64578348610E+03  0.68434335756E+03  0.81133928634E+02 0.  0.
          5    1    3    3  501    0 -0.13360847014E+03  0.12544932131E+02 -0.31346274979E+02  0.13788864192E+03  0.47000000000E+01 0. -1.
        -11    1    4    4    0    0 -0.60647598031E+02 -0.58159415250E+02  0.36604344178E+02  0.91654387467E+02  0.00000000000E+00 0.  1.
         12    1    4    4    0    0 -0.13354962391E+01 -0.11070629291E+02  0.39509127289E+02  0.41052570227E+02  0.00000000000E+00 0. -1.
         -5    1    5    5    0  502 -0.13475270973E+02  0.25096125736E+02  0.24253848504E+03  0.24425070150E+03  0.47000000000E+01 0.  1.
         11    1    6    6    0    0  0.15082326422E+03  0.58482185139E+02  0.48331535833E+03  0.50966808670E+03  0.00000000000E+00 0. -1.
        -12    1    6    6    0    0  0.58243571167E+02 -0.26893198466E+02  0.16246812777E+03  0.17467527085E+03  0.00000000000E+00 0.  1.
</event>
<event>
12    1  0.8488291E-002  0.1757487E+03  0.7818608E-02  0.1172059E+00
         21   -1    0    0  503  502  0.00000000000E+00  0.00000000000E+00  0.61829982247E+03  0.61829982247E+03  0.00000000000E+00 0.  1.
         21   -1    0    0  501  503 -0.00000000000E+00 -0.00000000000E+00 -0.66993749581E+02  0.66993749581E+02  0.00000000000E+00 0.  1.
          6    2    1    2  501    0  0.33460360641E+02 -0.13097097696E+01  0.10222971292E+03  0.20305173221E+03  0.17221434515E+03 0.  0.
         24    2    3    3    0    0  0.29324805834E+02 -0.11933049809E+02 -0.13362580149E+02  0.86803607989E+02  0.79711767617E+02 0.  0.
         -6    2    1    2    0  502 -0.33460360641E+02  0.13097097696E+01  0.44907635997E+03  0.48224183985E+03  0.17252913939E+03 0.  0.
        -24    2    5    5    0    0 -0.71367793446E+02  0.38638352636E+02  0.36901321353E+03  0.38599944556E+03  0.78984403369E+02 0.  0.
          5    1    3    3  501    0  0.41355548071E+01  0.10623340039E+02  0.11559229307E+03  0.11624812422E+03  0.47000000000E+01 0. -1.
        -11    1    4    4    0    0  0.15347496941E+01  0.25302826715E+02 -0.28305241937E+02  0.37997042221E+02  0.00000000000E+00 0.  1.
         12    1    4    4    0    0  0.27790056140E+02 -0.37235876524E+02  0.14942661788E+02  0.48806565768E+02  0.00000000000E+00 0. -1.
         -5    1    5    5    0  502  0.37907432805E+02 -0.37328642867E+02  0.80063146437E+02  0.96242394284E+02  0.47000000000E+01 0.  1.
         11    1    6    6    0    0 -0.64888038655E+02  0.18301341949E+02  0.13386074988E+03  0.14988027567E+03  0.00000000000E+00 0. -1.
        -12    1    6    6    0    0 -0.64797547912E+01  0.20337010688E+02  0.23515246366E+03  0.23611916989E+03  0.00000000000E+00 0.  1.
</event>
<event>
12    1  0.8488291E-002  0.2184022E+03  0.7818608E-02  0.1135130E+00
         21   -1    0    0  501  502  0.00000000000E+00  0.00000000000E+00  0.13348374582E+03  0.13348374582E+03  0.00000000000E+00 0. -1.
         21   -1    0    0  502  503 -0.00000000000E+00 -0.00000000000E+00 -0.10340462852E+04  0.10340462852E+04  0.00000000000E+00 0.  1.
         -6    2    1    2    0  503  0.10513274763E+03 -0.84331461508E+02 -0.92277239934E+03  0.94826600929E+03  0.17185701433E+03 0.  0.
        -24    2    3    3    0    0  0.46358387643E+02 -0.65923798026E+01 -0.20872658584E+03  0.22758487037E+03  0.77688647889E+02 0.  0.
          6    2    1    2  501    0 -0.10513274763E+03  0.84331461508E+02  0.22209859949E+02  0.21926402174E+03  0.17151892993E+03 0.  0.
         24    2    5    5    0    0 -0.45513936480E+02 -0.21522926775E+02  0.31288840519E+02  0.97345721019E+02  0.77216857414E+02 0.  0.
          5    1    5    5  501    0 -0.59618811148E+02  0.10585438828E+03 -0.90789805704E+01  0.12191830072E+03  0.47000000000E+01 0. -1.
        -13    1    6    6    0    0 -0.54763171812E+02 -0.43370669127E+01 -0.59968438160E+01  0.55260992319E+02  0.00000000000E+00 0.  1.
         14    1    6    6    0    0  0.92492353322E+01 -0.17185859862E+02  0.37285684335E+02  0.42084728700E+02  0.00000000000E+00 0. -1.
         -5    1    3    3    0  503  0.58774359986E+02 -0.77739081705E+02 -0.71404581350E+03  0.72068113892E+03  0.47000000000E+01 0.  1.
         13    1    4    4    0    0  0.66084385882E+02  0.37318694069E+01 -0.13158446577E+03  0.14729407502E+03  0.00000000000E+00 0. -1.
        -14    1    4    4    0    0 -0.19725998240E+02 -0.10324249210E+02 -0.77142120074E+02  0.80290795350E+02  0.00000000000E+00 0.  1.
</event>
<event>
12    1  0.8488291E-002  0.1921457E+03  0.7818608E-02  0.1156756E+00
         21   -1    0    0  501  502  0.00000000000E+00  0.00000000000E+00  0.17800833636E+03  0.17800833636E+03  0.00000000000E+00 0. -1.
         21   -1    0    0  502  503 -0.00000000000E+00 -0.00000000000E+00 -0.26331051717E+03  0.26331051717E+03  0.00000000000E+00 0.  1.
         -6    2    1    2    0  503 -0.84084789815E+02  0.63083816475E+01 -0.14518629515E+03  0.24005767404E+03  0.17157674379E+03 0.  0.
        -24    2    3    3    0    0 -0.10043816315E+03  0.17711080235E+02 -0.40447550849E+02  0.13333490743E+03  0.75767316108E+02 0.  0.
          6    2    1    2  501    0  0.84084789815E+02 -0.63083816475E+01  0.59884114344E+02  0.20126117949E+03  0.17265545940E+03 0.  0.
         24    2    5    5    0    0  0.32513038827E+02  0.59480154152E+01  0.10166452739E+03  0.13360352890E+03  0.80135823589E+02 0.  0.
          5    1    5    5  501    0  0.51571750988E+02 -0.12256397063E+02 -0.41780413048E+02  0.67657650590E+02  0.47000000000E+01 0. -1.
        -11    1    6    6    0    0 -0.15326672517E+02  0.17067730164E+02  0.26693976115E+01  0.23094154823E+02  0.00000000000E+00 0.  1.
         12    1    6    6    0    0  0.47839711344E+02 -0.11119714749E+02  0.98995129780E+02  0.11050937407E+03  0.00000000000E+00 0. -1.
         -5    1    3    3    0  503  0.16353373339E+02 -0.11402698587E+02 -0.10473874430E+03  0.10672276661E+03  0.47000000000E+01 0.  1.
         13    1    4    4    0    0 -0.42527255440E+02 -0.29849179508E+02 -0.13309929196E+02  0.53634831852E+02  0.00000000000E+00 0. -1.
        -14    1    4    4    0    0 -0.57910907713E+02  0.47560259742E+02 -0.27137621653E+02  0.79700075583E+02  0.00000000000E+00 0.  1.
</event>
<event>
12    1  0.8488291E-002  0.2602418E+03  0.7818608E-02  0.1107090E+00
         21   -1    0    0  501  502  0.00000000000E+00  0.00000000000E+00  0.62663807398E+03  0.62663807398E+03  0.00000000000E+00 0. -1.
         21   -1    0    0  502  503 -0.00000000000E+00 -0.00000000000E+00 -0.17299968339E+03  0.17299968339E+03  0.00000000000E+00 0.  1.
         -6    2    1    2    0  503  0.13877357682E+03  0.13497076174E+03 -0.18750037348E+02  0.26030798194E+03  0.17301291689E+03 0.  0.
        -24    2    3    3    0    0  0.10273161949E+03  0.12138215156E+03  0.48603465138E+02  0.18257602382E+03  0.75394265639E+02 0.  0.
          6    2    1    2  501    0 -0.13877357682E+03 -0.13497076174E+03  0.47238842794E+03  0.53932977543E+03  0.17392690322E+03 0.  0.
         24    2    5    5    0    0 -0.42587556615E+02 -0.92535360253E+02  0.37325689220E+03  0.39475569352E+03  0.78325328686E+02 0.  0.
          5    1    5    5  501    0 -0.96186020207E+02 -0.42435401491E+02  0.99131535741E+02  0.14457408191E+03  0.47000000000E+01 0. -1.
        -13    1    6    6    0    0 -0.34431661177E+02 -0.68180895969E+02  0.35529902084E+03  0.36341652147E+03  0.00000000000E+00 0.  1.
         14    1    6    6    0    0 -0.81558954377E+01 -0.24354464284E+02  0.17957871363E+02  0.31339172051E+02  0.00000000000E+00 0. -1.
         -5    1    3    3    0  503  0.36041957335E+02  0.13588610181E+02 -0.67353502486E+02  0.77731958115E+02  0.47000000000E+01 0.  1.
         11    1    4    4    0    0 -0.10737740355E+02  0.16521710326E+02 -0.24519583180E+01  0.19856436731E+02  0.00000000000E+00 0. -1.
        -12    1    4    4    0    0  0.11346935984E+03  0.10486044124E+03  0.51055423456E+02  0.16271958709E+03  0.00000000000E+00 0.  1.
</event>
<event>
12    1  0.8488291E-002  0.1775812E+03  0.7818608E-02  0.1170319E+00
         21   -1    0    0  501  502  0.00000000000E+00  0.00000000000E+00  0.87550502201E+03  0.87550502201E+03  0.00000000000E+00 0. -1.
         21   -1    0    0  502  503 -0.00000000000E+00 -0.00000000000E+00 -0.38936205469E+02  0.38936205469E+02  0.00000000000E+00 0. -1.
         -6    2    1    2    0  503 -0.24129484328E+02 -0.34259944549E+02  0.54544393320E+03  0.57342983586E+03  0.17192066942E+03 0.  0.
        -24    2    3    3    0    0 -0.33160106895E+02 -0.75798889648E+01  0.53647490355E+03  0.54349806339E+03  0.80173408114E+02 0.  0.
          6    2    1    2  501    0  0.24129484328E+02  0.34259944549E+02  0.29112488334E+03  0.34101139162E+03  0.17256620672E+03 0.  0.
         24    2    5    5    0    0  0.13615558781E+02  0.62631833146E+02  0.29335214747E+03  0.31031029395E+03  0.78287075187E+02 0.  0.
          5    1    5    5  501    0  0.10513925546E+02 -0.28371888596E+02 -0.22272641269E+01  0.30701097674E+02  0.47000000000E+01 0. -1.
        -13    1    6    6    0    0 -0.20420425271E+01  0.43491376160E+01  0.19404054928E+03  0.19410002498E+03  0.00000000000E+00 0.  1.
         14    1    6    6    0    0  0.15657601308E+02  0.58282695530E+02  0.99311598195E+02  0.11621026897E+03  0.00000000000E+00 0. -1.
         -5    1    3    3    0  503  0.90306225675E+01 -0.26680055584E+02  0.89690296505E+01  0.29931772464E+02  0.47000000000E+01 0.  1.
         11    1    4    4    0    0 -0.44775864148E+02 -0.30085683153E+02  0.24217348750E+03  0.24810889623E+03  0.00000000000E+00 0. -1.
        -12    1    4    4    0    0  0.11615757253E+02  0.22505794188E+02  0.29430141605E+03  0.29538916717E+03  0.00000000000E+00 0.  1.
</event>
<event>
12    1  0.8488291E-002  0.1909832E+03  0.7818608E-02  0.1157641E+00
         21   -1    0    0  503  502  0.00000000000E+00  0.00000000000E+00  0.97847539380E+03  0.97847539380E+03  0.00000000000E+00 0.  1.
         21   -1    0    0  501  503 -0.00000000000E+00 -0.00000000000E+00 -0.37367317072E+02  0.37367317072E+02  0.00000000000E+00 0. -1.
          6    2    1    2  501    0  0.19386750384E+02  0.79316597622E+02  0.50191734476E+03  0.53692403834E+03  0.17233523499E+03 0.  0.
         24    2    3    3    0    0 -0.39698813341E+02  0.92692616993E+02  0.37087203850E+03  0.39247687142E+03  0.79524264457E+02 0.  0.
         -6    2    1    2    0  502 -0.19386750384E+02 -0.79316597622E+02  0.43919073197E+03  0.47891867254E+03  0.17264885493E+03 0.  0.
        -24    2    5    5    0    0 -0.42010739042E+02 -0.10581926780E+03  0.41094885874E+03  0.43381956176E+03  0.79735989579E+02 0.  0.
          5    1    3    3  501    0  0.59085563725E+02 -0.13376019371E+02  0.13104530627E+03  0.14444716691E+03  0.47000000000E+01 0. -1.
        -13    1    4    4    0    0 -0.20052731335E+02  0.67302369364E+02  0.34252339372E+03  0.34964838938E+03  0.00000000000E+00 0.  1.
         14    1    4    4    0    0 -0.19646082006E+02  0.25390247629E+02  0.28348644781E+02  0.42828482039E+02  0.00000000000E+00 0. -1.
         -5    1    5    5    0  502  0.22623988657E+02  0.26502670178E+02  0.28241873224E+02  0.45099110774E+02  0.47000000000E+01 0.  1.
         11    1    6    6    0    0 -0.55138444728E+02 -0.11156489797E+03  0.36052869095E+03  0.38140255839E+03  0.00000000000E+00 0. -1.
        -12    1    6    6    0    0  0.13127705687E+02  0.57456301712E+01  0.50420167790E+02  0.52417003373E+02  0.00000000000E+00 0.  1.
</event>
<event>
12    1  0.8488291E-002  0.2619624E+03  0.7818608E-02  0.1106080E+00
         21   -1    0    0  501  502  0.00000000000E+00  0.00000000000E+00  0.24756009656E+03  0.24756009656E+03  0.00000000000E+00 0.  1.
         21   -1    0    0  502  503 -0.00000000000E+00 -0.00000000000E+00 -0.28278910390E+03  0.28278910390E+03  0.00000000000E+00 0. -1.
         -6    2    1    2    0  503 -0.70360361912E+02  0.18310549859E+03 -0.57374269304E+02  0.26745246239E+03  0.17251321317E+03 0.  0.
        -24    2    3    3    0    0 -0.87042748825E+02  0.13300505237E+03 -0.95999050923E+02  0.20186038589E+03  0.79151838475E+02 0.  0.
          6    2    1    2  501    0  0.70360361912E+02 -0.18310549859E+03  0.22145261965E+02  0.26289673807E+03  0.17362625987E+03 0.  0.
         24    2    5    5    0    0  0.14360212538E+02 -0.16885458090E+02 -0.93577914407E+01  0.84628258049E+02  0.81135931625E+02 0.  0.
          5    1    5    5  501    0  0.56000149373E+02 -0.16622004050E+03  0.31503053406E+02  0.17826848002E+03  0.47000000000E+01 0. -1.
        -13    1    6    6    0    0 -0.12815000476E+02 -0.22674237459E+02  0.27889189175E+02  0.38159561769E+02  0.00000000000E+00 0.  1.
         14    1    6    6    0    0  0.27175213014E+02  0.57887793688E+01 -0.37246980616E+02  0.46468696280E+02  0.00000000000E+00 0. -1.
         -5    1    3    3    0  503  0.16682386914E+02  0.50100446218E+02  0.38624781619E+02  0.65592076499E+02  0.47000000000E+01 0.  1.
         11    1    4    4    0    0 -0.85017229089E+01  0.76004176570E+02 -0.63851624704E+02  0.99629032545E+02  0.00000000000E+00 0. -1.
        -12    1    4    4    0    0 -0.78541025916E+02  0.57000875802E+02 -0.32147426219E+02  0.10223135334E+03  0.00000000000E+00 0.  1.
</event>
<event>
12    1  0.8488291E-002  0.3404623E+03  0.7818608E-02  0.1067003E+00
         21   -1    0    0  503  502  0.00000000000E+00  0.00000000000E+00  0.63720177913E+02  0.63720177913E+02  0.00000000000E+00 0.  1.
         21   -1    0    0  501  503 -0.00000000000E+00 -0.00000000000E+00 -0.25154126491E+04  0.25154126491E+04  0.00000000000E+00 0. -1.
          6    2    1    2  501    0 -0.28410430488E+03  0.70929105424E+02 -0.19189215302E+04  0.19488905531E+04  0.17369040043E+03 0.  0.
         24    2    3    3    0    0 -0.70356502337E+02  0.65526341571E+02 -0.76666916151E+03  0.77695842030E+03  0.81480333843E+02 0.  0.
         -6    2    1    2    0  502  0.28410430488E+03 -0.70929105424E+02 -0.53277094108E+03  0.63024227391E+03  0.16617537160E+03 0.  0.
        -24    2    5    5    0    0  0.12839856015E+03  0.20472790628E+02 -0.19425010802E+03  0.24655355899E+03  0.78423386705E+02 0.  0.
          5    1    3    3  501    0 -0.21374780254E+03  0.54027638526E+01 -0.11522523686E+04  0.11719321328E+04  0.47000000000E+01 0. -1.
        -11    1    4    4    0    0  0.44296948485E+00  0.33900116818E+00 -0.32171359245E+03  0.32171407602E+03  0.00000000000E+00 0.  1.
         12    1    4    4    0    0 -0.70799471822E+02  0.65187340403E+02 -0.44495556906E+03  0.45524434428E+03  0.00000000000E+00 0. -1.
         -5    1    5    5    0  502  0.15570574473E+03 -0.91401896052E+02 -0.33852083306E+03  0.38368871492E+03  0.47000000000E+01 0.  1.
         11    1    6    6    0    0  0.91532596787E+02 -0.54343935215E+01 -0.17497571352E+03  0.19754556242E+03  0.00000000000E+00 0. -1.
        -12    1    6    6    0    0  0.36865963363E+02  0.25907184149E+02 -0.19274394494E+02  0.49007996575E+02  0.00000000000E+00 0.  1.
</event>
<event>
12    1  0.8488291E-002  0.2600825E+03  0.7818608E-02  0.1107186E+00
         21   -1    0    0  501  502  0.00000000000E+00  0.00000000000E+00  0.30032838729E+03  0.30032838729E+03  0.00000000000E+00 0.  1.
         21   -1    0    0  502  503 -0.00000000000E+00 -0.00000000000E+00 -0.40896038829E+03  0.40896038829E+03  0.00000000000E+00 0.  1.
         -6    2    1    2    0  503  0.19513367901E+02 -0.19505727553E+03 -0.29233272284E+03  0.39087262411E+03  0.16998492630E+03 0.  0.
        -24    2    3    3    0    0  0.40607949159E+02 -0.14516693837E+03 -0.11419932172E+03  0.20462648135E+03  0.78154118613E+02 0.  0.
          6    2    1    2  501    0 -0.19513367901E+02  0.19505727553E+03  0.18370072184E+03  0.31841615148E+03  0.17092331044E+03 0.  0.
         24    2    5    5    0    0  0.18051763872E+02  0.62449257668E+02  0.13961566253E+03  0.17363490966E+03  0.80192098529E+02 0.  0.
          5    1    5    5  501    0 -0.37565131773E+02  0.13260801787E+03  0.44085059307E+02  0.14478124181E+03  0.47000000000E+01 0. -1.
        -11    1    6    6    0    0 -0.17498937363E+02  0.54626815349E+02  0.11824621426E+03  0.13142476536E+03  0.00000000000E+00 0.  1.
         12    1    6    6    0    0  0.35550701235E+02  0.78224423187E+01  0.21369448272E+02  0.42210144297E+02  0.00000000000E+00 0. -1.
         -5    1    3    3    0  503 -0.21094581258E+02 -0.49890337165E+02 -0.17813340111E+03  0.18624614276E+03  0.47000000000E+01 0.  1.
         13    1    4    4    0    0  0.32718204321E+01 -0.21985093131E+02  0.11230587443E+02  0.24903317514E+02  0.00000000000E+00 0. -1.
        -14    1    4    4    0    0  0.37336128727E+02 -0.12318184524E+03 -0.12542990917E+03  0.17972316383E+03  0.00000000000E+00 0.  1.
</event>
<event>
12    1  0.8488291E-002  0.1782761E+03  0.7818608E-02  0.1169488E+00
         21   -1    0    0  501  502  0.00000000000E+00  0.00000000000E+00  0.15543846851E+03  0.15543846851E+03  0.00000000000E+00 0.  1.
         21   -1    0    0  502  503 -0.00000000000E+00 -0.00000000000E+00 -0.27924734924E+03  0.27924734924E+03  0.00000000000E+00 0.  1.
         -6    2    1    2    0  503  0.34110214690E+02 -0.28132280415E+02 -0.17439324614E+03  0.24937218517E+03  0.17268048671E+03 0.  0.
        -24    2    3    3    0    0 -0.49214023460E+01 -0.72043932547E+02 -0.69134800843E+02  0.12873582818E+03  0.81109459081E+02 0.  0.
          6    2    1    2  501    0 -0.34110214690E+02  0.28132280415E+02  0.50584365409E+02  0.18531363257E+03  0.17270620268E+03 0.  0.
         24    2    5    5    0    0 -0.88850520464E+02  0.30471473473E+02  0.26494117454E+02  0.12527695256E+03  0.78545852214E+02 0.  0.
          5    1    5    5  501    0  0.54740305774E+02 -0.23391930578E+01  0.24090247955E+02  0.60036680013E+02  0.47000000000E+01 0. -1.
        -13    1    6    6    0    0 -0.18458592315E+02 -0.22489773676E+02 -0.87736976575E+01  0.30388934184E+02  0.00000000000E+00 0.  1.
         14    1    6    6    0    0 -0.70391928149E+02  0.52961247149E+02  0.35267815112E+02  0.94888018373E+02  0.00000000000E+00 0. -1.
         -5    1    3    3    0  503  0.39031617036E+02  0.43911652132E+02 -0.10525844530E+03  0.12063635699E+03  0.47000000000E+01 0.  1.
         11    1    4    4    0    0  0.11135731495E+02 -0.41855928965E+02  0.82888673885E+01  0.44097943581E+02  0.00000000000E+00 0. -1.
        -12    1    4    4    0    0 -0.16057133841E+02 -0.30188003581E+02 -0.77423668231E+02  0.84637884601E+02  0.00000000000E+00 0.  1.
</event>
<event>
12    1  0.8488291E-002  0.1752027E+03  0.7818608E-02  0.1172533E+00
         21   -1    0    0  503  502  0.00000000000E+00  0.00000000000E+00  0.84259781419E+03  0.84259781419E+03  0.00000000000E+00 0.  1.
         21   -1    0    0  501  503 -0.00000000000E+00 -0.00000000000E+00 -0.37923647705E+02  0.37923647705E+02  0.00000000000E+00 0.  1.
          6    2    1    2  501    0 -0.32166918964E+02 -0.11159369242E+02  0.31488181329E+03  0.36034224831E+03  0.17186255375E+03 0.  0.
         24    2    3    3    0    0 -0.70392181267E+02  0.19316569686E+02  0.27974704276E+03  0.29995602776E+03  0.79918843919E+02 0.  0.
         -6    2    1    2    0  502  0.32166918964E+02  0.11159369242E+02  0.48979235320E+03  0.52017921358E+03  0.17184476366E+03 0.  0.
        -24    2    5    5    0    0 -0.70252460493E+01  0.13470559953E+02  0.74933563385E+02  0.10344035904E+03  0.69671076421E+02 0.  0.
          5    1    3    3  501    0  0.38225262303E+02 -0.30475938928E+02  0.35134770533E+02  0.60386220548E+02  0.47000000000E+01 0. -1.
        -11    1    4    4    0    0 -0.46909480383E+02 -0.18518244282E+02  0.74707481234E+02  0.90136743193E+02  0.00000000000E+00 0.  1.
         12    1    4    4    0    0 -0.23482700883E+02  0.37834813968E+02  0.20503956152E+03  0.20981928457E+03  0.00000000000E+00 0. -1.
         -5    1    5    5    0  502  0.39192165013E+02 -0.23111907108E+01  0.41485878981E+03  0.41673885454E+03  0.47000000000E+01 0.  1.
         11    1    6    6    0    0 -0.11329523106E+02  0.17231497638E+02  0.87360675702E+02  0.89761741648E+02  0.00000000000E+00 0. -1.
        -12    1    6    6    0    0  0.43042770568E+01 -0.37609376853E+01 -0.12427112317E+02  0.13678617393E+02  0.00000000000E+00 0.  1.
</event>
<event>
12    1  0.8488291E-002  0.2397573E+03  0.7818608E-02  0.1120040E+00
         21   -1    0    0  503  502  0.00000000000E+00  0.00000000000E+00  0.15613999684E+03  0.15613999684E+03  0.00000000000E+00 0. -1.
         21   -1    0    0  501  503 -0.00000000000E+00 -0.00000000000E+00 -0.37104616866E+03  0.37104616866E+03  0.00000000000E+00 0.  1.
          6    2    1    2  501    0  0.13636863670E+03 -0.94304419498E+02 -0.13359199737E+03  0.27401513607E+03  0.17247534438E+03 0.  0.
         24    2    3    3    0    0  0.76289650818E+02 -0.25943879377E+02 -0.14353478013E+03  0.18234400147E+03  0.78446835913E+02 0.  0.
         -6    2    1    2    0  502 -0.13636863670E+03  0.94304419498E+02 -0.81314174458E+02  0.25317102944E+03  0.17318731641E+03 0.  0.
        -24    2    5    5    0    0 -0.64538420946E+02  0.75109368250E+02  0.19439853378E+02  0.12786542696E+03  0.78517733886E+02 0.  0.
          5    1    3    3  501    0  0.60078985879E+02 -0.68360540122E+02  0.99427827593E+01  0.91671134601E+02  0.47000000000E+01 0. -1.
        -13    1    4    4    0    0  0.81434973852E+02  0.44000054636E+01 -0.10802264779E+03  0.13535105264E+03  0.00000000000E+00 0.  1.
         14    1    4    4    0    0 -0.51453230340E+01 -0.30343884840E+02 -0.35512132335E+02  0.46992948825E+02  0.00000000000E+00 0. -1.
         -5    1    5    5    0  502 -0.71830215751E+02  0.19195051249E+02 -0.10075402784E+03  0.12530560248E+03  0.47000000000E+01 0.  1.
         13    1    6    6    0    0 -0.35563150452E+02  0.85269448503E+02  0.26981844878E+02  0.96247786838E+02  0.00000000000E+00 0. -1.
        -14    1    6    6    0    0 -0.28975270494E+02 -0.10160080254E+02 -0.75419915003E+01  0.31617640120E+02  0.00000000000E+00 0.  1.
</event>
<event>
12    1  0.8488291E-002  0.2153555E+03  0.7818608E-02  0.1137468E+00
         21   -1    0    0  503  502  0.00000000000E+00  0.00000000000E+00  0.13699924042E+03  0.13699924042E+03  0.00000000000E+00 0. -1.
         21   -1    0    0  501  503 -0.00000000000E+00 -0.00000000000E+00 -0.39549731373E+03  0.39549731373E+03  0.00000000000E+00 0. -1.
          6    2    1    2  501    0 -0.60654984386E+02  0.11384680301E+03 -0.27763089850E+02  0.21713772572E+03  0.17244674855E+03 0.  0.
         24    2    3    3    0    0 -0.52656218049E+02  0.61285946499E+00  0.12475745922E+02  0.96609056357E+02  0.80028823794E+02 0.  0.
         -6    2    1    2    0  502  0.60654984386E+02 -0.11384680301E+03 -0.23073498346E+03  0.31535882843E+03  0.17196638156E+03 0.  0.
        -24    2    5    5    0    0  0.45099508098E+02 -0.14040436496E+03 -0.22561362207E+03  0.28380577340E+03  0.88864274171E+02 0.  0.
          5    1    3    3  501    0 -0.79987663371E+01  0.11323394355E+03 -0.40238835772E+02  0.12052866936E+03  0.47000000000E+01 0. -1.
        -11    1    4    4    0    0 -0.38776701774E+02  0.22882556671E+02 -0.24507105329E+02  0.51262483473E+02  0.00000000000E+00 0.  1.
         12    1    4    4    0    0 -0.13879516275E+02 -0.22269697206E+02  0.36982851251E+02  0.45346572883E+02  0.00000000000E+00 0. -1.
         -5    1    5    5    0  502  0.15555476288E+02  0.26557561944E+02 -0.51213613945E+01  0.31553055026E+02  0.47000000000E+01 0.  1.
         11    1    6    6    0    0  0.47136849543E+02 -0.23691777924E+02 -0.94737544766E+02  0.10843608862E+03  0.00000000000E+00 0. -1.
        -12    1    6    6    0    0 -0.20373414455E+01 -0.11671258703E+03 -0.13087607730E+03  0.17536968479E+03  0.00000000000E+00 0.  1.
</event>
<event>
12    1  0.8488291E-002  0.2052934E+03  0.7818608E-02  0.1145583E+00
         21   -1    0    0  501  502  0.00000000000E+00  0.00000000000E+00  0.80117207924E+03  0.80117207924E+03  0.00000000000E+00 0. -1.
         21   -1    0    0  502  503 -0.00000000000E+00 -0.00000000000E+00 -0.56422901868E+02  0.56422901868E+02  0.00000000000E+00 0.  1.
         -6    2    1    2    0  503  0.59874749889E+02  0.92502355102E+02  0.48716697798E+03  0.52821074870E+03  0.17185243445E+03 0.  0.
        -24    2    3    3    0    0  0.97743692647E+02  0.10402880883E+03  0.41531014286E+03  0.44603769523E+03  0.78046705839E+02 0.  0.
          6    2    1    2  501    0 -0.59874749889E+02 -0.92502355102E+02  0.25758219939E+03  0.32938423241E+03  0.17321579531E+03 0.  0.
         24    2    5    5    0    0 -0.74464260574E+02 -0.47786278134E+02  0.25630713122E+03  0.28209684339E+03  0.77825632386E+02 0.  0.
          5    1    5    5  501    0  0.14589510685E+02 -0.44716076968E+02  0.12750681691E+01  0.47287389020E+02  0.47000000000E+01 0. -1.
        -13    1    6    6    0    0 -0.57508135087E+00 -0.12721494630E+02 -0.33381047769E+00  0.12738860766E+02  0.00000000000E+00 0.  1.
         14    1    6    6    0    0 -0.73889179223E+02 -0.35064783504E+02  0.25664094170E+03  0.26935798263E+03  0.00000000000E+00 0. -1.
         -5    1    3    3    0  503 -0.37868942758E+02 -0.11526453723E+02  0.71856835128E+02  0.82173053464E+02  0.47000000000E+01 0.  1.
         11    1    4    4    0    0  0.40141923249E+02  0.14528533523E+02  0.51055613844E+02  0.66551694144E+02  0.00000000000E+00 0. -1.
        -12    1    4    4    0    0  0.57601769397E+02  0.89500275302E+02  0.36425452901E+03  0.37948600109E+03  0.00000000000E+00 0.  1.
</event>
<event>
12    1  0.8488291E-002  0.2723263E+03  0.7818608E-02  0.1100012E+00
         21   -1    0    0  503  502  0.00000000000E+00  0.00000000000E+00  0.51002501356E+03  0.51002501356E+03  0.00000000000E+00 0. -1.
         21   -1    0    0  501  503 -0.00000000000E+00 -0.00000000000E+00 -0.14824229432E+03  0.14824229432E+03  0.00000000000E+00 0. -1.
          6    2    1    2  501    0  0.37694626976E+02  0.20774056836E+03  0.22822200013E+03  0.35531235520E+03  0.17200162723E+03 0.  0.
         24    2    3    3    0    0 -0.39218822757E+02  0.63801465062E+02  0.11016210060E+03  0.15383189937E+03  0.76940378546E+02 0.  0.
         -6    2    1    2    0  502 -0.37694626976E+02 -0.20774056836E+03  0.13356071912E+03  0.30295495268E+03  0.17136571715E+03 0.  0.
        -24    2    5    5    0    0 -0.82100717965E+02 -0.13819676128E+03  0.52883259458E+02  0.18745956525E+03  0.80657155627E+02 0.  0.
          5    1    3    3  501    0  0.76913449733E+02  0.14393910330E+03  0.11805989952E+03  0.20148045583E+03  0.47000000000E+01 0. -1.
        -11    1    4    4    0    0 -0.27325061658E+02 -0.81389608394E+01  0.10587063192E+02  0.30413608552E+02  0.00000000000E+00 0.  1.
         12    1    4    4    0    0 -0.11893761099E+02  0.71940425901E+02  0.99575037413E+02  0.12341829082E+03  0.00000000000E+00 0. -1.
         -5    1    5    5    0  502  0.44406090989E+02 -0.69543807081E+02  0.80677459663E+02  0.11549538743E+03  0.47000000000E+01 0.  1.
         11    1    6    6    0    0 -0.46915278307E+02 -0.12205622085E+03  0.66145279623E+02  0.14653996862E+03  0.00000000000E+00 0. -1.
        -12    1    6    6    0    0 -0.35185439658E+02 -0.16140540426E+02 -0.13262020165E+02  0.40919596626E+02  0.00000000000E+00 0.  1.
</event>
<event>
12    1  0.8488291E-002  0.2751683E+03  0.7818608E-02  0.1098507E+00
         21   -1    0    0  501  502  0.00000000000E+00  0.00000000000E+00  0.15095490965E+04  0.15095490965E+04  0.00000000000E+00 0.  1.
         21   -1    0    0  502  503 -0.00000000000E+00 -0.00000000000E+00 -0.68626387365E+02  0.68626387365E+02  0.00000000000E+00 0. -1.
         -6    2    1    2    0  503 -0.21288698976E+03 -0.21515473533E+02  0.11309311050E+04  0.11636729108E+04  0.17130584684E+03 0.  0.
        -24    2    3    3    0    0 -0.22238305983E+03 -0.88932381020E+01  0.85247404609E+03  0.88472861563E+03  0.80618912631E+02 0.  0.
          6    2    1    2  501    0  0.21288698976E+03  0.21515473533E+02  0.30999160417E+03  0.41450257306E+03  0.17301387923E+03 0.  0.
         24    2    5    5    0    0  0.13818782518E+03 -0.51603646026E+02  0.21894733729E+03  0.27580318817E+03  0.79816356674E+02 0.  0.
          5    1    5    5  501    0  0.74699164583E+02  0.73119119559E+02  0.91044266887E+02  0.13869938488E+03  0.47000000000E+01 0. -1.
        -13    1    6    6    0    0  0.96491931296E+02 -0.66847049416E+02  0.12268284471E+03  0.16979487981E+03  0.00000000000E+00 0.  1.
         14    1    6    6    0    0  0.41695893880E+02  0.15243403390E+02  0.96264492570E+02  0.10600830837E+03  0.00000000000E+00 0. -1.
         -5    1    3    3    0  503  0.94960700758E+01 -0.12622235431E+02  0.27845705891E+03  0.27894429521E+03  0.47000000000E+01 0.  1.
         13    1    4    4    0    0 -0.43989499054E+02  0.21840831303E+02  0.10932777130E+03  0.11985265753E+03  0.00000000000E+00 0. -1.
        -14    1    4    4    0    0 -0.17839356078E+03 -0.30734069405E+02  0.74314627479E+03  0.76487595810E+03  0.00000000000E+00 0.  1.
</event>
<event>
12    1  0.8488291E-002  0.2017247E+03  0.7818608E-02  0.1151615E+00
         21   -1    0    0  501  502  0.00000000000E+00  0.00000000000E+00  0.26960524936E+03  0.26960524936E+03  0.00000000000E+00 0. -1.
         21   -1    0    0  502  503 -0.00000000000E+00 -0.00000000000E+00 -0.40132817797E+03  0.40132817797E+03  0.00000000000E+00 0.  1.
         -6    2    1    2    0  503 -0.17843507326E+01 -0.73240930270E+02 -0.33573321847E+03  0.38403091550E+03  0.17145125342E+03 0.  0.
        -24    2    3    3    0    0  0.97757491994E+01 -0.12129754183E+02 -0.61013049462E+02  0.10231923130E+03  0.80646988045E+02 0.  0.
          6    2    1    2  501    0  0.17843507326E+01  0.73240930270E+02  0.20401028986E+03  0.28690251182E+03  0.18795061890E+03 0.  0.
         24    2    5    5    0    0 -0.21242977054E+02 -0.24644130624E+02  0.14970652937E+03  0.17252274361E+03  0.79331298242E+02 0.  0.
          5    1    5    5  501    0  0.23027327787E+02  0.97885060894E+02  0.54303760497E+02  0.11437976821E+03  0.47000000000E+01 0. -1.
        -13    1    6    6    0    0 -0.47699408027E+02 -0.18174250747E+02  0.60012768660E+02  0.78784956169E+02  0.00000000000E+00 0.  1.
         14    1    6    6    0    0  0.26456430972E+02 -0.64698798774E+01  0.89693760706E+02  0.93737787445E+02  0.00000000000E+00 0. -1.
         -5    1    3    3    0  503 -0.11560099932E+02 -0.61111176086E+02 -0.27472016901E+03  0.28171168420E+03  0.47000000000E+01 0.  1.
         13    1    4    4    0    0  0.45407736848E+02 -0.61098355199E+01 -0.37492360208E+02  0.59201940253E+02  0.00000000000E+00 0. -1.
        -14    1    4    4    0    0 -0.35631987649E+02 -0.60199186636E+01 -0.23520689253E+02  0.43117291050E+02  0.00000000000E+00 0.  1.
</event>
<event>
12    1  0.8488291E-002  0.2101102E+03  0.7818608E-02  0.1141675E+00
         21   -1    0    0  501  502  0.00000000000E+00  0.00000000000E+00  0.76590369761E+02  0.76590369761E+02  0.00000000000E+00 0.  1.
         21   -1    0    0  502  503 -0.00000000000E+00 -0.00000000000E+00 -0.23584544812E+04  0.23584544812E+04  0.00000000000E+00 0.  1.
         -6    2    1    2    0  503 -0.98504564583E+02  0.69441431803E+02 -0.22007291496E+04  0.22107363261E+04  0.17210767502E+03 0.  0.
        -24    2    3    3    0    0 -0.74917574731E+02  0.71499285978E+02 -0.86036398955E+03  0.87015382837E+03  0.78846050092E+02 0.  0.
          6    2    1    2  501    0  0.98504564583E+02 -0.69441431803E+02 -0.81134961828E+02  0.22430852488E+03  0.17089812933E+03 0.  0.
         24    2    5    5    0    0  0.67463133636E+02  0.11160165750E+02  0.28264639901E+01  0.10376061329E+03  0.77990078040E+02 0.  0.
          5    1    5    5  501    0  0.31041430947E+02 -0.80601597553E+02 -0.83961425818E+02  0.12054791159E+03  0.47000000000E+01 0. -1.
        -11    1    6    6    0    0  0.71250091122E+02 -0.69113878192E+01 -0.20071954589E+02  0.74345316782E+02  0.00000000000E+00 0.  1.
         12    1    6    6    0    0 -0.37869574858E+01  0.18071553569E+02  0.22898418579E+02  0.29415296511E+02  0.00000000000E+00 0. -1.
         -5    1    3    3    0  503 -0.23586989852E+02 -0.20578541742E+01 -0.13403651601E+04  0.13405824977E+04  0.47000000000E+01 0.  1.
         13    1    4    4    0    0  0.88296561766E+01  0.39028441273E+02 -0.29427312921E+03  0.29698123953E+03  0.00000000000E+00 0. -1.
        -14    1    4    4    0    0 -0.83747230908E+02  0.32470844705E+02 -0.56609086034E+03  0.57317258884E+03  0.00000000000E+00 0.  1.
</event>
<event>
12    1  0.8488291E-002  0.1958624E+03  0.7818608E-02  0.1153746E+00
         21   -1    0    0  503  502  0.00000000000E+00  0.00000000000E+00  0.33506630110E+03  0.33506630110E+03  0.00000000000E+00 0. -1.
         21   -1    0    0  501  503 -0.00000000000E+00 -0.00000000000E+00 -0.16281504864E+03  0.16281504864E+03  0.00000000000E+00 0.  1.
          6    2    1    2  501    0 -0.54365824670E+02  0.78218341823E+02 -0.50910395100E+02  0.20237079279E+03  0.17113829949E+03 0.  0.
         24    2    3    3    0    0 -0.41477777676E+02 -0.47733804825E+01  0.19808865765E+02  0.92475244269E+02  0.80100489621E+02 0.  0.
         -6    2    1    2    0  502  0.54365824670E+02 -0.78218341823E+02  0.22316164755E+03  0.29551055696E+03  0.16867606957E+03 0.  0.
        -24    2    5    5    0    0  0.51717535374E+01 -0.17007356454E+02  0.30948584086E+02  0.87821382631E+02  0.80242028776E+02 0.  0.
          5    1    3    3  501    0 -0.12888046994E+02  0.82991722306E+02 -0.70719260865E+02  0.10989554852E+03  0.47000000000E+01 0. -1.
        -11    1    4    4    0    0 -0.82635023975E+01  0.21088862880E+02 -0.23109437381E+02  0.32358487379E+02  0.00000000000E+00 0.  1.
         12    1    4    4    0    0 -0.33214275278E+02 -0.25862243362E+02  0.42918303146E+02  0.60116756889E+02  0.00000000000E+00 0. -1.
         -5    1    5    5    0  502  0.49194071132E+02 -0.61210985369E+02  0.19221306347E+03  0.20768917433E+03  0.47000000000E+01 0.  1.
         13    1    6    6    0    0 -0.51590179616E+01 -0.37259314983E+02  0.46847012621E+02  0.60079236104E+02  0.00000000000E+00 0. -1.
        -14    1    6    6    0    0  0.10330771499E+02  0.20251958529E+02 -0.15898428535E+02  0.27742146527E+02  0.00000000000E+00 0.  1.
</event>
<event>
12    1  0.8488291E-002  0.1834381E+03  0.7818608E-02  0.1164685E+00
         21   -1    0    0  503  502  0.00000000000E+00  0.00000000000E+00  0.19096050079E+03  0.19096050079E+03  0.00000000000E+00 0. -1.
         21   -1    0    0  501  503 -0.00000000000E+00 -0.00000000000E+00 -0.18125656977E+03  0.18125656977E+03  0.00000000000E+00 0. -1.
          6    2    1    2  501    0 -0.32336520421E+02  0.51828356117E+02 -0.28243931951E+02  0.18489491790E+03  0.17221086470E+03 0.  0.
         24    2    3    3    0    0  0.16102827515E+02  0.33938886142E+02 -0.73032642499E+02  0.11637833482E+03  0.82456054343E+02 0.  0.
         -6    2    1    2    0  502  0.32336520421E+02 -0.51828356117E+02  0.37947862971E+02  0.18732215267E+03  0.17296739441E+03 0.  0.
        -24    2    5    5    0    0  0.42641664552E+02 -0.37895879676E+02 -0.40689849340E+02  0.10666057760E+03  0.80413964727E+02 0.  0.
          5    1    3    3  501    0 -0.48439347935E+02  0.17889469975E+02  0.44788710548E+02  0.68516583080E+02  0.47000000000E+01 0. -1.
        -11    1    4    4    0    0 -0.30847482043E+02  0.28963379102E+02 -0.43522124475E+02  0.60701069152E+02  0.00000000000E+00 0.  1.
         12    1    4    4    0    0  0.46950309558E+02  0.49755070396E+01 -0.29510518024E+02  0.55677265665E+02  0.00000000000E+00 0. -1.
         -5    1    5    5    0  502 -0.10305144131E+02 -0.13932476440E+02  0.78637712311E+02  0.80661575070E+02  0.47000000000E+01 0.  1.
         13    1    6    6    0    0 -0.16021936911E+02 -0.33555228792E+02 -0.41580208798E+01  0.37415838616E+02  0.00000000000E+00 0. -1.
        -14    1    6    6    0    0  0.58663601464E+02 -0.43406508845E+01 -0.36531828460E+02  0.69244738987E+02  0.00000000000E+00 0.  1.
</event>
<event>
12    1  0.8488291E-002  0.2798213E+03  0.7818608E-02  0.1095894E+00
         21   -1    0    0  503  502  0.00000000000E+00  0.00000000000E+00  0.99078876839E+02  0.99078876839E+02  0.00000000000E+00 0.  1.
         21   -1    0    0  501  503 -0.00000000000E+00 -0.00000000000E+00 -0.78994218594E+03  0.78994218594E+03  0.00000000000E+00 0.  1.
          6    2    1    2  501    0  0.18827753424E+03 -0.11313978476E+03 -0.32426171815E+03  0.42830551131E+03  0.17335197824E+03 0.  0.
         24    2    3    3    0    0  0.20637320994E+03 -0.12842794152E+03 -0.29947202816E+03  0.39369626477E+03  0.78927912017E+02 0.  0.
         -6    2    1    2    0  502 -0.18827753424E+03  0.11313978476E+03 -0.36660159094E+03  0.46071555147E+03  0.17208443303E+03 0.  0.
        -24    2    5    5    0    0 -0.16352431953E+03  0.71851082557E+02 -0.17301892511E+03  0.26118155167E+03  0.79859084272E+02 0.  0.
          5    1    3    3  501    0 -0.18095675703E+02  0.15288156757E+02 -0.24789689990E+02  0.34609246539E+02  0.47000000000E+01 0. -1.
        -11    1    4    4    0    0  0.11593171336E+03 -0.49992603506E+02 -0.20684409181E+03  0.24233014853E+03  0.00000000000E+00 0.  1.
         12    1    4    4    0    0  0.90441496579E+02 -0.78435338012E+02 -0.92627936354E+02  0.15136611624E+03  0.00000000000E+00 0. -1.
         -5    1    5    5    0  502 -0.24753214706E+02  0.41288702204E+02 -0.19358266583E+03  0.19953399980E+03  0.47000000000E+01 0.  1.
         13    1    6    6    0    0 -0.37606167519E+02 -0.17000176528E+01 -0.38576482811E+01  0.37841714360E+02  0.00000000000E+00 0. -1.
        -14    1    6    6    0    0 -0.12591815201E+03  0.73551100210E+02 -0.16916127683E+03  0.22333983730E+03  0.00000000000E+00 0.  1.
</event>
<event>
12    1  0.8488291E-002  0.2417704E+03  0.7818608E-02  0.1118855E+00
         21   -1    0    0  501  502  0.00000000000E+00  0.00000000000E+00  0.63266586267E+03  0.63266586267E+03  0.00000000000E+00 0.  1.
         21   -1    0    0  502  503 -0.00000000000E+00 -0.00000000000E+00 -0.15677533586E+03  0.15677533586E+03  0.00000000000E+00 0. -1.
         -6    2    1    2    0  503 -0.78209768332E+02  0.15344568301E+03 -0.16483412238E+02  0.24091131766E+03  0.16764311677E+03 0.  0.
        -24    2    3    3    0    0 -0.10263205352E+03  0.16587224465E+03 -0.24882764445E+02  0.21186813317E+03  0.78879743487E+02 0.  0.
          6    2    1    2  501    0  0.78209768332E+02 -0.15344568301E+03  0.49237393905E+03  0.54852988087E+03  0.16967789736E+03 0.  0.
         24    2    5    5    0    0  0.96965987261E+02 -0.88974097217E+02  0.43027858866E+03  0.45695311709E+03  0.79672421227E+02 0.  0.
          5    1    5    5  501    0 -0.18756218929E+02 -0.64471585794E+02  0.62095350394E+02  0.91576763777E+02  0.47000000000E+01 0. -1.
        -11    1    6    6    0    0  0.66589621570E+02 -0.21141287588E+02  0.28890974929E+03  0.29723723686E+03  0.00000000000E+00 0.  1.
         12    1    6    6    0    0  0.30376365691E+02 -0.67832809629E+02  0.14136883937E+03  0.15971588023E+03  0.00000000000E+00 0. -1.
         -5    1    3    3    0  503  0.24422285183E+02 -0.12426561639E+02  0.83993522073E+01  0.29043184489E+02  0.47000000000E+01 0.  1.
         13    1    4    4    0    0 -0.57104272755E+02  0.96025172849E+02  0.25307083935E+02  0.11455208547E+03  0.00000000000E+00 0. -1.
        -14    1    4    4    0    0 -0.45527780761E+02  0.69847071801E+02 -0.50189848380E+02  0.97316047703E+02  0.00000000000E+00 0.  1.
</event>
<event>
12    1  0.8488291E-002  0.2114684E+03  0.7818608E-02  0.1141662E+00
         21   -1    0    0  503  502  0.00000000000E+00  0.00000000000E+00  0.14343352889E+04  0.14343352889E+04  0.00000000000E+00 0.  1.
         21   -1    0    0  501  503 -0.00000000000E+00 -0.00000000000E+00 -0.30769143634E+02  0.30769143634E+02  0.00000000000E+00 0.  1.
          6    2    1    2  501    0 -0.10603556529E+03  0.42152489911E+02  0.59690676950E+03  0.63118702483E+03  0.17052564418E+03 0.  0.
         24    2    3    3    0    0 -0.13931836809E+03  0.19328392977E+02  0.43621360847E+03  0.46543701317E+03  0.81031515771E+02 0.  0.
         -6    2    1    2    0  502  0.10603556529E+03 -0.42152489911E+02  0.80665937575E+03  0.83391740769E+03  0.17804078424E+03 0.  0.
        -24    2    5    5    0    0  0.33956114202E+02 -0.27410172320E+02  0.16818553743E+03  0.19120151756E+03  0.79795426445E+02 0.  0.
          5    1    3    3  501    0  0.33282802806E+02  0.22824096935E+02  0.16069316104E+03  0.16575001167E+03  0.47000000000E+01 0. -1.
        -13    1    4    4    0    0 -0.10273231090E+03  0.48012951156E+02  0.34325438376E+03  0.36150068209E+03  0.00000000000E+00 0.  1.
         14    1    4    4    0    0 -0.36586057194E+02 -0.28684558179E+02  0.92959224705E+02  0.10393633107E+03  0.00000000000E+00 0. -1.
         -5    1    5    5    0  502  0.72079451085E+02 -0.14742317592E+02  0.63847383833E+03  0.64271589013E+03  0.47000000000E+01 0.  1.
         11    1    6    6    0    0 -0.91168868769E+00  0.20844764067E+02  0.92936714432E+02  0.95250030208E+02  0.00000000000E+00 0. -1.
        -12    1    6    6    0    0  0.34867802889E+02 -0.48254936386E+02  0.75248822993E+02  0.95951487356E+02  0.00000000000E+00 0.  1.
</event>
<event>
12    1  0.8488291E-002  0.2801307E+03  0.7818608E-02  0.1096021E+00
         21   -1    0    0  501  502  0.00000000000E+00  0.00000000000E+00  0.63896954423E+03  0.63896954423E+03  0.00000000000E+00 0.  1.
         21   -1    0    0  502  503 -0.00000000000E+00 -0.00000000000E+00 -0.15846650144E+03  0.15846650144E+03  0.00000000000E+00 0. -1.
         -6    2    1    2    0  503  0.12933465116E+03  0.17834142337E+03  0.48720255462E+02  0.28433579973E+03  0.17303198673E+03 0.  0.
        -24    2    3    3    0    0  0.77255948884E+02  0.18686222389E+03  0.68385180421E+02  0.22782390235E+03  0.79631810363E+02 0.  0.
          6    2    1    2  501    0 -0.12933465116E+03 -0.17834142337E+03  0.43178278734E+03  0.51310024594E+03  0.16823308730E+03 0.  0.
         24    2    5    5    0    0 -0.25620008274E+02 -0.17939670878E+02  0.13356998046E+03  0.15892738202E+03  0.80241862272E+02 0.  0.
          5    1    5    5  501    0 -0.10371464289E+03 -0.16040175250E+03  0.29821280688E+03  0.35417286392E+03  0.47000000000E+01 0. -1.
        -11    1    6    6    0    0  0.25385606034E+02 -0.82854870953E+01  0.79967921438E+02  0.84308639826E+02  0.00000000000E+00 0.  1.
         12    1    6    6    0    0 -0.51005614307E+02 -0.96541837829E+01  0.53602059017E+02  0.74618742192E+02  0.00000000000E+00 0. -1.
         -5    1    3    3    0  503  0.52078702275E+02 -0.85208005211E+01 -0.19664924958E+02  0.56511897383E+02  0.47000000000E+01 0.  1.
         13    1    4    4    0    0  0.37177369886E+02  0.13400431643E+03  0.99491561903E+01  0.13942130169E+03  0.00000000000E+00 0. -1.
        -14    1    4    4    0    0  0.40078578998E+02  0.52857907460E+02  0.58436024230E+02  0.88402600660E+02  0.00000000000E+00 0.  1.
</event>
<event>
12    1  0.8488291E-002  0.2024635E+03  0.7818608E-02  0.1148045E+00
         21   -1    0    0  503  502  0.00000000000E+00  0.00000000000E+00  0.37533499566E+03  0.37533499566E+03  0.00000000000E+00 0.  1.
         21   -1    0    0  501  503 -0.00000000000E+00 -0.00000000000E+00 -0.14947290229E+03  0.14947290229E+03  0.00000000000E+00 0.  1.
          6    2    1    2  501    0 -0.37281152468E+02 -0.98563530846E+02 -0.25207483300E+02  0.20227508368E+03  0.17080731343E+03 0.  0.
         24    2    3    3    0    0 -0.55204871304E+02 -0.12766612673E+03 -0.71375892649E+01  0.16332855810E+03  0.85317377948E+02 0.  0.
         -6    2    1    2    0  502  0.37281152468E+02  0.98563530846E+02  0.25106957667E+03  0.32253281426E+03  0.17287807844E+03 0.  0.
        -24    2    5    5    0    0  0.70797221281E+01  0.34642457662E+01  0.18731214820E+03  0.20402922739E+03  0.80498206818E+02 0.  0.
          5    1    3    3  501    0  0.17923718835E+02  0.29102595886E+02 -0.18069894035E+02  0.38946525578E+02  0.47000000000E+01 0. -1.
        -13    1    4    4    0    0 -0.73314170623E+02 -0.96362930280E+02 -0.23982320781E+02  0.12343392425E+03  0.00000000000E+00 0.  1.
         14    1    4    4    0    0  0.18109299319E+02 -0.31303196451E+02  0.16844731516E+02  0.39894633847E+02  0.00000000000E+00 0. -1.
         -5    1    5    5    0  502  0.30201430340E+02  0.95099285080E+02  0.63757428469E+02  0.11850358687E+03  0.47000000000E+01 0.  1.
         13    1    6    6    0    0 -0.24333697957E+02  0.29723233201E+02  0.11049877385E+03  0.11698537716E+03  0.00000000000E+00 0. -1.
        -14    1    6    6    0    0  0.31413420085E+02 -0.26258987434E+02  0.76813374354E+02  0.87043850226E+02  0.00000000000E+00 0.  1.
</event>
<event>
12    1  0.8488291E-002  0.2160665E+03  0.7818608E-02  0.1139966E+00
         21   -1    0    0  503  502  0.00000000000E+00  0.00000000000E+00  0.26585988657E+03  0.26585988657E+03  0.00000000000E+00 0.  1.
         21   -1    0    0  501  503 -0.00000000000E+00 -0.00000000000E+00 -0.24600186275E+03  0.24600186275E+03  0.00000000000E+00 0.  1.
          6    2    1    2  501    0 -0.81990164887E+02  0.70744336863E+02 -0.13833998855E+03  0.25655928125E+03  0.18696942003E+03 0.  0.
         24    2    3    3    0    0 -0.10397460539E+03  0.80445282184E+02 -0.16070332423E+03  0.22339857036E+03  0.82457266692E+02 0.  0.
         -6    2    1    2    0  502  0.81990164887E+02 -0.70744336863E+02  0.15819801238E+03  0.25530246807E+03  0.16859890493E+03 0.  0.
        -24    2    5    5    0    0  0.10776303173E+03 -0.25325679860E+02  0.16220852911E+03  0.20271664000E+03  0.50280892504E+02 0.  0.
          5    1    3    3  501    0  0.21984440501E+02 -0.97009453210E+01  0.22363335673E+02  0.33160710890E+02  0.47000000000E+01 0. -1.
        -13    1    4    4    0    0 -0.93162229272E+02  0.24575568643E+02 -0.11748975118E+03  0.15194407250E+03  0.00000000000E+00 0.  1.
         14    1    4    4    0    0 -0.10812376116E+02  0.55869713541E+02 -0.43213573050E+02  0.71454497858E+02  0.00000000000E+00 0. -1.
         -5    1    5    5    0  502 -0.25772866839E+02 -0.45418657003E+02 -0.40105167269E+01  0.52585828067E+02  0.47000000000E+01 0.  1.
         13    1    6    6    0    0  0.71596636809E+02 -0.30115172162E+02  0.13972517154E+03  0.15986283357E+03  0.00000000000E+00 0. -1.
        -14    1    6    6    0    0  0.36166394918E+02  0.47894923019E+01  0.22483357571E+02  0.42853806430E+02  0.00000000000E+00 0.  1.
</event>
<event>
12    1  0.8488291E-002  0.2152956E+03  0.7818608E-02  0.1138442E+00
         21   -1    0    0  501  502  0.00000000000E+00  0.00000000000E+00  0.12333008191E+03  0.12333008191E+03  0.00000000000E+00 0.  1.
         21   -1    0    0  502  503 -0.00000000000E+00 -0.00000000000E+00 -0.37274177625E+03  0.37274177625E+03  0.00000000000E+00 0.  1.
         -6    2    1    2    0  503  0.11972960852E+03  0.10997048423E+02 -0.92127054777E+02  0.22944352259E+03  0.17233926310E+03 0.  0.
        -24    2    3    3    0    0  0.11517678140E+01 -0.24804620891E+01 -0.53236602240E+01  0.81797774592E+02  0.81578522350E+02 0.  0.
          6    2    1    2  501    0 -0.11972960852E+03 -0.10997048423E+02 -0.15728463956E+03  0.26662833557E+03  0.17859478507E+03 0.  0.
         24    2    5    5    0    0 -0.11511031001E+03 -0.45133088045E+02 -0.17519112779E+03  0.22752156581E+03  0.76070707533E+02 0.  0.
          5    1    5    5  501    0 -0.46192985148E+01  0.34136039622E+02  0.17906488231E+02  0.39106769754E+02  0.47000000000E+01 0. -1.
        -13    1    6    6    0    0 -0.39552269986E+02 -0.73158141852E+01 -0.91981907779E+01  0.41261482182E+02  0.00000000000E+00 0.  1.
         14    1    6    6    0    0 -0.75558040021E+02 -0.37817273860E+02 -0.16599293702E+03  0.18626008363E+03  0.00000000000E+00 0. -1.
         -5    1    3    3    0  503  0.11857784071E+03  0.13477510512E+02 -0.86803394553E+02  0.14764574800E+03  0.47000000000E+01 0.  1.
         11    1    4    4    0    0  0.31994253982E+02  0.10029365424E+02  0.20826151850E+02  0.39470863425E+02  0.00000000000E+00 0. -1.
        -12    1    4    4    0    0 -0.30842486168E+02 -0.12509827513E+02 -0.26149812074E+02  0.42326911167E+02  0.00000000000E+00 0.  1.
</event>
<event>
12    1  0.8488291E-002  0.1829442E+03  0.7818608E-02  0.1164984E+00
         21   -1    0    0  501  502  0.00000000000E+00  0.00000000000E+00  0.70297933262E+03  0.70297933262E+03  0.00000000000E+00 0.  1.
         21   -1    0    0  502  503 -0.00000000000E+00 -0.00000000000E+00 -0.56676924001E+02  0.56676924001E+02  0.00000000000E+00 0.  1.
         -6    2    1    2    0  503 -0.46753843484E+02  0.42740022854E+02  0.17122341860E+03  0.25057018934E+03  0.17162554960E+03 0.  0.
        -24    2    3    3    0    0 -0.93227518613E+02  0.23311794856E+02  0.87135286573E+02  0.15243679813E+03  0.80060035299E+02 0.  0.
          6    2    1    2  501    0  0.46753843484E+02 -0.42740022854E+02  0.47507899002E+03  0.50908606728E+03  0.17162734544E+03 0.  0.
         24    2    5    5    0    0  0.61294837798E+02 -0.13040383290E+02  0.13682194847E+03  0.16918398540E+03  0.77303729507E+02 0.  0.
          5    1    5    5  501    0 -0.14540994314E+02 -0.29699639564E+02  0.33825704156E+03  0.33990208188E+03  0.47000000000E+01 0. -1.
        -13    1    6    6    0    0  0.28735055145E+02 -0.31749189245E+02  0.12114563549E+03  0.12849116471E+03  0.00000000000E+00 0.  1.
         14    1    6    6    0    0  0.32559782653E+02  0.18708805955E+02  0.15676312982E+02  0.40692820686E+02  0.00000000000E+00 0. -1.
         -5    1    3    3    0  503  0.46473675129E+02  0.19428227998E+02  0.84088132026E+02  0.98133391212E+02  0.47000000000E+01 0.  1.
         13    1    4    4    0    0 -0.26920038093E+02 -0.21714026041E+02  0.57270598028E+02  0.66903727672E+02  0.00000000000E+00 0. -1.
        -14    1    4    4    0    0 -0.66307480520E+02  0.45025820897E+02  0.29864688545E+02  0.85533070460E+02  0.00000000000E+00 0.  1.
</event>
<event>
12    1  0.8488291E-002  0.1938449E+03  0.7818608E-02  0.1155653E+00
         21   -1    0    0  501  502  0.00000000000E+00  0.00000000000E+00  0.79702008065E+02  0.79702008065E+02  0.00000000000E+00 0.  1.
         21   -1    0    0  502  503 -0.00000000000E+00 -0.00000000000E+00 -0.46868889782E+03  0.46868889782E+03  0.00000000000E+00 0. -1.
         -6    2    1    2    0  503 -0.23302018342E+02  0.85328578441E+02 -0.21830711005E+03  0.29011311896E+03  0.16936256120E+03 0.  0.
        -24    2    3    3    0    0  0.93855303450E+01  0.10689624704E+03 -0.10315587288E+03  0.16839402601E+03  0.78743368436E+02 0.  0.
          6    2    1    2  501    0  0.23302018342E+02 -0.85328578441E+02 -0.17067977970E+03  0.25827778693E+03  0.17248732609E+03 0.  0.
         24    2    5    5    0    0 -0.47197920791E+02 -0.77030223897E+02 -0.12588780249E+03  0.17420927125E+03  0.79623063561E+02 0.  0.
          5    1    5    5  501    0  0.70499939133E+02 -0.82983545448E+01 -0.44791977211E+02  0.84068515679E+02  0.47000000000E+01 0. -1.
        -11    1    6    6    0    0  0.94818010186E+01 -0.43772936420E+02 -0.18818525721E+02  0.48580978002E+02  0.00000000000E+00 0.  1.
         12    1    6    6    0    0 -0.56679721810E+02 -0.33257287477E+02 -0.10706927677E+03  0.12562829324E+03  0.00000000000E+00 0. -1.
         -5    1    3    3    0  503 -0.32687548687E+02 -0.21567668603E+02 -0.11515123716E+03  0.12171909295E+03  0.47000000000E+01 0.  1.
         13    1    4    4    0    0  0.31903406066E+01  0.96732484634E+02 -0.11587227923E+03  0.15097594825E+03  0.00000000000E+00 0. -1.
        -14    1    4    4    0    0  0.61951897384E+01  0.10163762411E+02  0.12716406348E+02  0.17418077754E+02  0.00000000000E+00 0.  1.
</event>
<event>
12    1  0.8488291E-002  0.2279535E+03  0.7818608E-02  0.1130578E+00
         21   -1    0    0  501  502  0.00000000000E+00  0.00000000000E+00  0.47198707989E+02  0.47198707989E+02  0.00000000000E+00 0. -1.
         21   -1    0    0  502  503 -0.00000000000E+00 -0.00000000000E+00 -0.12997476533E+04  0.12997476533E+04  0.00000000000E+00 0. -1.
         -6    2    1    2    0  503  0.64956776739E+02 -0.12719906539E+03 -0.91394716256E+03  0.93876262250E+03  0.15992767232E+03 0.  0.
        -24    2    3    3    0    0  0.51705651901E+02 -0.22260922213E+01 -0.39214513654E+03  0.40201940578E+03  0.71856555657E+02 0.  0.
          6    2    1    2  501    0 -0.64956776739E+02  0.12719906539E+03 -0.33860178272E+03  0.40818373876E+03  0.17766207318E+03 0.  0.
         24    2    5    5    0    0 -0.96104232804E+01 -0.85488587411E+01 -0.11175104918E+03  0.13804661977E+03  0.80019553965E+02 0.  0.
          5    1    5    5  501    0 -0.55346353459E+02  0.13574792413E+03 -0.22685073354E+03  0.27013711899E+03  0.47000000000E+01 0. -1.
        -11    1    6    6    0    0  0.22751201584E+02 -0.25532814086E+02 -0.88123342773E+02  0.94526532307E+02  0.00000000000E+00 0.  1.
         12    1    6    6    0    0 -0.32361624864E+02  0.16983955344E+02 -0.23627706406E+02  0.43520087465E+02  0.00000000000E+00 0. -1.
         -5    1    3    3    0  503  0.13251124838E+02 -0.12497297316E+03 -0.52180202602E+03  0.53674321671E+03  0.47000000000E+01 0.  1.
         11    1    4    4    0    0  0.65650037670E+02 -0.89872315157E+01 -0.23658172573E+03  0.24568600026E+03  0.00000000000E+00 0. -1.
        -12    1    4    4    0    0 -0.13944385769E+02  0.67611392944E+01 -0.15556341081E+03  0.15633340552E+03  0.00000000000E+00 0.  1.
</event>
<event>
12    1  0.8488291E-002  0.2715554E+03  0.7818608E-02  0.1100675E+00
         21   -1    0    0  501  502  0.00000000000E+00  0.00000000000E+00  0.63859599966E+02  0.63859599966E+02  0.00000000000E+00 0.  1.
         21   -1    0    0  502  503 -0.00000000000E+00 -0.00000000000E+00 -0.11541375371E+04  0.11541375371E+04  0.00000000000E+00 0. -1.
         -6    2    1    2    0  503 -0.20261258535E+03 -0.47826866685E+02 -0.59318126986E+03  0.65156316891E+03  0.17126375928E+03 0.  0.
        -24    2    3    3    0    0 -0.10196525321E+03 -0.34486530782E+02 -0.17237598046E+03  0.21865783097E+03  0.80694081172E+02 0.  0.
          6    2    1    2  501    0  0.20261258535E+03  0.47826866685E+02 -0.49709666726E+03  0.56643396815E+03  0.17436477497E+03 0.  0.
         24    2    5    5    0    0  0.16620307417E+03  0.26003631138E+02 -0.22817920017E+03  0.29414625226E+03  0.78464129612E+02 0.  0.
          5    1    5    5  501    0  0.36409511185E+02  0.21823235546E+02 -0.26891746710E+03  0.27228771589E+03  0.47000000000E+01 0. -1.
        -11    1    6    6    0    0  0.18287320623E+02  0.11791155237E+02  0.10477025167E+00  0.21759329360E+02  0.00000000000E+00 0.  1.
         12    1    6    6    0    0  0.14791575354E+03  0.14212475901E+02 -0.22828397042E+03  0.27238692290E+03  0.00000000000E+00 0. -1.
         -5    1    3    3    0  503 -0.10064733214E+03 -0.13340335903E+02 -0.42080528940E+03  0.43290533794E+03  0.47000000000E+01 0.  1.
         11    1    4    4    0    0 -0.80121134476E+02  0.11426251877E+01 -0.64155698766E+02  0.10264821219E+03  0.00000000000E+00 0. -1.
        -12    1    4    4    0    0 -0.21844118735E+02 -0.35629155969E+02 -0.10822028170E+03  0.11600961878E+03  0.00000000000E+00 0.  1.
</event>
<event>
12    1  0.8488291E-002  0.2030265E+03  0.7818608E-02  0.1147261E+00
         21   -1    0    0  501  502  0.00000000000E+00  0.00000000000E+00  0.26316090858E+02  0.26316090858E+02  0.00000000000E+00 0.  1.
         21   -1    0    0  502  503 -0.00000000000E+00 -0.00000000000E+00 -0.19894685953E+04  0.19894685953E+04  0.00000000000E+00 0.  1.
         -6    2    1    2    0  503  0.10639237756E+03 -0.20061043727E+02 -0.14469664356E+04  0.14611065614E+04  0.17146059182E+03 0.  0.
        -24    2    3    3    0    0  0.84826349408E+02  0.48876324611E+02 -0.77153744861E+03  0.78180996876E+03  0.79827238272E+02 0.  0.
          6    2    1    2  501    0 -0.10639237756E+03  0.20061043727E+02 -0.51618606885E+03  0.55467812476E+03  0.17174976255E+03 0.  0.
         24    2    5    5    0    0 -0.12829319704E+03  0.53758562066E+02 -0.36538678054E+03  0.39854457939E+03  0.77337927067E+02 0.  0.
          5    1    5    5  501    0  0.21900819481E+02 -0.33697518339E+02 -0.15079928831E+03  0.15613354537E+03  0.47000000000E+01 0. -1.
        -13    1    6    6    0    0 -0.82923946705E+02  0.68778224071E+02 -0.28913023413E+03  0.30855002403E+03  0.00000000000E+00 0.  1.
         14    1    6    6    0    0 -0.45369250338E+02 -0.15019662005E+02 -0.76256546417E+02  0.89994555360E+02  0.00000000000E+00 0. -1.
         -5    1    3    3    0  503  0.21566028155E+02 -0.68937368338E+02 -0.67542898702E+03  0.67929659268E+03  0.47000000000E+01 0.  1.
         11    1    4    4    0    0  0.73125617313E+01  0.46838821995E+02 -0.35056931321E+03  0.35376007713E+03  0.00000000000E+00 0. -1.
        -12    1    4    4    0    0  0.77513787676E+02  0.20375026161E+01 -0.42096813540E+03  0.42804989163E+03  0.00000000000E+00 0.  1.
</event>
<event>
12    1  0.8488291E-002  0.1929846E+03  0.7818608E-02  0.1155936E+00
         21   -1    0    0  503  502  0.00000000000E+00  0.00000000000E+00  0.11755332406E+03  0.11755332406E+03  0.00000000000E+00 0. -1.
         21   -1    0    0  501  503 -0.00000000000E+00 -0.00000000000E+00 -0.39558825233E+03  0.39558825233E+03  0.00000000000E+00 0. -1.
          6    2    1    2  501    0  0.16322110432E+02  0.86748597972E+02 -0.25407251038E+03  0.31867499120E+03  0.17090693066E+03 0.  0.
         24    2    3    3    0    0  0.29154465701E+02  0.95915572345E+02 -0.99178194480E+02  0.16290900692E+03  0.81567459121E+02 0.  0.
         -6    2    1    2    0  502 -0.16322110432E+02 -0.86748597972E+02 -0.23962417899E+02  0.19446658519E+03  0.17161388273E+03 0.  0.
        -24    2    5    5    0    0  0.30991320141E+02 -0.10778708104E+03 -0.28704625910E+02  0.14225780222E+03  0.82672909592E+02 0.  0.
          5    1    3    3  501    0 -0.12832355269E+02 -0.91669743730E+01 -0.15489431589E+03  0.15576598428E+03  0.47000000000E+01 0. -1.
        -13    1    4    4    0    0  0.74432691553E+01  0.16938755413E+02  0.14000215933E+02  0.23201933902E+02  0.00000000000E+00 0.  1.
         14    1    4    4    0    0  0.21711196546E+02  0.78976816932E+02 -0.11317841041E+03  0.13970707302E+03  0.00000000000E+00 0. -1.
         -5    1    5    5    0  502 -0.47313430573E+02  0.21038483072E+02  0.47422080109E+01  0.52208782971E+02  0.47000000000E+01 0.  1.
         13    1    6    6    0    0 -0.17511391072E+02 -0.83066314191E+02 -0.17661994277E+02  0.86709903773E+02  0.00000000000E+00 0. -1.
        -14    1    6    6    0    0  0.48502711212E+02 -0.24720766853E+02 -0.11042631634E+02  0.55547898449E+02  0.00000000000E+00 0.  1.
</event>
<event>
12    1  0.8488291E-002  0.1765057E+03  0.7818608E-02  0.1172610E+00
         21   -1    0    0  503  502  0.00000000000E+00  0.00000000000E+00  0.62142174237E+02  0.62142174237E+02  0.00000000000E+00 0.  1.
         21   -1    0    0  501  503 -0.00000000000E+00 -0.00000000000E+00 -0.77621064412E+03  0.77621064412E+03  0.00000000000E+00 0.  1.
          6    2    1    2  501    0 -0.15712028774E+02  0.23128699179E+02 -0.61688150995E+03  0.64163622963E+03  0.17427693274E+03 0.  0.
         24    2    3    3    0    0 -0.62185011471E+01 -0.53312329492E+02 -0.26909812796E+03  0.28539371572E+03  0.78453146963E+02 0.  0.
         -6    2    1    2    0  502  0.15712028774E+02 -0.23128699179E+02 -0.97186959935E+02  0.19671658872E+03  0.16873146276E+03 0.  0.
        -24    2    5    5    0    0  0.61944369780E+02 -0.15367109735E+02 -0.16051950142E+02  0.10289414237E+03  0.79096690334E+02 0.  0.
          5    1    3    3  501    0 -0.94935276269E+01  0.76441028671E+02 -0.34778338200E+03  0.35624251392E+03  0.47000000000E+01 0. -1.
        -11    1    4    4    0    0 -0.24263557292E+02 -0.22445873720E+02 -0.23019547412E+03  0.23255643135E+03  0.00000000000E+00 0.  1.
         12    1    4    4    0    0  0.18045056145E+02 -0.30866455772E+02 -0.38902653839E+02  0.52837284363E+02  0.00000000000E+00 0. -1.
         -5    1    5    5    0  502 -0.46232341006E+02 -0.77615894441E+01 -0.81135009793E+02  0.93822446353E+02  0.47000000000E+01 0.  1.
         11    1    6    6    0    0 -0.35639563931E+01 -0.23984239948E+02  0.16409193562E+02  0.29278100765E+02  0.00000000000E+00 0. -1.
        -12    1    6    6    0    0  0.65508326174E+02  0.86171302133E+01 -0.32461143704E+02  0.73616041606E+02  0.00000000000E+00 0.  1.
</event>
<event>
12    1  0.8488291E-002  0.1854030E+03  0.7818608E-02  0.1162724E+00
         21   -1    0    0  501  502  0.00000000000E+00  0.00000000000E+00  0.58267713108E+03  0.58267713108E+03  0.00000000000E+00 0.  1.
         21   -1    0    0  502  503 -0.00000000000E+00 -0.00000000000E+00 -0.60417590753E+02  0.60417590753E+02  0.00000000000E+00 0.  1.
         -6    2    1    2    0  503  0.60648019764E+02  0.32270789857E+02  0.21046432486E+03  0.28034064532E+03  0.17197691473E+03 0.  0.
        -24    2    3    3    0    0 -0.32737104636E+02  0.27048089973E+02  0.10374288235E+03  0.13835608861E+03  0.81095649857E+02 0.  0.
          6    2    1    2  501    0 -0.60648019764E+02 -0.32270789857E+02  0.31179521546E+03  0.36275407651E+03  0.17220533516E+03 0.  0.
         24    2    5    5    0    0  0.29684091214E+02 -0.83455148971E+01  0.10470576223E+03  0.13550874499E+03  0.80302742388E+02 0.  0.
          5    1    5    5  501    0 -0.90332110978E+02 -0.23925274960E+02  0.20708945323E+03  0.22724533151E+03  0.47000000000E+01 0. -1.
        -11    1    6    6    0    0 -0.76337392803E+01 -0.27928973733E+02  0.83404662468E+02  0.88287254293E+02  0.00000000000E+00 0.  1.
         12    1    6    6    0    0  0.37317830494E+02  0.19583458836E+02  0.21301099762E+02  0.47221490699E+02  0.00000000000E+00 0. -1.
         -5    1    3    3    0  503  0.93385124400E+02  0.52226998841E+01  0.10672144251E+03  0.14198455671E+03  0.47000000000E+01 0.  1.
         13    1    4    4    0    0 -0.45186813161E+01 -0.16391815419E+02 -0.51534490644E+01  0.17767051833E+02  0.00000000000E+00 0. -1.
        -14    1    4    4    0    0 -0.28218423320E+02  0.43439905392E+02  0.10889633142E+03  0.12058903678E+03  0.00000000000E+00 0.  1.
</event>
<event>
12    1  0.8488291E-002  0.2152776E+03  0.7818608E-02  0.1137467E+00
         21   -1    0    0  503  502  0.00000000000E+00  0.00000000000E+00  0.81889459968E+02  0.81889459968E+02  0.00000000000E+00 0. -1.
         21   -1    0    0  501  503 -0.00000000000E+00 -0.00000000000E+00 -0.94145304510E+03  0.94145304510E+03  0.00000000000E+00 0. -1.
          6    2    1    2  501    0 -0.32114387733E+02 -0.12530922390E+03 -0.75305332609E+03  0.78322011921E+03  0.17207762115E+03 0.  0.
         24    2    3    3    0    0  0.38391364710E+02 -0.30874288852E+02 -0.42042200596E+03  0.43029703521E+03  0.77290082287E+02 0.  0.
         -6    2    1    2    0  502  0.32114387733E+02  0.12530922390E+03 -0.10651025904E+03  0.24012238586E+03  0.17199008523E+03 0.  0.
        -24    2    5    5    0    0  0.85171053100E+02  0.10540778853E+03 -0.90817147244E+02  0.18113560236E+03  0.78723834008E+02 0.  0.
          5    1    3    3  501    0 -0.70505752443E+02 -0.94434935045E+02 -0.33263132013E+03  0.35292308400E+03  0.47000000000E+01 0. -1.
        -13    1    4    4    0    0 -0.23108225534E+02 -0.11209342611E+02 -0.15639157736E+03  0.15848648182E+03  0.00000000000E+00 0.  1.
         14    1    4    4    0    0  0.61499590243E+02 -0.19664946241E+02 -0.26403042859E+03  0.27181055339E+03  0.00000000000E+00 0. -1.
         -5    1    5    5    0  502 -0.53056665366E+02  0.19901435366E+02 -0.15693111794E+02  0.58986783496E+02  0.47000000000E+01 0.  1.
         13    1    6    6    0    0 -0.92463880113E+01  0.24732359960E+02  0.14155760600E+01  0.26442185538E+02  0.00000000000E+00 0. -1.
        -14    1    6    6    0    0  0.94417441111E+02  0.80675428571E+02 -0.92232723304E+02  0.15469341683E+03  0.00000000000E+00 0.  1.
</event>
<event>
12    1  0.8488291E-002  0.3419540E+03  0.7818608E-02  0.1066032E+00
         21   -1    0    0  501  502  0.00000000000E+00  0.00000000000E+00  0.17081080293E+03  0.17081080293E+03  0.00000000000E+00 0. -1.
         21   -1    0    0  502  503 -0.00000000000E+00 -0.00000000000E+00 -0.71688048691E+03  0.71688048691E+03  0.00000000000E+00 0.  1.
         -6    2    1    2    0  503  0.23797054003E+03 -0.17450724396E+03 -0.36880455872E+03  0.50252185994E+03  0.17154783899E+03 0.  0.
        -24    2    3    3    0    0  0.19704037607E+03 -0.11397006690E+03 -0.18363857485E+03  0.30340239903E+03  0.80720527840E+02 0.  0.
          6    2    1    2  501    0 -0.23797054003E+03  0.17450724396E+03 -0.17726512526E+03  0.38516942989E+03  0.17277097259E+03 0.  0.
         24    2    5    5    0    0 -0.23001510739E+03  0.11568031966E+03 -0.18397686489E+03  0.32524419831E+03  0.75149289634E+02 0.  0.
          5    1    5    5  501    0 -0.79554326410E+01  0.58826924301E+02  0.67117396327E+01  0.59925231582E+02  0.47000000000E+01 0. -1.
        -13    1    6    6    0    0 -0.80124745546E+02  0.28861895234E+02 -0.10409352934E+03  0.13449329610E+03  0.00000000000E+00 0.  1.
         14    1    6    6    0    0 -0.14989036185E+03  0.86818424428E+02 -0.79883335549E+02  0.19075090221E+03  0.00000000000E+00 0. -1.
         -5    1    3    3    0  503  0.40930163967E+02 -0.60537177064E+02 -0.18516598387E+03  0.19911946091E+03  0.47000000000E+01 0.  1.
         11    1    4    4    0    0  0.18298479847E+03 -0.12603791594E+03 -0.16236579955E+03  0.27519383276E+03  0.00000000000E+00 0. -1.
        -12    1    4    4    0    0  0.14055577598E+02  0.12067849041E+02 -0.21272775299E+02  0.28208566270E+02  0.00000000000E+00 0.  1.
</event>
<event>
12    1  0.8488291E-002  0.1985167E+03  0.7818608E-02  0.1151208E+00
         21   -1    0    0  503  502  0.00000000000E+00  0.00000000000E+00  0.73406906019E+03  0.73406906019E+03  0.00000000000E+00 0.  1.
         21   -1    0    0  501  503 -0.00000000000E+00 -0.00000000000E+00 -0.57347499638E+02  0.57347499638E+02  0.00000000000E+00 0.  1.
          6    2    1    2  501    0  0.34473866178E+02 -0.91353516977E+02  0.23398269273E+03  0.30620878393E+03  0.17170325084E+03 0.  0.
         24    2    3    3    0    0  0.13204796878E+02 -0.12774910460E+03  0.20243621289E+03  0.25334781064E+03  0.81917595655E+02 0.  0.
         -6    2    1    2    0  502 -0.34473866178E+02  0.91353516977E+02  0.44273886782E+03  0.48520777589E+03  0.17284376816E+03 0.  0.
        -24    2    5    5    0    0  0.38918177753E+02  0.86361511612E+02  0.26189704305E+03  0.28992037789E+03  0.80565681969E+02 0.  0.
          5    1    3    3  501    0  0.21269069300E+02  0.36395587628E+02  0.31546479837E+02  0.52860973296E+02  0.47000000000E+01 0. -1.
        -13    1    4    4    0    0  0.29851829778E+02 -0.11699835331E+03  0.12653540273E+03  0.17490270027E+03  0.00000000000E+00 0.  1.
         14    1    4    4    0    0 -0.16647032900E+02 -0.10750751298E+02  0.75900810159E+02  0.78445110368E+02  0.00000000000E+00 0. -1.
         -5    1    5    5    0  502 -0.73392043931E+02  0.49920053650E+01  0.18084182477E+03  0.19528739800E+03  0.47000000000E+01 0.  1.
         11    1    6    6    0    0  0.37760483907E+02  0.10251685815E+02  0.14683733099E+03  0.15196102454E+03  0.00000000000E+00 0. -1.
        -12    1    6    6    0    0  0.11576938455E+01  0.76109825797E+02  0.11505971206E+03  0.13795935335E+03  0.00000000000E+00 0.  1.
</event>
<event>
12    1  0.8488291E-002  0.1767737E+03  0.7818608E-02  0.1171363E+00
         21   -1    0    0  503  502  0.00000000000E+00  0.00000000000E+00  0.48894031134E+03  0.48894031134E+03  0.00000000000E+00 0. -1.
         21   -1    0    0  501  503 -0.00000000000E+00 -0.00000000000E+00 -0.63789229975E+02  0.63789229975E+02  0.00000000000E+00 0. -1.
          6    2    1    2  501    0  0.40513634112E+02 -0.98888303528E-01  0.23503633239E+03  0.29312876562E+03  0.17041429330E+03 0.  0.
         24    2    3    3    0    0 -0.57691444018E+01  0.18391220871E+02  0.36462914130E+02  0.88342359420E+02  0.78123673293E+02 0.  0.
         -6    2    1    2    0  502 -0.40513634112E+02  0.98888303528E-01  0.19011474897E+03  0.25960077570E+03  0.17206853471E+03 0.  0.
        -24    2    5    5    0    0 -0.96944080261E+01 -0.62883037772E+02  0.73594391403E+02  0.12352862044E+03  0.76124422063E+02 0.  0.
          5    1    3    3  501    0  0.46282778514E+02 -0.18490109175E+02  0.19857341826E+03  0.20478640620E+03  0.47000000000E+01 0. -1.
        -13    1    4    4    0    0 -0.26615763431E+02  0.34282452491E+02  0.43242884238E+02  0.61266895213E+02  0.00000000000E+00 0.  1.
         14    1    4    4    0    0  0.20846619029E+02 -0.15891231620E+02 -0.67799701087E+01  0.27075464207E+02  0.00000000000E+00 0. -1.
         -5    1    5    5    0  502 -0.30819226086E+02  0.62981926075E+02  0.11652035757E+03  0.13607215526E+03  0.47000000000E+01 0.  1.
         11    1    6    6    0    0  0.39350741529E+01  0.99874473014E+01 -0.79234937508E+01  0.13342251137E+02  0.00000000000E+00 0. -1.
        -12    1    6    6    0    0 -0.13629482179E+02 -0.72870485073E+02  0.81517885154E+02  0.11018636930E+03  0.00000000000E+00 0.  1.
</event>
<event>
12    1  0.8488291E-002  0.2065004E+03  0.7818608E-02  0.1144398E+00
         21   -1    0    0  503  502  0.00000000000E+00  0.00000000000E+00  0.14990028753E+04  0.14990028753E+04  0.00000000000E+00 0.  1.
         21   -1    0    0  501  503 -0.00000000000E+00 -0.00000000000E+00 -0.30261002395E+02  0.30261002395E+02  0.00000000000E+00 0.  1.
          6    2    1    2  501    0 -0.10970988408E+03 -0.32306358824E+02  0.92286498247E+03  0.94568609310E+03  0.17193734711E+03 0.  0.
         24    2    3    3    0    0 -0.82699429554E+02  0.34309272152E+02  0.73217997018E+03  0.74184774819E+03  0.78957272992E+02 0.  0.
         -6    2    1    2    0  502  0.10970988408E+03  0.32306358824E+02  0.54587689043E+03  0.58357778459E+03  0.17175998275E+03 0.  0.
        -24    2    5    5    0    0  0.10415093327E+03 -0.33953131927E+02  0.31082181797E+03  0.33925382109E+03  0.80515343453E+02 0.  0.
          5    1    3    3  501    0 -0.27010454522E+02 -0.66615630976E+02  0.19068501229E+03  0.20383834491E+03  0.47000000000E+01 0. -1.
        -13    1    4    4    0    0 -0.40036681550E+02 -0.19035299511E+02  0.17636505621E+03  0.18185134465E+03  0.00000000000E+00 0.  1.
         14    1    4    4    0    0 -0.42662748004E+02  0.53344571663E+02  0.55581491396E+03  0.55999640354E+03  0.00000000000E+00 0. -1.
         -5    1    5    5    0  502  0.55589508048E+01  0.66259490751E+02  0.23505507246E+03  0.24432396350E+03  0.47000000000E+01 0.  1.
         11    1    6    6    0    0  0.21224164554E+02 -0.42319726854E+02  0.16090717356E+03  0.16772758553E+03  0.00000000000E+00 0. -1.
        -12    1    6    6    0    0  0.82926768717E+02  0.83665949265E+01  0.14991464440E+03  0.17152623557E+03  0.00000000000E+00 0.  1.
</event>
<event>
12    1  0.8488291E-002  0.2338442E+03  0.7818608E-02  0.1124071E+00
         21   -1    0    0  503  502  0.00000000000E+00  0.00000000000E+00  0.51373934035E+03  0.51373934035E+03  0.00000000000E+00 0. -1.
         21   -1    0    0  501  503 -0.00000000000E+00 -0.00000000000E+00 -0.25551278141E+03  0.25551278141E+03  0.00000000000E+00 0. -1.
          6    2    1    2  501    0 -0.82603052020E+02 -0.13480015560E+03 -0.16502365919E+03  0.28569873881E+03  0.17145441118E+03 0.  0.
         24    2    3    3    0    0 -0.12407525212E+03 -0.97963500542E+02 -0.11731075800E+03  0.21238098191E+03  0.79701643074E+02 0.  0.
         -6    2    1    2    0  502  0.82603052020E+02  0.13480015560E+03  0.42325021813E+03  0.48355338295E+03  0.17230432631E+03 0.  0.
        -24    2    5    5    0    0  0.39394760346E+02  0.16495685720E+02  0.94437000799E+02  0.13141260719E+03  0.80789055067E+02 0.  0.
          5    1    3    3  501    0  0.41472200098E+02 -0.36836655056E+02 -0.47712901188E+02  0.73317756897E+02  0.47000000000E+01 0. -1.
        -11    1    4    4    0    0 -0.91363941041E+02 -0.57386613549E+02 -0.32225945947E+02  0.11260153076E+03  0.00000000000E+00 0.  1.
         12    1    4    4    0    0 -0.32711311077E+02 -0.40576886993E+02 -0.85084812050E+02  0.99779451151E+02  0.00000000000E+00 0. -1.
         -5    1    5    5    0  502  0.43208291674E+02  0.11830446988E+03  0.32881321733E+03  0.35214077576E+03  0.47000000000E+01 0.  1.
         11    1    6    6    0    0 -0.19411634063E+02  0.23467468676E+02  0.44642296788E+02  0.54041357178E+02  0.00000000000E+00 0. -1.
        -12    1    6    6    0    0  0.58806394410E+02 -0.69717829565E+01  0.49794704011E+02  0.77371250013E+02  0.00000000000E+00 0.  1.
</event>
<event>
12    1  0.8488291E-002  0.2239424E+03  0.7818608E-02  0.1131232E+00
         21   -1    0    0  503  502  0.00000000000E+00  0.00000000000E+00  0.16921302949E+04  0.16921302949E+04  0.00000000000E+00 0.  1.
         21   -1    0    0  501  503 -0.00000000000E+00 -0.00000000000E+00 -0.60748919226E+02  0.60748919226E+02  0.00000000000E+00 0.  1.
          6    2    1    2  501    0 -0.14330069896E+03 -0.19248745787E+00  0.18786191011E+03  0.29230516772E+03  0.17209034381E+03 0.  0.
         24    2    3    3    0    0 -0.45383662453E+02  0.31638565423E+02  0.54670980502E+02  0.12389235438E+03  0.96435075184E+02 0.  0.
         -6    2    1    2    0  502  0.14330069896E+03  0.19248745787E+00  0.14435194656E+04  0.14605740464E+04  0.17027322220E+03 0.  0.
        -24    2    5    5    0    0  0.31047838661E+02 -0.50858848396E+02  0.60469821170E+03  0.61272374743E+03  0.78866169467E+02 0.  0.
          5    1    3    3  501    0 -0.97917036511E+02 -0.31831052881E+02  0.13319092961E+03  0.16841281334E+03  0.47000000000E+01 0. -1.
        -13    1    4    4    0    0 -0.70947748202E+02  0.35573792814E+02  0.57306290776E+02  0.97893251415E+02  0.00000000000E+00 0.  1.
         14    1    4    4    0    0  0.25564085750E+02 -0.39352273915E+01 -0.26353102747E+01  0.25999102967E+02  0.00000000000E+00 0. -1.
         -5    1    5    5    0  502  0.11225286030E+03  0.51051335854E+02  0.83882125390E+03  0.84785029901E+03  0.47000000000E+01 0.  1.
         13    1    6    6    0    0  0.98269057703E+01 -0.39118363269E+02  0.56331966131E+03  0.56476176857E+03  0.00000000000E+00 0. -1.
        -14    1    6    6    0    0  0.21220932891E+02 -0.11740485127E+02  0.41378550398E+02  0.47961978866E+02  0.00000000000E+00 0.  1.
</event>
<event>
12    1  0.8488291E-002  0.1946786E+03  0.7818608E-02  0.1154320E+00
         21   -1    0    0  503  502  0.00000000000E+00  0.00000000000E+00  0.19192031171E+04  0.19192031171E+04  0.00000000000E+00 0.  1.
         21   -1    0    0  501  503 -0.00000000000E+00 -0.00000000000E+00 -0.56260348999E+02  0.56260348999E+02  0.00000000000E+00 0.  1.
          6    2    1    2  501    0  0.10677643794E+02 -0.90029745174E+02  0.13573707774E+03  0.23732740224E+03  0.17227993060E+03 0.  0.
         24    2    3    3    0    0  0.26627434313E+02 -0.82187702784E+02  0.24612946326E+02  0.12469278931E+03  0.86479221970E+02 0.  0.
         -6    2    1    2    0  502 -0.10677643794E+02  0.90029745174E+02  0.17272056904E+04  0.17381360639E+04  0.17221530879E+03 0.  0.
        -24    2    5    5    0    0 -0.46776705158E+02 -0.65467591099E+01  0.78170224550E+03  0.78701618831E+03  0.78135522340E+02 0.  0.
          5    1    3    3  501    0 -0.15949790520E+02 -0.78420423906E+01  0.11112413141E+03  0.11263461293E+03  0.47000000000E+01 0. -1.
        -11    1    4    4    0    0  0.10782414795E+02 -0.65406761120E+02 -0.24304114430E+02  0.70604495942E+02  0.00000000000E+00 0.  1.
         12    1    4    4    0    0  0.15845019518E+02 -0.16780941664E+02  0.48917060756E+02  0.54088293370E+02  0.00000000000E+00 0. -1.
         -5    1    5    5    0  502  0.36099061364E+02  0.96576504284E+02  0.94550344487E+03  0.95111987556E+03  0.47000000000E+01 0.  1.
         11    1    6    6    0    0  0.15052653978E+02 -0.14645700347E+02  0.37233262455E+03  0.37292447257E+03  0.00000000000E+00 0. -1.
        -12    1    6    6    0    0 -0.61829359136E+02  0.80989412370E+01  0.40936962094E+03  0.41409171575E+03  0.00000000000E+00 0.  1.
</event>
<event>
12    1  0.8488291E-002  0.1862877E+03  0.7818608E-02  0.1163397E+00
         21   -1    0    0  501  502  0.00000000000E+00  0.00000000000E+00  0.53967480987E+03  0.53967480987E+03  0.00000000000E+00 0. -1.
         21   -1    0    0  502  503 -0.00000000000E+00 -0.00000000000E+00 -0.69955853741E+02  0.69955853741E+02  0.00000000000E+00 0. -1.
         -6    2    1    2    0  503 -0.48139888712E+02 -0.24140442798E+02  0.13621508998E+03  0.23077619835E+03  0.17833365674E+03 0.  0.
        -24    2    3    3    0    0 -0.10107414921E+03 -0.29492447726E+02  0.10590333411E+03  0.16936306918E+03  0.79890831236E+02 0.  0.
          6    2    1    2  501    0  0.48139888712E+02  0.24140442798E+02  0.33350386615E+03  0.37885446525E+03  0.17148080721E+03 0.  0.
         24    2    5    5    0    0 -0.18683993168E+02 -0.30169763807E+02  0.22011820717E+03  0.23639946396E+03  0.78570829097E+02 0.  0.
          5    1    5    5  501    0  0.66823881880E+02  0.54310206605E+02  0.11338565898E+03  0.14245500129E+03  0.47000000000E+01 0. -1.
        -11    1    6    6    0    0 -0.40273555534E+02  0.78443831858E+01  0.84996847465E+02  0.94381977633E+02  0.00000000000E+00 0.  1.
         12    1    6    6    0    0  0.21589562366E+02 -0.38014146993E+02  0.13512135971E+03  0.14201748633E+03  0.00000000000E+00 0. -1.
         -5    1    3    3    0  503  0.52934260497E+02  0.53520049281E+01  0.30311755863E+02  0.61413129171E+02  0.47000000000E+01 0.  1.
         11    1    4    4    0    0  0.64950003889E+01  0.10302514537E+02 -0.14512523108E+01  0.12265111867E+02  0.00000000000E+00 0. -1.
        -12    1    4    4    0    0 -0.10756914960E+03 -0.39794962263E+02  0.10735458642E+03  0.15709795732E+03  0.00000000000E+00 0.  1.
</event>
<event>
12    1  0.8488291E-002  0.1787084E+03  0.7818608E-02  0.1169444E+00
         21   -1    0    0  501  502  0.00000000000E+00  0.00000000000E+00  0.72132784309E+02  0.72132784309E+02  0.00000000000E+00 0.  1.
         21   -1    0    0  502  503 -0.00000000000E+00 -0.00000000000E+00 -0.12749146873E+04  0.12749146873E+04  0.00000000000E+00 0. -1.
         -6    2    1    2    0  503  0.88789881761E+01  0.49005676732E+02 -0.11477177940E+04  0.11615475947E+04  0.17162834095E+03 0.  0.
        -24    2    3    3    0    0  0.84361906423E+01  0.47690092648E+02 -0.11515294930E+04  0.11553390619E+04  0.80266184490E+02 0.  0.
          6    2    1    2  501    0 -0.88789881761E+01 -0.49005676732E+02 -0.55064108976E+02  0.18549987685E+03  0.16999339819E+03 0.  0.
         24    2    5    5    0    0  0.19942582872E+02 -0.27299631743E+02  0.32273668815E+02  0.90885856869E+02  0.77946602075E+02 0.  0.
          5    1    5    5  501    0 -0.28821571048E+02 -0.21706044988E+02 -0.87337777791E+02  0.94614019977E+02  0.47000000000E+01 0. -1.
        -13    1    6    6    0    0  0.12021665957E+02 -0.50920217927E+02  0.29432423402E+01  0.52402783529E+02  0.00000000000E+00 0.  1.
         14    1    6    6    0    0  0.79209169152E+01  0.23620586184E+02  0.29330426475E+02  0.38483073339E+02  0.00000000000E+00 0. -1.
         -5    1    3    3    0  503  0.44279753381E+00  0.13155840835E+01  0.38116990079E+01  0.62085328753E+01  0.47000000000E+01 0.  1.
         11    1    4    4    0    0 -0.21955271431E+02  0.39602221054E+02 -0.31705295258E+03  0.32027011193E+03  0.00000000000E+00 0. -1.
        -12    1    4    4    0    0  0.30391462073E+02  0.80878715939E+01 -0.83447654042E+03  0.83506894994E+03  0.00000000000E+00 0.  1.
</event>
<event>
12    1  0.8488291E-002  0.1846345E+03  0.7818608E-02  0.1163924E+00
         21   -1    0    0  501  502  0.00000000000E+00  0.00000000000E+00  0.19588165575E+03  0.19588165575E+03  0.00000000000E+00 0.  1.
         21   -1    0    0  502  503 -0.00000000000E+00 -0.00000000000E+00 -0.21501109604E+03  0.21501109604E+03  0.00000000000E+00 0.  1.
         -6    2    1    2    0  503  0.63538192263E+02 -0.14511968633E+02 -0.10149887554E+03  0.20871799627E+03  0.17033344100E+03 0.  0.
        -24    2    3    3    0    0  0.82673852682E+02 -0.40166954602E+02 -0.12123475622E+03  0.17082410770E+03  0.77683070854E+02 0.  0.
          6    2    1    2  501    0 -0.63538192263E+02  0.14511968633E+02  0.82369435244E+02  0.20217475552E+03  0.17274897625E+03 0.  0.
         24    2    5    5    0    0 -0.63098885085E+02 -0.57140898904E+00  0.12240140461E+03  0.15913582148E+03  0.79751551838E+02 0.  0.
          5    1    5    5  501    0 -0.43930717834E+00  0.15083377622E+02 -0.40031969370E+02  0.43038934035E+02  0.47000000000E+01 0. -1.
        -11    1    6    6    0    0 -0.10992013032E+02  0.79941324256E+01 -0.98144961164E+01  0.16764690208E+02  0.00000000000E+00 0.  1.
         12    1    6    6    0    0 -0.52106872053E+02 -0.85655414146E+01  0.13221590073E+03  0.14237113128E+03  0.00000000000E+00 0. -1.
         -5    1    3    3    0  503 -0.19135660418E+02  0.25654985969E+02  0.19735880678E+02  0.37893888569E+02  0.47000000000E+01 0.  1.
         11    1    4    4    0    0  0.30349054819E+02 -0.44834564915E+02 -0.21798548816E+02  0.58364201956E+02  0.00000000000E+00 0. -1.
        -12    1    4    4    0    0  0.52324797862E+02  0.46676103126E+01 -0.99436207405E+02  0.11245990575E+03  0.00000000000E+00 0.  1.
</event>
<event>
12    1  0.8488291E-002  0.2187987E+03  0.7818608E-02  0.1135181E+00
         21   -1    0    0  501  502  0.00000000000E+00  0.00000000000E+00  0.81883800987E+02  0.81883800987E+02  0.00000000000E+00 0. -1.
         21   -1    0    0  502  503 -0.00000000000E+00 -0.00000000000E+00 -0.58633063900E+03  0.58633063900E+03  0.00000000000E+00 0. -1.
         -6    2    1    2    0  503  0.91114554223E+02  0.10074121190E+03 -0.29077161085E+03  0.36389695306E+03  0.17152903255E+03 0.  0.
        -24    2    3    3    0    0  0.90851015709E+02  0.81162218848E+02 -0.11328725930E+03  0.18527391013E+03  0.81554925249E+02 0.  0.
          6    2    1    2  501    0 -0.91114554223E+02 -0.10074121190E+03 -0.21367522716E+03  0.30431748692E+03  0.16882350659E+03 0.  0.
         24    2    5    5    0    0  0.50805968299E+01 -0.13126671709E+02 -0.51986529870E+02  0.96723798261E+02  0.80341595004E+02 0.  0.
          5    1    5    5  501    0 -0.96195151053E+02 -0.87614540190E+02 -0.16168869729E+03  0.20759368866E+03  0.47000000000E+01 0. -1.
        -11    1    6    6    0    0  0.23203555222E+02  0.25574569788E+02 -0.38931781930E+02  0.52039862020E+02  0.00000000000E+00 0.  1.
         12    1    6    6    0    0 -0.18122958392E+02 -0.38701241496E+02 -0.13054747939E+02  0.44683936241E+02  0.00000000000E+00 0. -1.
         -5    1    3    3    0  503  0.26353851399E+00  0.19578993051E+02 -0.17748435155E+03  0.17862304293E+03  0.47000000000E+01 0.  1.
         11    1    4    4    0    0  0.20933456453E+02  0.29346636957E+02 -0.87303452243E+02  0.94452779066E+02  0.00000000000E+00 0. -1.
        -12    1    4    4    0    0  0.69917559257E+02  0.51815581891E+02 -0.25983807057E+02  0.90821131067E+02  0.00000000000E+00 0.  1.
</event>
<event>
12    1  0.8488291E-002  0.1726517E+03  0.7818608E-02  0.1175365E+00
         21   -1    0    0  501  502  0.00000000000E+00  0.00000000000E+00  0.22381105312E+03  0.22381105312E+03  0.00000000000E+00 0. -1.
         21   -1    0    0  502  503 -0.00000000000E+00 -0.00000000000E+00 -0.14585408453E+03  0.14585408453E+03  0.00000000000E+00 0.  1.
         -6    2    1    2    0  503 -0.36046214024E+01  0.87333053450E+01 -0.17009137482E+02  0.17348754243E+03  0.17239301814E+03 0.  0.
        -24    2    3    3    0    0  0.13393675428E+02 -0.58843383859E+02  0.42341676160E+01  0.10048809702E+03  0.80237117978E+02 0.  0.
          6    2    1    2  501    0  0.36046214024E+01 -0.87333053450E+01  0.94966106073E+02  0.19617759522E+03  0.17139960223E+03 0.  0.
         24    2    5    5    0    0  0.10890384483E+02 -0.44278648934E+02 -0.11001314441E+01  0.93379901734E+02  0.81482492187E+02 0.  0.
          5    1    5    5  501    0 -0.72857630801E+01  0.35545343589E+02  0.96066237517E+02  0.10279769348E+03  0.47000000000E+01 0. -1.
        -13    1    6    6    0    0  0.30172510218E+02  0.96154188980E+01 -0.14128424679E+02  0.34676346944E+02  0.00000000000E+00 0.  1.
         14    1    6    6    0    0 -0.19282125736E+02 -0.53894067832E+02  0.13028293235E+02  0.58703554790E+02  0.00000000000E+00 0. -1.
         -5    1    3    3    0  503 -0.16998296831E+02  0.67576689204E+02 -0.21243305098E+02  0.72999445412E+02  0.47000000000E+01 0.  1.
         13    1    4    4    0    0  0.43689477485E+02 -0.14842972426E+02  0.84152037016E+01  0.46903090801E+02  0.00000000000E+00 0. -1.
        -14    1    4    4    0    0 -0.30295802056E+02 -0.44000411433E+02 -0.41810360855E+01  0.53585006217E+02  0.00000000000E+00 0.  1.
</event>
<event>
12    1  0.8488291E-002  0.2872326E+03  0.7818608E-02  0.1092077E+00
         21   -1    0    0  503  502  0.00000000000E+00  0.00000000000E+00  0.15933551473E+04  0.15933551473E+04  0.00000000000E+00 0.  1.
         21   -1    0    0  501  503 -0.00000000000E+00 -0.00000000000E+00 -0.60697045732E+02  0.60697045732E+02  0.00000000000E+00 0.  1.
          6    2    1    2  501    0  0.21714849861E+03  0.67843249923E+02  0.44045075358E+03  0.52470748440E+03  0.17194447026E+03 0.  0.
         24    2    3    3    0    0  0.34210310173E+02  0.49786249831E+02  0.16551799596E+03  0.19394692561E+03  0.81056689871E+02 0.  0.
         -6    2    1    2    0  502 -0.21714849861E+03 -0.67843249923E+02  0.10922073480E+04  0.11293447086E+04  0.17534652233E+03 0.  0.
        -24    2    5    5    0    0 -0.20024299556E+03 -0.10454722724E+03  0.10053912755E+04  0.10334692768E+04  0.78865386955E+02 0.  0.
          5    1    3    3  501    0  0.18293818844E+03  0.18057000092E+02  0.27493275762E+03  0.33076055879E+03  0.47000000000E+01 0. -1.
        -13    1    4    4    0    0  0.39988587931E+02 -0.98333360640E+01  0.68858328267E+02  0.80232481169E+02  0.00000000000E+00 0.  1.
         14    1    4    4    0    0 -0.57782777577E+01  0.59619585895E+02  0.96659667696E+02  0.11371444444E+03  0.00000000000E+00 0. -1.
         -5    1    5    5    0  502 -0.16905503049E+02  0.36703977315E+02  0.86816072494E+02  0.95875431824E+02  0.47000000000E+01 0.  1.
         11    1    6    6    0    0 -0.40704972765E+02 -0.41822493871E+02  0.14765531495E+03  0.15877061389E+03  0.00000000000E+00 0. -1.
        -12    1    6    6    0    0 -0.15953802280E+03 -0.62724733368E+02  0.85773596054E+03  0.87469866291E+03  0.00000000000E+00 0.  1.
</event>
<event>
12    1  0.8488291E-002  0.1979593E+03  0.7818608E-02  0.1152276E+00
         21   -1    0    0  503  502  0.00000000000E+00  0.00000000000E+00  0.25916727980E+04  0.25916727980E+04  0.00000000000E+00 0. -1.
         21   -1    0    0  501  503 -0.00000000000E+00 -0.00000000000E+00 -0.15074929188E+02  0.15074929188E+02  0.00000000000E+00 0.  1.
          6    2    1    2  501    0  0.76859371776E+02 -0.58111682432E+02  0.11127521609E+04  0.11295774065E+04  0.16865175724E+03 0.  0.
         24    2    3    3    0    0  0.85312041489E+02  0.64330372400E+01  0.51107550967E+03  0.52437136639E+03  0.80297103987E+02 0.  0.
         -6    2    1    2    0  502 -0.76859371776E+02  0.58111682432E+02  0.14638457080E+04  0.14771703206E+04  0.17292648387E+03 0.  0.
        -24    2    5    5    0    0  0.22610352161E+02  0.50976367134E+02  0.78427430417E+03  0.79030459756E+03  0.79908414513E+02 0.  0.
          5    1    3    3  501    0 -0.84526697130E+01 -0.64544719672E+02  0.60167665118E+03  0.60520604015E+03  0.47000000000E+01 0. -1.
        -13    1    4    4    0    0  0.60489248872E+02 -0.32747941629E+02  0.35265190005E+03  0.35929756403E+03  0.00000000000E+00 0.  1.
         14    1    4    4    0    0  0.24822792617E+02  0.39180978868E+02  0.15842360962E+03  0.16507380235E+03  0.00000000000E+00 0. -1.
         -5    1    5    5    0  502 -0.99469723937E+02  0.71353152982E+01  0.67957140379E+03  0.68686572309E+03  0.47000000000E+01 0.  1.
         13    1    6    6    0    0 -0.23119476617E+02  0.29295821179E+02  0.51259438646E+03  0.51395112644E+03  0.00000000000E+00 0. -1.
        -14    1    6    6    0    0  0.45729828778E+02  0.21680545955E+02  0.27167991771E+03  0.27635347112E+03  0.00000000000E+00 0.  1.
</event>
<event>
12    1  0.8488291E-002  0.1726026E+03  0.7818608E-02  0.1175344E+00
         21   -1    0    0  501  502  0.00000000000E+00  0.00000000000E+00  0.49448563076E+03  0.49448563076E+03  0.00000000000E+00 0.  1.
         21   -1    0    0  502  503 -0.00000000000E+00 -0.00000000000E+00 -0.66362162741E+02  0.66362162741E+02  0.00000000000E+00 0.  1.
         -6    2    1    2    0  503 -0.12419291508E+02 -0.10311826398E+02  0.12681607233E+03  0.21360463764E+03  0.17112583807E+03 0.  0.
        -24    2    3    3    0    0 -0.68441675053E+02 -0.18298186369E+02  0.11194627135E+03  0.15490633796E+03  0.80280255127E+02 0.  0.
          6    2    1    2  501    0  0.12419291508E+02  0.10311826398E+02  0.30130739569E+03  0.34724315586E+03  0.17184612312E+03 0.  0.
         24    2    5    5    0    0  0.59596690278E+02 -0.25826060195E+02  0.16641497132E+03  0.19976532717E+03  0.89406333022E+02 0.  0.
          5    1    5    5  501    0 -0.47177398771E+02  0.36137886592E+02  0.13489242437E+03  0.14747782869E+03  0.47000000000E+01 0. -1.
        -11    1    6    6    0    0 -0.62597736760E+01  0.23479196585E+02  0.63624698216E+02  0.68106972197E+02  0.00000000000E+00 0.  1.
         12    1    6    6    0    0  0.65856463954E+02 -0.49305256779E+02  0.10279027310E+03  0.13165835498E+03  0.00000000000E+00 0. -1.
         -5    1    3    3    0  503  0.56022383545E+02  0.79863599715E+01  0.14869800978E+02  0.58698299675E+02  0.47000000000E+01 0.  1.
         11    1    4    4    0    0 -0.23421311788E+02  0.26816193226E+02  0.70210732114E+02  0.78722379086E+02  0.00000000000E+00 0. -1.
        -12    1    4    4    0    0 -0.45020363265E+02 -0.45114379595E+02  0.41735539238E+02  0.76183958877E+02  0.00000000000E+00 0.  1.
</event>
<event>
12    1  0.8488291E-002  0.3756131E+03  0.7818608E-02  0.1052590E+00
         21   -1    0    0  503  502  0.00000000000E+00  0.00000000000E+00  0.48211866650E+03  0.48211866650E+03  0.00000000000E+00 0.  1.
         21   -1    0    0  501  503 -0.00000000000E+00 -0.00000000000E+00 -0.38791867891E+03  0.38791867891E+03  0.00000000000E+00 0.  1.
          6    2    1    2  501    0  0.25836584576E+03 -0.21158290901E+03 -0.16870012201E+03  0.41175833796E+03  0.17194464246E+03 0.  0.
         24    2    3    3    0    0  0.18725150811E+03 -0.22342472685E+03 -0.13839751901E+03  0.33341412683E+03  0.83841343268E+02 0.  0.
         -6    2    1    2    0  502 -0.25836584576E+03  0.21158290901E+03  0.26290010960E+03  0.45827900746E+03  0.17141453674E+03 0.  0.
        -24    2    5    5    0    0 -0.14623262593E+03  0.20142931555E+03  0.19245751706E+03  0.32538354744E+03  0.82926515788E+02 0.  0.
          5    1    3    3  501    0  0.71114337652E+02  0.11841817840E+02 -0.30302602993E+02  0.78344211130E+02  0.47000000000E+01 0. -1.
        -13    1    4    4    0    0  0.15424136568E+03 -0.17499261689E+03 -0.14464205756E+03  0.27447065356E+03  0.00000000000E+00 0.  1.
         14    1    4    4    0    0  0.33010142434E+02 -0.48432109969E+02  0.62445385459E+01  0.58943473270E+02  0.00000000000E+00 0. -1.
         -5    1    5    5    0  502 -0.11213321983E+03  0.10153593465E+02  0.70442592537E+02  0.13289546002E+03  0.47000000000E+01 0.  1.
         13    1    6    6    0    0 -0.10211673498E+02  0.16987746286E+01  0.36115130267E+02  0.37569492212E+02  0.00000000000E+00 0. -1.
        -14    1    6    6    0    0 -0.13602095243E+03  0.19973054092E+03  0.15634238680E+03  0.28781405523E+03  0.00000000000E+00 0.  1.
</event>
<event>
12    1  0.8488291E-002  0.2726518E+03  0.7818608E-02  0.1099793E+00
         21   -1    0    0  501  502  0.00000000000E+00  0.00000000000E+00  0.26492602129E+03  0.26492602129E+03  0.00000000000E+00 0. -1.
         21   -1    0    0  502  503 -0.00000000000E+00 -0.00000000000E+00 -0.53137747081E+03  0.53137747081E+03  0.00000000000E+00 0.  1.
         -6    2    1    2    0  503 -0.90726279124E+02 -0.19087019286E+03 -0.40681195338E+03  0.48964391014E+03  0.17202472231E+03 0.  0.
        -24    2    3    3    0    0 -0.10297443359E+03 -0.64298335306E+02 -0.21894150900E+03  0.26273457520E+03  0.79724919246E+02 0.  0.
          6    2    1    2  501    0  0.90726279124E+02  0.19087019286E+03  0.14036050385E+03  0.30665958195E+03  0.17226822086E+03 0.  0.
         24    2    5    5    0    0  0.46926067934E+02  0.19851201567E+03  0.14325124863E+03  0.26185665391E+03  0.80242823636E+02 0.  0.
          5    1    5    5  501    0  0.43800211191E+02 -0.76418228140E+01 -0.28907447716E+01  0.44802928047E+02  0.47000000000E+01 0. -1.
        -13    1    6    6    0    0 -0.21904324924E+02  0.54767093428E+02  0.28774141605E+02  0.65629148997E+02  0.00000000000E+00 0.  1.
         14    1    6    6    0    0  0.68830392858E+02  0.14374492224E+03  0.11447710702E+03  0.19622750491E+03  0.00000000000E+00 0. -1.
         -5    1    3    3    0  503  0.12248154468E+02 -0.12657185755E+03 -0.18787044438E+03  0.22690933494E+03  0.47000000000E+01 0.  1.
         13    1    4    4    0    0 -0.87756172459E+02 -0.48957599272E+02 -0.99717823934E+02  0.14156848781E+03  0.00000000000E+00 0. -1.
        -14    1    4    4    0    0 -0.15218261134E+02 -0.15340736034E+02 -0.11922368506E+03  0.12116608739E+03  0.00000000000E+00 0.  1.
</event>
<event>
12    1  0.8488291E-002  0.2072669E+03  0.7818608E-02  0.1143995E+00
         21   -1    0    0  501  502  0.00000000000E+00  0.00000000000E+00  0.20106586627E+03  0.20106586627E+03  0.00000000000E+00 0.  1.
         21   -1    0    0  502  503 -0.00000000000E+00 -0.00000000000E+00 -0.23335088653E+03  0.23335088653E+03  0.00000000000E+00 0.  1.
         -6    2    1    2    0  503 -0.32442779406E+02 -0.10942259339E+03 -0.81264495737E+02  0.22262855280E+03  0.17301363060E+03 0.  0.
        -24    2    3    3    0    0  0.10670248694E+02 -0.12639847217E+03 -0.90450519715E+02  0.17515870248E+03  0.80055271933E+02 0.  0.
          6    2    1    2  501    0  0.32442779406E+02  0.10942259339E+03  0.48979475477E+02  0.21178820001E+03  0.17155003575E+03 0.  0.
         24    2    5    5    0    0  0.40053537665E+02  0.13741507177E+03  0.12421994615E+02  0.16488359582E+03  0.80901831818E+02 0.  0.
          5    1    5    5  501    0 -0.76107582589E+01 -0.27992478378E+02  0.36557480862E+02  0.46904604188E+02  0.47000000000E+01 0. -1.
        -13    1    6    6    0    0 -0.24186225704E+02  0.53433815151E+02  0.59066879923E+01  0.58949428144E+02  0.00000000000E+00 0.  1.
         14    1    6    6    0    0  0.64239763369E+02  0.83981256620E+02  0.65153066225E+01  0.10593416768E+03  0.00000000000E+00 0. -1.
         -5    1    3    3    0  503 -0.43113028100E+02  0.16975878779E+02  0.91860239775E+01  0.47469850314E+02  0.47000000000E+01 0.  1.
         11    1    4    4    0    0  0.43167544109E+02 -0.60786100535E+02 -0.60645874602E+02  0.96105717774E+02  0.00000000000E+00 0. -1.
        -12    1    4    4    0    0 -0.32497295415E+02 -0.65612371637E+02 -0.29804645113E+02  0.79052984709E+02  0.00000000000E+00 0.  1.
</event>
<event>
12    1  0.8488291E-002  0.2806648E+03  0.7818608E-02  0.1096206E+00
         21   -1    0    0  503  502  0.00000000000E+00  0.00000000000E+00  0.80723726966E+03  0.80723726966E+03  0.00000000000E+00 0.  1.
         21   -1    0    0  501  503 -0.00000000000E+00 -0.00000000000E+00 -0.11938926933E+03  0.11938926933E+03  0.00000000000E+00 0.  1.
          6    2    1    2  501    0 -0.12307710890E+03 -0.18317598225E+03  0.13298634030E+03  0.30481934891E+03  0.16287434897E+03 0.  0.
         24    2    3    3    0    0 -0.60541973640E+02 -0.14285198759E+03  0.32638411405E+02  0.17980549159E+03  0.84809952109E+02 0.  0.
         -6    2    1    2    0  502  0.12307710890E+03  0.18317598225E+03  0.55486166002E+03  0.62180719008E+03  0.17341079743E+03 0.  0.
        -24    2    5    5    0    0  0.61230635846E+02  0.89506502692E+02  0.44195623880E+03  0.46253169991E+03  0.82762622070E+02 0.  0.
          5    1    3    3  501    0 -0.62535135260E+02 -0.40323994657E+02  0.10034792889E+03  0.12501385731E+03  0.47000000000E+01 0. -1.
        -11    1    4    4    0    0 -0.45459116050E+02 -0.74548150538E+02 -0.23151536730E+02  0.90332450613E+02  0.00000000000E+00 0.  1.
         12    1    4    4    0    0 -0.15082857590E+02 -0.68303837053E+02  0.55789948135E+02  0.89473040980E+02  0.00000000000E+00 0. -1.
         -5    1    5    5    0  502  0.61846473055E+02  0.93669479556E+02  0.11290542122E+03  0.15927549017E+03  0.47000000000E+01 0.  1.
         11    1    6    6    0    0  0.67558315973E+02  0.25893709528E+02  0.24514114360E+03  0.25559497362E+03  0.00000000000E+00 0. -1.
        -12    1    6    6    0    0 -0.63276801273E+01  0.63612793164E+02  0.19681509520E+03  0.20693672629E+03  0.00000000000E+00 0.  1.
</event>
<event>
12    1  0.8488291E-002  0.1983348E+03  0.7818608E-02  0.1151510E+00
         21   -1    0    0  501  502  0.00000000000E+00  0.00000000000E+00  0.10244111081E+04  0.10244111081E+04  0.00000000000E+00 0. -1.
         21   -1    0    0  502  503 -0.00000000000E+00 -0.00000000000E+00 -0.38520186495E+02  0.38520186495E+02  0.00000000000E+00 0. -1.
         -6    2    1    2    0  503  0.11045152641E+02  0.96257694195E+02  0.54797394645E+03  0.58219437613E+03  0.17113534565E+03 0.  0.
        -24    2    3    3    0    0  0.17571067564E+02  0.84122580809E+02  0.55477003659E+03  0.56612809518E+03  0.73115495207E+02 0.  0.
          6    2    1    2  501    0 -0.11045152641E+02 -0.96257694195E+02  0.43791697519E+03  0.48073691849E+03  0.17305828080E+03 0.  0.
         24    2    5    5    0    0  0.43974430558E+02 -0.27212080846E+02  0.30597390520E+03  0.32191149553E+03  0.85631375144E+02 0.  0.
          5    1    5    5  501    0 -0.55019583199E+02 -0.69045613349E+02  0.13194306999E+03  0.15882542296E+03  0.47000000000E+01 0. -1.
        -13    1    6    6    0    0  0.34543581743E+02 -0.31811552266E+01  0.33524501731E+02  0.48241797277E+02  0.00000000000E+00 0.  1.
         14    1    6    6    0    0  0.94308488148E+01 -0.24030925619E+02  0.27244940347E+03  0.27366969826E+03  0.00000000000E+00 0. -1.
         -5    1    3    3    0  503 -0.65259149229E+01  0.12135113386E+02 -0.67960901427E+01  0.16066280954E+02  0.47000000000E+01 0.  1.
         11    1    4    4    0    0  0.40041550365E+02  0.19856412603E+02  0.22871309564E+03  0.23303923059E+03  0.00000000000E+00 0. -1.
        -12    1    4    4    0    0 -0.22470482801E+02  0.64266168207E+02  0.32605694095E+03  0.33308886459E+03  0.00000000000E+00 0.  1.
</event>
<event>
12    1  0.8488291E-002  0.1904043E+03  0.7818608E-02  0.1158141E+00
         21   -1    0    0  501  502  0.00000000000E+00  0.00000000000E+00  0.46020699239E+02  0.46020699239E+02  0.00000000000E+00 0.  1.
         21   -1    0    0  502  503 -0.00000000000E+00 -0.00000000000E+00 -0.11453274867E+04  0.11453274867E+04  0.00000000000E+00 0.  1.
         -6    2    1    2    0  503  0.80067434887E+02  0.10698625353E+02 -0.88266093659E+03  0.90292275547E+03  0.17220313191E+03 0.  0.
        -24    2    3    3    0    0  0.10333015480E+03  0.35238979347E+02 -0.78858006330E+03  0.80283937107E+03  0.10379611244E+03 0.  0.
          6    2    1    2  501    0 -0.80067434887E+02 -0.10698625353E+02 -0.21664585084E+03  0.28842543044E+03  0.17241969007E+03 0.  0.
         24    2    5    5    0    0 -0.57383996813E+02  0.40601007106E+02 -0.62011988218E+02  0.12386567800E+03  0.80968232266E+02 0.  0.
          5    1    5    5  501    0 -0.22683438074E+02 -0.51299632459E+02 -0.15463386262E+03  0.16455975244E+03  0.47000000000E+01 0. -1.
        -11    1    6    6    0    0 -0.54621465087E+02 -0.57298769562E+01 -0.13149597593E+02  0.56473426096E+02  0.00000000000E+00 0.  1.
         12    1    6    6    0    0 -0.27625317261E+01  0.46330884062E+02 -0.48862390625E+02  0.67392251907E+02  0.00000000000E+00 0. -1.
         -5    1    3    3    0  503 -0.23262719914E+02 -0.24540353993E+02 -0.94080873294E+02  0.10008338439E+03  0.47000000000E+01 0.  1.
         13    1    4    4    0    0  0.35000404528E+02 -0.31845343630E+02 -0.39281317933E+03  0.39565306530E+03  0.00000000000E+00 0. -1.
        -14    1    4    4    0    0  0.68329750273E+02  0.67084322977E+02 -0.39576688397E+03  0.40718630577E+03  0.00000000000E+00 0.  1.
</event>
<event>
12    1  0.8488291E-002  0.2174261E+03  0.7818608E-02  0.1136030E+00
         21   -1    0    0  501  502  0.00000000000E+00  0.00000000000E+00  0.43580574579E+03  0.43580574579E+03  0.00000000000E+00 0.  1.
         21   -1    0    0  502  503 -0.00000000000E+00 -0.00000000000E+00 -0.11521378689E+03  0.11521378689E+03  0.00000000000E+00 0. -1.
         -6    2    1    2    0  503 -0.12991976818E+03 -0.16964886048E+02  0.90566232316E+02  0.23449791097E+03  0.17210483517E+03 0.  0.
        -24    2    3    3    0    0 -0.10507862831E+03 -0.67848988878E+02  0.32430572127E+02  0.15320757245E+03  0.82315337748E+02 0.  0.
          6    2    1    2  501    0  0.12991976818E+03  0.16964886048E+02  0.23002572658E+03  0.31652162171E+03  0.17351411642E+03 0.  0.
         24    2    5    5    0    0  0.88384873334E+02  0.25124559029E+02  0.46881499649E+02  0.12849070507E+03  0.76608465461E+02 0.  0.
          5    1    5    5  501    0  0.41534894851E+02 -0.81596729808E+01  0.18314422693E+03  0.18803091664E+03  0.47000000000E+01 0. -1.
        -13    1    6    6    0    0  0.80102837636E+02  0.16341506776E+02  0.66548313121E+02  0.10541436060E+03  0.00000000000E+00 0.  1.
         14    1    6    6    0    0  0.82820356983E+01  0.87830522527E+01 -0.19666813472E+02  0.23076344475E+02  0.00000000000E+00 0. -1.
         -5    1    3    3    0  503 -0.24841139878E+02  0.50884102830E+02  0.58135660189E+02  0.81290338521E+02  0.47000000000E+01 0.  1.
         13    1    4    4    0    0 -0.13280852233E+02 -0.43160475852E+02 -0.14185248394E+02  0.47333170016E+02  0.00000000000E+00 0. -1.
        -14    1    4    4    0    0 -0.91797776074E+02 -0.24688513027E+02  0.46615820522E+02  0.10587440243E+03  0.00000000000E+00 0.  1.
</event>
<event>
12    1  0.8488291E-002  0.4391031E+03  0.7818608E-02  0.1031176E+00
         21   -1    0    0  503  502  0.00000000000E+00  0.00000000000E+00  0.43884276400E+03  0.43884276400E+03  0.00000000000E+00 0. -1.
         21   -1    0    0  501  503 -0.00000000000E+00 -0.00000000000E+00 -0.97194862904E+03  0.97194862904E+03  0.00000000000E+00 0.  1.
          6    2    1    2  501    0 -0.37845204432E+03 -0.13573632187E+03 -0.78941868660E+03  0.90235481740E+03  0.17149943094E+03 0.  0.
         24    2    3    3    0    0 -0.30533815206E+03 -0.44613760806E+02 -0.53810662540E+03  0.62517472346E+03  0.77864753221E+02 0.  0.
         -6    2    1    2    0  502  0.37845204432E+03  0.13573632187E+03  0.25631282156E+03  0.50843657564E+03  0.17652532403E+03 0.  0.
        -24    2    5    5    0    0  0.19512672075E+03  0.73655335558E+02  0.21602383930E+03  0.31068037418E+03  0.79727348785E+02 0.  0.
          5    1    3    3  501    0 -0.73113892263E+02 -0.91122561061E+02 -0.25131206120E+03  0.27718009394E+03  0.47000000000E+01 0. -1.
        -11    1    4    4    0    0 -0.10566531741E+03 -0.53333577769E+02 -0.19621171087E+03  0.22914769321E+03  0.00000000000E+00 0.  1.
         12    1    4    4    0    0 -0.19967283465E+03  0.87198169624E+01 -0.34189491453E+03  0.39602703025E+03  0.00000000000E+00 0. -1.
         -5    1    5    5    0  502  0.18332532358E+03  0.62080986309E+02  0.40288982259E+02  0.19775620146E+03  0.47000000000E+01 0.  1.
         13    1    6    6    0    0  0.84675039548E+02  0.64825194315E+02  0.14133997205E+03  0.17705692825E+03  0.00000000000E+00 0. -1.
        -14    1    6    6    0    0  0.11045168120E+03  0.88301412428E+01  0.74683867252E+02  0.13362344593E+03  0.00000000000E+00 0.  1.
</event>
<event>
12    1  0.8488291E-002  0.1790944E+03  0.7818608E-02  0.1169621E+00
         21   -1    0    0  503  502  0.00000000000E+00  0.00000000000E+00  0.60057180927E+02  0.60057180927E+02  0.00000000000E+00 0. -1.
         21   -1    0    0  501  503 -0.00000000000E+00 -0.00000000000E+00 -0.69768581447E+03  0.69768581447E+03  0.00000000000E+00 0. -1.
          6    2    1    2  501    0  0.17025281401E+02 -0.30867940680E+02 -0.50593987736E+03  0.53544421640E+03  0.17170515253E+03 0.  0.
         24    2    3    3    0    0 -0.45186828105E+02 -0.15698472003E+02 -0.17575496034E+03  0.19907443658E+03  0.80327664958E+02 0.  0.
         -6    2    1    2    0  502 -0.17025281401E+02  0.30867940680E+02 -0.13168875619E+03  0.22229877900E+03  0.17559079893E+03 0.  0.
        -24    2    5    5    0    0 -0.34105037606E+02 -0.17530430684E+02 -0.99823825234E+01  0.90129751566E+02  0.80952174563E+02 0.  0.
          5    1    3    3  501    0  0.62212109507E+02 -0.15169468677E+02 -0.33018491702E+03  0.33636977982E+03  0.47000000000E+01 0. -1.
        -13    1    4    4    0    0 -0.65200019528E+02 -0.26079275128E+02 -0.14298475635E+03  0.15929787094E+03  0.00000000000E+00 0.  1.
         14    1    4    4    0    0  0.20013191422E+02  0.10380803124E+02 -0.32770203983E+02  0.39776565632E+02  0.00000000000E+00 0. -1.
         -5    1    5    5    0  502  0.17079756205E+02  0.48398371364E+02 -0.12170637366E+03  0.13216902744E+03  0.47000000000E+01 0.  1.
         11    1    6    6    0    0  0.39729574318E+01 -0.39163365303E+02 -0.21490953664E+02  0.44848797777E+02  0.00000000000E+00 0. -1.
        -12    1    6    6    0    0 -0.38077995038E+02  0.21632934620E+02  0.11508571141E+02  0.45280953789E+02  0.00000000000E+00 0.  1.
</event>
<event>
12    1  0.8488291E-002  0.2038500E+03  0.7818608E-02  0.1146575E+00
         21   -1    0    0  503  502  0.00000000000E+00  0.00000000000E+00  0.73875266474E+02  0.73875266474E+02  0.00000000000E+00 0.  1.
         21   -1    0    0  501  503 -0.00000000000E+00 -0.00000000000E+00 -0.29909702143E+04  0.29909702143E+04  0.00000000000E+00 0.  1.
          6    2    1    2  501    0 -0.71201007580E+02 -0.82509479839E+02 -0.28393977045E+04  0.28466903302E+04  0.17201486463E+03 0.  0.
         24    2    3    3    0    0 -0.13448714724E+02 -0.63454093026E+02 -0.81819514677E+03  0.82456760774E+03  0.79127439473E+02 0.  0.
         -6    2    1    2    0  502  0.71201007580E+02  0.82509479839E+02 -0.77697243305E+02  0.21815515061E+03  0.17227132779E+03 0.  0.
        -24    2    5    5    0    0 -0.15924751337E+02  0.27031519327E+02 -0.76454604614E+02  0.11475139768E+03  0.79613290101E+02 0.  0.
          5    1    3    3  501    0 -0.57752292856E+02 -0.19055386813E+02 -0.20212025578E+04  0.20221227224E+04  0.47000000000E+01 0. -1.
        -11    1    4    4    0    0 -0.70189037139E+01 -0.23413563978E+02 -0.68261218805E+03  0.68304967554E+03  0.00000000000E+00 0.  1.
         12    1    4    4    0    0 -0.64298110098E+01 -0.40040529047E+02 -0.13558295872E+03  0.14151793219E+03  0.00000000000E+00 0. -1.
         -5    1    5    5    0  502  0.87125758917E+02  0.55477960512E+02 -0.12426386908E+01  0.10340375293E+03  0.47000000000E+01 0.  1.
         11    1    6    6    0    0  0.95785902736E+01 -0.13713126013E+02 -0.62498494163E+02  0.64698230187E+02  0.00000000000E+00 0. -1.
        -12    1    6    6    0    0 -0.25503341611E+02  0.40744645340E+02 -0.13956110452E+02  0.50053167494E+02  0.00000000000E+00 0.  1.
</event>
<event>
12    1  0.8488291E-002  0.2789319E+03  0.7818608E-02  0.1096747E+00
         21   -1    0    0  503  502  0.00000000000E+00  0.00000000000E+00  0.24392084239E+03  0.24392084239E+03  0.00000000000E+00 0. -1.
         21   -1    0    0  501  503 -0.00000000000E+00 -0.00000000000E+00 -0.40542690908E+03  0.40542690908E+03  0.00000000000E+00 0.  1.
          6    2    1    2  501    0  0.17230951133E+03  0.13455613548E+03 -0.23442212017E+03  0.36435794039E+03  0.17322545139E+03 0.  0.
         24    2    3    3    0    0  0.62492965146E+02  0.85370350875E+02 -0.44145698370E+02  0.13917774162E+03  0.78918524934E+02 0.  0.
         -6    2    1    2    0  502 -0.17230951133E+03 -0.13455613548E+03  0.72916053485E+02  0.28498981107E+03  0.16764999335E+03 0.  0.
        -24    2    5    5    0    0 -0.92151090524E+02 -0.12487386421E+03  0.98975404061E+02  0.20001747113E+03  0.78265910207E+02 0.  0.
          5    1    3    3  501    0  0.10981654619E+03  0.49185784602E+02 -0.19027642180E+03  0.22518019877E+03  0.47000000000E+01 0. -1.
        -13    1    4    4    0    0  0.54761815462E+02  0.54048998156E+02 -0.65033455949E+02  0.10074473201E+03  0.00000000000E+00 0.  1.
         14    1    4    4    0    0  0.77311496832E+01  0.31321352719E+02  0.20887757579E+02  0.38433009617E+02  0.00000000000E+00 0. -1.
         -5    1    5    5    0  502 -0.80158420808E+02 -0.96822712678E+01 -0.26059350577E+02  0.84972339945E+02  0.47000000000E+01 0.  1.
         13    1    6    6    0    0 -0.45406327591E+02 -0.72142424843E+01  0.16164933632E+02  0.48734843379E+02  0.00000000000E+00 0. -1.
        -14    1    6    6    0    0 -0.46744762934E+02 -0.11765962172E+03  0.82810470429E+02  0.15128262775E+03  0.00000000000E+00 0.  1.
</event>
<event>
12    1  0.8488291E-002  0.1795111E+03  0.7818608E-02  0.1168486E+00
         21   -1    0    0  503  502  0.00000000000E+00  0.00000000000E+00  0.42332343369E+03  0.42332343369E+03  0.00000000000E+00 0.  1.
         21   -1    0    0  501  503 -0.00000000000E+00 -0.00000000000E+00 -0.62177215759E+03  0.62177215759E+03  0.00000000000E+00 0.  1.
          6    2    1    2  501    0 -0.44154109774E+01 -0.48909923409E+02 -0.58893270885E+03  0.61568334076E+03  0.17266315204E+03 0.  0.
         24    2    3    3    0    0  0.58650143921E+02 -0.44253415653E+02 -0.45450411462E+03  0.46704927930E+03  0.78503725449E+02 0.  0.
         -6    2    1    2    0  502  0.44154109774E+01  0.48909923409E+02  0.39048398496E+03  0.42941225052E+03  0.17177153993E+03 0.  0.
        -24    2    5    5    0    0  0.48362942393E+02 -0.17975269932E+02  0.18494437443E+03  0.20879122682E+03  0.82019938041E+02 0.  0.
          5    1    3    3  501    0 -0.63065554898E+02 -0.46565077563E+01 -0.13442859423E+03  0.14863406146E+03  0.47000000000E+01 0. -1.
        -11    1    4    4    0    0  0.41685568770E+02 -0.43864529438E+02 -0.14552987442E+03  0.15760941576E+03  0.00000000000E+00 0.  1.
         12    1    4    4    0    0  0.16964575151E+02 -0.38888621512E+00 -0.30897424020E+03  0.30943986355E+03  0.00000000000E+00 0. -1.
         -5    1    5    5    0  502 -0.43947531416E+02  0.66885193341E+02  0.20553961052E+03  0.22062102370E+03  0.47000000000E+01 0.  1.
         11    1    6    6    0    0  0.50789142219E+02 -0.58574401125E+01  0.18899340554E+03  0.19578650083E+03  0.00000000000E+00 0. -1.
        -12    1    6    6    0    0 -0.24261998255E+01 -0.12117829820E+02 -0.40490311028E+01  0.13004725987E+02  0.00000000000E+00 0.  1.
</event>
<event>
12    1  0.8488291E-002  0.3271059E+03  0.7818608E-02  0.1073023E+00
         21   -1    0    0  503  502  0.00000000000E+00  0.00000000000E+00  0.73745764663E+03  0.73745764663E+03  0.00000000000E+00 0. -1.
         21   -1    0    0  501  503 -0.00000000000E+00 -0.00000000000E+00 -0.17668145302E+03  0.17668145302E+03  0.00000000000E+00 0. -1.
          6    2    1    2  501    0 -0.26615242084E+03  0.57682810184E+02  0.81937364008E+02  0.33721214871E+03  0.18120122490E+03 0.  0.
         24    2    3    3    0    0 -0.22524573182E+03  0.94629887775E+02  0.10458385620E+03  0.27743424846E+03  0.79633685572E+02 0.  0.
         -6    2    1    2    0  502  0.26615242084E+03 -0.57682810184E+02  0.47883882961E+03  0.57692695094E+03  0.17144580565E+03 0.  0.
        -24    2    5    5    0    0  0.11886442985E+03  0.24522194373E+02  0.15559565205E+03  0.21229061581E+03  0.78276483843E+02 0.  0.
          5    1    3    3  501    0 -0.40906689024E+02 -0.36947077591E+02 -0.22646492194E+02  0.59777900249E+02  0.47000000000E+01 0. -1.
        -11    1    4    4    0    0 -0.27642416914E+02  0.13819597533E+02 -0.13204883588E+02  0.33607342045E+02  0.00000000000E+00 0.  1.
         12    1    4    4    0    0 -0.19760331490E+03  0.80810290242E+02  0.11778873979E+03  0.24382690641E+03  0.00000000000E+00 0. -1.
         -5    1    5    5    0  502  0.14728799099E+03 -0.82205004557E+02  0.32324317756E+03  0.36463633514E+03  0.47000000000E+01 0.  1.
         13    1    6    6    0    0  0.27294059766E+01  0.17893336213E+02  0.56994843046E+02  0.59799943743E+02  0.00000000000E+00 0. -1.
        -14    1    6    6    0    0  0.11613502387E+03  0.66288581596E+01  0.98600809001E+02  0.15249067206E+03  0.00000000000E+00 0.  1.
</event>
<event>
12    1  0.8488291E-002  0.3974940E+03  0.7818608E-02  0.1044780E+00
         21   -1    0    0  503  502  0.00000000000E+00  0.00000000000E+00  0.33479684345E+03  0.33479684345E+03  0.00000000000E+00 0.  1.
         21   -1    0    0  501  503 -0.00000000000E+00 -0.00000000000E+00 -0.60961061367E+03  0.60961061367E+03  0.00000000000E+00 0. -1.
          6    2    1    2  501    0  0.81826504340E+02  0.34841521538E+03 -0.36342929904E+03  0.53859290492E+03  0.17295294942E+03 0.  0.
         24    2    3    3    0    0  0.49404314853E+02  0.10742254490E+03 -0.74173635844E+02  0.16067810727E+03  0.79594826605E+02 0.  0.
         -6    2    1    2    0  502 -0.81826504340E+02 -0.34841521538E+03  0.88615528822E+02  0.40581455220E+03  0.16954055476E+03 0.  0.
        -24    2    5    5    0    0 -0.12105251556E+03 -0.26987058893E+03  0.84035498951E+02  0.31777476021E+03  0.80218369764E+02 0.  0.
          5    1    3    3  501    0  0.32422189487E+02  0.24099267048E+03 -0.28925566320E+03  0.37791479765E+03  0.47000000000E+01 0. -1.
        -11    1    4    4    0    0  0.50705101474E+02  0.85534444739E+02 -0.89616421046E+02  0.13385907318E+03  0.00000000000E+00 0.  1.
         12    1    4    4    0    0 -0.13007866209E+01  0.21888100160E+02  0.15442785202E+02  0.26819034085E+02  0.00000000000E+00 0. -1.
         -5    1    5    5    0  502  0.39226011224E+02 -0.78544626448E+02  0.45800298711E+01  0.88039791992E+02  0.47000000000E+01 0.  1.
         13    1    6    6    0    0  0.90336727358E+00 -0.13440517645E+02  0.24033016328E+02  0.27550852270E+02  0.00000000000E+00 0. -1.
        -14    1    6    6    0    0 -0.12195588284E+03 -0.25643007128E+03  0.60002482623E+02  0.29022390794E+03  0.00000000000E+00 0.  1.
</event>
<event>
12    1  0.8488291E-002  0.2078823E+03  0.7818608E-02  0.1143508E+00
         21   -1    0    0  503  502  0.00000000000E+00  0.00000000000E+00  0.13950702346E+03  0.13950702346E+03  0.00000000000E+00 0.  1.
         21   -1    0    0  501  503 -0.00000000000E+00 -0.00000000000E+00 -0.33023606987E+03  0.33023606987E+03  0.00000000000E+00 0.  1.
          6    2    1    2  501    0  0.56447224243E+02 -0.10045473059E+03 -0.15618719333E+03  0.25901054850E+03  0.17150680118E+03 0.  0.
         24    2    3    3    0    0 -0.30936951965E+02 -0.19744963026E+02 -0.71774002035E+02  0.11307310403E+03  0.79290988934E+02 0.  0.
         -6    2    1    2    0  502 -0.56447224243E+02  0.10045473059E+03 -0.34541853083E+02  0.21073254483E+03  0.17302492253E+03 0.  0.
        -24    2    5    5    0    0  0.58131266176E+01  0.67612839753E+02 -0.76175646517E+02  0.12881549021E+03  0.78647395727E+02 0.  0.
          5    1    3    3  501    0  0.87384176208E+02 -0.80709767563E+02 -0.84413191293E+02  0.14593744446E+03  0.47000000000E+01 0. -1.
        -11    1    4    4    0    0 -0.11963123846E+02 -0.45419387372E+02 -0.65400123683E+02  0.80518403233E+02  0.00000000000E+00 0.  1.
         12    1    4    4    0    0 -0.18973828119E+02  0.25674424346E+02 -0.63738783512E+01  0.32554700801E+02  0.00000000000E+00 0. -1.
         -5    1    5    5    0  502 -0.62260350861E+02  0.32841890837E+02  0.41633793434E+02  0.81917054627E+02  0.47000000000E+01 0.  1.
         11    1    6    6    0    0 -0.20000659957E+02 -0.25961150662E+01 -0.41964490418E+02  0.46559474526E+02  0.00000000000E+00 0. -1.
        -12    1    6    6    0    0  0.25813786575E+02  0.70208954819E+02 -0.34211156099E+02  0.82256015681E+02  0.00000000000E+00 0.  1.
</event>
<event>
12    1  0.8488291E-002  0.2030671E+03  0.7818608E-02  0.1147980E+00
         21   -1    0    0  501  502  0.00000000000E+00  0.00000000000E+00  0.60741185816E+03  0.60741185816E+03  0.00000000000E+00 0. -1.
         21   -1    0    0  502  503 -0.00000000000E+00 -0.00000000000E+00 -0.72067127259E+02  0.72067127259E+02  0.00000000000E+00 0.  1.
         -6    2    1    2    0  503  0.49439380661E+02  0.87604901437E+02  0.17181797729E+03  0.26308021134E+03  0.17196194104E+03 0.  0.
        -24    2    3    3    0    0  0.11473513415E+01 -0.10149704906E+02  0.33751041674E+02  0.87089723341E+02  0.79631364253E+02 0.  0.
          6    2    1    2  501    0 -0.49439380661E+02 -0.87604901437E+02  0.36352675361E+03  0.41639877408E+03  0.17640115460E+03 0.  0.
         24    2    5    5    0    0 -0.48145665384E+02 -0.74955648914E+02  0.16205010659E+03  0.21446659095E+03  0.10862470800E+03 0.  0.
          5    1    5    5  501    0 -0.12937152763E+01 -0.12649252524E+02  0.20147664702E+03  0.20193218313E+03  0.47000000000E+01 0. -1.
        -11    1    6    6    0    0 -0.39200450827E+02  0.12037010523E+02  0.15562328430E+02  0.43860586334E+02  0.00000000000E+00 0.  1.
         12    1    6    6    0    0 -0.89452145569E+01 -0.86992659437E+02  0.14648777817E+03  0.17060600462E+03  0.00000000000E+00 0. -1.
         -5    1    3    3    0  503  0.48292029319E+02  0.97754606344E+02  0.13806693562E+03  0.17599048800E+03  0.47000000000E+01 0.  1.
         13    1    4    4    0    0 -0.17973108933E+02  0.10895329221E+02  0.50072337950E+02  0.54304510598E+02  0.00000000000E+00 0. -1.
        -14    1    4    4    0    0  0.19120460274E+02 -0.21045034127E+02 -0.16321296276E+02  0.32785212743E+02  0.00000000000E+00 0.  1.
</event>
<event>
12    1  0.8488291E-002  0.1837474E+03  0.7818608E-02  0.1164540E+00
         21   -1    0    0  501  502  0.00000000000E+00  0.00000000000E+00  0.32921564907E+02  0.32921564907E+02  0.00000000000E+00 0.  1.
         21   -1    0    0  502  503 -0.00000000000E+00 -0.00000000000E+00 -0.11629341143E+04  0.11629341143E+04  0.00000000000E+00 0. -1.
         -6    2    1    2    0  503  0.48030496003E+02 -0.43512375539E+02 -0.77778453836E+03  0.79919452170E+03  0.17193847745E+03 0.  0.
        -24    2    3    3    0    0  0.88429756515E+02 -0.22142417854E+02 -0.68690590232E+03  0.69736234687E+03  0.78513792958E+02 0.  0.
          6    2    1    2  501    0 -0.48030496003E+02  0.43512375539E+02 -0.35222801099E+03  0.39666115746E+03  0.17051465258E+03 0.  0.
         24    2    5    5    0    0  0.32250269515E+02  0.31677653891E+02 -0.24647708097E+03  0.26328045740E+03  0.80759483457E+02 0.  0.
          5    1    5    5  501    0 -0.80280765518E+02  0.11834721648E+02 -0.10575093002E+03  0.13338070006E+03  0.47000000000E+01 0. -1.
        -13    1    6    6    0    0 -0.89219832752E+01  0.37091775960E+02 -0.52435497894E+02  0.64845069734E+02  0.00000000000E+00 0.  1.
         14    1    6    6    0    0  0.41172252790E+02 -0.54141220691E+01 -0.19404158307E+03  0.19843538767E+03  0.00000000000E+00 0. -1.
         -5    1    3    3    0  503 -0.40399260512E+02 -0.21369957685E+02 -0.90878636044E+02  0.10183217483E+03  0.47000000000E+01 0.  1.
         13    1    4    4    0    0  0.91639984511E+02 -0.81849510761E+01 -0.41485667773E+03  0.42493639905E+03  0.00000000000E+00 0. -1.
        -14    1    4    4    0    0 -0.32102279958E+01 -0.13957466777E+02 -0.27204922459E+03  0.27242594781E+03  0.00000000000E+00 0.  1.
</event>
<event>
12    1  0.8488291E-002  0.2240592E+03  0.7818608E-02  0.1130966E+00
         21   -1    0    0  501  502  0.00000000000E+00  0.00000000000E+00  0.19135838482E+02  0.19135838482E+02  0.00000000000E+00 0. -1.
         21   -1    0    0  502  503 -0.00000000000E+00 -0.00000000000E+00 -0.30401823397E+04  0.30401823397E+04  0.00000000000E+00 0.  1.
         -6    2    1    2    0  503  0.96630612099E+02 -0.10524838908E+03 -0.20788553577E+04  0.20908520389E+04  0.17206961298E+03 0.  0.
        -24    2    3    3    0    0  0.81961855754E+02 -0.46721525521E+02 -0.72215048184E+03  0.73279799860E+03  0.81184614236E+02 0.  0.
          6    2    1    2  501    0 -0.96630612099E+02  0.10524838908E+03 -0.94219114356E+03  0.96846613933E+03  0.17259146394E+03 0.  0.
         24    2    5    5    0    0 -0.97896760570E+02  0.17942564350E+02 -0.42894178617E+03  0.44782143992E+03  0.81530821056E+02 0.  0.
          5    1    5    5  501    0  0.12661484705E+01  0.87305824735E+02 -0.51324935739E+03  0.52064469941E+03  0.47000000000E+01 0. -1.
        -11    1    6    6    0    0 -0.39822100909E+02  0.17199235116E+02 -0.33193373969E+03  0.33475606186E+03  0.00000000000E+00 0.  1.
         12    1    6    6    0    0 -0.58074659660E+02  0.74332923374E+00 -0.97008046485E+02  0.11306537806E+03  0.00000000000E+00 0. -1.
         -5    1    3    3    0  503  0.14668756345E+02 -0.58526863564E+02 -0.13567048758E+04  0.13580540403E+04  0.47000000000E+01 0.  1.
         11    1    4    4    0    0  0.30556524308E+02  0.22648040500E+02 -0.23390004110E+03  0.23697228560E+03  0.00000000000E+00 0. -1.
        -12    1    4    4    0    0  0.51405331447E+02 -0.69369566021E+02 -0.48825044074E+03  0.49582571301E+03  0.00000000000E+00 0.  1.
</event>
<event>
12    1  0.8488291E-002  0.2032708E+03  0.7818608E-02  0.1148283E+00
         21   -1    0    0  501  502  0.00000000000E+00  0.00000000000E+00  0.11063456775E+04  0.11063456775E+04  0.00000000000E+00 0.  1.
         21   -1    0    0  502  503 -0.00000000000E+00 -0.00000000000E+00 -0.13881031188E+03  0.13881031188E+03  0.00000000000E+00 0.  1.
         -6    2    1    2    0  503 -0.10047679083E+03 -0.44430765146E+02 -0.53304433877E+02  0.20427514510E+03  0.16375986641E+03 0.  0.
        -24    2    3    3    0    0 -0.10898583487E+03 -0.88448199889E+01 -0.81211769801E+02  0.15801854858E+03  0.80114712114E+02 0.  0.
          6    2    1    2  501    0  0.10047679083E+03  0.44430765146E+02  0.10208397995E+04  0.10408808443E+04  0.17102443504E+03 0.  0.
         24    2    5    5    0    0  0.65932659278E+02 -0.25224659203E+02  0.36784200619E+03  0.38325375905E+03  0.81193000448E+02 0.  0.
          5    1    5    5  501    0  0.34544131556E+02  0.69655424350E+02  0.65299779331E+03  0.65762708524E+03  0.47000000000E+01 0. -1.
        -11    1    6    6    0    0  0.52517337529E+02 -0.46147932550E+02  0.33415426171E+03  0.34138947412E+03  0.00000000000E+00 0.  1.
         12    1    6    6    0    0  0.13415321749E+02  0.20923273347E+02  0.33687744474E+02  0.41864284933E+02  0.00000000000E+00 0. -1.
         -5    1    3    3    0  503  0.85090440360E+01 -0.35585945157E+02  0.27907335925E+02  0.46256596520E+02  0.47000000000E+01 0.  1.
         13    1    4    4    0    0  0.71363079675E+01  0.77633589035E+00  0.83819610530E+01  0.11035708401E+02  0.00000000000E+00 0. -1.
        -14    1    4    4    0    0 -0.11612214284E+03 -0.96211558793E+01 -0.89593730854E+02  0.14698284018E+03  0.00000000000E+00 0.  1.
</event>
<event>
12    1  0.8488291E-002  0.2095973E+03  0.7818608E-02  0.1141992E+00
         21   -1    0    0  501  502  0.00000000000E+00  0.00000000000E+00  0.33697606236E+03  0.33697606236E+03  0.00000000000E+00 0.  1.
         21   -1    0    0  502  503 -0.00000000000E+00 -0.00000000000E+00 -0.20959315986E+03  0.20959315986E+03  0.00000000000E+00 0. -1.
         -6    2    1    2    0  503 -0.11108902794E+03 -0.41691088256E+02 -0.10462925325E+03  0.23426118425E+03  0.17277761093E+03 0.  0.
        -24    2    3    3    0    0 -0.69318890953E+02 -0.10849796244E+02  0.19880200947E+02  0.99277393291E+02  0.67364320730E+02 0.  0.
          6    2    1    2  501    0  0.11108902794E+03  0.41691088256E+02  0.23201215575E+03  0.31230803798E+03  0.17212713673E+03 0.  0.
         24    2    5    5    0    0  0.13752330716E+03  0.41132339697E+02  0.13866068871E+03  0.21517066250E+03  0.80418269222E+02 0.  0.
          5    1    5    5  501    0 -0.26434279212E+02  0.55874855940E+00  0.93351467037E+02  0.97137375481E+02  0.47000000000E+01 0. -1.
        -13    1    6    6    0    0  0.10179662024E+03  0.25756516974E+02  0.14146262731E+03  0.17617498399E+03  0.00000000000E+00 0.  1.
         14    1    6    6    0    0  0.35726686918E+02  0.15375822723E+02 -0.28019385930E+01  0.38995678509E+02  0.00000000000E+00 0. -1.
         -5    1    3    3    0  503 -0.41770136992E+02 -0.30841292012E+02 -0.12450945419E+03  0.13498379095E+03  0.47000000000E+01 0.  1.
         13    1    4    4    0    0 -0.28475544326E+02 -0.30449304229E+02 -0.12579789046E+02  0.43546157639E+02  0.00000000000E+00 0. -1.
        -14    1    4    4    0    0 -0.40843346627E+02  0.19599507985E+02  0.32459989993E+02  0.55731235652E+02  0.00000000000E+00 0.  1.
</event>
<event>
12    1  0.8488291E-002  0.2759855E+03  0.7818608E-02  0.1097947E+00
         21   -1    0    0  503  502  0.00000000000E+00  0.00000000000E+00  0.43264539275E+03  0.43264539275E+03  0.00000000000E+00 0. -1.
         21   -1    0    0  501  503 -0.00000000000E+00 -0.00000000000E+00 -0.17619793524E+03  0.17619793524E+03  0.00000000000E+00 0.  1.
          6    2    1    2  501    0 -0.19668078735E+03 -0.88975524312E+02  0.14179578908E+03  0.30999056366E+03  0.17142965822E+03 0.  0.
         24    2    3    3    0    0 -0.11922925584E+03  0.28391209462E+00  0.32224921938E+02  0.14876447505E+03  0.82926035656E+02 0.  0.
         -6    2    1    2    0  502  0.19668078735E+03  0.88975524312E+02  0.11465166844E+03  0.29885276433E+03  0.17195346357E+03 0.  0.
        -24    2    5    5    0    0  0.21869417850E+03  0.95549223465E+02  0.11612857001E+03  0.27535650615E+03  0.73338686199E+02 0.  0.
          5    1    3    3  501    0 -0.77451531511E+02 -0.89259436407E+02  0.10957086714E+03  0.16122608861E+03  0.47000000000E+01 0. -1.
        -13    1    4    4    0    0 -0.51337692602E+02  0.44611258155E+01 -0.27353989813E+02  0.58341246849E+02  0.00000000000E+00 0.  1.
         14    1    4    4    0    0 -0.67891563236E+02 -0.41772137209E+01  0.59578911751E+02  0.90423228202E+02  0.00000000000E+00 0. -1.
         -5    1    5    5    0  502 -0.22013391146E+02 -0.65736991527E+01 -0.14769015736E+01  0.23496258182E+02  0.47000000000E+01 0.  1.
         11    1    6    6    0    0  0.10599922489E+03  0.18235434231E+02  0.79852131414E+02  0.13395793978E+03  0.00000000000E+00 0. -1.
        -12    1    6    6    0    0  0.11269495360E+03  0.77313789234E+02  0.36276438596E+02  0.14139856636E+03  0.00000000000E+00 0.  1.
</event>
<event>
12    1  0.8488291E-002  0.2004859E+03  0.7818608E-02  0.1149458E+00
         21   -1    0    0  503  502  0.00000000000E+00  0.00000000000E+00  0.49240286023E+03  0.49240286023E+03  0.00000000000E+00 0. -1.
         21   -1    0    0  501  503 -0.00000000000E+00 -0.00000000000E+00 -0.17289180786E+03  0.17289180786E+03  0.00000000000E+00 0.  1.
          6    2    1    2  501    0 -0.21418805035E+02  0.10032850207E+03 -0.82139412687E+02  0.21665979252E+03  0.17224984482E+03 0.  0.
         24    2    3    3    0    0  0.17651997514E+01  0.13578920482E+03 -0.72339409581E+02  0.17292091303E+03  0.78910252247E+02 0.  0.
         -6    2    1    2    0  502  0.21418805035E+02 -0.10032850207E+03  0.40165046506E+03  0.44863487557E+03  0.17153886429E+03 0.  0.
        -24    2    5    5    0    0 -0.20494286445E+02 -0.63468682885E+02  0.37464204098E+03  0.38645048462E+03  0.67372314079E+02 0.  0.
          5    1    3    3  501    0 -0.23184004787E+02 -0.35460702752E+02 -0.98000031061E+01  0.43738879484E+02  0.47000000000E+01 0. -1.
        -13    1    4    4    0    0 -0.91608659047E+01  0.25202134637E+02 -0.54000994147E+02  0.60292424261E+02  0.00000000000E+00 0.  1.
         14    1    4    4    0    0  0.10926065656E+02  0.11058707018E+03 -0.18338415434E+02  0.11262848877E+03  0.00000000000E+00 0. -1.
         -5    1    5    5    0  502  0.41913091480E+02 -0.36859819184E+02  0.27008424074E+02  0.62184390957E+02  0.47000000000E+01 0.  1.
         13    1    6    6    0    0 -0.30995653919E+02 -0.52339267454E+01  0.18927649388E+03  0.19186900658E+03  0.00000000000E+00 0. -1.
        -14    1    6    6    0    0  0.10501367474E+02 -0.58234756139E+02  0.18536554710E+03  0.19458147803E+03  0.00000000000E+00 0.  1.
</event>
<event>
12    1  0.8488291E-002  0.1951433E+03  0.7818608E-02  0.1154202E+00
         21   -1    0    0  503  502  0.00000000000E+00  0.00000000000E+00  0.23895344526E+03  0.23895344526E+03  0.00000000000E+00 0. -1.
         21   -1    0    0  501  503 -0.00000000000E+00 -0.00000000000E+00 -0.15833826358E+03  0.15833826358E+03  0.00000000000E+00 0. -1.
          6    2    1    2  501    0 -0.19810539766E+02  0.86942669539E+02  0.35716723031E+02  0.19838499087E+03  0.17357832534E+03 0.  0.
         24    2    3    3    0    0  0.49324879089E+02  0.71753032265E+02  0.44912675143E+02  0.12685117540E+03  0.80576863778E+02 0.  0.
         -6    2    1    2    0  502  0.19810539766E+02 -0.86942669539E+02  0.44898458652E+02  0.19890671796E+03  0.17203640774E+03 0.  0.
        -24    2    5    5    0    0  0.36907236133E+01 -0.90406394277E+02  0.85481063055E+02  0.15485125699E+03  0.92113853910E+02 0.  0.
          5    1    3    3  501    0 -0.69135418854E+02  0.15189637275E+02 -0.91959521118E+01  0.71533815472E+02  0.47000000000E+01 0. -1.
        -11    1    4    4    0    0 -0.29144216469E+01  0.82915924328E+01 -0.20174237953E+02  0.22005550109E+02  0.00000000000E+00 0.  1.
         12    1    4    4    0    0  0.52239300736E+02  0.63461439832E+02  0.65086913096E+02  0.10484562529E+03  0.00000000000E+00 0. -1.
         -5    1    5    5    0  502  0.16119816152E+02  0.34637247373E+01 -0.40582604404E+02  0.44055460978E+02  0.47000000000E+01 0.  1.
         13    1    6    6    0    0  0.22148394508E+02 -0.72998007116E+02  0.12138096836E+02  0.77243729953E+02  0.00000000000E+00 0. -1.
        -14    1    6    6    0    0 -0.18457670895E+02 -0.17408387161E+02  0.73342966219E+02  0.77607527033E+02  0.00000000000E+00 0.  1.
</event>
<event>
12    1  0.8488291E-002  0.2034813E+03  0.7818608E-02  0.1147021E+00
         21   -1    0    0  501  502  0.00000000000E+00  0.00000000000E+00  0.76433055603E+03  0.76433055603E+03  0.00000000000E+00 0.  1.
         21   -1    0    0  502  503 -0.00000000000E+00 -0.00000000000E+00 -0.10445830408E+03  0.10445830408E+03  0.00000000000E+00 0.  1.
         -6    2    1    2    0  503 -0.10747886381E+03  0.16965925154E+02  0.27444545175E+02  0.20443243469E+03  0.17087969017E+03 0.  0.
        -24    2    3    3    0    0 -0.48984170790E+02  0.57540409412E+02  0.61732069716E+02  0.12527662490E+03  0.78568674497E+02 0.  0.
          6    2    1    2  501    0  0.10747886381E+03 -0.16965925154E+02  0.63242770678E+03  0.66435642542E+03  0.17194506944E+03 0.  0.
         24    2    5    5    0    0  0.58129469034E+02 -0.67348583091E+02  0.50408915063E+03  0.51784140919E+03  0.78351684555E+02 0.  0.
          5    1    5    5  501    0  0.49349394776E+02  0.50382657937E+02  0.12833855615E+03  0.14651501623E+03  0.47000000000E+01 0. -1.
        -11    1    6    6    0    0  0.66409606069E+02 -0.73702528459E+02  0.36135622619E+03  0.37472739516E+03  0.00000000000E+00 0.  1.
         12    1    6    6    0    0 -0.82801370356E+01  0.63539453684E+01  0.14273292444E+03  0.14311401403E+03  0.00000000000E+00 0. -1.
         -5    1    3    3    0  503 -0.58494693020E+02 -0.40574484258E+02 -0.34287524542E+02  0.79155809790E+02  0.47000000000E+01 0.  1.
         11    1    4    4    0    0 -0.48934387224E+02  0.36839599774E+02  0.77838265823E+02  0.99048099380E+02  0.00000000000E+00 0. -1.
        -12    1    4    4    0    0 -0.49783565878E-01  0.20700809638E+02 -0.16106196106E+02  0.26228525522E+02  0.00000000000E+00 0.  1.
</event>
<event>
12    1  0.8488291E-002  0.1843653E+03  0.7818608E-02  0.1164123E+00
         21   -1    0    0  501  502  0.00000000000E+00  0.00000000000E+00  0.28300194679E+03  0.28300194679E+03  0.00000000000E+00 0. -1.
         21   -1    0    0  502  503 -0.00000000000E+00 -0.00000000000E+00 -0.13320956096E+03  0.13320956096E+03  0.00000000000E+00 0. -1.
         -6    2    1    2    0  503  0.22708830623E+02 -0.57492247172E+02  0.67941538811E+01  0.18449047527E+03  0.17369376922E+03 0.  0.
        -24    2    3    3    0    0  0.25368350694E+02 -0.70794321010E+02 -0.54463492365E+02  0.12157300998E+03  0.78475063874E+02 0.  0.
          6    2    1    2  501    0 -0.22708830623E+02  0.57492247172E+02  0.14299823194E+03  0.23172103248E+03  0.17153743930E+03 0.  0.
         24    2    5    5    0    0 -0.62701617929E+02 -0.17221567160E+02  0.52677907507E+02  0.10777980409E+03  0.67922374545E+02 0.  0.
          5    1    5    5  501    0  0.39992787306E+02  0.74713814332E+02  0.90320324435E+02  0.12394122839E+03  0.47000000000E+01 0. -1.
        -13    1    6    6    0    0  0.12194470058E+02 -0.14188247868E+02  0.14436177124E+02  0.23630799553E+02  0.00000000000E+00 0.  1.
         14    1    6    6    0    0 -0.74896087987E+02 -0.30333192919E+01  0.38241730383E+02  0.84149004536E+02  0.00000000000E+00 0. -1.
         -5    1    3    3    0  503 -0.26595200714E+01  0.13302073838E+02  0.61257646246E+02  0.62917465294E+02  0.47000000000E+01 0.  1.
         11    1    4    4    0    0 -0.10117708305E+02 -0.38973724206E+02 -0.61381704416E+02  0.73410032263E+02  0.00000000000E+00 0. -1.
        -12    1    4    4    0    0  0.35486058999E+02 -0.31820596804E+02  0.69182120513E+01  0.48162977714E+02  0.00000000000E+00 0.  1.
</event>
<event>
12    1  0.8488291E-002  0.1914666E+03  0.7818608E-02  0.1157500E+00
         21   -1    0    0  503  502  0.00000000000E+00  0.00000000000E+00  0.42198962910E+03  0.42198962910E+03  0.00000000000E+00 0.  1.
         21   -1    0    0  501  503 -0.00000000000E+00 -0.00000000000E+00 -0.86209690154E+02  0.86209690154E+02  0.00000000000E+00 0.  1.
          6    2    1    2  501    0  0.78583598847E+02 -0.28515932100E+01  0.17492552696E+03  0.25934225930E+03  0.17457363456E+03 0.  0.
         24    2    3    3    0    0  0.23797991417E+02 -0.47831311604E+02  0.39144452050E+02  0.10609987563E+03  0.82889786572E+02 0.  0.
         -6    2    1    2    0  502 -0.78583598847E+02  0.28515932100E+01  0.16085441199E+03  0.24885705995E+03  0.17283570477E+03 0.  0.
        -24    2    5    5    0    0 -0.12922132636E+02 -0.58809861171E+02  0.76576829635E+02  0.12541329143E+03  0.78986717533E+02 0.  0.
          5    1    3    3  501    0  0.54785607430E+02  0.44979718394E+02  0.13578107491E+03  0.15324238367E+03  0.47000000000E+01 0. -1.
        -13    1    4    4    0    0  0.43575473110E+02  0.10698796959E+01  0.65107033952E+01  0.44072165343E+02  0.00000000000E+00 0.  1.
         14    1    4    4    0    0 -0.19777481693E+02 -0.48901191300E+02  0.32633748655E+02  0.62027710290E+02  0.00000000000E+00 0. -1.
         -5    1    5    5    0  502 -0.65661466211E+02  0.61661454381E+02  0.84277582350E+02  0.12344376853E+03  0.47000000000E+01 0.  1.
         13    1    6    6    0    0 -0.86203086058E+01  0.16971084387E+02  0.22302116337E+01  0.19165105522E+02  0.00000000000E+00 0. -1.
        -14    1    6    6    0    0 -0.43018240306E+01 -0.75780945559E+02  0.74346618002E+02  0.10624818590E+03  0.00000000000E+00 0.  1.
</event>
<event>
12    1  0.8488291E-002  0.1822237E+03  0.7818608E-02  0.1170232E+00
         21   -1    0    0  503  502  0.00000000000E+00  0.00000000000E+00  0.51315294119E+03  0.51315294119E+03  0.00000000000E+00 0.  1.
         21   -1    0    0  501  503 -0.00000000000E+00 -0.00000000000E+00 -0.59241360963E+02  0.59241360963E+02  0.00000000000E+00 0.  1.
          6    2    1    2  501    0  0.32565883757E+02  0.23928171385E+02  0.20528009887E+03  0.27449113887E+03  0.17768616197E+03 0.  0.
         24    2    3    3    0    0 -0.34758925922E+02 -0.28920355669E+02  0.11823394521E+03  0.15232436893E+03  0.84728257791E+02 0.  0.
         -6    2    1    2    0  502 -0.32565883757E+02 -0.23928171385E+02  0.24863148135E+03  0.29790316328E+03  0.15904586446E+03 0.  0.
        -24    2    5    5    0    0 -0.36473870621E+02  0.44066126163E+02  0.14183054285E+03  0.17114738501E+03  0.76833311762E+02 0.  0.
          5    1    3    3  501    0  0.67324809679E+02  0.52848527053E+02  0.87046153668E+02  0.12216676994E+03  0.47000000000E+01 0. -1.
        -11    1    4    4    0    0 -0.91757668950E+01  0.27746866309E+02  0.61781145847E+02  0.68344665265E+02  0.00000000000E+00 0.  1.
         12    1    4    4    0    0 -0.25583159027E+02 -0.56667221977E+02  0.56452799359E+02  0.83979703666E+02  0.00000000000E+00 0. -1.
         -5    1    5    5    0  502  0.39079868636E+01 -0.67994297547E+02  0.10680093850E+03  0.12675577827E+03  0.47000000000E+01 0.  1.
         11    1    6    6    0    0 -0.42859092761E+02  0.55194085472E+02  0.14205824242E+03  0.15831561244E+03  0.00000000000E+00 0. -1.
        -12    1    6    6    0    0  0.63852221400E+01 -0.11127959309E+02 -0.22769956579E+00  0.12831772568E+02  0.00000000000E+00 0.  1.
</event>
<event>
12    1  0.8488291E-002  0.2687224E+03  0.7818608E-02  0.1102163E+00
         21   -1    0    0  503  502  0.00000000000E+00  0.00000000000E+00  0.31580110495E+03  0.31580110495E+03  0.00000000000E+00 0. -1.
         21   -1    0    0  501  503 -0.00000000000E+00 -0.00000000000E+00 -0.24350068727E+03  0.24350068727E+03  0.00000000000E+00 0.  1.
          6    2    1    2  501    0 -0.10440513341E+03  0.17739090435E+03  0.10727294496E+03  0.28934269491E+03  0.17275342413E+03 0.  0.
         24    2    3    3    0    0 -0.76464338101E+00  0.22318679719E+02  0.15604777293E+02  0.81463188969E+02  0.76772611905E+02 0.  0.
         -6    2    1    2    0  502  0.10440513341E+03 -0.17739090435E+03 -0.34972527282E+02  0.26995909732E+03  0.17113407530E+03 0.  0.
        -24    2    5    5    0    0 -0.52059984473E+01 -0.10330755580E+03 -0.48832361204E+00  0.13315926887E+03  0.83854629697E+02 0.  0.
          5    1    3    3  501    0 -0.10364049003E+03  0.15507222463E+03  0.91668167662E+02  0.20787950594E+03  0.47000000000E+01 0. -1.
        -11    1    4    4    0    0 -0.25096335718E+02 -0.18384631410E+02  0.13729509292E+02  0.34004707968E+02  0.00000000000E+00 0.  1.
         12    1    4    4    0    0  0.24331692337E+02  0.40703311129E+02  0.18752680014E+01  0.47458481001E+02  0.00000000000E+00 0. -1.
         -5    1    5    5    0  502  0.10961113185E+03 -0.74083348552E+02 -0.34484203670E+02  0.13679982844E+03  0.47000000000E+01 0.  1.
         13    1    6    6    0    0  0.31812883815E+02 -0.62229459221E+02  0.22284155272E+02  0.73356313619E+02  0.00000000000E+00 0. -1.
        -14    1    6    6    0    0 -0.37018882263E+02 -0.41078096580E+02 -0.22772478884E+02  0.59802955255E+02  0.00000000000E+00 0.  1.
</event>
<event>
12    1  0.8488291E-002  0.2752997E+03  0.7818608E-02  0.1099849E+00
         21   -1    0    0  503  502  0.00000000000E+00  0.00000000000E+00  0.30482174443E+03  0.30482174443E+03  0.00000000000E+00 0. -1.
         21   -1    0    0  501  503 -0.00000000000E+00 -0.00000000000E+00 -0.28373773254E+03  0.28373773254E+03  0.00000000000E+00 0. -1.
          6    2    1    2  501    0  0.19176683677E+03 -0.65132384384E+02 -0.10633580248E+03  0.29512237285E+03  0.18647564154E+03 0.  0.
         24    2    3    3    0    0  0.76657904405E+02 -0.97126443094E+02 -0.22333757292E+02  0.14899872761E+03  0.79949007859E+02 0.  0.
         -6    2    1    2    0  502 -0.19176683677E+03  0.65132384384E+02  0.12741981436E+03  0.29343710412E+03  0.16986105440E+03 0.  0.
        -24    2    5    5    0    0 -0.11495346713E+03 -0.20438556535E+02  0.42580576641E+02  0.15045995230E+03  0.84811895041E+02 0.  0.
          5    1    3    3  501    0  0.11510893237E+03  0.31994058710E+02 -0.84002045186E+02  0.14612364524E+03  0.47000000000E+01 0. -1.
        -13    1    4    4    0    0  0.59086103094E+02 -0.11903580992E+02 -0.10532633431E+02  0.61186593191E+02  0.00000000000E+00 0.  1.
         14    1    4    4    0    0  0.17571801311E+02 -0.85222862103E+02 -0.11801123861E+02  0.87812134416E+02  0.00000000000E+00 0. -1.
         -5    1    5    5    0  502 -0.76813369638E+02  0.85570940919E+02  0.84839237724E+02  0.14297715182E+03  0.47000000000E+01 0.  1.
         13    1    6    6    0    0 -0.43100909161E+01  0.24092011471E+02  0.23402049009E+01  0.24586143646E+02  0.00000000000E+00 0. -1.
        -14    1    6    6    0    0 -0.11064337622E+03 -0.44530568006E+02  0.40240371740E+02  0.12587380866E+03  0.00000000000E+00 0.  1.
</event>
<event>
12    1  0.8488291E-002  0.2347540E+03  0.7818608E-02  0.1123399E+00
         21   -1    0    0  503  502  0.00000000000E+00  0.00000000000E+00  0.21572507821E+03  0.21572507821E+03  0.00000000000E+00 0.  1.
         21   -1    0    0  501  503 -0.00000000000E+00 -0.00000000000E+00 -0.26953845527E+03  0.26953845527E+03  0.00000000000E+00 0. -1.
          6    2    1    2  501    0 -0.15371149172E+03  0.35868840560E+02 -0.83093720748E+02  0.24869054409E+03  0.17328769109E+03 0.  0.
         24    2    3    3    0    0 -0.69674047385E+01  0.36934344997E+01 -0.40106587630E+02  0.92360548786E+02  0.82823586095E+02 0.  0.
         -6    2    1    2    0  502  0.15371149172E+03 -0.35868840560E+02  0.29280343694E+02  0.23657298939E+03  0.17376893960E+03 0.  0.
        -24    2    5    5    0    0  0.17889527952E+02 -0.54405379828E+02  0.21410730276E+02  0.99185835894E+02  0.78098848304E+02 0.  0.
          5    1    3    3  501    0 -0.14674408698E+03  0.32175406060E+02 -0.42987133118E+02  0.15632999531E+03  0.47000000000E+01 0. -1.
        -13    1    4    4    0    0 -0.24092779926E+01 -0.74571703793E+01 -0.64595517472E+02  0.65069154659E+02  0.00000000000E+00 0.  1.
         14    1    4    4    0    0 -0.45581267459E+01  0.11150604879E+02  0.24488929842E+02  0.27291394127E+02  0.00000000000E+00 0. -1.
         -5    1    5    5    0  502  0.13582196377E+03  0.18536539268E+02  0.78696134179E+01  0.13738715349E+03  0.47000000000E+01 0.  1.
         13    1    6    6    0    0  0.28777555598E+02  0.88053290799E+01 -0.36649513064E+01  0.30316882994E+02  0.00000000000E+00 0. -1.
        -14    1    6    6    0    0 -0.10888027646E+02 -0.63210708908E+02  0.25075681582E+02  0.68868952900E+02  0.00000000000E+00 0.  1.
</event>
<event>
12    1  0.8488291E-002  0.1814011E+03  0.7818608E-02  0.1166748E+00
         21   -1    0    0  503  502  0.00000000000E+00  0.00000000000E+00  0.19136466340E+03  0.19136466340E+03  0.00000000000E+00 0.  1.
         21   -1    0    0  501  503 -0.00000000000E+00 -0.00000000000E+00 -0.26520227255E+03  0.26520227255E+03  0.00000000000E+00 0.  1.
          6    2    1    2  501    0  0.47786346122E+02  0.24653185335E+02 -0.17303806047E+03  0.24981326883E+03  0.17196855668E+03 0.  0.
         24    2    3    3    0    0 -0.21369822996E+02 -0.21159563498E+02 -0.42151657348E+02  0.94781903598E+02  0.79387974972E+02 0.  0.
         -6    2    1    2    0  502 -0.47786346122E+02 -0.24653185335E+02  0.99200451324E+02  0.20675366712E+03  0.17324847734E+03 0.  0.
        -24    2    5    5    0    0  0.28806343891E+02 -0.58829912329E+01  0.72799655940E+01  0.85550424395E+02  0.80009138109E+02 0.  0.
          5    1    3    3  501    0  0.69156169118E+02  0.45812748833E+02 -0.13088640312E+03  0.15503136523E+03  0.47000000000E+01 0. -1.
        -11    1    4    4    0    0 -0.20612809382E+02 -0.49795757806E+01 -0.64092691591E+02  0.67509682276E+02  0.00000000000E+00 0.  1.
         12    1    4    4    0    0 -0.75701361469E+00 -0.16179987717E+02  0.21941034244E+02  0.27272221322E+02  0.00000000000E+00 0. -1.
         -5    1    5    5    0  502 -0.76592690013E+02 -0.18770194103E+02  0.91920485730E+02  0.12120324272E+03  0.47000000000E+01 0.  1.
         13    1    6    6    0    0 -0.17236963809E+02 -0.94734923936E+01 -0.23047875397E+02  0.30299579861E+02  0.00000000000E+00 0. -1.
        -14    1    6    6    0    0  0.46043307699E+02  0.35905011608E+01  0.30327840991E+02  0.55250844533E+02  0.00000000000E+00 0.  1.
</event>
<event>
12    1  0.8488291E-002  0.1959335E+03  0.7818608E-02  0.1153360E+00
         21   -1    0    0  501  502  0.00000000000E+00  0.00000000000E+00  0.39065393363E+02  0.39065393363E+02  0.00000000000E+00 0.  1.
         21   -1    0    0  502  503 -0.00000000000E+00 -0.00000000000E+00 -0.98603256823E+03  0.98603256823E+03  0.00000000000E+00 0. -1.
         -6    2    1    2    0  503 -0.16052974152E+02  0.91851743037E+02 -0.51479778011E+03  0.55058736245E+03  0.17156703822E+03 0.  0.
        -24    2    3    3    0    0 -0.56035752650E+01  0.86124168022E+02 -0.52004135065E+03  0.53674611668E+03  0.10101789449E+03 0.  0.
          6    2    1    2  501    0  0.16052974152E+02 -0.91851743037E+02 -0.43216939475E+03  0.47451059914E+03  0.17232377160E+03 0.  0.
         24    2    5    5    0    0  0.10006277282E+01 -0.13109280738E+03 -0.34490563934E+03  0.37753901943E+03  0.79934258856E+02 0.  0.
          5    1    5    5  501    0  0.15052346424E+02  0.39241064340E+02 -0.87263755409E+02  0.96971579710E+02  0.47000000000E+01 0. -1.
        -11    1    6    6    0    0 -0.35494684293E+02 -0.60052312193E+02 -0.11909971059E+03  0.13802497555E+03  0.00000000000E+00 0.  1.
         12    1    6    6    0    0  0.36495312021E+02 -0.71040495185E+02 -0.22580592875E+03  0.23951404388E+03  0.00000000000E+00 0. -1.
         -5    1    3    3    0  503 -0.10449398887E+02  0.57275750153E+01  0.52435705375E+01  0.13841245776E+02  0.47000000000E+01 0.  1.
         11    1    4    4    0    0 -0.51541977761E+02  0.30751951310E+02 -0.20577816782E+03  0.21435230891E+03  0.00000000000E+00 0. -1.
        -12    1    4    4    0    0  0.45938402496E+02  0.55372216712E+02 -0.31426318283E+03  0.32239380777E+03  0.00000000000E+00 0.  1.
</event>
<event>
12    1  0.8488291E-002  0.1953892E+03  0.7818608E-02  0.1154199E+00
         21   -1    0    0  501  502  0.00000000000E+00  0.00000000000E+00  0.19675892602E+04  0.19675892602E+04  0.00000000000E+00 0.  1.
         21   -1    0    0  502  503 -0.00000000000E+00 -0.00000000000E+00 -0.20936876282E+02  0.20936876282E+02  0.00000000000E+00 0.  1.
         -6    2    1    2    0  503  0.88542553768E+02  0.13636102565E+02  0.67928594364E+03  0.70618661997E+03  0.17101000520E+03 0.  0.
        -24    2    3    3    0    0 -0.30118570039E+01  0.37501707708E+00  0.16037687947E+03  0.17907489235E+03  0.79610688229E+02 0.  0.
          6    2    1    2  501    0 -0.88542553768E+02 -0.13636102565E+02  0.12673664403E+04  0.12823395165E+04  0.17364105086E+03 0.  0.
         24    2    5    5    0    0 -0.12094247168E+03  0.17297302366E+02  0.82619321288E+03  0.83887301632E+03  0.78653889756E+02 0.  0.
          5    1    5    5  501    0  0.32399917910E+02 -0.30933404931E+02  0.44117322737E+03  0.44346650017E+03  0.47000000000E+01 0. -1.
        -11    1    6    6    0    0 -0.10982374080E+03 -0.68881423911E+00  0.78423432045E+03  0.79188711183E+03  0.00000000000E+00 0.  1.
         12    1    6    6    0    0 -0.11118730875E+02  0.17986116605E+02  0.41958892435E+02  0.46985904495E+02  0.00000000000E+00 0. -1.
         -5    1    3    3    0  503  0.91554410772E+02  0.13261085488E+02  0.51890906416E+03  0.52711172761E+03  0.47000000000E+01 0.  1.
         11    1    4    4    0    0 -0.40988328929E+02 -0.39264028394E+01  0.75749669982E+02  0.86217586663E+02  0.00000000000E+00 0. -1.
        -12    1    4    4    0    0  0.37976471925E+02  0.43014199165E+01  0.84627209492E+02  0.92857305688E+02  0.00000000000E+00 0.  1.
</event>
<event>
12    1  0.8488291E-002  0.2187661E+03  0.7818608E-02  0.1135646E+00
         21   -1    0    0  501  502  0.00000000000E+00  0.00000000000E+00  0.18971454278E+03  0.18971454278E+03  0.00000000000E+00 0. -1.
         21   -1    0    0  502  503 -0.00000000000E+00 -0.00000000000E+00 -0.29806985305E+03  0.29806985305E+03  0.00000000000E+00 0. -1.
         -6    2    1    2    0  503 -0.91083005946E+02  0.98302881562E+02 -0.15539432801E+03  0.26833936344E+03  0.17291340693E+03 0.  0.
        -24    2    3    3    0    0 -0.28852032492E+02 -0.19296323659E+02 -0.62293882785E+02  0.10588306154E+03  0.78268173626E+02 0.  0.
          6    2    1    2  501    0  0.91083005946E+02 -0.98302881562E+02  0.47039017735E+02  0.21944503240E+03  0.16728383831E+03 0.  0.
         24    2    5    5    0    0  0.36779163180E+02 -0.12305946696E+03  0.36862201956E+02  0.15872062677E+03  0.85656734562E+02 0.  0.
          5    1    5    5  501    0  0.54303842766E+02  0.24756585397E+02  0.10176815779E+02  0.60724405630E+02  0.47000000000E+01 0. -1.
        -13    1    6    6    0    0 -0.61915741696E+00 -0.10679719506E+02 -0.23475317394E+02  0.25797873777E+02  0.00000000000E+00 0.  1.
         14    1    6    6    0    0  0.37398320597E+02 -0.11237974745E+03  0.60337519351E+02  0.13292275299E+03  0.00000000000E+00 0. -1.
         -5    1    3    3    0  503 -0.62230973455E+02  0.11759920522E+03 -0.93100445224E+02  0.16245630190E+03  0.47000000000E+01 0.  1.
         11    1    4    4    0    0  0.20453383810E+02 -0.13316409591E+01 -0.46919360162E+02  0.51200981777E+02  0.00000000000E+00 0. -1.
        -12    1    4    4    0    0 -0.49305416302E+02 -0.17964682700E+02 -0.15374522623E+02  0.54682079762E+02  0.00000000000E+00 0.  1.
</event>
<event>
12    1  0.8488291E-002  0.1957892E+03  0.7818608E-02  0.1153642E+00
         21   -1    0    0  501  502  0.00000000000E+00  0.00000000000E+00  0.96378468984E+02  0.96378468984E+02  0.00000000000E+00 0.  1.
         21   -1    0    0  502  503 -0.00000000000E+00 -0.00000000000E+00 -0.99790566104E+03  0.99790566104E+03  0.00000000000E+00 0.  1.
         -6    2    1    2    0  503 -0.79896018600E+02  0.46637012385E+02 -0.87670328714E+03  0.89829955062E+03  0.17255446748E+03 0.  0.
        -24    2    3    3    0    0 -0.18094358745E+02  0.65664991963E+02 -0.28810285132E+03  0.30613903842E+03  0.77965126269E+02 0.  0.
          6    2    1    2  501    0  0.79896018600E+02 -0.46637012385E+02 -0.24823904912E+02  0.19598457940E+03  0.17098346235E+03 0.  0.
         24    2    5    5    0    0  0.72161480835E+02 -0.80684857882E+02 -0.60865309417E+02  0.14558466178E+03  0.75980143774E+02 0.  0.
          5    1    5    5  501    0  0.77345377644E+01  0.34047845498E+02  0.36041404505E+02  0.50399917620E+02  0.47000000000E+01 0. -1.
        -13    1    6    6    0    0  0.41641565411E+02 -0.76189803724E+02 -0.11797050667E+02  0.87624634469E+02  0.00000000000E+00 0.  1.
         14    1    6    6    0    0  0.30519915425E+02 -0.44950541582E+01 -0.49068258750E+02  0.57960027313E+02  0.00000000000E+00 0. -1.
         -5    1    3    3    0  503 -0.61801659854E+02 -0.19027979578E+02 -0.58860043582E+03  0.59216051221E+03  0.47000000000E+01 0.  1.
         11    1    4    4    0    0 -0.41087350142E+02  0.61804253195E+02 -0.16606814332E+03  0.18189712554E+03  0.00000000000E+00 0. -1.
        -12    1    4    4    0    0  0.22992991397E+02  0.38607387675E+01 -0.12203470800E+03  0.12424191288E+03  0.00000000000E+00 0.  1.
</event>
<event>
12    1  0.8488291E-002  0.2148200E+03  0.7818608E-02  0.1137983E+00
         21   -1    0    0  501  502  0.00000000000E+00  0.00000000000E+00  0.66369009745E+03  0.66369009745E+03  0.00000000000E+00 0.  1.
         21   -1    0    0  502  503 -0.00000000000E+00 -0.00000000000E+00 -0.79566358830E+02  0.79566358830E+02  0.00000000000E+00 0. -1.
         -6    2    1    2    0  503 -0.38704742600E+02  0.12266071834E+03  0.15759441449E+03  0.26568456766E+03  0.17090518158E+03 0.  0.
        -24    2    3    3    0    0 -0.44906746740E+01  0.72667184826E+02  0.13273564431E+02  0.10909416693E+03  0.80154000753E+02 0.  0.
          6    2    1    2  501    0  0.38704742600E+02 -0.12266071834E+03  0.42652932413E+03  0.47757188862E+03  0.17205794237E+03 0.  0.
         24    2    5    5    0    0 -0.52286633460E+01 -0.29999507986E+02  0.84400736970E+02  0.12037403838E+03  0.80244098320E+02 0.  0.
          5    1    5    5  501    0  0.43933405946E+02 -0.92661210358E+02  0.34212858716E+03  0.35719785024E+03  0.47000000000E+01 0. -1.
        -13    1    6    6    0    0  0.97459820716E+01  0.23186177456E+02  0.48052243612E+02  0.54236529274E+02  0.00000000000E+00 0.  1.
         14    1    6    6    0    0 -0.14974645418E+02 -0.53185685443E+02  0.36348493358E+02  0.66137509106E+02  0.00000000000E+00 0. -1.
         -5    1    3    3    0  503 -0.34214067926E+02  0.49993533518E+02  0.14432085006E+03  0.15659040073E+03  0.47000000000E+01 0.  1.
         13    1    4    4    0    0  0.33910228334E+02  0.11023235003E+02  0.42583074989E+01  0.35910283741E+02  0.00000000000E+00 0. -1.
        -14    1    4    4    0    0 -0.38400903008E+02  0.61643949824E+02  0.90152569319E+01  0.73183883193E+02  0.00000000000E+00 0.  1.
</event>
<event>
12    1  0.8488291E-002  0.2039481E+03  0.7818608E-02  0.1147221E+00
         21   -1    0    0  503  502  0.00000000000E+00  0.00000000000E+00  0.81702038592E+03  0.81702038592E+03  0.00000000000E+00 0.  1.
         21   -1    0    0  501  503 -0.00000000000E+00 -0.00000000000E+00 -0.50512744481E+02  0.50512744481E+02  0.00000000000E+00 0.  1.
          6    2    1    2  501    0 -0.18911431402E+02 -0.10208107557E+03  0.42395993268E+03  0.46886814375E+03  0.17122243859E+03 0.  0.
         24    2    3    3    0    0  0.23984661132E+02 -0.37389931406E+02  0.99258363754E+02  0.13498460454E+03  0.79970930649E+02 0.  0.
         -6    2    1    2    0  502  0.18911431402E+02  0.10208107557E+03  0.34254770875E+03  0.39866498665E+03  0.17554671908E+03 0.  0.
        -24    2    5    5    0    0  0.23388543027E+02  0.63106731113E+02  0.75814653604E+02  0.12902141308E+03  0.79807141764E+02 0.  0.
          5    1    3    3  501    0 -0.42896092533E+02 -0.64691144169E+02  0.32470156893E+03  0.33388353921E+03  0.47000000000E+01 0. -1.
        -11    1    4    4    0    0  0.18999977406E+02 -0.42936296699E+02  0.11131279593E+03  0.12081002960E+03  0.00000000000E+00 0.  1.
         12    1    4    4    0    0  0.49846837256E+01  0.55463652932E+01 -0.12054432172E+02  0.14174574942E+02  0.00000000000E+00 0. -1.
         -5    1    5    5    0  502 -0.44771116250E+01  0.38974344462E+02  0.26673305515E+03  0.26964357356E+03  0.47000000000E+01 0.  1.
         11    1    6    6    0    0 -0.25141020002E+02  0.84776644040E+01  0.44876348388E+01  0.26908744805E+02  0.00000000000E+00 0. -1.
        -12    1    6    6    0    0  0.48529563029E+02  0.54629066709E+02  0.71327018766E+02  0.10211266828E+03  0.00000000000E+00 0.  1.
</event>
<event>
12    1  0.8488291E-002  0.1857981E+03  0.7818608E-02  0.1162607E+00
         21   -1    0    0  501  502  0.00000000000E+00  0.00000000000E+00  0.15529822301E+03  0.15529822301E+03  0.00000000000E+00 0. -1.
         21   -1    0    0  502  503 -0.00000000000E+00 -0.00000000000E+00 -0.28797321512E+03  0.28797321512E+03  0.00000000000E+00 0. -1.
         -6    2    1    2    0  503 -0.67827427515E+02 -0.10021993309E+02 -0.17359864094E+03  0.25427821199E+03  0.17268445409E+03 0.  0.
        -24    2    3    3    0    0 -0.65813879520E+02  0.42495734187E+02 -0.16779377227E+03  0.20119382090E+03  0.78656527988E+02 0.  0.
          6    2    1    2  501    0  0.67827427515E+02  0.10021993309E+02  0.40923648827E+02  0.18899322614E+03  0.17129709344E+03 0.  0.
         24    2    5    5    0    0  0.51038774779E+02  0.55604297106E+02  0.72155378477E+02  0.13105259949E+03  0.79193375995E+02 0.  0.
          5    1    5    5  501    0  0.16788652736E+02 -0.45582303797E+02 -0.31231729650E+02  0.57940626654E+02  0.47000000000E+01 0. -1.
        -13    1    6    6    0    0  0.39973189221E+01 -0.19978208069E+02  0.13410394202E+02  0.24391515510E+02  0.00000000000E+00 0.  1.
         14    1    6    6    0    0  0.47041455857E+02  0.75582505175E+02  0.58744984275E+02  0.10666108398E+03  0.00000000000E+00 0. -1.
         -5    1    3    3    0  503 -0.20135479947E+01 -0.52517727496E+02 -0.58048686645E+01  0.53084391087E+02  0.47000000000E+01 0.  1.
         11    1    4    4    0    0 -0.42887111013E+01 -0.20347278035E+02 -0.18058324738E+02  0.27541021381E+02  0.00000000000E+00 0. -1.
        -12    1    4    4    0    0 -0.61525168419E+02  0.62843012222E+02 -0.14973544753E+03  0.17365279952E+03  0.00000000000E+00 0.  1.
</event>
<event>
12    1  0.8488291E-002  0.2480738E+03  0.7818608E-02  0.1114754E+00
         21   -1    0    0  501  502  0.00000000000E+00  0.00000000000E+00  0.11557992689E+03  0.11557992689E+03  0.00000000000E+00 0.  1.
         21   -1    0    0  502  503 -0.00000000000E+00 -0.00000000000E+00 -0.54640809299E+03  0.54640809299E+03  0.00000000000E+00 0. -1.
         -6    2    1    2    0  503  0.33213979245E+02 -0.17364363246E+03 -0.27317014028E+03  0.36805488900E+03  0.17200929121E+03 0.  0.
        -24    2    3    3    0    0  0.26203244442E+01 -0.16178740035E+03 -0.13290386492E+03  0.22392557221E+03  0.79354871094E+02 0.  0.
          6    2    1    2  501    0 -0.33213979245E+02  0.17364363246E+03 -0.15765802582E+03  0.29393313088E+03  0.17402687383E+03 0.  0.
         24    2    5    5    0    0 -0.34693253741E+02  0.13891360074E+03 -0.18688655296E+03  0.24827395705E+03  0.78821086933E+02 0.  0.
          5    1    5    5  501    0  0.14792744960E+01  0.34730031720E+02  0.29228527142E+02  0.45659173834E+02  0.47000000000E+01 0. -1.
        -13    1    6    6    0    0 -0.41289103684E+02  0.87606645766E+02 -0.67178409572E+02  0.11786709964E+03  0.00000000000E+00 0.  1.
         14    1    6    6    0    0  0.65958499435E+01  0.51306954973E+02 -0.11970814339E+03  0.13040685740E+03  0.00000000000E+00 0. -1.
         -5    1    3    3    0  503  0.30593654801E+02 -0.11856232108E+02 -0.14026627536E+03  0.14412931679E+03  0.47000000000E+01 0.  1.
         11    1    4    4    0    0  0.33644294016E+02 -0.50454776988E+02 -0.68995029689E+02  0.91858244935E+02  0.00000000000E+00 0. -1.
        -12    1    4    4    0    0 -0.31023969572E+02 -0.11133262336E+03 -0.63908835230E+02  0.13206732727E+03  0.00000000000E+00 0.  1.
</event>
<event>
12    1  0.8488291E-002  0.1904768E+03  0.7818608E-02  0.1159574E+00
         21   -1    0    0  501  502  0.00000000000E+00  0.00000000000E+00  0.19736135777E+04  0.19736135777E+04  0.00000000000E+00 0.  1.
         21   -1    0    0  502  503 -0.00000000000E+00 -0.00000000000E+00 -0.46555988866E+02  0.46555988866E+02  0.00000000000E+00 0.  1.
         -6    2    1    2    0  503 -0.38654632095E+02 -0.73818647243E+02  0.16230251657E+03  0.24516481633E+03  0.16376906612E+03 0.  0.
        -24    2    3    3    0    0 -0.53979834336E+02 -0.97930124588E+02  0.16628695503E+03  0.21593827166E+03  0.80460263105E+02 0.  0.
          6    2    1    2  501    0  0.38654632095E+02  0.73818647243E+02  0.17647550723E+04  0.17750047503E+04  0.17128346396E+03 0.  0.
         24    2    5    5    0    0  0.28078215199E+02 -0.27337055226E+02  0.10415184092E+04  0.10446365571E+04  0.70492829342E+02 0.  0.
          5    1    5    5  501    0  0.10576416896E+02  0.10115570247E+03  0.72323666308E+03  0.73036819314E+03  0.47000000000E+01 0. -1.
        -11    1    6    6    0    0 -0.57639567382E+01  0.20891500127E+02  0.26207779147E+03  0.26297233078E+03  0.00000000000E+00 0.  1.
         12    1    6    6    0    0  0.33842171938E+02 -0.48228555353E+02  0.77944061775E+03  0.78166422635E+03  0.00000000000E+00 0. -1.
         -5    1    3    3    0  503  0.15325202241E+02  0.24111477345E+02 -0.39844384558E+01  0.29226544669E+02  0.47000000000E+01 0.  1.
         11    1    4    4    0    0 -0.64096258704E+01 -0.84189172885E+02  0.79232261246E+02  0.11578709495E+03  0.00000000000E+00 0. -1.
        -12    1    4    4    0    0 -0.47570208466E+02 -0.13740951703E+02  0.87054693784E+02  0.10015117671E+03  0.00000000000E+00 0.  1.
</event>
<event>
12    1  0.8488291E-002  0.2596765E+03  0.7818608E-02  0.1107522E+00
         21   -1    0    0  503  502  0.00000000000E+00  0.00000000000E+00  0.15580439239E+03  0.15580439239E+03  0.00000000000E+00 0. -1.
         21   -1    0    0  501  503 -0.00000000000E+00 -0.00000000000E+00 -0.71540378624E+03  0.71540378624E+03  0.00000000000E+00 0.  1.
          6    2    1    2  501    0 -0.10893995222E+02 -0.19270988917E+03 -0.55416817643E+03  0.61147483957E+03  0.17188173592E+03 0.  0.
         24    2    3    3    0    0  0.25590106215E+02 -0.18426390424E+03 -0.52817104566E+03  0.56564509893E+03  0.79885446265E+02 0.  0.
         -6    2    1    2    0  502  0.10893995222E+02  0.19270988917E+03 -0.54312174184E+01  0.25973333907E+03  0.17371277669E+03 0.  0.
        -24    2    5    5    0    0 -0.29777023859E+02  0.69484197187E+02 -0.52589737344E+02  0.12158588539E+03  0.79389685999E+02 0.  0.
          5    1    3    3  501    0 -0.36484101437E+02 -0.84459849278E+01 -0.25997130767E+02  0.45829740641E+02  0.47000000000E+01 0. -1.
        -11    1    4    4    0    0 -0.27495485913E+02 -0.63025680853E+02 -0.15078175891E+03  0.16572078027E+03  0.00000000000E+00 0.  1.
         12    1    4    4    0    0  0.53085592128E+02 -0.12123822339E+03 -0.37738928675E+03  0.39992431866E+03  0.00000000000E+00 0. -1.
         -5    1    5    5    0  502  0.40671019081E+02  0.12322569198E+03  0.47158519925E+02  0.13814745368E+03  0.47000000000E+01 0.  1.
         13    1    6    6    0    0  0.11686908239E+02  0.61497259865E+02 -0.13484996207E+02  0.64033912248E+02  0.00000000000E+00 0. -1.
        -14    1    6    6    0    0 -0.41463932098E+02  0.79869373218E+01 -0.39104741137E+02  0.57551973139E+02  0.00000000000E+00 0.  1.
</event>
<event>
12    1  0.8488291E-002  0.1946506E+03  0.7818608E-02  0.1154930E+00
         21   -1    0    0  501  502  0.00000000000E+00  0.00000000000E+00  0.41184032508E+03  0.41184032508E+03  0.00000000000E+00 0. -1.
         21   -1    0    0  502  503 -0.00000000000E+00 -0.00000000000E+00 -0.33604548687E+03  0.33604548687E+03  0.00000000000E+00 0. -1.
         -6    2    1    2    0  503 -0.79408814786E+02 -0.27760330533E+02 -0.28153280650E+03  0.34227120334E+03  0.17553478197E+03 0.  0.
        -24    2    3    3    0    0 -0.66581623900E+02 -0.19013510427E+01 -0.29303204120E+03  0.31084595799E+03  0.79502859395E+02 0.  0.
          6    2    1    2  501    0  0.79408814786E+02  0.27760330533E+02  0.35732764471E+03  0.40561460861E+03  0.17252179348E+03 0.  0.
         24    2    5    5    0    0  0.79286203123E+02  0.50853780671E+02  0.16899600330E+03  0.21581413540E+03  0.95622606607E+02 0.  0.
          5    1    5    5  501    0  0.12261166288E+00 -0.23093450138E+02  0.18833164141E+03  0.18980047321E+03  0.47000000000E+01 0. -1.
        -13    1    6    6    0    0 -0.12180597758E+02  0.37645270287E+02  0.33731489053E+02  0.51993717798E+02  0.00000000000E+00 0.  1.
         14    1    6    6    0    0  0.91466800881E+02  0.13208510384E+02  0.13526451425E+03  0.16382041761E+03  0.00000000000E+00 0. -1.
         -5    1    3    3    0  503 -0.12827190885E+02 -0.25858979490E+02  0.11499234702E+02  0.31425245346E+02  0.47000000000E+01 0.  1.
         11    1    4    4    0    0 -0.36432192136E+02 -0.37488870049E+02 -0.10743636487E+03  0.11947925551E+03  0.00000000000E+00 0. -1.
        -12    1    4    4    0    0 -0.30149431764E+02  0.35587519006E+02 -0.18559567633E+03  0.19136670248E+03  0.00000000000E+00 0.  1.
</event>
<event>
12    1  0.8488291E-002  0.2330423E+03  0.7818608E-02  0.1124664E+00
         21   -1    0    0  503  502  0.00000000000E+00  0.00000000000E+00  0.37197883340E+03  0.37197883340E+03  0.00000000000E+00 0. -1.
         21   -1    0    0  501  503 -0.00000000000E+00 -0.00000000000E+00 -0.19705976396E+03  0.19705976396E+03  0.00000000000E+00 0.  1.
          6    2    1    2  501    0 -0.19173614222E+02  0.15647337736E+03  0.23315751296E+03  0.32965305094E+03  0.17163089126E+03 0.  0.
         24    2    3    3    0    0  0.42025266677E+02  0.97507036913E+02  0.19638358239E+03  0.23693442121E+03  0.79357817719E+02 0.  0.
         -6    2    1    2    0  502  0.19173614222E+02 -0.15647337736E+03 -0.58238443521E+02  0.23938554642E+03  0.17047632746E+03 0.  0.
        -24    2    5    5    0    0 -0.15144444595E+02 -0.89028549718E+02  0.29155303191E+02  0.12368640683E+03  0.79327540389E+02 0.  0.
          5    1    3    3  501    0 -0.61198880899E+02  0.58966340449E+02  0.36773930574E+02  0.92718629730E+02  0.47000000000E+01 0. -1.
        -13    1    4    4    0    0  0.32089175680E+02  0.18479447326E+02  0.12363776006E+03  0.12906394106E+03  0.00000000000E+00 0.  1.
         14    1    4    4    0    0  0.99360909964E+01  0.79027589587E+02  0.72745822326E+02  0.10787048014E+03  0.00000000000E+00 0. -1.
         -5    1    5    5    0  502  0.34318058817E+02 -0.67444827643E+02 -0.87393746712E+02  0.11569913959E+03  0.47000000000E+01 0.  1.
         11    1    6    6    0    0 -0.18257511098E+02 -0.61127653447E+01  0.35588828920E+02  0.40463160474E+02  0.00000000000E+00 0. -1.
        -12    1    6    6    0    0  0.31130665034E+01 -0.82915784374E+02 -0.64335257285E+01  0.83223246360E+02  0.00000000000E+00 0.  1.
</event>
<event>
12    1  0.8488291E-002  0.2066468E+03  0.7818608E-02  0.1145020E+00
         21   -1    0    0  501  502  0.00000000000E+00  0.00000000000E+00  0.15527079718E+03  0.15527079718E+03  0.00000000000E+00 0.  1.
         21   -1    0    0  502  503 -0.00000000000E+00 -0.00000000000E+00 -0.41015402469E+03  0.41015402469E+03  0.00000000000E+00 0.  1.
         -6    2    1    2    0  503 -0.53204518850E+01  0.11403534338E+03 -0.29346083569E+03  0.35891806071E+03  0.17225140195E+03 0.  0.
        -24    2    3    3    0    0  0.42131671971E+02  0.10408487407E+03 -0.13503357626E+03  0.19317125855E+03  0.80450790038E+02 0.  0.
          6    2    1    2  501    0  0.53204518850E+01 -0.11403534338E+03  0.38577608175E+02  0.20650676116E+03  0.16770344005E+03 0.  0.
         24    2    5    5    0    0  0.36962036748E+01 -0.12803246163E+03  0.73562699824E+02  0.16849881279E+03  0.81082710580E+02 0.  0.
          5    1    5    5  501    0  0.16242482101E+01  0.13997118246E+02 -0.34985091649E+02  0.38007948368E+02  0.47000000000E+01 0. -1.
        -13    1    6    6    0    0 -0.16472550712E+02 -0.48775462115E+02  0.69664600657E+02  0.86623017820E+02  0.00000000000E+00 0.  1.
         14    1    6    6    0    0  0.20168754387E+02 -0.79256999513E+02  0.38980991669E+01  0.81875794973E+02  0.00000000000E+00 0. -1.
         -5    1    3    3    0  503 -0.47452123856E+02  0.99504693099E+01 -0.15842725942E+03  0.16574680216E+03  0.47000000000E+01 0.  1.
         13    1    4    4    0    0  0.42355399518E+02  0.11193465663E+03 -0.13976400037E+03  0.18400359514E+03  0.00000000000E+00 0. -1.
        -14    1    4    4    0    0 -0.22372754756E+00 -0.78497825603E+01  0.47304241056E+01  0.91676634143E+01  0.00000000000E+00 0.  1.
</event>
<event>
12    1  0.8488291E-002  0.1752796E+03  0.7818608E-02  0.1172646E+00
         21   -1    0    0  501  502  0.00000000000E+00  0.00000000000E+00  0.83524856877E+03  0.83524856877E+03  0.00000000000E+00 0.  1.
         21   -1    0    0  502  503 -0.00000000000E+00 -0.00000000000E+00 -0.37836357245E+02  0.37836357245E+02  0.00000000000E+00 0.  1.
         -6    2    1    2    0  503  0.11039798793E+02 -0.32366844536E+02  0.31959732126E+03  0.36413502142E+03  0.17112094053E+03 0.  0.
        -24    2    3    3    0    0 -0.46197020014E+02  0.59479219847E+00  0.10866522108E+03  0.14305367031E+03  0.80757067065E+02 0.  0.
          6    2    1    2  501    0 -0.11039798793E+02  0.32366844536E+02  0.47781489026E+03  0.50894990459E+03  0.17191115800E+03 0.  0.
         24    2    5    5    0    0 -0.37923587650E+02  0.46352426993E+02  0.46539623829E+03  0.47586444650E+03  0.79161650067E+02 0.  0.
          5    1    5    5  501    0  0.26883788857E+02 -0.13985582456E+02  0.12418651968E+02  0.33085458085E+02  0.47000000000E+01 0. -1.
        -13    1    6    6    0    0 -0.15521873387E+01 -0.20030327373E+02  0.15864907130E+03  0.15991607526E+03  0.00000000000E+00 0.  1.
         14    1    6    6    0    0 -0.36371400311E+02  0.66382754365E+02  0.30674716699E+03  0.31594837125E+03  0.00000000000E+00 0. -1.
         -5    1    3    3    0  503  0.57236818807E+02 -0.32961636735E+02  0.21093210018E+03  0.22108135111E+03  0.47000000000E+01 0.  1.
         13    1    4    4    0    0 -0.10993643349E+02 -0.38236523873E+02  0.56525936227E+02  0.69123609703E+02  0.00000000000E+00 0. -1.
        -14    1    4    4    0    0 -0.35203376665E+02  0.38831316072E+02  0.52139284858E+02  0.73930060611E+02  0.00000000000E+00 0.  1.
</event>
<event>
12    1  0.8488291E-002  0.1879591E+03  0.7818608E-02  0.1160489E+00
         21   -1    0    0  503  502  0.00000000000E+00  0.00000000000E+00  0.39297281696E+03  0.39297281696E+03  0.00000000000E+00 0. -1.
         21   -1    0    0  501  503 -0.00000000000E+00 -0.00000000000E+00 -0.10617866033E+03  0.10617866033E+03  0.00000000000E+00 0. -1.
          6    2    1    2  501    0 -0.73856045159E+02 -0.10257615739E+02  0.44840706775E+02  0.19323380342E+03  0.17253602439E+03 0.  0.
         24    2    3    3    0    0 -0.58966275577E+02  0.40786605880E+02 -0.19813785671E+02  0.10939162315E+03  0.80208305291E+02 0.  0.
         -6    2    1    2    0  502  0.73856045159E+02  0.10257615739E+02  0.24195344986E+03  0.30591767388E+03  0.17170968872E+03 0.  0.
        -24    2    5    5    0    0  0.72283044340E+00  0.36955527730E+02  0.19849895923E+03  0.21663369796E+03  0.78498973003E+02 0.  0.
          5    1    3    3  501    0 -0.14889769582E+02 -0.51044221619E+02  0.64654492446E+02  0.83842180269E+02  0.47000000000E+01 0. -1.
        -11    1    4    4    0    0  0.33716457993E+01  0.23927635392E+01  0.23810861043E+02  0.24167135046E+02  0.00000000000E+00 0.  1.
         12    1    4    4    0    0 -0.62337921376E+02  0.38393842340E+02 -0.43624646714E+02  0.85224488101E+02  0.00000000000E+00 0. -1.
         -5    1    5    5    0  502  0.73133214716E+02 -0.26697911991E+02  0.43454490635E+02  0.89283975918E+02  0.47000000000E+01 0.  1.
         13    1    6    6    0    0 -0.58480031235E+01 -0.24189971982E+02  0.66754752594E+02  0.71242900551E+02  0.00000000000E+00 0. -1.
        -14    1    6    6    0    0  0.65708335669E+01  0.61145499713E+02  0.13174420663E+03  0.14539079741E+03  0.00000000000E+00 0.  1.
</event>
<event>
12    1  0.8488291E-002  0.2250527E+03  0.7818608E-02  0.1130910E+00
         21   -1    0    0  503  502  0.00000000000E+00  0.00000000000E+00  0.37130827874E+03  0.37130827874E+03  0.00000000000E+00 0.  1.
         21   -1    0    0  501  503 -0.00000000000E+00 -0.00000000000E+00 -0.18663337420E+03  0.18663337420E+03  0.00000000000E+00 0.  1.
          6    2    1    2  501    0  0.10151558765E+03  0.95540734758E+02 -0.55253079290E+02  0.23173611942E+03  0.17667846428E+03 0.  0.
         24    2    3    3    0    0  0.57515178142E+02  0.24009027445E+02  0.36371477222E+02  0.10735778311E+03  0.79488238902E+02 0.  0.
         -6    2    1    2    0  502 -0.10151558765E+03 -0.95540734758E+02  0.23992798383E+03  0.32620553351E+03  0.17149684002E+03 0.  0.
        -24    2    5    5    0    0 -0.10706291040E+03 -0.12819899058E+03  0.18111264061E+03  0.25853967018E+03  0.78380638538E+02 0.  0.
          5    1    3    3  501    0  0.44000409506E+02  0.71531707313E+02 -0.91624556512E+02  0.12437833631E+03  0.47000000000E+01 0. -1.
        -13    1    4    4    0    0  0.64885616849E+02 -0.53848632312E+01  0.40645305859E+02  0.76754028652E+02  0.00000000000E+00 0.  1.
         14    1    4    4    0    0 -0.73704387075E+01  0.29393890676E+02 -0.42738286361E+01  0.30603754460E+02  0.00000000000E+00 0. -1.
         -5    1    5    5    0  502  0.55473227500E+01  0.32658255820E+02  0.58815343221E+02  0.67665863337E+02  0.47000000000E+01 0.  1.
         11    1    6    6    0    0 -0.16588132716E+02 -0.72679635294E+02  0.49642671229E+02  0.89565006226E+02  0.00000000000E+00 0. -1.
        -12    1    6    6    0    0 -0.90474777682E+02 -0.55519355284E+02  0.13146996938E+03  0.16897466395E+03  0.00000000000E+00 0.  1.
</event>
<event>
12    1  0.8488291E-002  0.2899947E+03  0.7818608E-02  0.1090437E+00
         21   -1    0    0  503  502  0.00000000000E+00  0.00000000000E+00  0.26440019567E+03  0.26440019567E+03  0.00000000000E+00 0.  1.
         21   -1    0    0  501  503 -0.00000000000E+00 -0.00000000000E+00 -0.36041133856E+03  0.36041133856E+03  0.00000000000E+00 0.  1.
          6    2    1    2  501    0  0.23169333682E+03 -0.24480978628E+02 -0.15603547671E+03  0.32930837359E+03  0.17267256378E+03 0.  0.
         24    2    3    3    0    0  0.16662214930E+03 -0.78847914357E+02 -0.12356993277E+03  0.23839014280E+03  0.87065479183E+02 0.  0.
         -6    2    1    2    0  502 -0.23169333682E+03  0.24480978628E+02  0.60024333821E+02  0.29550316065E+03  0.17157527987E+03 0.  0.
        -24    2    5    5    0    0 -0.60448062258E+02  0.54964541673E+02  0.35940415610E+02  0.11984349882E+03  0.79973005846E+02 0.  0.
          5    1    3    3  501    0  0.65071187519E+02  0.54366935730E+02 -0.32465543941E+02  0.90918230785E+02  0.47000000000E+01 0. -1.
        -11    1    4    4    0    0  0.75078486590E+02  0.45044813738E+01 -0.22322648550E+02  0.78456166993E+02  0.00000000000E+00 0.  1.
         12    1    4    4    0    0  0.91543662712E+02 -0.83352395731E+02 -0.10124728422E+03  0.15993397581E+03  0.00000000000E+00 0. -1.
         -5    1    5    5    0  502 -0.17124527456E+03 -0.30483563045E+02  0.24083918210E+02  0.17565966182E+03  0.47000000000E+01 0.  1.
         13    1    6    6    0    0 -0.47315562251E+02  0.48064687575E+02 -0.13014483263E+02  0.68690271490E+02  0.00000000000E+00 0. -1.
        -14    1    6    6    0    0 -0.13132500008E+02  0.68998540976E+01  0.48954898873E+02  0.51153227334E+02  0.00000000000E+00 0.  1.
</event>
<event>
12    1  0.8488291E-002  0.2259606E+03  0.7818608E-02  0.1129901E+00
         21   -1    0    0  501  502  0.00000000000E+00  0.00000000000E+00  0.75038679654E+02  0.75038679654E+02  0.00000000000E+00 0.  1.
         21   -1    0    0  502  503 -0.00000000000E+00 -0.00000000000E+00 -0.67692933282E+03  0.67692933282E+03  0.00000000000E+00 0. -1.
         -6    2    1    2    0  503 -0.11653062430E+03 -0.88891274228E+02 -0.27774601819E+03  0.35805174785E+03  0.17198011071E+03 0.  0.
        -24    2    3    3    0    0 -0.11836603907E+03 -0.34926006703E+02 -0.12773969024E+03  0.19855376268E+03  0.88745834062E+02 0.  0.
          6    2    1    2  501    0  0.11653062430E+03  0.88891274228E+02 -0.32414463497E+03  0.39391626463E+03  0.16917220257E+03 0.  0.
         24    2    5    5    0    0  0.10257732338E+03  0.16431331345E+02 -0.12428553558E+03  0.18081795975E+03  0.80350135614E+02 0.  0.
          5    1    5    5  501    0  0.13953300920E+02  0.72459942884E+02 -0.19985909940E+03  0.21309830488E+03  0.47000000000E+01 0. -1.
        -13    1    6    6    0    0  0.28028249504E+02 -0.17425148362E+02 -0.82580979193E+02  0.88931640546E+02  0.00000000000E+00 0.  1.
         14    1    6    6    0    0  0.74549073874E+02  0.33856479707E+02 -0.41704556382E+02  0.91886319203E+02  0.00000000000E+00 0. -1.
         -5    1    3    3    0  503  0.18354147663E+01 -0.53965267526E+02 -0.15000632796E+03  0.15949798517E+03  0.47000000000E+01 0.  1.
         13    1    4    4    0    0 -0.51086866867E+02  0.20072938422E+02 -0.86308717679E+02  0.10228384804E+03  0.00000000000E+00 0. -1.
        -14    1    4    4    0    0 -0.67279172198E+02 -0.54998945125E+02 -0.41430972556E+02  0.96269914633E+02  0.00000000000E+00 0.  1.
</event>
<event>
12    1  0.8488291E-002  0.6685548E+03  0.7818608E-02  0.9772640E-01
         21   -1    0    0  501  502  0.00000000000E+00  0.00000000000E+00  0.80891433041E+03  0.80891433041E+03  0.00000000000E+00 0. -1.
         21   -1    0    0  502  503 -0.00000000000E+00 -0.00000000000E+00 -0.61699191684E+03  0.61699191684E+03  0.00000000000E+00 0.  1.
         -6    2    1    2    0  503 -0.49896196035E+03  0.41034297814E+03 -0.13466299096E+03  0.68198218563E+03  0.17210805561E+03 0.  0.
        -24    2    3    3    0    0 -0.40075918445E+03  0.28094225134E+03 -0.15204436090E+03  0.51854248632E+03  0.78945233742E+02 0.  0.
          6    2    1    2  501    0  0.49896196035E+03 -0.41034297814E+03  0.32658540453E+03  0.74392406162E+03  0.17152429982E+03 0.  0.
         24    2    5    5    0    0  0.21428779113E+03 -0.26076828639E+03  0.15647711792E+03  0.38009595633E+03  0.77900519693E+02 0.  0.
          5    1    5    5  501    0  0.28467416921E+03 -0.14957469175E+03  0.17010828660E+03  0.36382810529E+03  0.47000000000E+01 0. -1.
        -13    1    6    6    0    0  0.11195517179E+03 -0.16847443603E+03  0.12800655170E+03  0.23938102131E+03  0.00000000000E+00 0.  1.
         14    1    6    6    0    0  0.10233261934E+03 -0.92293850361E+02  0.28470566222E+02  0.14071493502E+03  0.00000000000E+00 0. -1.
         -5    1    3    3    0  503 -0.98202775895E+02  0.12940072679E+03  0.17381369941E+02  0.16343969931E+03  0.47000000000E+01 0.  1.
         11    1    4    4    0    0 -0.25757657579E+03  0.14412084590E+03 -0.65073388703E+02  0.30224337303E+03  0.00000000000E+00 0. -1.
        -12    1    4    4    0    0 -0.14318260866E+03  0.13682140544E+03 -0.86970972197E+02  0.21629911330E+03  0.00000000000E+00 0.  1.
</event>
<event>
12    1  0.8488291E-002  0.2233807E+03  0.7818608E-02  0.1132341E+00
         21   -1    0    0  503  502  0.00000000000E+00  0.00000000000E+00  0.41418315787E+03  0.41418315787E+03  0.00000000000E+00 0.  1.
         21   -1    0    0  501  503 -0.00000000000E+00 -0.00000000000E+00 -0.12186418061E+03  0.12186418061E+03  0.00000000000E+00 0.  1.
          6    2    1    2  501    0 -0.10018283650E+03  0.89328609155E+02  0.19728349515E+03  0.29802634978E+03  0.17855734810E+03 0.  0.
         24    2    3    3    0    0  0.26758657561E+01  0.44838827537E+02  0.29879549081E+02  0.96518472867E+02  0.80033414514E+02 0.  0.
         -6    2    1    2    0  502  0.10018283650E+03 -0.89328609155E+02  0.95035482118E+02  0.23802098870E+03  0.17206407835E+03 0.  0.
        -24    2    5    5    0    0  0.10792594192E+03 -0.12369720060E+03  0.84764141195E+02  0.20102441854E+03  0.79226579115E+02 0.  0.
          5    1    3    3  501    0 -0.10285870225E+03  0.44489781618E+02  0.16740394607E+03  0.20150787691E+03  0.47000000000E+01 0. -1.
        -11    1    4    4    0    0 -0.14504631576E+02  0.63160361491E+02  0.29976198925E+02  0.71401597341E+02  0.00000000000E+00 0.  1.
         12    1    4    4    0    0  0.17180497332E+02 -0.18321533953E+02 -0.96649844122E-01  0.25116875526E+02  0.00000000000E+00 0. -1.
         -5    1    5    5    0  502 -0.77431054261E+01  0.34368591446E+02  0.10271340923E+02  0.36996570166E+02  0.47000000000E+01 0.  1.
         13    1    6    6    0    0 -0.90647016704E+01  0.41234073971E+00 -0.25369484894E+01  0.94220458976E+01  0.00000000000E+00 0. -1.
        -14    1    6    6    0    0  0.11699064359E+03 -0.12410954134E+03  0.87301089684E+02  0.19160237264E+03  0.00000000000E+00 0.  1.
</event>
<event>
12    1  0.8488291E-002  0.2033215E+03  0.7818608E-02  0.1147390E+00
         21   -1    0    0  503  502  0.00000000000E+00  0.00000000000E+00  0.99584233559E+02  0.99584233559E+02  0.00000000000E+00 0. -1.
         21   -1    0    0  501  503 -0.00000000000E+00 -0.00000000000E+00 -0.48818990485E+03  0.48818990485E+03  0.00000000000E+00 0. -1.
          6    2    1    2  501    0 -0.20976712489E+01 -0.10592583457E+03 -0.76595338550E+02  0.21536298103E+03  0.17114229476E+03 0.  0.
         24    2    3    3    0    0 -0.66553709168E+02 -0.61615905228E+02 -0.53513522929E+02  0.13367570617E+03  0.82338212890E+02 0.  0.
         -6    2    1    2    0  502  0.20976712489E+01  0.10592583457E+03 -0.31201033274E+03  0.37241115738E+03  0.17353656603E+03 0.  0.
        -24    2    5    5    0    0  0.61494565460E+02  0.63513867766E+02 -0.17985487085E+03  0.22136837511E+03  0.94024411449E+02 0.  0.
          5    1    3    3  501    0  0.64456037919E+02 -0.44309929338E+02 -0.23081815622E+02  0.81687274863E+02  0.47000000000E+01 0. -1.
        -11    1    4    4    0    0 -0.10274807318E+02  0.20041713215E+02 -0.16079426417E+02  0.27672908916E+02  0.00000000000E+00 0.  1.
         12    1    4    4    0    0 -0.56278901850E+02 -0.81657618443E+02 -0.37434096512E+02  0.10600279725E+03  0.00000000000E+00 0. -1.
         -5    1    5    5    0  502 -0.59396894211E+02  0.42411966801E+02 -0.13215546189E+03  0.15104278228E+03  0.47000000000E+01 0.  1.
         11    1    6    6    0    0  0.26087888948E+02  0.31746310652E+01 -0.13662416629E+03  0.13912878583E+03  0.00000000000E+00 0. -1.
        -12    1    6    6    0    0  0.35406676512E+02  0.60339236700E+02 -0.43230704561E+02  0.82239589275E+02  0.00000000000E+00 0.  1.
</event>
<event>
12    1  0.8488291E-002  0.1925288E+03  0.7818608E-02  0.1157160E+00
         21   -1    0    0  501  502  0.00000000000E+00  0.00000000000E+00  0.83735175317E+03  0.83735175317E+03  0.00000000000E+00 0. -1.
         21   -1    0    0  502  503 -0.00000000000E+00 -0.00000000000E+00 -0.47334358972E+02  0.47334358972E+02  0.00000000000E+00 0. -1.
         -6    2    1    2    0  503 -0.33864212760E+02  0.70501006080E+02  0.52025271749E+03  0.55326443905E+03  0.17123513862E+03 0.  0.
        -24    2    3    3    0    0 -0.39886289840E+02  0.86507512864E+02  0.52058299158E+03  0.53552542124E+03  0.81892367006E+02 0.  0.
          6    2    1    2  501    0  0.33864212760E+02 -0.70501006080E+02  0.26976467670E+03  0.33142167309E+03  0.17592659785E+03 0.  0.
         24    2    5    5    0    0  0.67941475357E+02 -0.95208516283E+02  0.15898495860E+03  0.21282168645E+03  0.79599921587E+02 0.  0.
          5    1    5    5  501    0 -0.34077262597E+02  0.24707510203E+02  0.11077971811E+03  0.11859998664E+03  0.47000000000E+01 0. -1.
        -13    1    6    6    0    0 -0.13236853465E+02 -0.13984199459E+02  0.35706590480E+01  0.19583710839E+02  0.00000000000E+00 0.  1.
         14    1    6    6    0    0  0.81178328822E+02 -0.81224316823E+02  0.15541429955E+03  0.19323797561E+03  0.00000000000E+00 0. -1.
         -5    1    3    3    0  503  0.60220770807E+01 -0.16006506784E+02 -0.33027409277E+00  0.17739017808E+02  0.47000000000E+01 0.  1.
         13    1    4    4    0    0 -0.78749133685E+01  0.78403617911E+02  0.23108815769E+03  0.24415339070E+03  0.00000000000E+00 0. -1.
        -14    1    4    4    0    0 -0.32011376472E+02  0.81038949529E+01  0.28949483389E+03  0.29137203055E+03  0.00000000000E+00 0.  1.
</event>
<event>
12    1  0.8488291E-002  0.1768705E+03  0.7818608E-02  0.1172631E+00
         21   -1    0    0  501  502  0.00000000000E+00  0.00000000000E+00  0.36682212633E+04  0.36682212633E+04  0.00000000000E+00 0. -1.
         21   -1    0    0  502  503 -0.00000000000E+00 -0.00000000000E+00 -0.94069825125E+01  0.94069825125E+01  0.00000000000E+00 0. -1.
         -6    2    1    2    0  503 -0.24860366470E+01  0.43133053395E+02  0.11375002242E+04  0.11501180596E+04  0.16431113889E+03 0.  0.
        -24    2    3    3    0    0  0.17398549443E+02  0.85248580608E+02  0.92015301191E+03  0.92778719114E+03  0.80854663990E+02 0.  0.
          6    2    1    2  501    0  0.24860366470E+01 -0.43133053395E+02  0.25213140566E+04  0.25275101862E+04  0.17151247367E+03 0.  0.
         24    2    5    5    0    0  0.23746771001E+02 -0.76077656924E+02  0.22905234160E+04  0.22933654115E+04  0.81704788145E+02 0.  0.
          5    1    5    5  501    0 -0.21260734354E+02  0.32944603530E+02  0.23079064060E+03  0.23414477469E+03  0.47000000000E+01 0. -1.
        -11    1    6    6    0    0 -0.24578098736E+02 -0.71168820610E+00  0.47574022594E+03  0.47637522187E+03  0.00000000000E+00 0.  1.
         12    1    6    6    0    0  0.48324869737E+02 -0.75365968718E+02  0.18147831901E+04  0.18169901897E+04  0.00000000000E+00 0. -1.
         -5    1    3    3    0  503 -0.19884586090E+02 -0.42115527213E+02  0.21734721227E+03  0.22233086847E+03  0.47000000000E+01 0.  1.
         13    1    4    4    0    0 -0.27292134544E+02  0.55786075615E+02  0.59813803557E+03  0.60135352035E+03  0.00000000000E+00 0. -1.
        -14    1    4    4    0    0  0.44690683987E+02  0.29462504993E+02  0.32201497634E+03  0.32643367079E+03  0.00000000000E+00 0.  1.
</event>
<event>
12    1  0.8488291E-002  0.1775040E+03  0.7818608E-02  0.1170338E+00
         21   -1    0    0  501  502  0.00000000000E+00  0.00000000000E+00  0.12216597247E+03  0.12216597247E+03  0.00000000000E+00 0.  1.
         21   -1    0    0  502  503 -0.00000000000E+00 -0.00000000000E+00 -0.33628121982E+03  0.33628121982E+03  0.00000000000E+00 0.  1.
         -6    2    1    2    0  503  0.31896607244E+02 -0.32872954955E+02 -0.21821250258E+03  0.28129053198E+03  0.17149239743E+03 0.  0.
        -24    2    3    3    0    0  0.73107260048E+02  0.16189335799E+02 -0.10869951716E+03  0.15432356676E+03  0.79958815417E+02 0.  0.
          6    2    1    2  501    0 -0.31896607244E+02  0.32872954955E+02  0.40972552365E+01  0.17715666031E+03  0.17108381008E+03 0.  0.
         24    2    5    5    0    0  0.71569048121E+01  0.71569090309E+02 -0.26062962245E+02  0.11427346371E+03  0.84886927935E+02 0.  0.
          5    1    5    5  501    0 -0.39053512056E+02 -0.38696135355E+02  0.30160217481E+02  0.62883196593E+02  0.47000000000E+01 0. -1.
        -13    1    6    6    0    0  0.67544379992E+01  0.57517410686E+02  0.23691500291E+02  0.62571256586E+02  0.00000000000E+00 0.  1.
         14    1    6    6    0    0  0.40246681297E+00  0.14051679623E+02 -0.49754462536E+02  0.51702207129E+02  0.00000000000E+00 0. -1.
         -5    1    3    3    0  503 -0.41210652804E+02 -0.49062290754E+02 -0.10951298543E+03  0.12696696521E+03  0.47000000000E+01 0.  1.
         11    1    4    4    0    0  0.37993783030E+02 -0.55036095921E+01 -0.36404025128E+00  0.38392053772E+02  0.00000000000E+00 0. -1.
        -12    1    4    4    0    0  0.35113477018E+02  0.21692945391E+02 -0.10833547691E+03  0.11593151299E+03  0.00000000000E+00 0.  1.
</event>
<event>
12    1  0.8488291E-002  0.3150513E+03  0.7818608E-02  0.1078032E+00
         21   -1    0    0  503  502  0.00000000000E+00  0.00000000000E+00  0.63932771451E+02  0.63932771451E+02  0.00000000000E+00 0. -1.
         21   -1    0    0  501  503 -0.00000000000E+00 -0.00000000000E+00 -0.21323838457E+04  0.21323838457E+04  0.00000000000E+00 0.  1.
          6    2    1    2  501    0 -0.25730683571E+03  0.58443517076E+02 -0.16094165158E+04  0.16399630586E+04  0.17214778519E+03 0.  0.
         24    2    3    3    0    0 -0.17516631476E+03  0.49856987135E+02 -0.14121037632E+04  0.14260116482E+04  0.79392857427E+02 0.  0.
         -6    2    1    2    0  502  0.25730683571E+03 -0.58443517076E+02 -0.45903455844E+03  0.55635355852E+03  0.17086282170E+03 0.  0.
        -24    2    5    5    0    0  0.16996748855E+03 -0.49953724113E+02 -0.18460048585E+03  0.26819320672E+03  0.80411038043E+02 0.  0.
          5    1    3    3  501    0 -0.82140520952E+02  0.85865299414E+01 -0.19731275259E+03  0.21395141040E+03  0.47000000000E+01 0. -1.
        -13    1    4    4    0    0 -0.39710368141E+02  0.20456192939E+02 -0.64058238946E+03  0.64213796559E+03  0.00000000000E+00 0.  1.
         14    1    4    4    0    0 -0.13545594662E+03  0.29400794196E+02 -0.77152137377E+03  0.78387368266E+03  0.00000000000E+00 0. -1.
         -5    1    5    5    0  502  0.87339347163E+02 -0.84897929628E+01 -0.27443407259E+03  0.28816035180E+03  0.47000000000E+01 0.  1.
         13    1    6    6    0    0  0.12369511290E+02  0.15013540149E+02 -0.40188436303E+01  0.19863592361E+02  0.00000000000E+00 0. -1.
        -14    1    6    6    0    0  0.15759797726E+03 -0.64967264262E+02 -0.18058164222E+03  0.24832961436E+03  0.00000000000E+00 0.  1.
</event>
<event>
12    1  0.8488291E-002  0.1751065E+03  0.7818608E-02  0.1172640E+00
         21   -1    0    0  503  502  0.00000000000E+00  0.00000000000E+00  0.12302237190E+03  0.12302237190E+03  0.00000000000E+00 0. -1.
         21   -1    0    0  501  503 -0.00000000000E+00 -0.00000000000E+00 -0.27933677356E+03  0.27933677356E+03  0.00000000000E+00 0. -1.
          6    2    1    2  501    0 -0.31633128867E+02 -0.21287704273E+01 -0.12041615502E+02  0.17552001789E+03  0.17221233890E+03 0.  0.
         24    2    3    3    0    0 -0.65403417858E+02  0.42307528985E+02  0.60434517873E+01  0.11666276019E+03  0.86637995304E+02 0.  0.
         -6    2    1    2    0  502  0.31633128867E+02  0.21287704273E+01 -0.14427278616E+03  0.22683912757E+03  0.17215157991E+03 0.  0.
        -24    2    5    5    0    0 -0.46966737741E+02  0.12672903604E+02 -0.70685209237E+02  0.11855090452E+03  0.81801229921E+02 0.  0.
          5    1    3    3  501    0  0.33770288991E+02 -0.44436299413E+02 -0.18085067289E+02  0.58857257691E+02  0.47000000000E+01 0. -1.
        -13    1    4    4    0    0 -0.81943526562E+01  0.47229613729E+01 -0.35401407909E+02  0.36643054752E+02  0.00000000000E+00 0.  1.
         14    1    4    4    0    0 -0.57209065202E+02  0.37584567612E+02  0.41444859697E+02  0.80019705443E+02  0.00000000000E+00 0. -1.
         -5    1    5    5    0  502  0.78599866608E+02 -0.10544133176E+02 -0.73587576923E+02  0.10828822306E+03  0.47000000000E+01 0.  1.
         13    1    6    6    0    0 -0.12563696182E+02  0.33710646540E+02  0.13450001986E+01  0.36000877454E+02  0.00000000000E+00 0. -1.
        -14    1    6    6    0    0 -0.34403041559E+02 -0.21037742937E+02 -0.72030209436E+02  0.82550027061E+02  0.00000000000E+00 0.  1.
</event>
<event>
12    1  0.8488291E-002  0.2044671E+03  0.7818608E-02  0.1146355E+00
         21   -1    0    0  501  502  0.00000000000E+00  0.00000000000E+00  0.31601824606E+03  0.31601824606E+03  0.00000000000E+00 0.  1.
         21   -1    0    0  502  503 -0.00000000000E+00 -0.00000000000E+00 -0.21252916707E+03  0.21252916707E+03  0.00000000000E+00 0.  1.
         -6    2    1    2    0  503 -0.10602276980E+03 -0.48857904674E+01 -0.11180887304E+03  0.23162989716E+03  0.17287708496E+03 0.  0.
        -24    2    3    3    0    0 -0.37771269088E+02  0.57361307627E+02 -0.35738050282E+02  0.11187252308E+03  0.80754348500E+02 0.  0.
          6    2    1    2  501    0  0.10602276980E+03  0.48857904674E+01  0.21529795203E+03  0.29691751597E+03  0.17476299517E+03 0.  0.
         24    2    5    5    0    0  0.59651964098E+02 -0.48341837589E+02  0.57920788594E+02  0.12436870091E+03  0.78850909520E+02 0.  0.
          5    1    5    5  501    0  0.46370805699E+02  0.53227628057E+02  0.15737716343E+03  0.17254881506E+03  0.47000000000E+01 0. -1.
        -11    1    6    6    0    0  0.54266167829E+02 -0.50676849209E+01  0.59555387195E+02  0.80730059738E+02  0.00000000000E+00 0.  1.
         12    1    6    6    0    0  0.53857962690E+01 -0.43274152669E+02 -0.16345986016E+01  0.43638641171E+02  0.00000000000E+00 0. -1.
         -5    1    3    3    0  503 -0.68251500709E+02 -0.62247098094E+02 -0.76070822763E+02  0.11975737408E+03  0.47000000000E+01 0.  1.
         11    1    4    4    0    0 -0.31286074578E+02 -0.39562819230E+01  0.12156254416E+02  0.33797117489E+02  0.00000000000E+00 0. -1.
        -12    1    4    4    0    0 -0.64851945099E+01  0.61317589550E+02 -0.47894304698E+02  0.78075405593E+02  0.00000000000E+00 0.  1.
</event>
<event>
12    1  0.8488291E-002  0.1785241E+03  0.7818608E-02  0.1171449E+00
         21   -1    0    0  503  502  0.00000000000E+00  0.00000000000E+00  0.13578179887E+03  0.13578179887E+03  0.00000000000E+00 0. -1.
         21   -1    0    0  501  503 -0.00000000000E+00 -0.00000000000E+00 -0.22356929663E+03  0.22356929663E+03  0.00000000000E+00 0. -1.
          6    2    1    2  501    0  0.91194882586E+01  0.49394051821E+02 -0.38757722874E+02  0.18268284370E+03  0.17131235472E+03 0.  0.
         24    2    3    3    0    0  0.40755570974E+02  0.74038190883E+02 -0.66440823248E+02  0.13372756446E+03  0.79536207018E+02 0.  0.
         -6    2    1    2    0  502 -0.91194882586E+01 -0.49394051821E+02 -0.49029774887E+02  0.17666825180E+03  0.16212592312E+03 0.  0.
        -24    2    5    5    0    0 -0.16733276900E+02 -0.55678530323E+02  0.25671740080E+02  0.10117076320E+03  0.78717112451E+02 0.  0.
          5    1    3    3  501    0 -0.31636082715E+02 -0.24644139063E+02  0.27683100374E+02  0.48955279246E+02  0.47000000000E+01 0. -1.
        -13    1    4    4    0    0 -0.83879967025E+01 -0.85114521599E+01 -0.27648956091E+02  0.30120891080E+02  0.00000000000E+00 0.  1.
         14    1    4    4    0    0  0.49143567677E+02  0.82549643043E+02 -0.38791867158E+02  0.10360667338E+03  0.00000000000E+00 0. -1.
         -5    1    5    5    0  502  0.76137886417E+01  0.62844785023E+01 -0.74701514967E+02  0.75497488607E+02  0.47000000000E+01 0.  1.
         11    1    6    6    0    0 -0.18764064739E+02 -0.75473611713E+02  0.22948472018E+02  0.81086303150E+02  0.00000000000E+00 0. -1.
        -12    1    6    6    0    0  0.20307878382E+01  0.19795081390E+02  0.27232680622E+01  0.20084460048E+02  0.00000000000E+00 0.  1.
</event>
<event>
12    1  0.8488291E-002  0.2531087E+03  0.7818608E-02  0.1111627E+00
         21   -1    0    0  503  502  0.00000000000E+00  0.00000000000E+00  0.24512719346E+04  0.24512719346E+04  0.00000000000E+00 0.  1.
         21   -1    0    0  501  503 -0.00000000000E+00 -0.00000000000E+00 -0.28946966539E+02  0.28946966539E+02  0.00000000000E+00 0. -1.
          6    2    1    2  501    0 -0.18291094352E+03 -0.11804349377E+02  0.16135294912E+04  0.16332609837E+04  0.17455161435E+03 0.  0.
         24    2    3    3    0    0 -0.20138271217E+03  0.13897259634E+01  0.15593029892E+04  0.15742873169E+04  0.79986348149E+02 0.  0.
         -6    2    1    2    0  502  0.18291094352E+03  0.11804349377E+02  0.80879547695E+03  0.84695791750E+03  0.17202277336E+03 0.  0.
        -24    2    5    5    0    0  0.17423724367E+03  0.13406696972E+02  0.81354499278E+03  0.83589227303E+03  0.79511510101E+02 0.  0.
          5    1    3    3  501    0  0.18471768651E+02 -0.13194075341E+02  0.54226501981E+02  0.58973666821E+02  0.47000000000E+01 0. -1.
        -13    1    4    4    0    0 -0.79989141404E+02  0.27611290824E+02  0.43568354605E+03  0.44382518904E+03  0.00000000000E+00 0.  1.
         14    1    4    4    0    0 -0.12139357077E+03 -0.26221564861E+02  0.11236194431E+04  0.11304621278E+04  0.00000000000E+00 0. -1.
         -5    1    5    5    0  502  0.86736998504E+01 -0.16023475943E+01 -0.47495158255E+01  0.11065644468E+02  0.47000000000E+01 0.  1.
         11    1    6    6    0    0  0.15488268270E+03  0.11931872411E+02  0.54667547717E+03  0.56831777407E+03  0.00000000000E+00 0. -1.
        -12    1    6    6    0    0  0.19354560972E+02  0.14748245605E+01  0.26686951560E+03  0.26757449896E+03  0.00000000000E+00 0.  1.
</event>
<event>
12    1  0.8488291E-002  0.2004171E+03  0.7818608E-02  0.1149710E+00
         21   -1    0    0  503  502  0.00000000000E+00  0.00000000000E+00  0.19425324533E+03  0.19425324533E+03  0.00000000000E+00 0. -1.
         21   -1    0    0  501  503 -0.00000000000E+00 -0.00000000000E+00 -0.12751451548E+04  0.12751451548E+04  0.00000000000E+00 0. -1.
          6    2    1    2  501    0  0.10123309601E+03  0.86636038975E+01 -0.12131041462E+04  0.12293002786E+04  0.17098043055E+03 0.  0.
         24    2    3    3    0    0  0.63160378144E+02  0.61810013271E+02 -0.67650736269E+03  0.68871515971E+03  0.94109767446E+02 0.  0.
         -6    2    1    2    0  502 -0.10123309601E+03 -0.86636038975E+01  0.13221223675E+03  0.24009812152E+03  0.17275368202E+03 0.  0.
        -24    2    5    5    0    0 -0.69801891877E+02 -0.72160480534E+02  0.95694810210E+02  0.16025210486E+03  0.80273291630E+02 0.  0.
          5    1    3    3  501    0  0.38072717867E+02 -0.53146409373E+02 -0.53659678351E+03  0.54058511887E+03  0.47000000000E+01 0. -1.
        -13    1    4    4    0    0  0.98122247351E+01  0.40033899456E+02 -0.85622329190E+02  0.95027238810E+02  0.00000000000E+00 0.  1.
         14    1    4    4    0    0  0.53348153409E+02  0.21776113815E+02 -0.59088503350E+03  0.59368792090E+03  0.00000000000E+00 0. -1.
         -5    1    5    5    0  502 -0.31431204135E+02  0.63496876636E+02  0.36517426544E+02  0.79846016665E+02  0.47000000000E+01 0.  1.
         11    1    6    6    0    0 -0.30463866843E+02 -0.51535004207E+02  0.60046944218E+01  0.60166105049E+02  0.00000000000E+00 0. -1.
        -12    1    6    6    0    0 -0.39338025034E+02 -0.20625476326E+02  0.89690115788E+02  0.10008599981E+03  0.00000000000E+00 0.  1.
</event>
<event>
12    1  0.8488291E-002  0.1923894E+03  0.7818608E-02  0.1156383E+00
         21   -1    0    0  501  502  0.00000000000E+00  0.00000000000E+00  0.10766197995E+03  0.10766197995E+03  0.00000000000E+00 0.  1.
         21   -1    0    0  502  503 -0.00000000000E+00 -0.00000000000E+00 -0.45000339089E+03  0.45000339089E+03  0.00000000000E+00 0.  1.
         -6    2    1    2    0  503  0.19017376088E+02  0.84477013322E+02 -0.30684388021E+03  0.36202862287E+03  0.17150373344E+03 0.  0.
        -24    2    3    3    0    0 -0.21626736237E+02  0.45170790618E+02 -0.73979123367E+02  0.12235174041E+03  0.83599770580E+02 0.  0.
          6    2    1    2  501    0 -0.19017376088E+02 -0.84477013322E+02 -0.35497530732E+02  0.19563674797E+03  0.17180115277E+03 0.  0.
         24    2    5    5    0    0 -0.77343258989E+02 -0.68310389026E+02 -0.18194812203E+02  0.13251193172E+03  0.81117642334E+02 0.  0.
          5    1    5    5  501    0  0.58325882901E+02 -0.16166624296E+02 -0.17302718529E+02  0.63124816243E+02  0.47000000000E+01 0. -1.
        -11    1    6    6    0    0 -0.26635081175E+02  0.90602244478E+01  0.17751915652E+02  0.33266285117E+02  0.00000000000E+00 0.  1.
         12    1    6    6    0    0 -0.50708177814E+02 -0.77370613474E+02 -0.35946727854E+02  0.99245646605E+02  0.00000000000E+00 0. -1.
         -5    1    3    3    0  503  0.40644112325E+02  0.39306222704E+02 -0.23286475684E+03  0.23967688247E+03  0.47000000000E+01 0.  1.
         11    1    4    4    0    0 -0.41993653798E+02  0.48354435837E+02 -0.78436035806E+02  0.10126119759E+03  0.00000000000E+00 0. -1.
        -12    1    4    4    0    0  0.20366917561E+02 -0.31836452196E+01  0.44569124385E+01  0.21090542817E+02  0.00000000000E+00 0.  1.
</event>
<event>
12    1  0.8488291E-002  0.1939418E+03  0.7818608E-02  0.1155674E+00
         21   -1    0    0  501  502  0.00000000000E+00  0.00000000000E+00  0.33299043724E+02  0.33299043724E+02  0.00000000000E+00 0.  1.
         21   -1    0    0  502  503 -0.00000000000E+00 -0.00000000000E+00 -0.11107513857E+04  0.11107513857E+04  0.00000000000E+00 0.  1.
         -6    2    1    2    0  503 -0.37708757405E+01 -0.88386922128E+02 -0.53839763463E+03  0.57116875027E+03  0.16892383139E+03 0.  0.
        -24    2    3    3    0    0 -0.36111674571E+02 -0.38517906521E+02 -0.13983414792E+03  0.16817025286E+03  0.77071154510E+02 0.  0.
          6    2    1    2  501    0  0.37708757405E+01  0.88386922128E+02 -0.53905470736E+03  0.57288167916E+03  0.17258903002E+03 0.  0.
         24    2    5    5    0    0 -0.30008279075E+01 -0.16151306879E+02 -0.14618948950E+03  0.16626236494E+03  0.77472172246E+02 0.  0.
          5    1    5    5  501    0  0.67717036480E+01  0.10453822901E+03 -0.39286521786E+03  0.40661931422E+03  0.47000000000E+01 0. -1.
        -11    1    6    6    0    0  0.90381769244E+01  0.26848023854E+02 -0.90794456972E+02  0.95111189898E+02  0.00000000000E+00 0.  1.
         12    1    6    6    0    0 -0.12039004832E+02 -0.42999330733E+02 -0.55395032530E+02  0.71151175042E+02  0.00000000000E+00 0. -1.
         -5    1    3    3    0  503  0.32340798831E+02 -0.49869015607E+02 -0.39856348670E+03  0.40299849742E+03  0.47000000000E+01 0.  1.
         11    1    4    4    0    0  0.10054673783E+02 -0.30790293247E+02 -0.16706110701E+02  0.36444927739E+02  0.00000000000E+00 0. -1.
        -12    1    4    4    0    0 -0.46166348355E+02 -0.77276132738E+01 -0.12312803722E+03  0.13172532512E+03  0.00000000000E+00 0.  1.
</event>
<event>
12    1  0.8488291E-002  0.1967951E+03  0.7818608E-02  0.1152765E+00
         21   -1    0    0  501  502  0.00000000000E+00  0.00000000000E+00  0.28088935703E+03  0.28088935703E+03  0.00000000000E+00 0. -1.
         21   -1    0    0  502  503 -0.00000000000E+00 -0.00000000000E+00 -0.17233623639E+03  0.17233623639E+03  0.00000000000E+00 0. -1.
         -6    2    1    2    0  503 -0.18127464001E+02 -0.90712914390E+02 -0.48291612300E+02  0.20263362260E+03  0.17369763211E+03 0.  0.
        -24    2    3    3    0    0  0.49513226088E+02 -0.17106261327E+02 -0.37540892352E+02  0.10198139803E+03  0.79036088033E+02 0.  0.
          6    2    1    2  501    0  0.18127464001E+02  0.90712914390E+02  0.15684473295E+03  0.25059197082E+03  0.17215872850E+03 0.  0.
         24    2    5    5    0    0  0.29291537004E+02  0.46852517847E+02  0.17696149669E+03  0.20084114073E+03  0.77256973345E+02 0.  0.
          5    1    5    5  501    0 -0.11164073003E+02  0.43860396543E+02 -0.20116763745E+02  0.49750830089E+02  0.47000000000E+01 0. -1.
        -11    1    6    6    0    0  0.52587825841E+02  0.18559570370E+02  0.83096005845E+02  0.10007438866E+03  0.00000000000E+00 0.  1.
         12    1    6    6    0    0 -0.23296288836E+02  0.28292947478E+02  0.93865490848E+02  0.10076675207E+03  0.00000000000E+00 0. -1.
         -5    1    3    3    0  503 -0.67640690089E+02 -0.73606653063E+02 -0.10750719948E+02  0.10065222457E+03  0.47000000000E+01 0.  1.
         13    1    4    4    0    0  0.51160353650E+02 -0.44228822097E+02 -0.25840162557E+02  0.72396716021E+02  0.00000000000E+00 0. -1.
        -14    1    4    4    0    0 -0.16471275618E+01  0.27122560770E+02 -0.11700729795E+02  0.29584682010E+02  0.00000000000E+00 0.  1.
</event>
<event>
12    1  0.8488291E-002  0.1970239E+03  0.7818608E-02  0.1153323E+00
         21   -1    0    0  501  502  0.00000000000E+00  0.00000000000E+00  0.64948564730E+03  0.64948564730E+03  0.00000000000E+00 0. -1.
         21   -1    0    0  502  503 -0.00000000000E+00 -0.00000000000E+00 -0.58411482036E+02  0.58411482036E+02  0.00000000000E+00 0.  1.
         -6    2    1    2    0  503  0.62997954330E+02  0.65315472200E+02  0.31340171338E+03  0.37018788280E+03  0.17488162129E+03 0.  0.
        -24    2    3    3    0    0  0.10643585326E+03  0.67666051254E+02  0.19690312254E+03  0.24574356613E+03  0.75576287787E+02 0.  0.
          6    2    1    2  501    0 -0.62997954330E+02 -0.65315472200E+02  0.27767245189E+03  0.33770924654E+03  0.16944229549E+03 0.  0.
         24    2    5    5    0    0 -0.79046062598E+02 -0.35086372276E+02  0.95314738792E+02  0.15210815337E+03  0.81071927064E+02 0.  0.
          5    1    5    5  501    0  0.16048108268E+02 -0.30229099924E+02  0.18235771310E+03  0.18560109317E+03  0.47000000000E+01 0. -1.
        -13    1    6    6    0    0 -0.60906897144E+02  0.14341612773E+02  0.69337902956E+02  0.93397413042E+02  0.00000000000E+00 0.  1.
         14    1    6    6    0    0 -0.18139165454E+02 -0.49427985049E+02  0.25976835836E+02  0.58710740324E+02  0.00000000000E+00 0. -1.
         -5    1    3    3    0  503 -0.43437898928E+02 -0.23505790531E+01  0.11649859084E+03  0.12444431667E+03  0.47000000000E+01 0.  1.
         13    1    4    4    0    0  0.19588262859E+02  0.67329177547E+01  0.99787366997E+02  0.10191442899E+03  0.00000000000E+00 0. -1.
        -14    1    4    4    0    0  0.86847590399E+02  0.60933133499E+02  0.97115755545E+02  0.14382913714E+03  0.00000000000E+00 0.  1.
</event>
<event>
12    1  0.8488291E-002  0.1794048E+03  0.7818608E-02  0.1168792E+00
         21   -1    0    0  501  502  0.00000000000E+00  0.00000000000E+00  0.31850052506E+03  0.31850052506E+03  0.00000000000E+00 0. -1.
         21   -1    0    0  502  503 -0.00000000000E+00 -0.00000000000E+00 -0.20741728492E+03  0.20741728492E+03  0.00000000000E+00 0. -1.
         -6    2    1    2    0  503  0.37399283275E+02 -0.35898686348E+02 -0.13347207137E+03  0.22360873843E+03  0.17175171614E+03 0.  0.
        -24    2    3    3    0    0 -0.48109039347E+00  0.17034795243E+02 -0.13705603310E+03  0.15824964599E+03  0.77253987284E+02 0.  0.
          6    2    1    2  501    0 -0.37399283275E+02  0.35898686348E+02  0.24455531151E+03  0.30230907155E+03  0.16998838868E+03 0.  0.
         24    2    5    5    0    0 -0.11712183054E+02  0.80558652180E+02  0.21418299374E+03  0.24231817764E+03  0.78847147911E+02 0.  0.
          5    1    5    5  501    0 -0.25687100221E+02 -0.44659965832E+02  0.30372317764E+02  0.59990893911E+02  0.47000000000E+01 0. -1.
        -13    1    6    6    0    0  0.22995543553E+02  0.61179492676E+02  0.85402820786E+02  0.10754239697E+03  0.00000000000E+00 0.  1.
         14    1    6    6    0    0 -0.34707726606E+02  0.19379159504E+02  0.12878017296E+03  0.13477578067E+03  0.00000000000E+00 0. -1.
         -5    1    3    3    0  503  0.37880373668E+02 -0.52933481591E+02  0.35839617279E+01  0.65359092438E+02  0.47000000000E+01 0.  1.
         11    1    4    4    0    0  0.46158690841E+01  0.46489058466E+02 -0.63353047436E+02  0.78715611056E+02  0.00000000000E+00 0. -1.
        -12    1    4    4    0    0 -0.50969594776E+01 -0.29454263222E+02 -0.73702985659E+02  0.79534034934E+02  0.00000000000E+00 0.  1.
</event>
<event>
12    1  0.8488291E-002  0.2725380E+03  0.7818608E-02  0.1099948E+00
         21   -1    0    0  501  502  0.00000000000E+00  0.00000000000E+00  0.12323180465E+04  0.12323180465E+04  0.00000000000E+00 0.  1.
         21   -1    0    0  502  503 -0.00000000000E+00 -0.00000000000E+00 -0.63864715437E+02  0.63864715437E+02  0.00000000000E+00 0. -1.
         -6    2    1    2    0  503 -0.42006935814E+02  0.20675609321E+03  0.74241110243E+03  0.79085474473E+03  0.17252338253E+03 0.  0.
        -24    2    3    3    0    0  0.16113855670E+02  0.15436398148E+03  0.34727812794E+03  0.38802088654E+03  0.76617329156E+02 0.  0.
          6    2    1    2  501    0  0.42006935814E+02 -0.20675609321E+03  0.42604222868E+03  0.50532801725E+03  0.17126517353E+03 0.  0.
         24    2    5    5    0    0  0.28627465624E+02 -0.16553260839E+03  0.42279336639E+03  0.46161267635E+03  0.78175802392E+02 0.  0.
          5    1    5    5  501    0  0.13379470190E+02 -0.41223484827E+02  0.32488622938E+01  0.43715340901E+02  0.47000000000E+01 0. -1.
        -13    1    6    6    0    0  0.21019492204E+02 -0.15686143343E+03  0.30838891749E+03  0.34662811885E+03  0.00000000000E+00 0.  1.
         14    1    6    6    0    0  0.76079734203E+01 -0.86711749535E+01  0.11440444891E+03  0.11498455750E+03  0.00000000000E+00 0. -1.
         -5    1    3    3    0  503 -0.58120791485E+02  0.52392111738E+02  0.39513297449E+03  0.40283385819E+03  0.47000000000E+01 0.  1.
         11    1    4    4    0    0  0.15988916721E+02  0.16312652557E+03  0.33484472011E+03  0.37280946258E+03  0.00000000000E+00 0. -1.
        -12    1    4    4    0    0  0.12493894950E+00 -0.87625440953E+01  0.12433407826E+02  0.15211423962E+02  0.00000000000E+00 0.  1.
</event>
<event>
12    1  0.8488291E-002  0.1994306E+03  0.7818608E-02  0.1150911E+00
         21   -1    0    0  501  502  0.00000000000E+00  0.00000000000E+00  0.40327695724E+03  0.40327695724E+03  0.00000000000E+00 0.  1.
         21   -1    0    0  502  503 -0.00000000000E+00 -0.00000000000E+00 -0.10715294301E+03  0.10715294301E+03  0.00000000000E+00 0.  1.
         -6    2    1    2    0  503 -0.33263237415E+02  0.93910104122E+02  0.70721288903E+02  0.21159884151E+03  0.17276289649E+03 0.  0.
        -24    2    3    3    0    0 -0.43322793077E+02  0.11491289576E+00  0.75552889605E+02  0.11702523566E+03  0.78165139604E+02 0.  0.
          6    2    1    2  501    0  0.33263237415E+02 -0.93910104122E+02  0.22540272533E+03  0.29883105875E+03  0.16902089359E+03 0.  0.
         24    2    5    5    0    0 -0.48721724253E+01  0.11659437371E+02  0.12629845689E+03  0.14902123398E+03  0.78079110014E+02 0.  0.
          5    1    5    5  501    0  0.38135409841E+02 -0.10556954149E+03  0.99104268439E+02  0.14980982477E+03  0.47000000000E+01 0. -1.
        -11    1    6    6    0    0  0.32411782941E+01 -0.18439469580E+02  0.11397185538E+03  0.11549936404E+03  0.00000000000E+00 0.  1.
         12    1    6    6    0    0 -0.81133507194E+01  0.30098906951E+02  0.12326601510E+02  0.33521869940E+02  0.00000000000E+00 0. -1.
         -5    1    3    3    0  503  0.10059555661E+02  0.93795191227E+02 -0.48316007020E+01  0.94573605846E+02  0.47000000000E+01 0.  1.
         13    1    4    4    0    0  0.17752108372E+02  0.17716519418E+02  0.14918815623E+02  0.29181903151E+02  0.00000000000E+00 0. -1.
        -14    1    4    4    0    0 -0.61074901449E+02 -0.17601606522E+02  0.60634073982E+02  0.87843332511E+02  0.00000000000E+00 0.  1.
</event>
<event>
12    1  0.8488291E-002  0.1931750E+03  0.7818608E-02  0.1156310E+00
         21   -1    0    0  503  502  0.00000000000E+00  0.00000000000E+00  0.65024577624E+03  0.65024577624E+03  0.00000000000E+00 0. -1.
         21   -1    0    0  501  503 -0.00000000000E+00 -0.00000000000E+00 -0.81486553658E+02  0.81486553658E+02  0.00000000000E+00 0.  1.
          6    2    1    2  501    0 -0.61143637835E+02  0.58703734593E+02  0.80144191720E+02  0.20631702683E+03  0.17017329753E+03 0.  0.
         24    2    3    3    0    0 -0.63216646272E+02  0.65708854471E+02  0.73134248650E+01  0.13297004551E+03  0.96506729805E+02 0.  0.
         -6    2    1    2    0  502  0.61143637835E+02 -0.58703734593E+02  0.48861503086E+03  0.52541530306E+03  0.17358548156E+03 0.  0.
        -24    2    5    5    0    0  0.63219575673E+01 -0.21794072836E+02  0.95531765336E+02  0.12678730180E+03  0.80210678532E+02 0.  0.
          5    1    3    3  501    0  0.20730084372E+01 -0.70051198785E+01  0.72830766855E+02  0.73346981323E+02  0.47000000000E+01 0. -1.
        -11    1    4    4    0    0 -0.72309584400E+02  0.84903366726E+02  0.66418827552E+01  0.11172006214E+03  0.00000000000E+00 0.  1.
         12    1    4    4    0    0  0.90929381280E+01 -0.19194512255E+02  0.67154210984E+00  0.21249983372E+02  0.00000000000E+00 0. -1.
         -5    1    5    5    0  502  0.54821680267E+02 -0.36909661757E+02  0.39308326552E+03  0.39862800126E+03  0.47000000000E+01 0.  1.
         11    1    6    6    0    0 -0.11006529567E+02 -0.39783300454E+02  0.92916908834E+02  0.10167303790E+03  0.00000000000E+00 0. -1.
        -12    1    6    6    0    0  0.17328487135E+02  0.17989227618E+02  0.26148565018E+01  0.25114263899E+02  0.00000000000E+00 0.  1.
</event>
<event>
12    1  0.8488291E-002  0.1779534E+03  0.7818608E-02  0.1170293E+00
         21   -1    0    0  503  502  0.00000000000E+00  0.00000000000E+00  0.32083746140E+03  0.32083746140E+03  0.00000000000E+00 0. -1.
         21   -1    0    0  501  503 -0.00000000000E+00 -0.00000000000E+00 -0.16968315317E+03  0.16968315317E+03  0.00000000000E+00 0. -1.
          6    2    1    2  501    0 -0.37063036247E+02 -0.60527693695E+01 -0.84035494619E+02  0.19679778664E+03  0.17394568060E+03 0.  0.
         24    2    3    3    0    0  0.40664061212E+02 -0.55554390681E+01 -0.70119421644E+01  0.87269403794E+02  0.76696497496E+02 0.  0.
         -6    2    1    2    0  502  0.37063036247E+02  0.60527693695E+01  0.23518980285E+03  0.29372282793E+03  0.17189692147E+03 0.  0.
        -24    2    5    5    0    0  0.75442379417E+02  0.32818728413E+02  0.21179444924E+03  0.24119832778E+03  0.80939008198E+02 0.  0.
          5    1    3    3  501    0 -0.77727097459E+02 -0.49733030144E+00 -0.77023552455E+02  0.10952838285E+03  0.47000000000E+01 0. -1.
        -11    1    4    4    0    0  0.19998099257E+02  0.33760236757E+02 -0.15245679070E+02  0.42096416594E+02  0.00000000000E+00 0.  1.
         12    1    4    4    0    0  0.20665961955E+02 -0.39315675825E+02  0.82337369054E+01  0.45172987200E+02  0.00000000000E+00 0. -1.
         -5    1    5    5    0  502 -0.38379343170E+02 -0.26765959044E+02  0.23395353604E+02  0.52524500149E+02  0.47000000000E+01 0.  1.
         13    1    6    6    0    0  0.63467768344E+02  0.32494371532E+02  0.21679354134E+03  0.22821805662E+03  0.00000000000E+00 0. -1.
        -14    1    6    6    0    0  0.11974611073E+02  0.32435688100E+00 -0.49990920961E+01  0.12980271165E+02  0.00000000000E+00 0.  1.
</event>
<event>
12    1  0.8488291E-002  0.2170946E+03  0.7818608E-02  0.1136124E+00
         21   -1    0    0  501  502  0.00000000000E+00  0.00000000000E+00  0.13862963299E+04  0.13862963299E+04  0.00000000000E+00 0.  1.
         21   -1    0    0  502  503 -0.00000000000E+00 -0.00000000000E+00 -0.68013203069E+02  0.68013203069E+02  0.00000000000E+00 0. -1.
         -6    2    1    2    0  503  0.95728181326E+02 -0.90311596557E+02  0.14476872544E+03  0.26093684009E+03  0.17265567317E+03 0.  0.
        -24    2    3    3    0    0  0.65057237238E+02 -0.76753472401E+02  0.17388107570E+03  0.21628095046E+03  0.80120418137E+02 0.  0.
          6    2    1    2  501    0 -0.95728181326E+02  0.90311596557E+02  0.11735144014E+04  0.11933726929E+04  0.17228541630E+03 0.  0.
         24    2    5    5    0    0 -0.64262399661E+02  0.19672365622E+02  0.26979583653E+03  0.28633943504E+03  0.68438444375E+02 0.  0.
          5    1    5    5  501    0 -0.31465781665E+02  0.70639230935E+02  0.90371856488E+03  0.90703325786E+03  0.47000000000E+01 0. -1.
        -11    1    6    6    0    0 -0.56635462340E+02  0.36181932290E+02  0.25232218633E+03  0.26111911752E+03  0.00000000000E+00 0.  1.
         12    1    6    6    0    0 -0.76269373209E+01 -0.16509566668E+02  0.17473650201E+02  0.25220317520E+02  0.00000000000E+00 0. -1.
         -5    1    3    3    0  503  0.30670944088E+02 -0.13558124157E+02 -0.29112350253E+02  0.44655889635E+02  0.47000000000E+01 0.  1.
         11    1    4    4    0    0  0.67109305846E+02 -0.27375882888E+02  0.13565198939E+03  0.15380039051E+03  0.00000000000E+00 0. -1.
        -12    1    4    4    0    0 -0.20520686077E+01 -0.49377589513E+02  0.38229086308E+02  0.62480559950E+02  0.00000000000E+00 0.  1.
</event>
<event>
12    1  0.8488291E-002  0.2826675E+03  0.7818608E-02  0.1094548E+00
         21   -1    0    0  501  502  0.00000000000E+00  0.00000000000E+00  0.12797763106E+03  0.12797763106E+03  0.00000000000E+00 0. -1.
         21   -1    0    0  502  503 -0.00000000000E+00 -0.00000000000E+00 -0.65271748072E+03  0.65271748072E+03  0.00000000000E+00 0.  1.
         -6    2    1    2    0  503  0.22110185002E+03  0.21594897779E+02 -0.35165425273E+03  0.45117806919E+03  0.17478148919E+03 0.  0.
        -24    2    3    3    0    0  0.64840848280E+02 -0.10094895315E+02 -0.22485406370E+03  0.24740829324E+03  0.79657209881E+02 0.  0.
          6    2    1    2  501    0 -0.22110185002E+03 -0.21594897779E+02 -0.17308559693E+03  0.32951704258E+03  0.17108620573E+03 0.  0.
         24    2    5    5    0    0 -0.12878982537E+03 -0.17972468765E+02 -0.17947521927E+03  0.23679407260E+03  0.83368157808E+02 0.  0.
          5    1    5    5  501    0 -0.92312024655E+02 -0.36224290146E+01  0.63896223368E+01  0.92722969977E+02  0.47000000000E+01 0. -1.
        -11    1    6    6    0    0 -0.65103068757E+02  0.29592085484E+02 -0.60301808289E+02  0.93543621737E+02  0.00000000000E+00 0.  1.
         12    1    6    6    0    0 -0.63686756612E+02 -0.47564554249E+02 -0.11917341098E+03  0.14325045086E+03  0.00000000000E+00 0. -1.
         -5    1    3    3    0  503  0.15626100174E+03  0.31689793094E+02 -0.12680018903E+03  0.20376977595E+03  0.47000000000E+01 0.  1.
         11    1    4    4    0    0  0.68321536378E+01 -0.39058332896E+01  0.56168243475E+01  0.96686386201E+01  0.00000000000E+00 0. -1.
        -12    1    4    4    0    0  0.58008694642E+02 -0.61890620252E+01 -0.23047088805E+03  0.23773965462E+03  0.00000000000E+00 0.  1.
</event>
<event>
12    1  0.8488291E-002  0.1800165E+03  0.7818608E-02  0.1168038E+00
         21   -1    0    0  501  502  0.00000000000E+00  0.00000000000E+00  0.35591087730E+03  0.35591087730E+03  0.00000000000E+00 0. -1.
         21   -1    0    0  502  503 -0.00000000000E+00 -0.00000000000E+00 -0.91027187250E+02  0.91027187250E+02  0.00000000000E+00 0. -1.
         -6    2    1    2    0  503  0.21341010659E+02 -0.46743853858E+02  0.14937751454E+03  0.23392216425E+03  0.17252683985E+03 0.  0.
        -24    2    3    3    0    0  0.65562944870E+02 -0.70926972721E+02  0.83954378566E+02  0.15120167450E+03  0.80526228599E+02 0.  0.
          6    2    1    2  501    0 -0.21341010659E+02  0.46743853858E+02  0.11550617551E+03  0.21301590030E+03  0.17144582407E+03 0.  0.
         24    2    5    5    0    0  0.44425151530E+02 -0.30350605192E+01  0.31858895854E+02  0.95448533233E+02  0.78183294702E+02 0.  0.
          5    1    5    5  501    0 -0.65766162189E+02  0.49778914377E+02  0.83647279661E+02  0.11756736707E+03  0.47000000000E+01 0. -1.
        -11    1    6    6    0    0 -0.66335919045E+01 -0.26043953228E+02  0.28754751863E+02  0.39358960809E+02  0.00000000000E+00 0.  1.
         12    1    6    6    0    0  0.51058743435E+02  0.23008892708E+02  0.31041439905E+01  0.56089572424E+02  0.00000000000E+00 0. -1.
         -5    1    3    3    0  503 -0.44221934211E+02  0.24183118864E+02  0.65423135971E+02  0.82720489744E+02  0.47000000000E+01 0.  1.
         11    1    4    4    0    0  0.10092073295E+01 -0.20842971841E+02  0.63690723277E+02  0.67022057609E+02  0.00000000000E+00 0. -1.
        -12    1    4    4    0    0  0.64553737540E+02 -0.50084000880E+02  0.20263655289E+02  0.84179616893E+02  0.00000000000E+00 0.  1.
</event>
<event>
12    1  0.8488291E-002  0.1762937E+03  0.7818608E-02  0.1172527E+00
         21   -1    0    0  503  502  0.00000000000E+00  0.00000000000E+00  0.71648779554E+02  0.71648779554E+02  0.00000000000E+00 0.  1.
         21   -1    0    0  501  503 -0.00000000000E+00 -0.00000000000E+00 -0.42326530194E+03  0.42326530194E+03  0.00000000000E+00 0.  1.
          6    2    1    2  501    0 -0.86568665914E+01  0.53477595410E+01 -0.18067911129E+03  0.25243695707E+03  0.17599981866E+03 0.  0.
         24    2    3    3    0    0 -0.38458216899E+01  0.52585320324E+02 -0.41302251654E+02  0.10511916350E+03  0.81019480900E+02 0.  0.
         -6    2    1    2    0  502  0.86568665914E+01 -0.53477595410E+01 -0.17093741109E+03  0.24247712442E+03  0.17167416079E+03 0.  0.
        -24    2    5    5    0    0 -0.51664313931E+02  0.21768719336E+02 -0.13750018082E+03  0.16822022834E+03  0.79048510559E+02 0.  0.
          5    1    3    3  501    0 -0.48110449016E+01 -0.47237560783E+02 -0.13937685963E+03  0.14731779357E+03  0.47000000000E+01 0. -1.
        -13    1    4    4    0    0  0.26441498006E+02 -0.64385224542E+01 -0.46800378371E+00  0.27218126603E+02  0.00000000000E+00 0.  1.
         14    1    4    4    0    0 -0.30287319696E+02  0.59023842778E+02 -0.40834247870E+02  0.77901036898E+02  0.00000000000E+00 0. -1.
         -5    1    5    5    0  502  0.60321180522E+02 -0.27116478877E+02 -0.33437230270E+02  0.74256896073E+02  0.47000000000E+01 0.  1.
         11    1    6    6    0    0 -0.17299814623E+02 -0.11192673280E+02  0.21104102427E+01  0.20712637508E+02  0.00000000000E+00 0. -1.
        -12    1    6    6    0    0 -0.34364499308E+02  0.32961392616E+02 -0.13961059107E+03  0.14750759084E+03  0.00000000000E+00 0.  1.
</event>
<event>
12    1  0.8488291E-002  0.2391761E+03  0.7818608E-02  0.1120362E+00
         21   -1    0    0  503  502  0.00000000000E+00  0.00000000000E+00  0.40224804373E+03  0.40224804373E+03  0.00000000000E+00 0.  1.
         21   -1    0    0  501  503 -0.00000000000E+00 -0.00000000000E+00 -0.14243059857E+03  0.14243059857E+03  0.00000000000E+00 0. -1.
          6    2    1    2  501    0  0.10023289794E+03  0.13295950163E+03  0.14210379772E+03  0.27820621020E+03  0.17169840757E+03 0.  0.
         24    2    3    3    0    0  0.24737130031E+02  0.13700822925E+03  0.11523642647E+03  0.19783240348E+03  0.80467666790E+02 0.  0.
         -6    2    1    2    0  502 -0.10023289794E+03 -0.13295950163E+03  0.11771364744E+03  0.26647243210E+03  0.17154064059E+03 0.  0.
        -24    2    5    5    0    0 -0.13250545912E+03 -0.89292402244E+02  0.11641035191E+03  0.21195525726E+03  0.76438414771E+02 0.  0.
          5    1    3    3  501    0  0.75495767908E+02 -0.40487276224E+01  0.26867371252E+02  0.80373806712E+02  0.47000000000E+01 0. -1.
        -13    1    4    4    0    0 -0.13066610827E+02  0.50805380593E+02  0.83285406213E+02  0.98429578399E+02  0.00000000000E+00 0.  1.
         14    1    4    4    0    0  0.37803740858E+02  0.86202848658E+02  0.31951020254E+02  0.99402825085E+02  0.00000000000E+00 0. -1.
         -5    1    5    5    0  502  0.32272561181E+02 -0.43667099385E+02  0.13032955292E+01  0.54517174845E+02  0.47000000000E+01 0.  1.
         13    1    6    6    0    0 -0.72472081214E+02 -0.78288600536E+02  0.39478680326E+02  0.11375356579E+03  0.00000000000E+00 0. -1.
        -14    1    6    6    0    0 -0.60033377906E+02 -0.11003801708E+02  0.76931671585E+02  0.98201691470E+02  0.00000000000E+00 0.  1.
</event>
<event>
12    1  0.8488291E-002  0.1866142E+03  0.7818608E-02  0.1161707E+00
         21   -1    0    0  501  502  0.00000000000E+00  0.00000000000E+00  0.11658471868E+03  0.11658471868E+03  0.00000000000E+00 0. -1.
         21   -1    0    0  502  503 -0.00000000000E+00 -0.00000000000E+00 -0.52203329605E+03  0.52203329605E+03  0.00000000000E+00 0. -1.
         -6    2    1    2    0  503 -0.58521587895E+02 -0.39755287330E+02 -0.41228734124E+03  0.45255466223E+03  0.17268355868E+03 0.  0.
        -24    2    3    3    0    0 -0.49547301126E+01  0.19748554018E+01 -0.35309165749E+03  0.36234916329E+03  0.81208054655E+02 0.  0.
          6    2    1    2  501    0  0.58521587895E+02  0.39755287330E+02  0.68387638639E+01  0.18606335250E+03  0.17195215419E+03 0.  0.
         24    2    5    5    0    0  0.68869743056E+02 -0.24824614734E+02  0.35489218715E+02  0.11450507814E+03  0.80576828367E+02 0.  0.
          5    1    5    5  501    0 -0.10348155161E+02  0.64579902064E+02 -0.28650454851E+02  0.71558274357E+02  0.47000000000E+01 0. -1.
        -11    1    6    6    0    0  0.54514535640E+02 -0.25777277879E+02 -0.14889150569E+02  0.62112715732E+02  0.00000000000E+00 0.  1.
         12    1    6    6    0    0  0.14355207416E+02  0.95266314540E+00  0.50378369285E+02  0.52392362409E+02  0.00000000000E+00 0. -1.
         -5    1    3    3    0  503 -0.53566857783E+02 -0.41730142732E+02 -0.59195683752E+02  0.90205498945E+02  0.47000000000E+01 0.  1.
         13    1    4    4    0    0 -0.34291761831E+02  0.94909721871E+01 -0.29203346857E+03  0.29419304928E+03  0.00000000000E+00 0. -1.
        -14    1    4    4    0    0  0.29337031719E+02 -0.75161167853E+01 -0.61058188924E+02  0.68156114005E+02  0.00000000000E+00 0.  1.
</event>
<event>
12    1  0.8488291E-002  0.1978565E+03  0.7818608E-02  0.1151611E+00
         21   -1    0    0  503  502  0.00000000000E+00  0.00000000000E+00  0.82927262424E+03  0.82927262424E+03  0.00000000000E+00 0.  1.
         21   -1    0    0  501  503 -0.00000000000E+00 -0.00000000000E+00 -0.11599468796E+03  0.11599468796E+03  0.00000000000E+00 0.  1.
          6    2    1    2  501    0  0.38555665759E+02 -0.89965336904E+02 -0.73905279350E+01  0.19799446865E+03  0.17195025009E+03 0.  0.
         24    2    3    3    0    0  0.13261923103E+02 -0.93955935716E+02 -0.61404940556E+02  0.13803327230E+03  0.79240274341E+02 0.  0.
         -6    2    1    2    0  502 -0.38555665759E+02  0.89965336904E+02  0.72066846422E+03  0.74727284355E+03  0.17167808882E+03 0.  0.
        -24    2    5    5    0    0 -0.57320692889E+02  0.17343199942E+02  0.25611202499E+03  0.27667654496E+03  0.85849244423E+02 0.  0.
          5    1    3    3  501    0  0.25293742656E+02  0.39905988129E+01  0.54014412621E+02  0.59961196346E+02  0.47000000000E+01 0. -1.
        -11    1    4    4    0    0 -0.95363670171E+01 -0.31375617444E+02 -0.63422723202E+02  0.71398973971E+02  0.00000000000E+00 0.  1.
         12    1    4    4    0    0  0.22798290120E+02 -0.62580318273E+02  0.20177826462E+01  0.66634298333E+02  0.00000000000E+00 0. -1.
         -5    1    5    5    0  502  0.18765027131E+02  0.72622136962E+02  0.46455643923E+03  0.47059629859E+03  0.47000000000E+01 0.  1.
         11    1    6    6    0    0  0.11637347982E+02  0.32047386925E+02  0.88289507154E+02  0.94644069811E+02  0.00000000000E+00 0. -1.
        -12    1    6    6    0    0 -0.68958040871E+02 -0.14704186984E+02  0.16782251784E+03  0.18203247515E+03  0.00000000000E+00 0.  1.
</event>
<event>
12    1  0.8488291E-002  0.1754167E+03  0.7818608E-02  0.1172316E+00
         21   -1    0    0  503  502  0.00000000000E+00  0.00000000000E+00  0.42759311505E+02  0.42759311505E+02  0.00000000000E+00 0. -1.
         21   -1    0    0  501  503 -0.00000000000E+00 -0.00000000000E+00 -0.72195608565E+03  0.72195608565E+03  0.00000000000E+00 0. -1.
          6    2    1    2  501    0  0.46779373873E+01  0.29458117318E+02 -0.36143391285E+03  0.40174948239E+03  0.17285401202E+03 0.  0.
         24    2    3    3    0    0  0.15825338675E+02 -0.62203211498E+01 -0.66348691418E+02  0.10426907391E+03  0.78617791757E+02 0.  0.
         -6    2    1    2    0  502 -0.46779373873E+01 -0.29458117318E+02 -0.31776286129E+03  0.36296591476E+03  0.17286224425E+03 0.  0.
        -24    2    5    5    0    0  0.26940521292E+02 -0.80092066773E+02 -0.22470781308E+03  0.25230943838E+03  0.77626803291E+02 0.  0.
          5    1    3    3  501    0 -0.11147401288E+02  0.35678438468E+02 -0.29508522143E+03  0.29748040849E+03  0.47000000000E+01 0. -1.
        -11    1    4    4    0    0 -0.20697840394E+02 -0.23631711412E+02 -0.53095511474E+02  0.61692720153E+02  0.00000000000E+00 0.  1.
         12    1    4    4    0    0  0.36523179069E+02  0.17411390262E+02 -0.13253179945E+02  0.42576353752E+02  0.00000000000E+00 0. -1.
         -5    1    5    5    0  502 -0.31618458679E+02  0.50633949455E+02 -0.93055048211E+02  0.11065647638E+03  0.47000000000E+01 0.  1.
         11    1    6    6    0    0 -0.12314072730E+02 -0.14617812243E+02 -0.12642385960E+03  0.12786050641E+03  0.00000000000E+00 0. -1.
        -12    1    6    6    0    0  0.39254594021E+02 -0.65474254529E+02 -0.98283953477E+02  0.12444893197E+03  0.00000000000E+00 0.  1.
</event>
<event>
12    1  0.8488291E-002  0.1854003E+03  0.7818608E-02  0.1163117E+00
         21   -1    0    0  503  502  0.00000000000E+00  0.00000000000E+00  0.25440888292E+03  0.25440888292E+03  0.00000000000E+00 0.  1.
         21   -1    0    0  501  503 -0.00000000000E+00 -0.00000000000E+00 -0.15352311965E+03  0.15352311965E+03  0.00000000000E+00 0.  1.
          6    2    1    2  501    0 -0.59270044530E+02  0.24460984005E+02 -0.22992048877E+02  0.18495445896E+03  0.17195417895E+03 0.  0.
         24    2    3    3    0    0 -0.74910748687E+02 -0.27337382022E+02  0.22180538942E+02  0.11431201393E+03  0.78843563439E+02 0.  0.
         -6    2    1    2    0  502  0.59270044530E+02 -0.24460984005E+02  0.12387781214E+03  0.22297754362E+03  0.17395975022E+03 0.  0.
        -24    2    5    5    0    0 -0.71791199956E+01  0.37470970520E+02  0.83354162342E+02  0.12340187063E+03  0.82610482987E+02 0.  0.
          5    1    3    3  501    0  0.15640704157E+02  0.51798366027E+02 -0.45172587819E+02  0.70642445030E+02  0.47000000000E+01 0. -1.
        -11    1    4    4    0    0  0.15533265753E+02  0.36503817846E+01  0.73328670711E+01  0.17560711023E+02  0.00000000000E+00 0.  1.
         12    1    4    4    0    0 -0.90444014440E+02 -0.30987763806E+02  0.14847671871E+02  0.96751302905E+02  0.00000000000E+00 0. -1.
         -5    1    5    5    0  502  0.66449164526E+02 -0.61931954525E+02  0.40523649803E+02  0.99575672987E+02  0.47000000000E+01 0.  1.
         13    1    6    6    0    0  0.23346654720E+02 -0.21512398894E+01 -0.29712115118E+01  0.23633074652E+02  0.00000000000E+00 0. -1.
        -14    1    6    6    0    0 -0.30525774715E+02  0.39622210409E+02  0.86325373854E+02  0.99768795977E+02  0.00000000000E+00 0.  1.
</event>
<event>
12    1  0.8488291E-002  0.2408901E+03  0.7818608E-02  0.1119292E+00
         21   -1    0    0  501  502  0.00000000000E+00  0.00000000000E+00  0.10166154291E+04  0.10166154291E+04  0.00000000000E+00 0. -1.
         21   -1    0    0  502  503 -0.00000000000E+00 -0.00000000000E+00 -0.10636171250E+03  0.10636171250E+03  0.00000000000E+00 0. -1.
         -6    2    1    2    0  503  0.16968365820E+03 -0.24519426396E+01  0.72148898021E+02  0.25094060122E+03  0.17019743233E+03 0.  0.
        -24    2    3    3    0    0  0.51728749001E+02  0.20920467641E+02 -0.20786618829E+02  0.98892153482E+02  0.78955969112E+02 0.  0.
          6    2    1    2  501    0 -0.16968365820E+03  0.24519426396E+01  0.83810481855E+03  0.87203654036E+03  0.17096632698E+03 0.  0.
         24    2    5    5    0    0 -0.93324284936E+02 -0.83362965058E+00  0.72555195723E+03  0.73590503974E+03  0.80127821438E+02 0.  0.
          5    1    5    5  501    0 -0.76359373267E+02  0.32855722902E+01  0.11255286132E+03  0.13613150062E+03  0.47000000000E+01 0. -1.
        -13    1    6    6    0    0 -0.67744169387E+02 -0.37954768849E+02  0.43498913276E+03  0.44186579703E+03  0.00000000000E+00 0.  1.
         14    1    6    6    0    0 -0.25580115549E+02  0.37121139198E+02  0.29056282447E+03  0.29403924271E+03  0.00000000000E+00 0. -1.
         -5    1    3    3    0  503  0.11795490920E+03 -0.23372410281E+02  0.92935516851E+02  0.15204844774E+03  0.47000000000E+01 0.  1.
         13    1    4    4    0    0  0.59348357915E+02  0.30711123280E+02 -0.38610063541E+02  0.77176017564E+02  0.00000000000E+00 0. -1.
        -14    1    4    4    0    0 -0.76196089145E+01 -0.97906556387E+01  0.17823444712E+02  0.21716135919E+02  0.00000000000E+00 0.  1.
</event>
<event>
12    1  0.8488291E-002  0.2484831E+03  0.7818608E-02  0.1114346E+00
         21   -1    0    0  503  502  0.00000000000E+00  0.00000000000E+00  0.78741731366E+02  0.78741731366E+02  0.00000000000E+00 0.  1.
         21   -1    0    0  501  503 -0.00000000000E+00 -0.00000000000E+00 -0.92183737689E+03  0.92183737689E+03  0.00000000000E+00 0. -1.
          6    2    1    2  501    0  0.11173425831E+03  0.14044816230E+03 -0.61564750881E+03  0.66371636003E+03  0.17113538700E+03 0.  0.
         24    2    3    3    0    0  0.40925384697E+02  0.14027314632E+03 -0.51024611280E+03  0.53665152817E+03  0.79324172669E+02 0.  0.
         -6    2    1    2    0  502 -0.11173425831E+03 -0.14044816230E+03 -0.22744813671E+03  0.33686274823E+03  0.17185350004E+03 0.  0.
        -24    2    5    5    0    0  0.67235919529E+01 -0.36596136156E+02 -0.52982176884E+02  0.10175008000E+03  0.78495119864E+02 0.  0.
          5    1    3    3  501    0  0.70808873614E+02  0.17501598100E+00 -0.10540139602E+03  0.12706483186E+03  0.47000000000E+01 0. -1.
        -13    1    4    4    0    0 -0.14830383962E+02  0.43144137360E+02 -0.80265754654E+02  0.92325230826E+02  0.00000000000E+00 0.  1.
         14    1    4    4    0    0  0.55755768659E+02  0.97129008958E+02 -0.42998035815E+03  0.44432629734E+03  0.00000000000E+00 0. -1.
         -5    1    5    5    0  502 -0.11845785026E+03 -0.10385202614E+03 -0.17446595982E+03  0.23511266823E+03  0.47000000000E+01 0.  1.
         13    1    6    6    0    0  0.24119038746E+02  0.17247005868E+02 -0.12509192103E+02  0.32181782557E+02  0.00000000000E+00 0. -1.
        -14    1    6    6    0    0 -0.17395446793E+02 -0.53843142024E+02 -0.40472984781E+02  0.69568297444E+02  0.00000000000E+00 0.  1.
</event>
<event>
12    1  0.8488291E-002  0.2035351E+03  0.7818608E-02  0.1147974E+00
         21   -1    0    0  503  502  0.00000000000E+00  0.00000000000E+00  0.35943785975E+03  0.35943785975E+03  0.00000000000E+00 0.  1.
         21   -1    0    0  501  503 -0.00000000000E+00 -0.00000000000E+00 -0.12439020623E+03  0.12439020623E+03  0.00000000000E+00 0. -1.
          6    2    1    2  501    0 -0.77949319851E+02 -0.56435568736E+02  0.42900469725E+02  0.20800720246E+03  0.17934736154E+03 0.  0.
         24    2    3    3    0    0  0.41076285130E+01  0.25186538659E+02  0.36788215198E+02  0.92011681664E+02  0.80383720015E+02 0.  0.
         -6    2    1    2    0  502  0.77949319851E+02  0.56435568736E+02  0.19214718380E+03  0.27582086351E+03  0.17290326377E+03 0.  0.
        -24    2    5    5    0    0  0.11760668289E+03  0.29343835175E+02  0.16860689393E+03  0.22212818508E+03  0.78868583112E+02 0.  0.
          5    1    3    3  501    0 -0.82056948364E+02 -0.81622107395E+02  0.61122545274E+01  0.11599552080E+03  0.47000000000E+01 0. -1.
        -11    1    4    4    0    0  0.49152144733E+01 -0.29319028021E+02  0.10880625948E+02  0.31656796402E+02  0.00000000000E+00 0.  1.
         12    1    4    4    0    0 -0.80758596032E+00  0.54505566680E+02  0.25907589250E+02  0.60354885261E+02  0.00000000000E+00 0. -1.
         -5    1    5    5    0  502 -0.39657363039E+02  0.27091733560E+02  0.23540289870E+02  0.53692678437E+02  0.47000000000E+01 0.  1.
         13    1    6    6    0    0  0.63070275431E+02 -0.17490110909E+02  0.45990801219E+02  0.79993233585E+02  0.00000000000E+00 0. -1.
        -14    1    6    6    0    0  0.54536407460E+02  0.46833946085E+02  0.12261609271E+03  0.14213495149E+03  0.00000000000E+00 0.  1.
</event>
<event>
12    1  0.8488291E-002  0.2080643E+03  0.7818608E-02  0.1143502E+00
         21   -1    0    0  503  502  0.00000000000E+00  0.00000000000E+00  0.17006420781E+03  0.17006420781E+03  0.00000000000E+00 0.  1.
         21   -1    0    0  501  503 -0.00000000000E+00 -0.00000000000E+00 -0.31206137585E+03  0.31206137585E+03  0.00000000000E+00 0. -1.
          6    2    1    2  501    0 -0.74507745270E+02  0.85559023896E+02 -0.17633528923E+03  0.27124678533E+03  0.17207246627E+03 0.  0.
         24    2    3    3    0    0 -0.56199507351E+02 -0.81432320469E+01 -0.14002885693E+03  0.16899439479E+03  0.75672503873E+02 0.  0.
         -6    2    1    2    0  502  0.74507745270E+02 -0.85559023896E+02  0.34338121189E+02  0.21087879833E+03  0.17441046512E+03 0.  0.
        -24    2    5    5    0    0  0.58552345463E+02 -0.67752886196E+02 -0.44075369374E+02  0.12876668701E+03  0.81359638346E+02 0.  0.
          5    1    3    3  501    0 -0.18308237918E+02  0.93702255943E+02 -0.36306432304E+02  0.10225239054E+03  0.47000000000E+01 0. -1.
        -11    1    4    4    0    0  0.72157957252E+01 -0.12787295799E+02 -0.80713798409E+02  0.82038405002E+02  0.00000000000E+00 0.  1.
         12    1    4    4    0    0 -0.63415303077E+02  0.46440637524E+01 -0.59315058521E+02  0.86955989787E+02  0.00000000000E+00 0. -1.
         -5    1    5    5    0  502  0.15955399806E+02 -0.17806137700E+02  0.78413490563E+02  0.82112111317E+02  0.47000000000E+01 0.  1.
         13    1    6    6    0    0 -0.13291374463E+02 -0.40229452815E+02 -0.26089998705E+02  0.49756984850E+02  0.00000000000E+00 0. -1.
        -14    1    6    6    0    0  0.71843719926E+02 -0.27523433381E+02 -0.17985370668E+02  0.79009702164E+02  0.00000000000E+00 0.  1.
</event>
<event>
12    1  0.8488291E-002  0.2133264E+03  0.7818608E-02  0.1139016E+00
         21   -1    0    0  503  502  0.00000000000E+00  0.00000000000E+00  0.32708953142E+02  0.32708953142E+02  0.00000000000E+00 0. -1.
         21   -1    0    0  501  503 -0.00000000000E+00 -0.00000000000E+00 -0.13899500370E+04  0.13899500370E+04  0.00000000000E+00 0. -1.
          6    2    1    2  501    0  0.12315793935E+03 -0.27516767279E+02 -0.69270779979E+03  0.72472444957E+03  0.17162861477E+03 0.  0.
         24    2    3    3    0    0  0.38298926968E+02 -0.67284783291E+02 -0.47755895648E+03  0.49000405877E+03  0.77764843128E+02 0.  0.
         -6    2    1    2    0  502 -0.12315793935E+03  0.27516767279E+02 -0.66453328402E+03  0.69793454053E+03  0.17199734528E+03 0.  0.
        -24    2    5    5    0    0 -0.97919944357E+02  0.32496232360E+02 -0.65828796851E+03  0.67104875563E+03  0.79492529998E+02 0.  0.
          5    1    3    3  501    0  0.84859012378E+02  0.39768016012E+02 -0.21514884331E+03  0.23472039080E+03  0.47000000000E+01 0. -1.
        -11    1    4    4    0    0 -0.12792034553E+02  0.65016257422E+01 -0.26824973567E+02  0.30421809482E+02  0.00000000000E+00 0.  1.
         12    1    4    4    0    0  0.51090961522E+02 -0.73786409033E+02 -0.45073398291E+03  0.45958224929E+03  0.00000000000E+00 0. -1.
         -5    1    5    5    0  502 -0.25237994989E+02 -0.49794650810E+01 -0.62453155056E+01  0.26885784893E+02  0.47000000000E+01 0.  1.
         11    1    6    6    0    0 -0.27474516803E+02  0.11522343892E+02 -0.49022098999E+02  0.57365317681E+02  0.00000000000E+00 0. -1.
        -12    1    6    6    0    0 -0.70445427554E+02  0.20973888468E+02 -0.60926586952E+03  0.61368343795E+03  0.00000000000E+00 0.  1.
</event>
<event>
12    1  0.8488291E-002  0.1791416E+03  0.7818608E-02  0.1169106E+00
         21   -1    0    0  501  502  0.00000000000E+00  0.00000000000E+00  0.46308997012E+02  0.46308997012E+02  0.00000000000E+00 0. -1.
         21   -1    0    0  502  503 -0.00000000000E+00 -0.00000000000E+00 -0.69358455865E+03  0.69358455865E+03  0.00000000000E+00 0. -1.
         -6    2    1    2    0  503  0.40067428496E+02 -0.29544080494E+02 -0.28563423663E+03  0.33716262914E+03  0.17208564679E+03 0.  0.
        -24    2    3    3    0    0 -0.46770621158E+01  0.32316882117E+02 -0.10251898812E+03  0.13871330973E+03  0.87549892010E+02 0.  0.
          6    2    1    2  501    0 -0.40067428496E+02  0.29544080494E+02 -0.36164132501E+03  0.40273092653E+03  0.17008674173E+03 0.  0.
         24    2    5    5    0    0  0.89825427913E+01 -0.42286761587E+02 -0.16855899335E+03  0.19090919403E+03  0.78519614416E+02 0.  0.
          5    1    5    5  501    0 -0.49049971287E+02  0.71830842082E+02 -0.19308233166E+03  0.21182173249E+03  0.47000000000E+01 0. -1.
        -11    1    6    6    0    0  0.14140851115E+02  0.56507228385E+01  0.37190609945E+00  0.15232618061E+02  0.00000000000E+00 0.  1.
         12    1    6    6    0    0 -0.51583083236E+01 -0.47937484426E+02 -0.16893089945E+03  0.17567657597E+03  0.00000000000E+00 0. -1.
         -5    1    3    3    0  503  0.44744490611E+02 -0.61860962611E+02 -0.18311524852E+03  0.19844931941E+03  0.47000000000E+01 0.  1.
         11    1    4    4    0    0  0.41265989307E+02  0.17208754011E+02 -0.43124994060E+02  0.62119145203E+02  0.00000000000E+00 0. -1.
        -12    1    4    4    0    0 -0.45943051423E+02  0.15108128106E+02 -0.59393994058E+02  0.76594164524E+02  0.00000000000E+00 0.  1.
</event>
<event>
12    1  0.8488291E-002  0.1829597E+03  0.7818608E-02  0.1165029E+00
         21   -1    0    0  501  502  0.00000000000E+00  0.00000000000E+00  0.36275121696E+03  0.36275121696E+03  0.00000000000E+00 0. -1.
         21   -1    0    0  502  503 -0.00000000000E+00 -0.00000000000E+00 -0.15027605846E+03  0.15027605846E+03  0.00000000000E+00 0. -1.
         -6    2    1    2    0  503 -0.37973062480E+02  0.47741199227E+02 -0.53249592736E+02  0.19055126769E+03  0.17249084299E+03 0.  0.
        -24    2    3    3    0    0 -0.86030191320E+02  0.28554142348E+02 -0.66063918711E+02  0.13703559023E+03  0.78725972657E+02 0.  0.
          6    2    1    2  501    0  0.37973062480E+02 -0.47741199227E+02  0.26572475123E+03  0.32247600772E+03  0.17222066241E+03 0.  0.
         24    2    5    5    0    0 -0.34484813938E+02 -0.25807566401E+02  0.21116864748E+03  0.22904321604E+03  0.77545884883E+02 0.  0.
          5    1    5    5  501    0  0.72457876418E+02 -0.21933632826E+02  0.54556103756E+02  0.93432791680E+02  0.47000000000E+01 0. -1.
        -13    1    6    6    0    0 -0.28737436539E+02  0.10052212318E+02  0.25082961024E+02  0.39446700306E+02  0.00000000000E+00 0.  1.
         14    1    6    6    0    0 -0.57473773990E+01 -0.35859778719E+02  0.18608568645E+03  0.18959651574E+03  0.00000000000E+00 0. -1.
         -5    1    3    3    0  503  0.48057128840E+02  0.19187056879E+02  0.12814325975E+02  0.53515677462E+02  0.47000000000E+01 0.  1.
         13    1    4    4    0    0 -0.10248903163E+02  0.41520065323E+02 -0.29107617153E+02  0.51732090783E+02  0.00000000000E+00 0. -1.
        -14    1    4    4    0    0 -0.75781288157E+02 -0.12965922975E+02 -0.36956301558E+02  0.85303499449E+02  0.00000000000E+00 0.  1.
</event>
<event>
12    1  0.8488291E-002  0.2537534E+03  0.7818608E-02  0.1112046E+00
         21   -1    0    0  501  502  0.00000000000E+00  0.00000000000E+00  0.99982340250E+03  0.99982340250E+03  0.00000000000E+00 0. -1.
         21   -1    0    0  502  503 -0.00000000000E+00 -0.00000000000E+00 -0.75972355883E+02  0.75972355883E+02  0.00000000000E+00 0. -1.
         -6    2    1    2    0  503  0.56785087685E+02  0.17549881067E+03  0.24201006053E+03  0.35065601463E+03  0.17425955489E+03 0.  0.
        -24    2    3    3    0    0  0.17110336618E+02  0.19157809634E+03  0.18112253696E+03  0.27607713138E+03  0.80114158937E+02 0.  0.
          6    2    1    2  501    0 -0.56785087685E+02 -0.17549881067E+03  0.68184098608E+03  0.72513974375E+03  0.16400042358E+03 0.  0.
         24    2    5    5    0    0  0.16775741456E+02 -0.59245280903E+02  0.36423279686E+03  0.37898496533E+03  0.84691468414E+02 0.  0.
          5    1    5    5  501    0 -0.73560829142E+02 -0.11625352976E+03  0.31760818922E+03  0.34615477842E+03  0.47000000000E+01 0. -1.
        -11    1    6    6    0    0  0.14991234028E+02 -0.55105298221E+02  0.36842740643E+03  0.37282715137E+03  0.00000000000E+00 0.  1.
         12    1    6    6    0    0  0.17845074285E+01 -0.41399826819E+01 -0.41946095640E+01  0.61578139598E+01  0.00000000000E+00 0. -1.
         -5    1    3    3    0  503  0.39674751068E+02 -0.16079285669E+02  0.60887523576E+02  0.74578883253E+02  0.47000000000E+01 0.  1.
         11    1    4    4    0    0  0.16721361806E+02  0.61154962612E+01  0.37476561941E+02  0.41490913826E+02  0.00000000000E+00 0. -1.
        -12    1    4    4    0    0  0.38897481140E+00  0.18546260008E+03  0.14364597502E+03  0.23458621755E+03  0.00000000000E+00 0.  1.
</event>
<event>
12    1  0.8488291E-002  0.2323124E+03  0.7818608E-02  0.1125150E+00
         21   -1    0    0  501  502  0.00000000000E+00  0.00000000000E+00  0.90544419390E+03  0.90544419390E+03  0.00000000000E+00 0.  1.
         21   -1    0    0  502  503 -0.00000000000E+00 -0.00000000000E+00 -0.78288642870E+02  0.78288642870E+02  0.00000000000E+00 0.  1.
         -6    2    1    2    0  503 -0.99892670827E+02  0.12051162282E+03  0.17258492342E+03  0.28940386869E+03  0.17166084731E+03 0.  0.
        -24    2    3    3    0    0 -0.59386280949E+01  0.58095762792E+02  0.21158019566E+02  0.10052480966E+03  0.79039171343E+02 0.  0.
          6    2    1    2  501    0  0.99892670827E+02 -0.12051162282E+03  0.65457062760E+03  0.69432896808E+03  0.17067047920E+03 0.  0.
         24    2    5    5    0    0  0.13278011549E+03 -0.83018909530E+02  0.56503456485E+03  0.59173226199E+03  0.79751564238E+02 0.  0.
          5    1    5    5  501    0 -0.32887444661E+02 -0.37492713290E+02  0.89536062752E+02  0.10259670608E+03  0.47000000000E+01 0. -1.
        -13    1    6    6    0    0  0.37890811010E+02 -0.34181546468E+01  0.25584222189E+03  0.25865544618E+03  0.00000000000E+00 0.  1.
         14    1    6    6    0    0  0.94889304479E+02 -0.79600754883E+02  0.30919234296E+03  0.33307681581E+03  0.00000000000E+00 0. -1.
         -5    1    3    3    0  503 -0.93954042732E+02  0.62415860029E+02  0.15142690386E+03  0.18887905903E+03  0.47000000000E+01 0.  1.
         11    1    4    4    0    0  0.12845774205E+02 -0.87440100477E+01  0.26680994137E+02  0.30876318997E+02  0.00000000000E+00 0. -1.
        -12    1    4    4    0    0 -0.18784402300E+02  0.66839772840E+02 -0.55229745716E+01  0.69648490659E+02  0.00000000000E+00 0.  1.
</event>
<event>
12    1  0.8488291E-002  0.1941687E+03  0.7818608E-02  0.1155536E+00
         21   -1    0    0  501  502  0.00000000000E+00  0.00000000000E+00  0.14520205251E+03  0.14520205251E+03  0.00000000000E+00 0. -1.
         21   -1    0    0  502  503 -0.00000000000E+00 -0.00000000000E+00 -0.30043646167E+03  0.30043646167E+03  0.00000000000E+00 0.  1.
         -6    2    1    2    0  503 -0.60340825009E+02  0.70836532252E+02 -0.16492199910E+03  0.25475627527E+03  0.17041908501E+03 0.  0.
        -24    2    3    3    0    0  0.33210394596E+02  0.41321917254E+02 -0.75984055512E+02  0.12226102630E+03  0.79773120193E+02 0.  0.
          6    2    1    2  501    0  0.60340825009E+02 -0.70836532252E+02  0.96875899459E+01  0.19088223891E+03  0.16638314298E+03 0.  0.
         24    2    5    5    0    0  0.30095974195E+02 -0.10883612270E+03 -0.93185964094E+01  0.13851769943E+03  0.79682165811E+02 0.  0.
          5    1    5    5  501    0  0.30244850814E+02  0.37999590451E+02  0.19006186355E+02  0.52364539480E+02  0.47000000000E+01 0. -1.
        -11    1    6    6    0    0 -0.23425178546E+02 -0.10803609362E+02  0.37388846741E+01  0.26065997463E+02  0.00000000000E+00 0.  1.
         12    1    6    6    0    0  0.53521152741E+02 -0.98032513341E+02 -0.13057481083E+02  0.11245170197E+03  0.00000000000E+00 0. -1.
         -5    1    3    3    0  503 -0.93551219604E+02  0.29514614998E+02 -0.88937943591E+02  0.13249524896E+03  0.47000000000E+01 0.  1.
         11    1    4    4    0    0  0.28380369711E+01  0.23878449722E+02  0.12496885516E+02  0.27099943959E+02  0.00000000000E+00 0. -1.
        -12    1    4    4    0    0  0.30372357625E+02  0.17443467531E+02 -0.88480941028E+02  0.95161082342E+02  0.00000000000E+00 0.  1.
</event>
<event>
12    1  0.8488291E-002  0.1760983E+03  0.7818608E-02  0.1172098E+00
         21   -1    0    0  501  502  0.00000000000E+00  0.00000000000E+00  0.15714944084E+04  0.15714944084E+04  0.00000000000E+00 0. -1.
         21   -1    0    0  502  503 -0.00000000000E+00 -0.00000000000E+00 -0.11904524867E+03  0.11904524867E+03  0.00000000000E+00 0. -1.
         -6    2    1    2    0  503  0.14485879933E+01  0.28633594658E+02 -0.45989204331E+02  0.18200444995E+03  0.17374876039E+03 0.  0.
        -24    2    3    3    0    0 -0.23631524697E+02  0.78299713954E+02 -0.53413366532E+02  0.12567556178E+03  0.79070000250E+02 0.  0.
          6    2    1    2  501    0 -0.14485879933E+01 -0.28633594658E+02  0.14984383641E+04  0.15085352071E+04  0.17186901721E+03 0.  0.
         24    2    5    5    0    0  0.36618617669E+02  0.76688139875E+01  0.13029510167E+04  0.13060398492E+04  0.81602706926E+02 0.  0.
          5    1    5    5  501    0 -0.38067205663E+02 -0.36302408646E+02  0.19548734731E+03  0.20249535792E+03  0.47000000000E+01 0. -1.
        -13    1    6    6    0    0  0.14488142282E+02  0.30188951550E+02  0.21167987729E+03  0.21431203772E+03  0.00000000000E+00 0.  1.
         14    1    6    6    0    0  0.22130475387E+02 -0.22520137563E+02  0.10912711395E+04  0.10917278115E+04  0.00000000000E+00 0. -1.
         -5    1    3    3    0  503  0.25080112691E+02 -0.49666119296E+02  0.74241622013E+01  0.56328888174E+02  0.47000000000E+01 0.  1.
         11    1    4    4    0    0  0.17652556444E+02  0.36998963944E+02 -0.53347526833E+02  0.67279229344E+02  0.00000000000E+00 0. -1.
        -12    1    4    4    0    0 -0.41284081141E+02  0.41300750010E+02 -0.65839698716E-01  0.58396332435E+02  0.00000000000E+00 0.  1.
</event>
<event>
12    1  0.8488291E-002  0.1895508E+03  0.7818608E-02  0.1159470E+00
         21   -1    0    0  501  502  0.00000000000E+00  0.00000000000E+00  0.60985622180E+03  0.60985622180E+03  0.00000000000E+00 0. -1.
         21   -1    0    0  502  503 -0.00000000000E+00 -0.00000000000E+00 -0.61436731004E+02  0.61436731004E+02  0.00000000000E+00 0. -1.
         -6    2    1    2    0  503  0.70159084131E+02 -0.26848688613E+02  0.19411682264E+03  0.26947223136E+03  0.17114553303E+03 0.  0.
        -24    2    3    3    0    0  0.67340773801E+02 -0.67795772778E+02  0.19017099919E+03  0.22797203742E+03  0.81701862218E+02 0.  0.
          6    2    1    2  501    0 -0.70159084131E+02  0.26848688613E+02  0.35430266816E+03  0.40182072145E+03  0.17402977432E+03 0.  0.
         24    2    5    5    0    0  0.17037321502E+00  0.28214761616E+02  0.68315843328E+02  0.10727250349E+03  0.77744670263E+02 0.  0.
          5    1    5    5  501    0 -0.70329457346E+02 -0.13660730030E+01  0.28598682483E+03  0.29454821796E+03  0.47000000000E+01 0. -1.
        -13    1    6    6    0    0  0.29349399830E+02 -0.50928703673E+01  0.53024313545E+01  0.30256245260E+02  0.00000000000E+00 0.  1.
         14    1    6    6    0    0 -0.29179026615E+02  0.33307631983E+02  0.63013411974E+02  0.77016258226E+02  0.00000000000E+00 0. -1.
         -5    1    3    3    0  503  0.28183103297E+01  0.40947084165E+02  0.39458234527E+01  0.41500193944E+02  0.47000000000E+01 0.  1.
         13    1    4    4    0    0  0.12074071780E+02 -0.66924033202E+02  0.82272025382E+02  0.10673938163E+03  0.00000000000E+00 0. -1.
        -14    1    4    4    0    0  0.55266702022E+02 -0.87173957564E+00  0.10789897380E+03  0.12123265579E+03  0.00000000000E+00 0.  1.
</event>
<event>
12    1  0.8488291E-002  0.1799828E+03  0.7818608E-02  0.1168649E+00
         21   -1    0    0  501  502  0.00000000000E+00  0.00000000000E+00  0.23971490172E+03  0.23971490172E+03  0.00000000000E+00 0.  1.
         21   -1    0    0  502  503 -0.00000000000E+00 -0.00000000000E+00 -0.15336731400E+03  0.15336731400E+03  0.00000000000E+00 0.  1.
         -6    2    1    2    0  503  0.12186722587E+02 -0.44676278516E+02 -0.29502392771E+02  0.17903772908E+03  0.17041018510E+03 0.  0.
        -24    2    3    3    0    0  0.69336160590E+02 -0.23735789513E+01 -0.15408945288E+02  0.10639964047E+03  0.79185294439E+02 0.  0.
          6    2    1    2  501    0 -0.12186722587E+02  0.44676278516E+02  0.11584998050E+03  0.21404448664E+03  0.17392336879E+03 0.  0.
         24    2    5    5    0    0 -0.33423633413E+02  0.74108168509E+02  0.27154333312E+02  0.11809527945E+03  0.81240244345E+02 0.  0.
          5    1    5    5  501    0  0.21236910826E+02 -0.29431889993E+02  0.88695647183E+02  0.95949207184E+02  0.47000000000E+01 0. -1.
        -13    1    6    6    0    0 -0.39131263339E+02  0.38041209330E+01  0.26760320241E+02  0.47558825111E+02  0.00000000000E+00 0.  1.
         14    1    6    6    0    0  0.57076299255E+01  0.70304047576E+02  0.39401307162E+00  0.70536454343E+02  0.00000000000E+00 0. -1.
         -5    1    3    3    0  503 -0.57149438003E+02 -0.42302699565E+02 -0.14093447484E+02  0.72638088607E+02  0.47000000000E+01 0.  1.
         11    1    4    4    0    0 -0.36667453271E+00 -0.32195627553E+01  0.25412666572E+02  0.25618424168E+02  0.00000000000E+00 0. -1.
        -12    1    4    4    0    0  0.69702835122E+02  0.84598380399E+00 -0.40821611860E+02  0.80781216304E+02  0.00000000000E+00 0.  1.
</event>
<event>
12    1  0.8488291E-002  0.2102585E+03  0.7818608E-02  0.1142684E+00
         21   -1    0    0  501  502  0.00000000000E+00  0.00000000000E+00  0.14616485555E+04  0.14616485555E+04  0.00000000000E+00 0. -1.
         21   -1    0    0  502  503 -0.00000000000E+00 -0.00000000000E+00 -0.44872383143E+02  0.44872383143E+02  0.00000000000E+00 0. -1.
         -6    2    1    2    0  503  0.21879755080E+02 -0.11911795753E+03  0.25742248806E+03  0.32825542886E+03  0.16376042785E+03 0.  0.
        -24    2    3    3    0    0  0.73390875029E+02 -0.99952741119E+02  0.20275862064E+03  0.25059637015E+03  0.79439986743E+02 0.  0.
          6    2    1    2  501    0 -0.21879755080E+02  0.11911795753E+03  0.11593536843E+04  0.11782655098E+04  0.17187447385E+03 0.  0.
         24    2    5    5    0    0  0.27211784640E+02  0.79072366284E+01  0.41429078201E+03  0.42333596203E+03  0.82301148654E+02 0.  0.
          5    1    5    5  501    0 -0.49091539720E+02  0.11121072090E+03  0.74506290229E+03  0.75492954776E+03  0.47000000000E+01 0. -1.
        -11    1    6    6    0    0 -0.16730983137E+02 -0.17631320660E+02  0.50872190441E+02  0.56380573118E+02  0.00000000000E+00 0.  1.
         12    1    6    6    0    0  0.43942767777E+02  0.25538557289E+02  0.36341859157E+03  0.36695538891E+03  0.00000000000E+00 0. -1.
         -5    1    3    3    0  503 -0.51511119948E+02 -0.19165216413E+02  0.54663867419E+02  0.77659058709E+02  0.47000000000E+01 0.  1.
         11    1    4    4    0    0 -0.24760552197E+01 -0.59923784744E+02  0.10143160651E+03  0.11783616434E+03  0.00000000000E+00 0. -1.
        -12    1    4    4    0    0  0.75866930248E+02 -0.40028956375E+02  0.10132701413E+03  0.13276020581E+03  0.00000000000E+00 0.  1.
</event>
<event>
12    1  0.8488291E-002  0.1947740E+03  0.7818608E-02  0.1154246E+00
         21   -1    0    0  501  502  0.00000000000E+00  0.00000000000E+00  0.52243239141E+03  0.52243239141E+03  0.00000000000E+00 0. -1.
         21   -1    0    0  502  503 -0.00000000000E+00 -0.00000000000E+00 -0.13254542709E+03  0.13254542709E+03  0.00000000000E+00 0.  1.
         -6    2    1    2    0  503  0.81377711837E+02  0.33457159921E+02 -0.25357809029E+02  0.19632203230E+03  0.17365946088E+03 0.  0.
        -24    2    3    3    0    0  0.63006710551E+02  0.27870490942E+02  0.50067950491E+02  0.11834870508E+03  0.82176678495E+02 0.  0.
          6    2    1    2  501    0 -0.81377711837E+02 -0.33457159921E+02  0.41524477334E+03  0.45865578620E+03  0.17376764628E+03 0.  0.
         24    2    5    5    0    0 -0.92067814380E+02 -0.74992875027E+02  0.25212737623E+03  0.28992858281E+03  0.79937197462E+02 0.  0.
          5    1    5    5  501    0  0.10690102543E+02  0.41535715106E+02  0.16311739711E+03  0.16872720339E+03  0.47000000000E+01 0. -1.
        -11    1    6    6    0    0  0.95736364467E+01 -0.30703730746E+02  0.52026134361E+02  0.61164468877E+02  0.00000000000E+00 0.  1.
         12    1    6    6    0    0 -0.10164145083E+03 -0.44289144281E+02  0.20010124187E+03  0.22876411394E+03  0.00000000000E+00 0. -1.
         -5    1    3    3    0  503  0.18371001285E+02  0.55866689788E+01 -0.75425759520E+02  0.77973327219E+02  0.47000000000E+01 0.  1.
         11    1    4    4    0    0  0.37394102808E+02 -0.26282242223E+02  0.11595846604E+02  0.47154414847E+02  0.00000000000E+00 0. -1.
        -12    1    4    4    0    0  0.25612607743E+02  0.54152733165E+02  0.38472103888E+02  0.71194290236E+02  0.00000000000E+00 0.  1.
</event>
<event>
12    1  0.8488291E-002  0.2042049E+03  0.7818608E-02  0.1146252E+00
         21   -1    0    0  503  502  0.00000000000E+00  0.00000000000E+00  0.10503560789E+04  0.10503560789E+04  0.00000000000E+00 0.  1.
         21   -1    0    0  501  503 -0.00000000000E+00 -0.00000000000E+00 -0.40248013185E+02  0.40248013185E+02  0.00000000000E+00 0. -1.
          6    2    1    2  501    0 -0.66854353690E+02 -0.84811936914E+02  0.56943379087E+03  0.60494171405E+03  0.17331204795E+03 0.  0.
         24    2    3    3    0    0 -0.22058712785E+02 -0.10801669314E+03  0.39058036164E+03  0.41904994634E+03  0.10438221028E+03 0.  0.
         -6    2    1    2    0  502  0.66854353690E+02  0.84811936914E+02  0.44067427483E+03  0.48566237802E+03  0.17323844745E+03 0.  0.
        -24    2    5    5    0    0  0.29044187652E+02  0.41592706022E+02  0.40901672449E+03  0.41992197135E+03  0.80413077821E+02 0.  0.
          5    1    3    3  501    0 -0.44795640906E+02  0.23204756222E+02  0.17885342922E+03  0.18589176771E+03  0.47000000000E+01 0. -1.
        -11    1    4    4    0    0  0.17841321723E+02  0.14223849706E+02  0.70740775817E+02  0.74329590504E+02  0.00000000000E+00 0.  1.
         12    1    4    4    0    0 -0.39900034508E+02 -0.12224054284E+03  0.31983958583E+03  0.34472035584E+03  0.00000000000E+00 0. -1.
         -5    1    5    5    0  502  0.37810166039E+02  0.43219230892E+02  0.31657550341E+02  0.65740406664E+02  0.47000000000E+01 0.  1.
         11    1    6    6    0    0  0.43777078192E+02  0.31686811585E+02  0.13622050791E+03  0.14654867238E+03  0.00000000000E+00 0. -1.
        -12    1    6    6    0    0 -0.14732890541E+02  0.99058944374E+01  0.27279621658E+03  0.27337329897E+03  0.00000000000E+00 0.  1.
</event>
<event>
12    1  0.8488291E-002  0.2682008E+03  0.7818608E-02  0.1102333E+00
         21   -1    0    0  503  502  0.00000000000E+00  0.00000000000E+00  0.14293190112E+04  0.14293190112E+04  0.00000000000E+00 0. -1.
         21   -1    0    0  501  503 -0.00000000000E+00 -0.00000000000E+00 -0.51961519851E+02  0.51961519851E+02  0.00000000000E+00 0.  1.
          6    2    1    2  501    0 -0.14132036127E+03  0.14978267491E+03  0.82125983520E+03  0.86394408257E+03  0.17182946979E+03 0.  0.
         24    2    3    3    0    0 -0.33137671747E+02  0.13224260134E+03  0.51666848174E+03  0.54020169873E+03  0.79280163911E+02 0.  0.
         -6    2    1    2    0  502  0.14132036127E+03 -0.14978267491E+03  0.55609765617E+03  0.61733644850E+03  0.17161990920E+03 0.  0.
        -24    2    5    5    0    0  0.20716702788E+02 -0.60562496447E+02  0.12993449541E+03  0.16551501001E+03  0.80095241384E+02 0.  0.
          5    1    3    3  501    0 -0.10818268952E+03  0.17540073565E+02  0.30459135346E+03  0.32374238384E+03  0.47000000000E+01 0. -1.
        -11    1    4    4    0    0 -0.33705751150E+02  0.49807603439E+02  0.33959573140E+03  0.34487988606E+03  0.00000000000E+00 0.  1.
         12    1    4    4    0    0  0.56807940293E+00  0.82434997904E+02  0.17707275033E+03  0.19532181267E+03  0.00000000000E+00 0. -1.
         -5    1    5    5    0  502  0.12060365848E+03 -0.89220178461E+02  0.42616316076E+03  0.45182143849E+03  0.47000000000E+01 0.  1.
         11    1    6    6    0    0  0.13866253809E+02  0.16608002404E+02  0.12989275715E+02  0.25235293185E+02  0.00000000000E+00 0. -1.
        -12    1    6    6    0    0  0.68504489791E+01 -0.77170498852E+02  0.11694521969E+03  0.14027971683E+03  0.00000000000E+00 0.  1.
</event>
<event>
12    1  0.8488291E-002  0.1817954E+03  0.7818608E-02  0.1166218E+00
         21   -1    0    0  503  502  0.00000000000E+00  0.00000000000E+00  0.93506031104E+02  0.93506031104E+02  0.00000000000E+00 0.  1.
         21   -1    0    0  501  503 -0.00000000000E+00 -0.00000000000E+00 -0.42004078721E+03  0.42004078721E+03  0.00000000000E+00 0.  1.
          6    2    1    2  501    0  0.25260388649E+02 -0.52106264289E+02 -0.59928333491E+02  0.19085725624E+03  0.17170304917E+03 0.  0.
         24    2    3    3    0    0  0.62667227532E+02 -0.25326448736E+02  0.18576722920E+02  0.99744337299E+02  0.70959338897E+02 0.  0.
         -6    2    1    2    0  502 -0.25260388649E+02  0.52106264289E+02 -0.26660642262E+03  0.32268956207E+03  0.17232648919E+03 0.  0.
        -24    2    5    5    0    0 -0.61915979196E+02  0.83696836412E+02 -0.21646768379E+03  0.25284989071E+03  0.78968729254E+02 0.  0.
          5    1    3    3  501    0 -0.37406838884E+02 -0.26779815553E+02 -0.78505056411E+02  0.91112918944E+02  0.47000000000E+01 0. -1.
        -11    1    4    4    0    0  0.16454714579E+02 -0.79527261729E+00  0.39960605681E+02  0.43223143070E+02  0.00000000000E+00 0.  1.
         12    1    4    4    0    0  0.46212512953E+02 -0.24531176119E+02 -0.21383882761E+02  0.56521194230E+02  0.00000000000E+00 0. -1.
         -5    1    5    5    0  502  0.36655590547E+02 -0.31590572122E+02 -0.50138738825E+02  0.69839671365E+02  0.47000000000E+01 0.  1.
         13    1    6    6    0    0 -0.57216964629E+02  0.12967463970E+02 -0.11462593069E+03  0.12876738775E+03  0.00000000000E+00 0. -1.
        -14    1    6    6    0    0 -0.46990145662E+01  0.70729372442E+02 -0.10184175310E+03  0.12408250295E+03  0.00000000000E+00 0.  1.
</event>
<event>
12    1  0.8488291E-002  0.2239820E+03  0.7818608E-02  0.1131329E+00
         21   -1    0    0  501  502  0.00000000000E+00  0.00000000000E+00  0.36629773417E+03  0.36629773417E+03  0.00000000000E+00 0. -1.
         21   -1    0    0  502  503 -0.00000000000E+00 -0.00000000000E+00 -0.13786801916E+03  0.13786801916E+03  0.00000000000E+00 0. -1.
         -6    2    1    2    0  503  0.12062255185E+03  0.71605498153E+02  0.82022485993E+02  0.23657833616E+03  0.17194322770E+03 0.  0.
        -24    2    3    3    0    0  0.11782327851E+03  0.38497385404E+01  0.88758151750E+02  0.16826919998E+03  0.80866363307E+02 0.  0.
          6    2    1    2  501    0 -0.12062255185E+03 -0.71605498153E+02  0.14640722902E+03  0.26758741717E+03  0.17461615544E+03 0.  0.
         24    2    5    5    0    0 -0.50051441136E+02 -0.33268768899E+02  0.70841360768E+00  0.10115358260E+03  0.81360848568E+02 0.  0.
          5    1    5    5  501    0 -0.70571110710E+02 -0.38336729254E+02  0.14569881541E+03  0.16643383457E+03  0.47000000000E+01 0. -1.
        -13    1    6    6    0    0  0.48342255793E+01  0.15771507986E+02  0.19150400214E+02  0.25275443210E+02  0.00000000000E+00 0.  1.
         14    1    6    6    0    0 -0.54885666716E+02 -0.49040276886E+02 -0.18441986606E+02  0.75878139393E+02  0.00000000000E+00 0. -1.
         -5    1    3    3    0  503  0.27992733365E+01  0.67755759613E+02 -0.67356657563E+01  0.68309136176E+02  0.47000000000E+01 0.  1.
         11    1    4    4    0    0  0.23600931536E+02  0.21234916208E+02 -0.73209387476E+01  0.32581003359E+02  0.00000000000E+00 0. -1.
        -12    1    4    4    0    0  0.94222346974E+02 -0.17385177667E+02  0.96079090497E+02  0.13568819662E+03  0.00000000000E+00 0.  1.
</event>
<event>
12    1  0.8488291E-002  0.2395949E+03  0.7818608E-02  0.1120080E+00
         21   -1    0    0  501  502  0.00000000000E+00  0.00000000000E+00  0.12551832314E+03  0.12551832314E+03  0.00000000000E+00 0.  1.
         21   -1    0    0  502  503 -0.00000000000E+00 -0.00000000000E+00 -0.89961375260E+03  0.89961375260E+03  0.00000000000E+00 0. -1.
         -6    2    1    2    0  503  0.40981772644E+02 -0.16171655050E+03 -0.74655438341E+03  0.78405939924E+03  0.17197077004E+03 0.  0.
        -24    2    3    3    0    0  0.73439279109E+02 -0.10703730931E+03 -0.34117486689E+03  0.37369620455E+03  0.79989062970E+02 0.  0.
          6    2    1    2  501    0 -0.40981772644E+02  0.16171655050E+03 -0.27541046052E+02  0.24107267650E+03  0.17183066589E+03 0.  0.
         24    2    5    5    0    0 -0.69753627503E+02  0.52240630863E+02  0.17030762999E+02  0.11932895890E+03  0.79716381506E+02 0.  0.
          5    1    5    5  501    0  0.28771854859E+02  0.10947591964E+03 -0.44571809051E+02  0.12174371760E+03  0.47000000000E+01 0. -1.
        -13    1    6    6    0    0 -0.44705582165E+02  0.72964682501E+02  0.13465054087E+02  0.86624140115E+02  0.00000000000E+00 0.  1.
         14    1    6    6    0    0 -0.25048045338E+02 -0.20724051638E+02  0.35657089123E+01  0.32704818782E+02  0.00000000000E+00 0. -1.
         -5    1    3    3    0  503 -0.32457506465E+02 -0.54679241194E+02 -0.40537951652E+03  0.41036319469E+03  0.47000000000E+01 0.  1.
         11    1    4    4    0    0  0.93086463457E+01 -0.68549756144E+02 -0.22613823664E+03  0.23648302695E+03  0.00000000000E+00 0. -1.
        -12    1    4    4    0    0  0.64130632763E+02 -0.38487553166E+02 -0.11503663025E+03  0.13721317760E+03  0.00000000000E+00 0.  1.
</event>
<event>
12    1  0.8488291E-002  0.2067286E+03  0.7818608E-02  0.1144912E+00
         21   -1    0    0  501  502  0.00000000000E+00  0.00000000000E+00  0.10910428783E+03  0.10910428783E+03  0.00000000000E+00 0.  1.
         21   -1    0    0  502  503 -0.00000000000E+00 -0.00000000000E+00 -0.39216086553E+03  0.39216086553E+03  0.00000000000E+00 0.  1.
         -6    2    1    2    0  503 -0.11017267976E+03 -0.30802109945E+02 -0.17427231309E+03  0.26766134925E+03  0.16788379741E+03 0.  0.
        -24    2    3    3    0    0 -0.13059943963E+03  0.57325243481E+01 -0.16482531781E+03  0.22449460579E+03  0.78366875461E+02 0.  0.
          6    2    1    2  501    0  0.11017267976E+03  0.30802109945E+02 -0.10878426461E+03  0.23360380411E+03  0.17219155532E+03 0.  0.
         24    2    5    5    0    0 -0.95246227409E+01 -0.10041351045E+02 -0.41609224973E+02  0.90320139716E+02  0.78961084506E+02 0.  0.
          5    1    5    5  501    0  0.11969730250E+03  0.40843460990E+02 -0.67175039637E+02  0.14328366439E+03  0.47000000000E+01 0. -1.
        -13    1    6    6    0    0  0.64586687598E+01 -0.13733876470E+02  0.20824059361E+02  0.25767716494E+02  0.00000000000E+00 0.  1.
         14    1    6    6    0    0 -0.15983291501E+02  0.36925254244E+01 -0.62433284334E+02  0.64552423222E+02  0.00000000000E+00 0. -1.
         -5    1    3    3    0  503  0.20426759871E+02 -0.36534634293E+02 -0.94469952777E+01  0.43166743467E+02  0.47000000000E+01 0.  1.
         11    1    4    4    0    0 -0.65169213753E+01  0.23738897242E+02 -0.13856148451E+02  0.28248864692E+02  0.00000000000E+00 0. -1.
        -12    1    4    4    0    0 -0.12408251825E+03 -0.18006372894E+02 -0.15096916936E+03  0.19624574110E+03  0.00000000000E+00 0.  1.
</event>
<event>
12    1  0.8488291E-002  0.1921108E+03  0.7818608E-02  0.1157205E+00
         21   -1    0    0  503  502  0.00000000000E+00  0.00000000000E+00  0.85221890243E+03  0.85221890243E+03  0.00000000000E+00 0.  1.
         21   -1    0    0  501  503 -0.00000000000E+00 -0.00000000000E+00 -0.50668942064E+02  0.50668942064E+02  0.00000000000E+00 0.  1.
          6    2    1    2  501    0  0.67480525712E+02  0.41833840652E+02  0.21891020608E+03  0.28939321974E+03  0.17182277418E+03 0.  0.
         24    2    3    3    0    0  0.10183201330E+02  0.80253904764E+02  0.17016197274E+03  0.20479082638E+03  0.80248356886E+02 0.  0.
         -6    2    1    2    0  502 -0.67480525712E+02 -0.41833840652E+02  0.58263975428E+03  0.61349462476E+03  0.17493678791E+03 0.  0.
        -24    2    5    5    0    0 -0.39530113193E+02 -0.14707086860E+02  0.56163417317E+03  0.56899281840E+03  0.80876168707E+02 0.  0.
          5    1    3    3  501    0  0.57297324382E+02 -0.38420064112E+02  0.48748233345E+02  0.84602393358E+02  0.47000000000E+01 0. -1.
        -13    1    4    4    0    0  0.41407560026E+02  0.69460674777E+02  0.11817859557E+03  0.14319759711E+03  0.00000000000E+00 0.  1.
         14    1    4    4    0    0 -0.31224358696E+02  0.10793229987E+02  0.51983377172E+02  0.61593229268E+02  0.00000000000E+00 0. -1.
         -5    1    5    5    0  502 -0.27950412519E+02 -0.27126753792E+02  0.21005581111E+02  0.44501806357E+02  0.47000000000E+01 0.  1.
         11    1    6    6    0    0  0.22282040329E+02 -0.11926465447E+02  0.25008721277E+03  0.25136098323E+03  0.00000000000E+00 0. -1.
        -12    1    6    6    0    0 -0.61812153522E+02 -0.27806214126E+01  0.31154696039E+03  0.31763183516E+03  0.00000000000E+00 0.  1.
</event>
<event>
12    1  0.8488291E-002  0.2787525E+03  0.7818608E-02  0.1096517E+00
         21   -1    0    0  503  502  0.00000000000E+00  0.00000000000E+00  0.64406967291E+03  0.64406967291E+03  0.00000000000E+00 0.  1.
         21   -1    0    0  501  503 -0.00000000000E+00 -0.00000000000E+00 -0.13327855754E+03  0.13327855754E+03  0.00000000000E+00 0. -1.
          6    2    1    2  501    0 -0.21691913156E+03 -0.33840989110E+02  0.13402270964E+03  0.30929763248E+03  0.17176675051E+03 0.  0.
         24    2    3    3    0    0 -0.13168463983E+03  0.47542986809E+02  0.75119138499E+02  0.17746443936E+03  0.79054173232E+02 0.  0.
         -6    2    1    2    0  502  0.21691913156E+03  0.33840989110E+02  0.37676840573E+03  0.46805059796E+03  0.17005236992E+03 0.  0.
        -24    2    5    5    0    0  0.19384544017E+03  0.76954286100E+02  0.26683431906E+03  0.34763986329E+03  0.78453195584E+02 0.  0.
          5    1    3    3  501    0 -0.85234491728E+02 -0.81383975919E+02  0.58903571143E+02  0.13183319313E+03  0.47000000000E+01 0. -1.
        -13    1    4    4    0    0 -0.60811566735E+02  0.23759796343E+01  0.70729603331E+02  0.93307924184E+02  0.00000000000E+00 0.  1.
         14    1    4    4    0    0 -0.70873073096E+02  0.45167007175E+02  0.43895351677E+01  0.84156515174E+02  0.00000000000E+00 0. -1.
         -5    1    5    5    0  502  0.23073691391E+02 -0.43113296991E+02  0.10993408667E+03  0.12041073467E+03  0.47000000000E+01 0.  1.
         13    1    6    6    0    0  0.12784806479E+03  0.92100875204E+01  0.15790730689E+03  0.20338306457E+03  0.00000000000E+00 0. -1.
        -14    1    6    6    0    0  0.65997375374E+02  0.67744198580E+02  0.10892701217E+03  0.14425679873E+03  0.00000000000E+00 0.  1.
</event>
<event>
12    1  0.8488291E-002  0.1829921E+03  0.7818608E-02  0.1165150E+00
         21   -1    0    0  501  502  0.00000000000E+00  0.00000000000E+00  0.65333935094E+03  0.65333935094E+03  0.00000000000E+00 0. -1.
         21   -1    0    0  502  503 -0.00000000000E+00 -0.00000000000E+00 -0.20034284158E+03  0.20034284158E+03  0.00000000000E+00 0. -1.
         -6    2    1    2    0  503  0.24418325215E+02 -0.59025870985E+02 -0.14188405784E+03  0.23155383976E+03  0.17148115577E+03 0.  0.
        -24    2    3    3    0    0  0.80372006467E+02 -0.40682058229E+02 -0.12275227949E+03  0.16946177219E+03  0.74394091342E+02 0.  0.
          6    2    1    2  501    0 -0.24418325215E+02  0.59025870985E+02  0.59488056721E+03  0.62212835277E+03  0.17053002675E+03 0.  0.
         24    2    5    5    0    0 -0.26938770307E+02  0.20008910717E+02  0.14265591155E+03  0.16819233854E+03  0.82534234040E+02 0.  0.
          5    1    5    5  501    0  0.25204450924E+01  0.39016960267E+02  0.45222465565E+03  0.45393601423E+03  0.47000000000E+01 0. -1.
        -11    1    6    6    0    0 -0.47477068854E+02 -0.69290835909E+01  0.11449238389E+03  0.12413939840E+03  0.00000000000E+00 0.  1.
         12    1    6    6    0    0  0.20538298547E+02  0.26937994308E+02  0.28163527665E+02  0.44052940141E+02  0.00000000000E+00 0. -1.
         -5    1    3    3    0  503 -0.55953681252E+02 -0.18343812756E+02 -0.19131778348E+02  0.62092067568E+02  0.47000000000E+01 0.  1.
         11    1    4    4    0    0  0.35793451481E+02 -0.33094152927E+02 -0.11319135175E+03  0.12324234758E+03  0.00000000000E+00 0. -1.
        -12    1    4    4    0    0  0.44578554986E+02 -0.75879053024E+01 -0.95609277463E+01  0.46219424606E+02  0.00000000000E+00 0.  1.
</event>
<event>
12    1  0.8488291E-002  0.1986368E+03  0.7818608E-02  0.1151776E+00
         21   -1    0    0  501  502  0.00000000000E+00  0.00000000000E+00  0.65386042059E+02  0.65386042059E+02  0.00000000000E+00 0. -1.
         21   -1    0    0  502  503 -0.00000000000E+00 -0.00000000000E+00 -0.10011278135E+04  0.10011278135E+04  0.00000000000E+00 0. -1.
         -6    2    1    2    0  503 -0.94965494643E+02 -0.17994096954E+02 -0.81202661110E+03  0.83596878429E+03  0.17353489122E+03 0.  0.
        -24    2    3    3    0    0 -0.55835149554E+02 -0.80474273201E+02 -0.48080994397E+03  0.49661421026E+03  0.76510123754E+02 0.  0.
          6    2    1    2  501    0  0.94965494643E+02  0.17994096954E+02 -0.12371516032E+03  0.23054507125E+03  0.16882937033E+03 0.  0.
         24    2    5    5    0    0  0.19335478415E+02 -0.46796489321E+02 -0.50712265534E+02  0.10697633705E+03  0.79425629836E+02 0.  0.
          5    1    5    5  501    0  0.75630016229E+02  0.64790586275E+02 -0.73002894787E+02  0.12356873420E+03  0.47000000000E+01 0. -1.
        -11    1    6    6    0    0 -0.20724635075E+02  0.11272654266E+02 -0.14288075171E+02  0.27581376421E+02  0.00000000000E+00 0.  1.
         12    1    6    6    0    0  0.40060113489E+02 -0.58069143587E+02 -0.36424190363E+02  0.79394960629E+02  0.00000000000E+00 0. -1.
         -5    1    3    3    0  503 -0.39130345090E+02  0.62480176247E+02 -0.33121666713E+03  0.33935457403E+03  0.47000000000E+01 0.  1.
         11    1    4    4    0    0 -0.42779891766E+02 -0.48386363654E+00 -0.14643181655E+03  0.15255369600E+03  0.00000000000E+00 0. -1.
        -12    1    4    4    0    0 -0.13055257788E+02 -0.79990409565E+02 -0.33437812742E+03  0.34406051427E+03  0.00000000000E+00 0.  1.
</event>
<event>
12    1  0.8488291E-002  0.2443615E+03  0.7818608E-02  0.1117365E+00
         21   -1    0    0  501  502  0.00000000000E+00  0.00000000000E+00  0.23032875885E+03  0.23032875885E+03  0.00000000000E+00 0.  1.
         21   -1    0    0  502  503 -0.00000000000E+00 -0.00000000000E+00 -0.26828010523E+03  0.26828010523E+03  0.00000000000E+00 0. -1.
         -6    2    1    2    0  503 -0.13807600310E+03 -0.10413338082E+03 -0.71388515218E+02  0.25197027332E+03  0.16877190199E+03 0.  0.
        -24    2    3    3    0    0 -0.14484480070E+03 -0.12199190657E+03 -0.33215651943E+02  0.20902843995E+03  0.82021750866E+02 0.  0.
          6    2    1    2  501    0  0.13807600310E+03  0.10413338082E+03  0.33437168833E+02  0.24663859075E+03  0.17263779006E+03 0.  0.
         24    2    5    5    0    0  0.48902426296E+02  0.19903354502E+02 -0.41644676443E+02  0.10274280338E+03  0.77680201802E+02 0.  0.
          5    1    5    5  501    0  0.89173576807E+02  0.84230026317E+02  0.75081845276E+02  0.14389578737E+03  0.47000000000E+01 0. -1.
        -11    1    6    6    0    0 -0.19565320228E+02  0.81547502318E+01  0.10159688816E+01  0.21221072068E+02  0.00000000000E+00 0.  1.
         12    1    6    6    0    0  0.68467746524E+02  0.11748604270E+02 -0.42660645324E+02  0.81521731311E+02  0.00000000000E+00 0. -1.
         -5    1    3    3    0  503  0.67687975999E+01  0.17858525750E+02 -0.38172863275E+02  0.42941833374E+02  0.47000000000E+01 0.  1.
         11    1    4    4    0    0 -0.81967609036E+02 -0.11452896404E+03 -0.86256489943E+01  0.14110270854E+03  0.00000000000E+00 0. -1.
        -12    1    4    4    0    0 -0.62877191666E+02 -0.74629425256E+01 -0.24590002949E+02  0.67925731413E+02  0.00000000000E+00 0.  1.
</event>
<event>
12    1  0.8488291E-002  0.2549758E+03  0.7818608E-02  0.1110221E+00
         21   -1    0    0  501  502  0.00000000000E+00  0.00000000000E+00  0.84490713250E+03  0.84490713250E+03  0.00000000000E+00 0. -1.
         21   -1    0    0  502  503 -0.00000000000E+00 -0.00000000000E+00 -0.17613947067E+03  0.17613947067E+03  0.00000000000E+00 0.  1.
         -6    2    1    2    0  503  0.11091882180E+03 -0.15237109166E+03 -0.48770291540E+02  0.25959819679E+03  0.17173452721E+03 0.  0.
        -24    2    3    3    0    0  0.11171510617E+03 -0.13277550353E+03 -0.88467845388E+02  0.21507172236E+03  0.91212317197E+02 0.  0.
          6    2    1    2  501    0 -0.11091882180E+03  0.15237109166E+03  0.71753795336E+03  0.76144840638E+03  0.17153141537E+03 0.  0.
         24    2    5    5    0    0 -0.77934034868E+02  0.12989892781E+03  0.69186222164E+03  0.71375849637E+03  0.88489616206E+02 0.  0.
          5    1    5    5  501    0 -0.32984786930E+02  0.22472163851E+02  0.25675731724E+02  0.47689910007E+02  0.47000000000E+01 0. -1.
        -11    1    6    6    0    0  0.98316835171E+01  0.62839935075E+02  0.29732402810E+03  0.30405114229E+03  0.00000000000E+00 0.  1.
         12    1    6    6    0    0 -0.87765718385E+02  0.67058992735E+02  0.39453819354E+03  0.40970735408E+03  0.00000000000E+00 0. -1.
         -5    1    3    3    0  503 -0.79628437266E+00 -0.19595588134E+02  0.39697553848E+02  0.44526474424E+02  0.47000000000E+01 0.  1.
         13    1    4    4    0    0  0.30164216579E+02  0.96564254324E+01 -0.10497324737E+02  0.33366455319E+02  0.00000000000E+00 0. -1.
        -14    1    4    4    0    0  0.81550889591E+02 -0.14243192896E+03 -0.77970520651E+02  0.18170526704E+03  0.00000000000E+00 0.  1.
</event>
<event>
12    1  0.8488291E-002  0.1722196E+03  0.7818608E-02  0.1175583E+00
         21   -1    0    0  501  502  0.00000000000E+00  0.00000000000E+00  0.11438600462E+04  0.11438600462E+04  0.00000000000E+00 0. -1.
         21   -1    0    0  502  503 -0.00000000000E+00 -0.00000000000E+00 -0.32667207545E+02  0.32667207545E+02  0.00000000000E+00 0. -1.
         -6    2    1    2    0  503 -0.72278581086E+01 -0.10966139853E+02  0.28793623472E+03  0.33544995939E+03  0.17160099602E+03 0.  0.
        -24    2    3    3    0    0 -0.66569429625E+02 -0.15684340043E+02  0.22742569562E+03  0.25043643773E+03  0.79488834635E+02 0.  0.
          6    2    1    2  501    0  0.72278581086E+01  0.10966139853E+02  0.82325660396E+03  0.84107729438E+03  0.17171802759E+03 0.  0.
         24    2    5    5    0    0 -0.38726041868E+02  0.32855873650E+02  0.29804729669E+03  0.31338625996E+03  0.82459336115E+02 0.  0.
          5    1    5    5  501    0  0.45953899976E+02 -0.21889733797E+02  0.52520930726E+03  0.52769103442E+03  0.47000000000E+01 0. -1.
        -13    1    6    6    0    0 -0.43179602158E+01  0.31883206380E+02  0.32912169535E+02  0.46026020173E+02  0.00000000000E+00 0.  1.
         14    1    6    6    0    0 -0.34408081652E+02  0.97266726986E+00  0.26513512716E+03  0.26736023978E+03  0.00000000000E+00 0. -1.
         -5    1    3    3    0  503  0.59341571516E+02  0.47182001901E+01  0.60510539103E+02  0.85013521664E+02  0.47000000000E+01 0.  1.
         13    1    4    4    0    0 -0.47588488473E+02 -0.31922239864E+01  0.41784566279E+02  0.63409813975E+02  0.00000000000E+00 0. -1.
        -14    1    4    4    0    0 -0.18980941152E+02 -0.12492116057E+02  0.18564112934E+03  0.18702662376E+03  0.00000000000E+00 0.  1.
</event>
<event>
12    1  0.8488291E-002  0.1894406E+03  0.7818608E-02  0.1159160E+00
         21   -1    0    0  503  502  0.00000000000E+00  0.00000000000E+00  0.10265359459E+04  0.10265359459E+04  0.00000000000E+00 0.  1.
         21   -1    0    0  501  503 -0.00000000000E+00 -0.00000000000E+00 -0.34855904298E+02  0.34855904298E+02  0.00000000000E+00 0. -1.
          6    2    1    2  501    0 -0.54243226206E+02  0.62327360765E+02  0.47415254910E+03  0.51028166640E+03  0.16952790848E+03 0.  0.
         24    2    3    3    0    0 -0.27052929345E+02  0.91273154771E+02  0.21283808200E+03  0.24592487729E+03  0.78207073530E+02 0.  0.
         -6    2    1    2    0  502  0.54243226206E+02 -0.62327360765E+02  0.51752749252E+03  0.55111018381E+03  0.17047199683E+03 0.  0.
        -24    2    5    5    0    0  0.80059992309E+00 -0.29593032229E+02  0.11115380710E+03  0.13990547474E+03  0.79636577725E+02 0.  0.
          5    1    3    3  501    0 -0.27190296861E+02 -0.28945794006E+02  0.26131446710E+03  0.26435678911E+03  0.47000000000E+01 0. -1.
        -13    1    4    4    0    0 -0.49307674742E+02  0.72270547543E+02  0.18868281191E+03  0.20797952385E+03  0.00000000000E+00 0.  1.
         14    1    4    4    0    0  0.22254745398E+02  0.19002607228E+02  0.24155270090E+02  0.37945353435E+02  0.00000000000E+00 0. -1.
         -5    1    5    5    0  502  0.53442626283E+02 -0.32734328536E+02  0.40637368541E+03  0.41120470908E+03  0.47000000000E+01 0.  1.
         11    1    6    6    0    0  0.79684771061E+00 -0.50706297310E+02  0.10696925602E+03  0.11838152426E+03  0.00000000000E+00 0. -1.
        -12    1    6    6    0    0  0.37522124798E-02  0.21113265081E+02  0.41845510853E+01  0.21523950479E+02  0.00000000000E+00 0.  1.
</event>
<event>
12    1  0.8488291E-002  0.1825511E+03  0.7818608E-02  0.1167251E+00
         21   -1    0    0  501  502  0.00000000000E+00  0.00000000000E+00  0.50027491287E+02  0.50027491287E+02  0.00000000000E+00 0. -1.
         21   -1    0    0  502  503 -0.00000000000E+00 -0.00000000000E+00 -0.64426877938E+03  0.64426877938E+03  0.00000000000E+00 0. -1.
         -6    2    1    2    0  503  0.31430527038E+02 -0.98109920471E+01 -0.25648737257E+03  0.31036578600E+03  0.17163046127E+03 0.  0.
        -24    2    3    3    0    0 -0.47029550439E+02 -0.16663233923E+02 -0.11148527816E+03  0.14528812440E+03  0.78678013867E+02 0.  0.
          6    2    1    2  501    0 -0.31430527038E+02  0.98109920471E+01 -0.33775391553E+03  0.38393048467E+03  0.17955716641E+03 0.  0.
         24    2    5    5    0    0 -0.57779356933E+02 -0.51055580063E+02 -0.16796060402E+03  0.20158230379E+03  0.80495554880E+02 0.  0.
          5    1    5    5  501    0  0.26348829895E+02  0.60866572110E+02 -0.16979331151E+03  0.18234818088E+03  0.47000000000E+01 0. -1.
        -13    1    6    6    0    0 -0.28794241172E+01 -0.26403294021E+02 -0.39157649401E+01  0.26846940858E+02  0.00000000000E+00 0.  1.
         14    1    6    6    0    0 -0.54899932816E+02 -0.24652286042E+02 -0.16404483908E+03  0.17473536293E+03  0.00000000000E+00 0. -1.
         -5    1    3    3    0  503  0.78460077477E+02  0.68522418756E+01 -0.14500209440E+03  0.16507766160E+03  0.47000000000E+01 0.  1.
         13    1    4    4    0    0  0.28766385445E+01 -0.38559283555E+02 -0.46315761260E+02  0.60334427474E+02  0.00000000000E+00 0. -1.
        -14    1    4    4    0    0 -0.49906188984E+02  0.21896049632E+02 -0.65169516903E+02  0.84953696928E+02  0.00000000000E+00 0.  1.
</event>
<event>
12    1  0.8488291E-002  0.2638281E+03  0.7818608E-02  0.1105606E+00
         21   -1    0    0  503  502  0.00000000000E+00  0.00000000000E+00  0.11448460905E+03  0.11448460905E+03  0.00000000000E+00 0. -1.
         21   -1    0    0  501  503 -0.00000000000E+00 -0.00000000000E+00 -0.66336047742E+03  0.66336047742E+03  0.00000000000E+00 0.  1.
          6    2    1    2  501    0  0.19177995298E+03  0.23974741983E+02 -0.14868849748E+03  0.29851724804E+03  0.17219157784E+03 0.  0.
         24    2    3    3    0    0  0.12729213481E+03  0.60337613899E+02 -0.39975751707E+02  0.16690612298E+03  0.80097927117E+02 0.  0.
         -6    2    1    2    0  502 -0.19177995298E+03 -0.23974741983E+02 -0.40018737090E+03  0.47932783843E+03  0.17958537315E+03 0.  0.
        -24    2    5    5    0    0 -0.11250247373E+03 -0.64134722641E+02 -0.14991807513E+03  0.21370676780E+03  0.80156622349E+02 0.  0.
          5    1    3    3  501    0  0.64487818167E+02 -0.36362871916E+02 -0.10871274577E+03  0.13161112506E+03  0.47000000000E+01 0. -1.
        -11    1    4    4    0    0  0.36544758999E+02  0.17524235002E+01 -0.45936944380E+02  0.58726427248E+02  0.00000000000E+00 0.  1.
         12    1    4    4    0    0  0.90747375812E+02  0.58585190399E+02  0.59611926729E+01  0.10817969573E+03  0.00000000000E+00 0. -1.
         -5    1    5    5    0  502 -0.79277479247E+02  0.40159980658E+02 -0.25026929576E+03  0.26562107063E+03  0.47000000000E+01 0.  1.
         11    1    6    6    0    0 -0.20406721388E+02 -0.54817975337E+02 -0.45059757718E+02  0.73836484636E+02  0.00000000000E+00 0. -1.
        -12    1    6    6    0    0 -0.92095752342E+02 -0.93167473032E+01 -0.10485831742E+03  0.13987028316E+03  0.00000000000E+00 0.  1.
</event>
<event>
12    1  0.8488291E-002  0.1995873E+03  0.7818608E-02  0.1150272E+00
         21   -1    0    0  501  502  0.00000000000E+00  0.00000000000E+00  0.78945214430E+02  0.78945214430E+02  0.00000000000E+00 0. -1.
         21   -1    0    0  502  503 -0.00000000000E+00 -0.00000000000E+00 -0.55009540634E+03  0.55009540634E+03  0.00000000000E+00 0. -1.
         -6    2    1    2    0  503 -0.60746336479E+02  0.79031515500E+02 -0.32866031644E+03  0.38451619944E+03  0.17291329096E+03 0.  0.
        -24    2    3    3    0    0 -0.10565606875E+03  0.78193744056E+02 -0.26424484552E+03  0.30584581869E+03  0.80242507115E+02 0.  0.
          6    2    1    2  501    0  0.60746336479E+02 -0.79031515500E+02 -0.14248987547E+03  0.24452442133E+03  0.17190907532E+03 0.  0.
         24    2    5    5    0    0  0.47224498702E+02  0.17658838279E+02 -0.13478309732E+02  0.82666648258E+02  0.64110233614E+02 0.  0.
          5    1    5    5  501    0  0.13521837777E+02 -0.96690353778E+02 -0.12901156574E+03  0.16185777307E+03  0.47000000000E+01 0. -1.
        -11    1    6    6    0    0  0.44421704339E+02  0.33112973378E+01  0.17933751672E+02  0.48019495577E+02  0.00000000000E+00 0.  1.
         12    1    6    6    0    0  0.28027943632E+01  0.14347540941E+02 -0.31412061404E+02  0.34647152681E+02  0.00000000000E+00 0. -1.
         -5    1    3    3    0  503  0.44909732276E+02  0.83777144381E+00 -0.64415470918E+02  0.78670380752E+02  0.47000000000E+01 0.  1.
         11    1    4    4    0    0 -0.75169210876E+02  0.77083731492E+02 -0.13308036398E+03  0.17118030028E+03  0.00000000000E+00 0. -1.
        -12    1    4    4    0    0 -0.30486857879E+02  0.11100125637E+01 -0.13116448154E+03  0.13466551841E+03  0.00000000000E+00 0.  1.
</event>
<event>
12    1  0.8488291E-002  0.2497628E+03  0.7818608E-02  0.1113699E+00
         21   -1    0    0  503  502  0.00000000000E+00  0.00000000000E+00  0.13692667499E+04  0.13692667499E+04  0.00000000000E+00 0. -1.
         21   -1    0    0  501  503 -0.00000000000E+00 -0.00000000000E+00 -0.46228788970E+02  0.46228788970E+02  0.00000000000E+00 0. -1.
          6    2    1    2  501    0  0.16677688967E+03  0.60922451213E+02  0.76504091629E+03  0.80477890229E+03  0.17565705788E+03 0.  0.
         24    2    3    3    0    0  0.97569868017E+02  0.22695328206E+02  0.66304186529E+03  0.67564013513E+03  0.82644540044E+02 0.  0.
         -6    2    1    2    0  502 -0.16677688967E+03 -0.60922451213E+02  0.55799704468E+03  0.61071663661E+03  0.17345902220E+03 0.  0.
        -24    2    5    5    0    0 -0.18920577193E+03 -0.77261588331E+02  0.50632914887E+03  0.55188056250E+03  0.80217025013E+02 0.  0.
          5    1    3    3  501    0  0.69207021652E+02  0.38227123008E+02  0.10199905100E+03  0.12913876716E+03  0.47000000000E+01 0. -1.
        -11    1    4    4    0    0  0.43714676736E+02 -0.29431497372E+02  0.21446410859E+03  0.22084392650E+03  0.00000000000E+00 0.  1.
         12    1    4    4    0    0  0.53855191282E+02  0.52126825578E+02  0.44857775670E+03  0.45479620863E+03  0.00000000000E+00 0. -1.
         -5    1    5    5    0  502  0.22428882255E+02  0.16339137118E+02  0.51667895803E+02  0.58836074119E+02  0.47000000000E+01 0.  1.
         11    1    6    6    0    0 -0.84798402368E+02 -0.23240532458E+02  0.31749692846E+03  0.32944679536E+03  0.00000000000E+00 0. -1.
        -12    1    6    6    0    0 -0.10440736956E+03 -0.54021055874E+02  0.18883222042E+03  0.22243376714E+03  0.00000000000E+00 0.  1.
</event>
<event>
12    1  0.8488291E-002  0.2216906E+03  0.7818608E-02  0.1133580E+00
         21   -1    0    0  503  502  0.00000000000E+00  0.00000000000E+00  0.17728487004E+03  0.17728487004E+03  0.00000000000E+00 0.  1.
         21   -1    0    0  501  503 -0.00000000000E+00 -0.00000000000E+00 -0.43989403394E+03  0.43989403394E+03  0.00000000000E+00 0. -1.
          6    2    1    2  501    0  0.13164666395E+03 -0.19311020165E+02 -0.32350928857E+03  0.39217980019E+03  0.17732167452E+03 0.  0.
         24    2    3    3    0    0  0.27055719094E+02 -0.54457558347E+02 -0.91526452109E+02  0.13525048830E+03  0.78854077598E+02 0.  0.
         -6    2    1    2    0  502 -0.13164666395E+03  0.19311020165E+02  0.60900124669E+02  0.22499910380E+03  0.17091521845E+03 0.  0.
        -24    2    5    5    0    0 -0.64543258545E+02  0.77517809271E+02  0.33013131570E+02  0.13177533162E+03  0.78102677231E+02 0.  0.
          5    1    3    3  501    0  0.10459094486E+03  0.35146538182E+02 -0.23198283646E+03  0.25692931188E+03  0.47000000000E+01 0. -1.
        -11    1    4    4    0    0  0.27701195540E+02  0.13824036981E+02 -0.33793295001E+02  0.45830634076E+02  0.00000000000E+00 0.  1.
         12    1    4    4    0    0 -0.64547644537E+00 -0.68281595329E+02 -0.57733157108E+02  0.89419854228E+02  0.00000000000E+00 0. -1.
         -5    1    5    5    0  502 -0.67103405406E+02 -0.58206789106E+02  0.27886993099E+02  0.93223772179E+02  0.47000000000E+01 0.  1.
         13    1    6    6    0    0 -0.33190221315E+02  0.17837676636E+02 -0.22984692410E+02  0.44136941261E+02  0.00000000000E+00 0. -1.
        -14    1    6    6    0    0 -0.31353037230E+02  0.59680132635E+02  0.55997823980E+02  0.87638390363E+02  0.00000000000E+00 0.  1.
</event>
<event>
12    1  0.8488291E-002  0.1879508E+03  0.7818608E-02  0.1160491E+00
         21   -1    0    0  503  502  0.00000000000E+00  0.00000000000E+00  0.24503538848E+03  0.24503538848E+03  0.00000000000E+00 0.  1.
         21   -1    0    0  501  503 -0.00000000000E+00 -0.00000000000E+00 -0.14383263631E+03  0.14383263631E+03  0.00000000000E+00 0.  1.
          6    2    1    2  501    0  0.35016427390E+02 -0.67442599316E+02  0.42927539605E+02  0.19279074127E+03  0.17190358308E+03 0.  0.
         24    2    3    3    0    0  0.52291164103E+00 -0.48168438309E+02 -0.39119842789E+02  0.10160324833E+03  0.80451140988E+02 0.  0.
         -6    2    1    2    0  502 -0.35016427390E+02  0.67442599316E+02  0.58275212558E+02  0.19607728351E+03  0.17110127505E+03 0.  0.
        -24    2    5    5    0    0 -0.47278614417E+02  0.53902454978E+02 -0.24034069252E+02  0.11163437611E+03  0.82120980327E+02 0.  0.
          5    1    3    3  501    0  0.34493515749E+02 -0.19274161007E+02  0.82047382394E+02  0.91187492941E+02  0.47000000000E+01 0. -1.
        -13    1    4    4    0    0 -0.37224121124E+02 -0.36724366831E+02 -0.32610729917E+02  0.61626082289E+02  0.00000000000E+00 0.  1.
         14    1    4    4    0    0  0.37747032765E+02 -0.11444071478E+02 -0.65091128714E+01  0.39977166044E+02  0.00000000000E+00 0. -1.
         -5    1    5    5    0  502  0.12262187027E+02  0.13540144338E+02  0.82309281810E+02  0.84442907408E+02  0.47000000000E+01 0.  1.
         11    1    6    6    0    0 -0.70259315057E+02  0.47026579998E+02 -0.14293500270E+02  0.85744823334E+02  0.00000000000E+00 0. -1.
        -12    1    6    6    0    0  0.22980700640E+02  0.68758749801E+01 -0.97405689828E+01  0.25889552772E+02  0.00000000000E+00 0.  1.
</event>
<event>
12    1  0.8488291E-002  0.2035015E+03  0.7818608E-02  0.1146978E+00
         21   -1    0    0  501  502  0.00000000000E+00  0.00000000000E+00  0.88757290437E+02  0.88757290437E+02  0.00000000000E+00 0. -1.
         21   -1    0    0  502  503 -0.00000000000E+00 -0.00000000000E+00 -0.47721548676E+03  0.47721548676E+03  0.00000000000E+00 0.  1.
         -6    2    1    2    0  503  0.66279736261E+02  0.84420732066E+02 -0.24021731362E+03  0.31482886688E+03  0.17289590573E+03 0.  0.
        -24    2    3    3    0    0 -0.32792156606E+02  0.43091868336E+02 -0.11154621080E+03  0.14719337651E+03  0.79316444017E+02 0.  0.
          6    2    1    2  501    0 -0.66279736261E+02 -0.84420732066E+02 -0.14824088270E+03  0.25114391031E+03  0.17198267628E+03 0.  0.
         24    2    5    5    0    0 -0.80027809203E+02 -0.78687087859E+02 -0.41995762176E+02  0.14375676108E+03  0.79411927776E+02 0.  0.
          5    1    5    5  501    0  0.13748072942E+02 -0.57336442069E+01 -0.10624512052E+03  0.10738714923E+03  0.47000000000E+01 0. -1.
        -11    1    6    6    0    0 -0.38268506824E+02  0.37708009161E+01 -0.33391027274E+02  0.50927971259E+02  0.00000000000E+00 0.  1.
         12    1    6    6    0    0 -0.41759302379E+02 -0.82457888775E+02 -0.86047349014E+01  0.92828789818E+02  0.00000000000E+00 0. -1.
         -5    1    3    3    0  503  0.99071892867E+02  0.41328863730E+02 -0.12867110281E+03  0.16763549037E+03  0.47000000000E+01 0.  1.
         13    1    4    4    0    0  0.20150498495E+02 -0.45925484284E+01 -0.95302815035E+01  0.22758742413E+02  0.00000000000E+00 0. -1.
        -14    1    4    4    0    0 -0.52942655101E+02  0.47684416765E+02 -0.10201592930E+03  0.12443463410E+03  0.00000000000E+00 0.  1.
</event>
<event>
12    1  0.8488291E-002  0.1803319E+03  0.7818608E-02  0.1168332E+00
         21   -1    0    0  501  502  0.00000000000E+00  0.00000000000E+00  0.87712826524E+02  0.87712826524E+02  0.00000000000E+00 0. -1.
         21   -1    0    0  502  503 -0.00000000000E+00 -0.00000000000E+00 -0.38106240216E+03  0.38106240216E+03  0.00000000000E+00 0. -1.
         -6    2    1    2    0  503  0.19875144338E+02 -0.45486842794E+02 -0.95175339730E+02  0.20083378235E+03  0.16974035645E+03 0.  0.
        -24    2    3    3    0    0 -0.40784520062E+02 -0.65318068157E+02 -0.51260267138E+02  0.12322259768E+03  0.81402496813E+02 0.  0.
          6    2    1    2  501    0 -0.19875144338E+02  0.45486842794E+02 -0.19817423591E+03  0.26794144634E+03  0.17336526947E+03 0.  0.
         24    2    5    5    0    0 -0.67550042813E+02  0.23265424801E+02 -0.67586923187E+02  0.12708043823E+03  0.80480788512E+02 0.  0.
          5    1    5    5  501    0  0.47674898475E+02  0.22221417993E+02 -0.13058731272E+03  0.14086100811E+03  0.47000000000E+01 0. -1.
        -13    1    6    6    0    0  0.10306869199E+02 -0.15234116632E+02 -0.22996381652E+02  0.29447299219E+02  0.00000000000E+00 0.  1.
         14    1    6    6    0    0 -0.77856912012E+02  0.38499541433E+02 -0.44590541536E+02  0.97633139010E+02  0.00000000000E+00 0. -1.
         -5    1    3    3    0  503  0.60659664401E+02  0.19831225363E+02 -0.43915072592E+02  0.77611184667E+02  0.47000000000E+01 0.  1.
         13    1    4    4    0    0  0.62030481115E+01 -0.38844557292E+02 -0.56708254593E+02  0.69015966095E+02  0.00000000000E+00 0. -1.
        -14    1    4    4    0    0 -0.46987568174E+02 -0.26473510865E+02  0.54479874549E+01  0.54206631584E+02  0.00000000000E+00 0.  1.
</event>
<event>
12    1  0.8488291E-002  0.1756353E+03  0.7818608E-02  0.1172277E+00
         21   -1    0    0  501  502  0.00000000000E+00  0.00000000000E+00  0.19926879497E+02  0.19926879497E+02  0.00000000000E+00 0. -1.
         21   -1    0    0  502  503 -0.00000000000E+00 -0.00000000000E+00 -0.16450683519E+04  0.16450683519E+04  0.00000000000E+00 0. -1.
         -6    2    1    2    0  503 -0.12430102701E+02 -0.26400165699E+02 -0.10197040273E+04  0.10345967338E+04  0.17246049486E+03 0.  0.
        -24    2    3    3    0    0 -0.35680431386E+02  0.41285398806E+02 -0.72176097661E+03  0.72814271633E+03  0.79216984589E+02 0.  0.
          6    2    1    2  501    0  0.12430102701E+02  0.26400165699E+02 -0.60543744517E+03  0.63039849757E+03  0.17319436920E+03 0.  0.
         24    2    5    5    0    0 -0.49948524538E+02  0.33363729569E+02 -0.48221757288E+03  0.49203372139E+03  0.77171250113E+02 0.  0.
          5    1    5    5  501    0  0.62378627239E+02 -0.69635638702E+01 -0.12321987229E+03  0.13836477618E+03  0.47000000000E+01 0. -1.
        -11    1    6    6    0    0  0.14480581452E+02  0.24537513921E+02 -0.22165065358E+03  0.22347435884E+03  0.00000000000E+00 0.  1.
         12    1    6    6    0    0 -0.64429105991E+02  0.88262156478E+01 -0.26056691930E+03  0.26855936255E+03  0.00000000000E+00 0. -1.
         -5    1    3    3    0  503  0.23250328686E+02 -0.67685564505E+02 -0.29794305064E+03  0.30645401752E+03  0.47000000000E+01 0.  1.
         11    1    4    4    0    0  0.17273421815E+02 -0.86758012412E+01 -0.25572493004E+03  0.25645444132E+03  0.00000000000E+00 0. -1.
        -12    1    4    4    0    0 -0.52953853201E+02  0.49961200047E+02 -0.46603604657E+03  0.47168827501E+03  0.00000000000E+00 0.  1.
</event>
<event>
12    1  0.8488291E-002  0.1903075E+03  0.7818608E-02  0.1158280E+00
         21   -1    0    0  501  502  0.00000000000E+00  0.00000000000E+00  0.26152447953E+02  0.26152447953E+02  0.00000000000E+00 0. -1.
         21   -1    0    0  502  503 -0.00000000000E+00 -0.00000000000E+00 -0.14251279957E+04  0.14251279957E+04  0.00000000000E+00 0. -1.
         -6    2    1    2    0  503  0.39706379335E+02 -0.71765097469E+02 -0.57215314584E+03  0.60283939151E+03  0.17125794546E+03 0.  0.
        -24    2    3    3    0    0 -0.33903810665E+02 -0.62841023243E+02 -0.42061185724E+03  0.43406453757E+03  0.79995160733E+02 0.  0.
          6    2    1    2  501    0 -0.39706379335E+02  0.71765097469E+02 -0.82682240193E+03  0.84844105217E+03  0.17172684385E+03 0.  0.
         24    2    5    5    0    0 -0.75428828282E+02  0.43035875220E+02 -0.32774790882E+03  0.34724358485E+03  0.74952123353E+02 0.  0.
          5    1    5    5  501    0  0.35722448947E+02  0.28729222248E+02 -0.49907449312E+03  0.50119746732E+03  0.47000000000E+01 0. -1.
        -13    1    6    6    0    0 -0.34021419618E-02 -0.25553822157E+00 -0.14352365588E+03  0.14352388341E+03  0.00000000000E+00 0.  1.
         14    1    6    6    0    0 -0.75425426140E+02  0.43291413442E+02 -0.18422425293E+03  0.20371970144E+03  0.00000000000E+00 0. -1.
         -5    1    3    3    0  503  0.73610190000E+02 -0.89240742258E+01 -0.15154128860E+03  0.16877485394E+03  0.47000000000E+01 0.  1.
         13    1    4    4    0    0  0.10242769853E+02 -0.62115579794E+02 -0.25725975650E+03  0.26485060299E+03  0.00000000000E+00 0. -1.
        -14    1    4    4    0    0 -0.44146580518E+02 -0.72544344918E+00 -0.16335210074E+03  0.16921393458E+03  0.00000000000E+00 0.  1.
</event>
<event>
12    1  0.8488291E-002  0.2071291E+03  0.7818608E-02  0.1144017E+00
         21   -1    0    0  501  502  0.00000000000E+00  0.00000000000E+00  0.13905179061E+03  0.13905179061E+03  0.00000000000E+00 0.  1.
         21   -1    0    0  502  503 -0.00000000000E+00 -0.00000000000E+00 -0.30955279001E+03  0.30955279001E+03  0.00000000000E+00 0.  1.
         -6    2    1    2    0  503  0.11177915107E+03 -0.32748334985E+02 -0.66604442566E+02  0.21757442762E+03  0.17127594031E+03 0.  0.
        -24    2    3    3    0    0  0.69435285724E+02 -0.53634425689E+00  0.27707467818E+02  0.10918881179E+03  0.79579810750E+02 0.  0.
          6    2    1    2  501    0 -0.11177915107E+03  0.32748334985E+02 -0.10389655683E+03  0.23103015299E+03  0.17033321759E+03 0.  0.
         24    2    5    5    0    0 -0.99698630732E+02  0.13893873783E+02 -0.13912994322E+03  0.18901930683E+03  0.78982913074E+02 0.  0.
          5    1    5    5  501    0 -0.12080520336E+02  0.18854461201E+02  0.35233386390E+02  0.42010846162E+02  0.47000000000E+01 0. -1.
        -13    1    6    6    0    0 -0.85394739231E+02 -0.96887759944E+01 -0.58921735310E+02  0.10420127044E+03  0.00000000000E+00 0.  1.
         14    1    6    6    0    0 -0.14303891501E+02  0.23582649778E+02 -0.80208207906E+02  0.84818036396E+02  0.00000000000E+00 0. -1.
         -5    1    3    3    0  503  0.42343865344E+02 -0.32211990728E+02 -0.94311910384E+02  0.10838561583E+03  0.47000000000E+01 0.  1.
         11    1    4    4    0    0 -0.12269688536E+02 -0.12220741725E+02 -0.82234238952E+01  0.19170719487E+02  0.00000000000E+00 0. -1.
        -12    1    4    4    0    0  0.81704974260E+02  0.11684397468E+02  0.35930891713E+02  0.90018092306E+02  0.00000000000E+00 0.  1.
</event>
<event>
12    1  0.8488291E-002  0.2401812E+03  0.7818608E-02  0.1119896E+00
         21   -1    0    0  501  502  0.00000000000E+00  0.00000000000E+00  0.14416541857E+03  0.14416541857E+03  0.00000000000E+00 0. -1.
         21   -1    0    0  502  503 -0.00000000000E+00 -0.00000000000E+00 -0.40697330551E+03  0.40697330551E+03  0.00000000000E+00 0. -1.
         -6    2    1    2    0  503 -0.16120692488E+03 -0.41890774902E+02 -0.17287526681E+03  0.29592712158E+03  0.17304477386E+03 0.  0.
        -24    2    3    3    0    0 -0.11362632886E+03 -0.74981672738E+01 -0.18936882283E+03  0.23476429000E+03  0.79287802820E+02 0.  0.
          6    2    1    2  501    0  0.16120692488E+03  0.41890774902E+02 -0.89932620129E+02  0.25521160250E+03  0.17117995279E+03 0.  0.
         24    2    5    5    0    0  0.30451028888E+02 -0.10141282517E+02 -0.72300647005E+02  0.11330523967E+03  0.81120792702E+02 0.  0.
          5    1    5    5  501    0  0.13075589599E+03  0.52032057419E+02 -0.17631973125E+02  0.14190636283E+03  0.47000000000E+01 0. -1.
        -11    1    6    6    0    0 -0.23704285519E+02 -0.13568654243E+02 -0.66113885686E+01  0.28101814687E+02  0.00000000000E+00 0.  1.
         12    1    6    6    0    0  0.54155314407E+02  0.34273717257E+01 -0.65689258436E+02  0.85203424986E+02  0.00000000000E+00 0. -1.
         -5    1    3    3    0  503 -0.47580596017E+02 -0.34392607628E+02  0.16493556015E+02  0.61162831580E+02  0.47000000000E+01 0.  1.
         13    1    4    4    0    0 -0.90308365324E+02 -0.16147173373E+02 -0.77288147384E+02  0.11995744988E+03  0.00000000000E+00 0. -1.
        -14    1    4    4    0    0 -0.23317963536E+02  0.86490060995E+01 -0.11208067544E+03  0.11480684012E+03  0.00000000000E+00 0.  1.
</event>
<event>
12    1  0.8488291E-002  0.2000496E+03  0.7818608E-02  0.1151749E+00
         21   -1    0    0  501  502  0.00000000000E+00  0.00000000000E+00  0.14135239003E+04  0.14135239003E+04  0.00000000000E+00 0. -1.
         21   -1    0    0  502  503 -0.00000000000E+00 -0.00000000000E+00 -0.77149699621E+02  0.77149699621E+02  0.00000000000E+00 0. -1.
         -6    2    1    2    0  503 -0.51894119969E+02  0.83390679171E+02  0.72915383304E+02  0.21292369138E+03  0.17427805418E+03 0.  0.
        -24    2    3    3    0    0 -0.95410441931E+02  0.89415060622E+02  0.71918563252E+02  0.16873039892E+03  0.78736664155E+02 0.  0.
          6    2    1    2  501    0  0.51894119969E+02 -0.83390679171E+02  0.12634588174E+04  0.12777499085E+04  0.16330842141E+03 0.  0.
         24    2    5    5    0    0  0.44052887117E+02 -0.57126426983E+02  0.39735917958E+03  0.41120390949E+03  0.77396718663E+02 0.  0.
          5    1    5    5  501    0  0.78412328522E+01 -0.26264252188E+02  0.86609963778E+03  0.86654599903E+03  0.47000000000E+01 0. -1.
        -11    1    6    6    0    0  0.29860299261E+02  0.69884955345E+01  0.58607630118E+02  0.66146283719E+02  0.00000000000E+00 0.  1.
         12    1    6    6    0    0  0.14192587855E+02 -0.64114922517E+02  0.33875154946E+03  0.34505762577E+03  0.00000000000E+00 0. -1.
         -5    1    3    3    0  503  0.43516321962E+02 -0.60243814510E+01  0.99682005244E+00  0.44193292469E+02  0.47000000000E+01 0.  1.
         11    1    4    4    0    0 -0.16467714724E+02  0.68539338189E+02  0.26603699865E+02  0.75343104224E+02  0.00000000000E+00 0. -1.
        -12    1    4    4    0    0 -0.78942727207E+02  0.20875722433E+02  0.45314863387E+02  0.93387294691E+02  0.00000000000E+00 0.  1.
</event>
<event>
12    1  0.8488291E-002  0.1775265E+03  0.7818608E-02  0.1170811E+00
         21   -1    0    0  501  502  0.00000000000E+00  0.00000000000E+00  0.14301213056E+03  0.14301213056E+03  0.00000000000E+00 0. -1.
         21   -1    0    0  502  503 -0.00000000000E+00 -0.00000000000E+00 -0.48650926304E+03  0.48650926304E+03  0.00000000000E+00 0. -1.
         -6    2    1    2    0  503  0.31882719310E+02  0.36885527210E+02 -0.40635797933E+03  0.44344386008E+03  0.17070032153E+03 0.  0.
        -24    2    3    3    0    0 -0.23420564880E+02  0.54222604059E+02 -0.34515046954E+03  0.35901947539E+03  0.79230823760E+02 0.  0.
          6    2    1    2  501    0 -0.31882719310E+02 -0.36885527210E+02  0.62860846845E+02  0.18607753352E+03  0.16821507812E+03 0.  0.
         24    2    5    5    0    0 -0.80815790483E+02 -0.47869510911E+02  0.54041896123E+02  0.13494088087E+03  0.80410401857E+02 0.  0.
          5    1    5    5  501    0  0.48933071173E+02  0.10983983701E+02  0.88189507219E+01  0.51136652650E+02  0.47000000000E+01 0. -1.
        -13    1    6    6    0    0 -0.10302522503E+02 -0.10507463397E+02 -0.20838086829E+02  0.25510284586E+02  0.00000000000E+00 0.  1.
         14    1    6    6    0    0 -0.70513267980E+02 -0.37362047514E+02  0.74879982953E+02  0.10943059628E+03  0.00000000000E+00 0. -1.
         -5    1    3    3    0  503  0.55303284190E+02 -0.17337076849E+02 -0.61207509788E+02  0.84424384690E+02  0.47000000000E+01 0.  1.
         13    1    4    4    0    0 -0.15376781990E+02 -0.63133357017E+01 -0.21064769682E+03  0.21130252201E+03  0.00000000000E+00 0. -1.
        -14    1    4    4    0    0 -0.80437828898E+01  0.60535939761E+02 -0.13450277272E+03  0.14771695338E+03  0.00000000000E+00 0.  1.
</event>
<event>
12    1  0.8488291E-002  0.2022171E+03  0.7818608E-02  0.1148362E+00
         21   -1    0    0  501  502  0.00000000000E+00  0.00000000000E+00  0.16393734528E+03  0.16393734528E+03  0.00000000000E+00 0.  1.
         21   -1    0    0  502  503 -0.00000000000E+00 -0.00000000000E+00 -0.33791154438E+03  0.33791154438E+03  0.00000000000E+00 0. -1.
         -6    2    1    2    0  503 -0.15610750488E+02 -0.10057885812E+03 -0.21705239108E+03  0.29509422031E+03  0.17207282224E+03 0.  0.
        -24    2    3    3    0    0 -0.67624067991E+02 -0.60711074296E+02 -0.18851585488E+03  0.22346148140E+03  0.78345114817E+02 0.  0.
          6    2    1    2  501    0  0.15610750488E+02  0.10057885812E+03  0.43078191982E+02  0.20675466935E+03  0.17473397049E+03 0.  0.
         24    2    5    5    0    0  0.17295598259E+02 -0.73772246081E+01 -0.12286493884E+02  0.85326942077E+02  0.82317482653E+02 0.  0.
          5    1    5    5  501    0 -0.16848477704E+01  0.10795608272E+03  0.55364685866E+02  0.12142772727E+03  0.47000000000E+01 0. -1.
        -11    1    6    6    0    0  0.48174183563E+02 -0.16072061266E+02 -0.15473900686E+02  0.53089591426E+02  0.00000000000E+00 0.  1.
         12    1    6    6    0    0 -0.30878585304E+02  0.86948366581E+01  0.31874068018E+01  0.32237350652E+02  0.00000000000E+00 0. -1.
         -5    1    3    3    0  503  0.52013317503E+02 -0.39867783821E+02 -0.28536536205E+02  0.71632738905E+02  0.47000000000E+01 0.  1.
         11    1    4    4    0    0 -0.22255533666E+02  0.16051017670E+02 -0.69714238449E+02  0.74920084020E+02  0.00000000000E+00 0. -1.
        -12    1    4    4    0    0 -0.45368534325E+02 -0.76762091966E+02 -0.11880161643E+03  0.14854139738E+03  0.00000000000E+00 0.  1.
</event>
<event>
12    1  0.8488291E-002  0.2102156E+03  0.7818608E-02  0.1142207E+00
         21   -1    0    0  501  502  0.00000000000E+00  0.00000000000E+00  0.13969635057E+04  0.13969635057E+04  0.00000000000E+00 0.  1.
         21   -1    0    0  502  503 -0.00000000000E+00 -0.00000000000E+00 -0.84942960171E+02  0.84942960171E+02  0.00000000000E+00 0. -1.
         -6    2    1    2    0  503 -0.12146905173E+03 -0.11725815725E+02  0.68029205936E+02  0.22094922500E+03  0.17116764263E+03 0.  0.
        -24    2    3    3    0    0 -0.12641017968E+03  0.86702746060E+01 -0.11246962383E+01  0.14852845842E+03  0.77490198294E+02 0.  0.
          6    2    1    2  501    0  0.12146905173E+03  0.11725815725E+02  0.12439913396E+04  0.12609572408E+04  0.16615199378E+03 0.  0.
         24    2    5    5    0    0  0.50855941197E+02  0.30912249370E+02  0.10279127950E+04  0.10327767025E+04  0.80505337586E+02 0.  0.
          5    1    5    5  501    0  0.70613110534E+02 -0.19186433645E+02  0.21607854462E+03  0.22818053830E+03  0.47000000000E+01 0. -1.
        -11    1    6    6    0    0 -0.13984809068E+02  0.24597271365E+02  0.16502704760E+03  0.16743514291E+03  0.00000000000E+00 0.  1.
         12    1    6    6    0    0  0.64840750266E+02  0.63149780050E+01  0.86288574735E+03  0.86534155963E+03  0.00000000000E+00 0. -1.
         -5    1    3    3    0  503  0.49411279439E+01 -0.20396090331E+02  0.69153902175E+02  0.72420766581E+02  0.47000000000E+01 0.  1.
         11    1    4    4    0    0 -0.68627928885E+02 -0.37921079347E+01 -0.38315751771E+02  0.78690974956E+02  0.00000000000E+00 0. -1.
        -12    1    4    4    0    0 -0.57782250790E+02  0.12462382541E+02  0.37191055533E+02  0.69837483464E+02  0.00000000000E+00 0.  1.
</event>
<event>
12    1  0.8488291E-002  0.1911740E+03  0.7818608E-02  0.1157553E+00
         21   -1    0    0  501  502  0.00000000000E+00  0.00000000000E+00  0.11451646660E+04  0.11451646660E+04  0.00000000000E+00 0.  1.
         21   -1    0    0  502  503 -0.00000000000E+00 -0.00000000000E+00 -0.36256466016E+02  0.36256466016E+02  0.00000000000E+00 0.  1.
         -6    2    1    2    0  503  0.79364495565E+02  0.23685456004E+02  0.34666473155E+03  0.39556962386E+03  0.17157845797E+03 0.  0.
        -24    2    3    3    0    0  0.18552762835E+01 -0.21497584024E+01  0.27609281653E+03  0.28750657482E+03  0.80154374293E+02 0.  0.
          6    2    1    2  501    0 -0.79364495565E+02 -0.23685456004E+02  0.76224346840E+03  0.78585150812E+03  0.17230137467E+03 0.  0.
         24    2    5    5    0    0 -0.76452740068E+02 -0.78816553477E+02  0.57118392966E+03  0.58691997826E+03  0.78529668370E+02 0.  0.
          5    1    5    5  501    0 -0.29117554964E+01  0.55131097472E+02  0.19105953874E+03  0.19893152985E+03  0.47000000000E+01 0. -1.
        -13    1    6    6    0    0 -0.26146454731E+02 -0.73831551924E+02  0.42716387352E+03  0.43428528641E+03  0.00000000000E+00 0.  1.
         14    1    6    6    0    0 -0.50306285337E+02 -0.49850015530E+01  0.14402005614E+03  0.15263469185E+03  0.00000000000E+00 0. -1.
         -5    1    3    3    0  503  0.77509219281E+02  0.25835214407E+02  0.70571915024E+02  0.10806304904E+03  0.47000000000E+01 0.  1.
         11    1    4    4    0    0  0.53818320701E+01 -0.33588097336E+02  0.58861745295E+02  0.67984038261E+02  0.00000000000E+00 0. -1.
        -12    1    4    4    0    0 -0.35265557866E+01  0.31438338934E+02  0.21723107123E+03  0.21952253656E+03  0.00000000000E+00 0.  1.
</event>
<event>
12    1  0.8488291E-002  0.2445632E+03  0.7818608E-02  0.1116975E+00
         21   -1    0    0  503  502  0.00000000000E+00  0.00000000000E+00  0.50655425175E+02  0.50655425175E+02  0.00000000000E+00 0. -1.
         21   -1    0    0  501  503 -0.00000000000E+00 -0.00000000000E+00 -0.12779302845E+04  0.12779302845E+04  0.00000000000E+00 0. -1.
          6    2    1    2  501    0  0.12597649095E+03  0.11974167047E+03 -0.42666927602E+03  0.49179043963E+03  0.17205528614E+03 0.  0.
         24    2    3    3    0    0  0.11152506485E+03  0.96206634360E+02 -0.19024017658E+03  0.25370736442E+03  0.80514255811E+02 0.  0.
         -6    2    1    2    0  502 -0.12597649095E+03 -0.11974167047E+03 -0.80060558333E+03  0.83679527007E+03  0.17043731996E+03 0.  0.
        -24    2    5    5    0    0 -0.27952363638E+02 -0.90420013885E+02 -0.29228448136E+03  0.31825797943E+03  0.83071113402E+02 0.  0.
          5    1    3    3  501    0  0.14451426105E+02  0.23535036110E+02 -0.23642909944E+03  0.23808307521E+03  0.47000000000E+01 0. -1.
        -11    1    4    4    0    0  0.31031748665E+01  0.42342225600E+01 -0.62055379421E+02  0.62277029874E+02  0.00000000000E+00 0.  1.
         12    1    4    4    0    0  0.10842188998E+03  0.91972411800E+02 -0.12818479716E+03  0.19143033454E+03  0.00000000000E+00 0. -1.
         -5    1    5    5    0  502 -0.98024127315E+02 -0.29321656585E+02 -0.50832110197E+03  0.51853729064E+03  0.47000000000E+01 0.  1.
         11    1    6    6    0    0 -0.47633284681E+02 -0.72246681870E+02 -0.14745734966E+03  0.17097421683E+03  0.00000000000E+00 0. -1.
        -12    1    6    6    0    0  0.19680921043E+02 -0.18173332015E+02 -0.14482713170E+03  0.14728376260E+03  0.00000000000E+00 0.  1.
</event>
<event>
12    1  0.8488291E-002  0.2010549E+03  0.7818608E-02  0.1148857E+00
         21   -1    0    0  503  502  0.00000000000E+00  0.00000000000E+00  0.32457326524E+03  0.32457326524E+03  0.00000000000E+00 0. -1.
         21   -1    0    0  501  503 -0.00000000000E+00 -0.00000000000E+00 -0.16823572627E+03  0.16823572627E+03  0.00000000000E+00 0. -1.
          6    2    1    2  501    0  0.65146295386E+02 -0.82099094928E+02 -0.47430029995E+02  0.20654986890E+03  0.17154865026E+03 0.  0.
         24    2    3    3    0    0  0.83751904270E+01 -0.59320681305E+02  0.32535332040E+02  0.10576116114E+03  0.80856591138E+02 0.  0.
         -6    2    1    2    0  502 -0.65146295386E+02  0.82099094928E+02  0.20376756896E+03  0.28625912261E+03  0.17157727684E+03 0.  0.
        -24    2    5    5    0    0 -0.62725911054E+02  0.56534087914E+02  0.41520166540E+02  0.12192489782E+03  0.77531370851E+02 0.  0.
          5    1    3    3  501    0  0.56771104959E+02 -0.22778413623E+02 -0.79965362035E+02  0.10078870775E+03  0.47000000000E+01 0. -1.
        -13    1    4    4    0    0 -0.35208298183E+02 -0.18709573584E+02  0.51691362172E+01  0.40204382521E+02  0.00000000000E+00 0.  1.
         14    1    4    4    0    0  0.43583488610E+02 -0.40611107721E+02  0.27366195823E+02  0.65556778624E+02  0.00000000000E+00 0. -1.
         -5    1    5    5    0  502 -0.24203843316E+01  0.25565007015E+02  0.16224740242E+03  0.16433422479E+03  0.47000000000E+01 0.  1.
         11    1    6    6    0    0 -0.78690445820E+02  0.58386435432E+02  0.31233086202E+02  0.10284292771E+03  0.00000000000E+00 0. -1.
        -12    1    6    6    0    0  0.15964534766E+02 -0.18523475180E+01  0.10287080338E+02  0.19081970116E+02  0.00000000000E+00 0.  1.
</event>
<event>
12    1  0.8488291E-002  0.2676765E+03  0.7818608E-02  0.1103208E+00
         21   -1    0    0  501  502  0.00000000000E+00  0.00000000000E+00  0.29621217919E+03  0.29621217919E+03  0.00000000000E+00 0. -1.
         21   -1    0    0  502  503 -0.00000000000E+00 -0.00000000000E+00 -0.29492669143E+03  0.29492669143E+03  0.00000000000E+00 0. -1.
         -6    2    1    2    0  503 -0.25439289590E+02  0.20046117539E+03 -0.12894017208E+03  0.29346554625E+03  0.16930628625E+03 0.  0.
        -24    2    3    3    0    0 -0.51860253828E+02  0.21256833570E+03 -0.12254511878E+03  0.26333852534E+03  0.80343571754E+02 0.  0.
          6    2    1    2  501    0  0.25439289590E+02 -0.20046117539E+03  0.13022565985E+03  0.29767332436E+03  0.17555296996E+03 0.  0.
         24    2    5    5    0    0 -0.32730408746E+02 -0.38513703908E+02  0.34481010106E+02  0.10069661184E+03  0.79976762449E+02 0.  0.
          5    1    5    5  501    0  0.58169698335E+02 -0.16194747148E+03  0.95744649740E+02  0.19697671253E+03  0.47000000000E+01 0. -1.
        -11    1    6    6    0    0  0.24810045239E+02 -0.21763477915E+02  0.33726124963E+01  0.33174716740E+02  0.00000000000E+00 0.  1.
         12    1    6    6    0    0 -0.57540453984E+02 -0.16750225993E+02  0.31108397610E+02  0.67521895096E+02  0.00000000000E+00 0. -1.
         -5    1    3    3    0  503  0.26420964238E+02 -0.12107160310E+02 -0.63950533016E+01  0.30127020908E+02  0.47000000000E+01 0.  1.
         13    1    4    4    0    0 -0.40669327857E+02  0.18032246137E+03 -0.64088332731E+02  0.19564636131E+03  0.00000000000E+00 0. -1.
        -14    1    4    4    0    0 -0.11190925971E+02  0.32245874332E+02 -0.58456786052E+02  0.67692164030E+02  0.00000000000E+00 0.  1.
</event>
<event>
12    1  0.8488291E-002  0.3755477E+03  0.7818608E-02  0.1052665E+00
         21   -1    0    0  501  502  0.00000000000E+00  0.00000000000E+00  0.37474954333E+03  0.37474954333E+03  0.00000000000E+00 0.  1.
         21   -1    0    0  502  503 -0.00000000000E+00 -0.00000000000E+00 -0.40696434357E+03  0.40696434357E+03  0.00000000000E+00 0.  1.
         -6    2    1    2    0  503 -0.51961275464E+02 -0.33051943048E+03 -0.12467994231E+03  0.39570333947E+03  0.17056663443E+03 0.  0.
        -24    2    3    3    0    0 -0.89595961419E+01 -0.90755735736E+02  0.36227159774E+01  0.12035004665E+03  0.78448274211E+02 0.  0.
          6    2    1    2  501    0  0.51961275464E+02  0.33051943048E+03  0.92465142063E+02  0.38601054742E+03  0.16885281208E+03 0.  0.
         24    2    5    5    0    0 -0.26074983918E+02  0.90576276180E+02  0.24183393693E+02  0.12457821921E+03  0.77787721249E+02 0.  0.
          5    1    5    5  501    0  0.78036259382E+02  0.23994315430E+03  0.68281748370E+02  0.26143232821E+03  0.47000000000E+01 0. -1.
        -13    1    6    6    0    0  0.29035981981E+01  0.83517865051E+02  0.37886199552E+02  0.91755265689E+02  0.00000000000E+00 0.  1.
         14    1    6    6    0    0 -0.28978582116E+02  0.70584111286E+01 -0.13702805860E+02  0.32822953516E+02  0.00000000000E+00 0. -1.
         -5    1    3    3    0  503 -0.43001679322E+02 -0.23976369475E+03 -0.12830265828E+03  0.27535329282E+03  0.47000000000E+01 0.  1.
         11    1    4    4    0    0  0.25048922617E+02 -0.65492073829E+02  0.22956988433E+02  0.73781322681E+02  0.00000000000E+00 0. -1.
        -12    1    4    4    0    0 -0.34008518759E+02 -0.25263661907E+02 -0.19334272455E+02  0.46568723973E+02  0.00000000000E+00 0.  1.
</event>
<event>
12    1  0.8488291E-002  0.2080370E+03  0.7818608E-02  0.1144056E+00
         21   -1    0    0  501  502  0.00000000000E+00  0.00000000000E+00  0.57792624417E+02  0.57792624417E+02  0.00000000000E+00 0. -1.
         21   -1    0    0  502  503 -0.00000000000E+00 -0.00000000000E+00 -0.80894628030E+03  0.80894628030E+03  0.00000000000E+00 0. -1.
         -6    2    1    2    0  503  0.10407805887E+03 -0.31436152880E+02 -0.50499382385E+03  0.54444393698E+03  0.17198826804E+03 0.  0.
        -24    2    3    3    0    0  0.65364071697E+02 -0.52515085969E+02 -0.47987881067E+03  0.49349348938E+03  0.78878736132E+02 0.  0.
          6    2    1    2  501    0 -0.10407805887E+03  0.31436152880E+02 -0.24615983204E+03  0.32229496774E+03  0.17736659571E+03 0.  0.
         24    2    5    5    0    0 -0.26403221318E+02  0.44423123529E+02 -0.44195985267E+02  0.10546893794E+03  0.80621757341E+02 0.  0.
          5    1    5    5  501    0 -0.77674837557E+02 -0.12986970649E+02 -0.20196384677E+03  0.21682602980E+03  0.47000000000E+01 0. -1.
        -13    1    6    6    0    0  0.23708592579E+02 -0.57887132833E+01 -0.15706395187E+02  0.29022360575E+02  0.00000000000E+00 0.  1.
         14    1    6    6    0    0 -0.50111813897E+02  0.50211836812E+02 -0.28489590080E+02  0.76446577366E+02  0.00000000000E+00 0. -1.
         -5    1    3    3    0  503  0.38713987178E+02  0.21078933089E+02 -0.25115013186E+02  0.50950447601E+02  0.47000000000E+01 0.  1.
         13    1    4    4    0    0  0.63527332858E+02 -0.72784291405E+01 -0.19990133779E+03  0.20987911378E+03  0.00000000000E+00 0. -1.
        -14    1    4    4    0    0  0.18367388389E+01 -0.45236656829E+02 -0.27997747288E+03  0.28361437560E+03  0.00000000000E+00 0.  1.
</event>
<event>
12    1  0.8488291E-002  0.1952085E+03  0.7818608E-02  0.1153986E+00
         21   -1    0    0  503  502  0.00000000000E+00  0.00000000000E+00  0.70411876623E+02  0.70411876623E+02  0.00000000000E+00 0. -1.
         21   -1    0    0  501  503 -0.00000000000E+00 -0.00000000000E+00 -0.82467538999E+03  0.82467538999E+03  0.00000000000E+00 0.  1.
          6    2    1    2  501    0  0.12500410545E+02  0.89207982623E+02 -0.63994319023E+03  0.66886726671E+03  0.17245813787E+03 0.  0.
         24    2    3    3    0    0  0.13582369048E+02  0.64878327803E+02 -0.63616807282E+03  0.64377853917E+03  0.73125320158E+02 0.  0.
         -6    2    1    2    0  502 -0.12500410545E+02 -0.89207982623E+02 -0.11432032313E+03  0.22621999991E+03  0.17318206503E+03 0.  0.
        -24    2    5    5    0    0 -0.44524939852E+02 -0.10236726061E+03 -0.36737078113E+02  0.14113188686E+03  0.78147746395E+02 0.  0.
          5    1    3    3  501    0 -0.10819585032E+01  0.24329654820E+02 -0.37751174081E+01  0.25088727535E+02  0.47000000000E+01 0. -1.
        -13    1    4    4    0    0 -0.22062758730E+02  0.28136849242E+02 -0.42470867487E+03  0.42621110511E+03  0.00000000000E+00 0.  1.
         14    1    4    4    0    0  0.35645127778E+02  0.36741478561E+02 -0.21145939796E+03  0.21756743407E+03  0.00000000000E+00 0. -1.
         -5    1    5    5    0  502  0.32024529307E+02  0.13159277983E+02 -0.77583245021E+02  0.85088113049E+02  0.47000000000E+01 0.  1.
         11    1    6    6    0    0  0.12736738961E+02 -0.36637625364E+02  0.12825248917E+02  0.40853728367E+02  0.00000000000E+00 0. -1.
        -12    1    6    6    0    0 -0.57261678813E+02 -0.65729635243E+02 -0.49562327030E+02  0.10027815849E+03  0.00000000000E+00 0.  1.
</event>
<event>
12    1  0.8488291E-002  0.2661060E+03  0.7818608E-02  0.1103609E+00
         21   -1    0    0  501  502  0.00000000000E+00  0.00000000000E+00  0.10420122367E+03  0.10420122367E+03  0.00000000000E+00 0. -1.
         21   -1    0    0  502  503 -0.00000000000E+00 -0.00000000000E+00 -0.97403746666E+03  0.97403746666E+03  0.00000000000E+00 0. -1.
         -6    2    1    2    0  503 -0.19858472821E+03  0.45199908096E+02 -0.73235145491E+03  0.77919897085E+03  0.17127012782E+03 0.  0.
        -24    2    3    3    0    0 -0.47452962781E+02  0.30533678768E+02 -0.15179684162E+03  0.17909759790E+03  0.76482541993E+02 0.  0.
          6    2    1    2  501    0  0.19858472821E+03 -0.45199908096E+02 -0.13748478807E+03  0.29903971948E+03  0.17042230167E+03 0.  0.
         24    2    5    5    0    0  0.65594905629E+02  0.28117035912E+02 -0.23239597033E+02  0.10894574045E+03  0.78967310573E+02 0.  0.
          5    1    5    5  501    0  0.13298982258E+03 -0.73316944008E+02 -0.11424519104E+03  0.19009397903E+03  0.47000000000E+01 0. -1.
        -13    1    6    6    0    0  0.68347311219E+02  0.48043080921E+02 -0.84316079675E+01  0.83967759219E+02  0.00000000000E+00 0.  1.
         14    1    6    6    0    0 -0.27524055905E+01 -0.19926045010E+02 -0.14807989065E+02  0.24977981232E+02  0.00000000000E+00 0. -1.
         -5    1    3    3    0  503 -0.15113176543E+03  0.14666229329E+02 -0.58055461329E+03  0.60010137295E+03  0.47000000000E+01 0.  1.
         13    1    4    4    0    0 -0.43257885591E+02  0.66167898143E+01 -0.25837949790E+02  0.50819545675E+02  0.00000000000E+00 0. -1.
        -14    1    4    4    0    0 -0.41950771902E+01  0.23916888953E+02 -0.12595889183E+03  0.12827805222E+03  0.00000000000E+00 0.  1.
</event>
<event>
12    1  0.8488291E-002  0.2172657E+03  0.7818608E-02  0.1136076E+00
         21   -1    0    0  501  502  0.00000000000E+00  0.00000000000E+00  0.10145099386E+04  0.10145099386E+04  0.00000000000E+00 0.  1.
         21   -1    0    0  502  503 -0.00000000000E+00 -0.00000000000E+00 -0.47543235115E+02  0.47543235115E+02  0.00000000000E+00 0.  1.
         -6    2    1    2    0  503  0.13051631394E+03  0.16020612193E+02  0.56596794774E+03  0.60597817771E+03  0.17204262777E+03 0.  0.
        -24    2    3    3    0    0  0.36166661969E+01  0.33733744221E+02  0.23077422397E+03  0.24709909209E+03  0.81548593409E+02 0.  0.
          6    2    1    2  501    0 -0.13051631394E+03 -0.16020612193E+02  0.40099875579E+03  0.45607499605E+03  0.17295442076E+03 0.  0.
         24    2    5    5    0    0 -0.77450136760E+02  0.12653318066E+02  0.37355183031E+03  0.38963978585E+03  0.78227633501E+02 0.  0.
          5    1    5    5  501    0 -0.53066177177E+02 -0.28673930259E+02  0.27446925476E+02  0.66435210203E+02  0.47000000000E+01 0. -1.
        -13    1    6    6    0    0 -0.32009155658E+02 -0.31081176353E+02  0.20183214963E+03  0.20670472223E+03  0.00000000000E+00 0.  1.
         14    1    6    6    0    0 -0.45440981103E+02  0.43734494419E+02  0.17171968068E+03  0.18293506361E+03  0.00000000000E+00 0. -1.
         -5    1    3    3    0  503  0.12689964774E+03 -0.17713132029E+02  0.33519372377E+03  0.35887908563E+03  0.47000000000E+01 0.  1.
         11    1    4    4    0    0 -0.10502701168E+02  0.58331684917E+02  0.16991403209E+03  0.17995463456E+03  0.00000000000E+00 0. -1.
        -12    1    4    4    0    0  0.14119367365E+02 -0.24597940696E+02  0.60860191877E+02  0.67144457527E+02  0.00000000000E+00 0.  1.
</event>
<event>
12    1  0.8488291E-002  0.2085543E+03  0.7818608E-02  0.1142850E+00
         21   -1    0    0  503  502  0.00000000000E+00  0.00000000000E+00  0.49809306289E+03  0.49809306289E+03  0.00000000000E+00 0.  1.
         21   -1    0    0  501  503 -0.00000000000E+00 -0.00000000000E+00 -0.16707805062E+03  0.16707805062E+03  0.00000000000E+00 0. -1.
          6    2    1    2  501    0  0.27031411171E+02  0.11377756068E+03 -0.64542467205E+02  0.21831315145E+03  0.17268141626E+03 0.  0.
         24    2    3    3    0    0 -0.35162808833E+02  0.71096816766E+02  0.11591447999E+02  0.11103673304E+03  0.76834978614E+02 0.  0.
         -6    2    1    2    0  502 -0.27031411171E+02 -0.11377756068E+03  0.39555747947E+03  0.44685796206E+03  0.17187288379E+03 0.  0.
        -24    2    5    5    0    0  0.18237680412E+02 -0.13414672869E+03  0.28468879498E+03  0.32529255226E+03  0.80246973546E+02 0.  0.
          5    1    3    3  501    0  0.62194220003E+02  0.42680743910E+02 -0.76133915204E+02  0.10727641841E+03  0.47000000000E+01 0. -1.
        -11    1    4    4    0    0 -0.17087525765E+02  0.73699946690E+02 -0.16593007738E+02  0.77453170268E+02  0.00000000000E+00 0.  1.
         12    1    4    4    0    0 -0.18075283068E+02 -0.26031299236E+01  0.28184455736E+02  0.33583562773E+02  0.00000000000E+00 0. -1.
         -5    1    5    5    0  502 -0.45269091583E+02  0.20369168010E+02  0.11086868449E+03  0.12156540980E+03  0.47000000000E+01 0.  1.
         13    1    6    6    0    0 -0.15131130018E+02  0.36509485264E+01  0.26270600333E+02  0.30535634308E+02  0.00000000000E+00 0. -1.
        -14    1    6    6    0    0  0.33368810429E+02 -0.13779767721E+03  0.25841819465E+03  0.29475691795E+03  0.00000000000E+00 0.  1.
</event>
<event>
12    1  0.8488291E-002  0.1854712E+03  0.7818608E-02  0.1162692E+00
         21   -1    0    0  501  502  0.00000000000E+00  0.00000000000E+00  0.13612195914E+03  0.13612195914E+03  0.00000000000E+00 0. -1.
         21   -1    0    0  502  503 -0.00000000000E+00 -0.00000000000E+00 -0.49260701438E+03  0.49260701438E+03  0.00000000000E+00 0. -1.
         -6    2    1    2    0  503 -0.67276047905E+02  0.99591577745E+00 -0.39775307884E+03  0.43872209633E+03  0.17246016239E+03 0.  0.
        -24    2    3    3    0    0 -0.10855308960E+03  0.97709827824E+01 -0.34314855116E+03  0.36955172396E+03  0.83296477399E+02 0.  0.
          6    2    1    2  501    0  0.67276047905E+02 -0.99591577745E+00  0.41268023598E+02  0.19000687719E+03  0.17283664292E+03 0.  0.
         24    2    5    5    0    0  0.52723240916E+02  0.61356360767E+02  0.51512127815E+02  0.12499439952E+03  0.80160822472E+02 0.  0.
          5    1    5    5  501    0  0.14552806988E+02 -0.62352276544E+02 -0.10244104217E+02  0.65012477669E+02  0.47000000000E+01 0. -1.
        -13    1    6    6    0    0  0.28832015736E+02  0.25126308573E+01 -0.15364785062E+02  0.32766981326E+02  0.00000000000E+00 0.  1.
         14    1    6    6    0    0  0.23891225181E+02  0.58843729909E+02  0.66876912877E+02  0.92227418191E+02  0.00000000000E+00 0. -1.
         -5    1    3    3    0  503  0.41277041691E+02 -0.87750670049E+01 -0.54604527680E+02  0.69170372378E+02  0.47000000000E+01 0.  1.
         11    1    4    4    0    0 -0.20875374113E+02 -0.17173347402E+02 -0.19968593329E+02  0.33607288271E+02  0.00000000000E+00 0. -1.
        -12    1    4    4    0    0 -0.87677715483E+02  0.26944330185E+02 -0.32317995784E+03  0.33594443569E+03  0.00000000000E+00 0.  1.
</event>
<event>
12    1  0.8488291E-002  0.1877681E+03  0.7818608E-02  0.1160640E+00
         21   -1    0    0  503  502  0.00000000000E+00  0.00000000000E+00  0.46937729416E+03  0.46937729416E+03  0.00000000000E+00 0. -1.
         21   -1    0    0  501  503 -0.00000000000E+00 -0.00000000000E+00 -0.12667067142E+03  0.12667067142E+03  0.00000000000E+00 0. -1.
          6    2    1    2  501    0  0.44483883159E+02 -0.59404610706E+02 -0.19083813273E+02  0.18873539858E+03  0.17247937591E+03 0.  0.
         24    2    3    3    0    0  0.25340100490E+02  0.27804708477E+02  0.22639418505E+02  0.90069964730E+02  0.78643707758E+02 0.  0.
         -6    2    1    2    0  502 -0.44483883159E+02  0.59404610706E+02  0.36179043601E+03  0.40731256700E+03  0.17176578243E+03 0.  0.
        -24    2    5    5    0    0 -0.82285054425E+02  0.71901881550E+02  0.32610464957E+03  0.35364064062E+03  0.82321014785E+02 0.  0.
          5    1    3    3  501    0  0.19143782669E+02 -0.87209319183E+02 -0.41723231777E+02  0.98665433852E+02  0.47000000000E+01 0. -1.
        -11    1    4    4    0    0 -0.22195710029E+01  0.17221615330E+02  0.48066975207E+02  0.51107187709E+02  0.00000000000E+00 0.  1.
         12    1    4    4    0    0  0.27559671493E+02  0.10583093147E+02 -0.25427556702E+02  0.38962777021E+02  0.00000000000E+00 0. -1.
         -5    1    5    5    0  502  0.37801171266E+02 -0.12497270843E+02  0.35685786447E+02  0.53671926386E+02  0.47000000000E+01 0.  1.
         13    1    6    6    0    0 -0.74390824476E+00  0.19566237251E+02  0.16114521674E+03  0.16233044052E+03  0.00000000000E+00 0. -1.
        -14    1    6    6    0    0 -0.81541146180E+02  0.52335644299E+02  0.16495943282E+03  0.19131020010E+03  0.00000000000E+00 0.  1.
</event>
<event>
12    1  0.8488291E-002  0.2059282E+03  0.7818608E-02  0.1144993E+00
         21   -1    0    0  501  502  0.00000000000E+00  0.00000000000E+00  0.19698598606E+03  0.19698598606E+03  0.00000000000E+00 0.  1.
         21   -1    0    0  502  503 -0.00000000000E+00 -0.00000000000E+00 -0.28763685227E+03  0.28763685227E+03  0.00000000000E+00 0.  1.
         -6    2    1    2    0  503  0.10406635349E+03 -0.40955708785E+02 -0.16748710086E+03  0.26482697193E+03  0.17197156770E+03 0.  0.
        -24    2    3    3    0    0  0.73098177525E+02 -0.51079507257E+02 -0.29794489164E+02  0.12325414779E+03  0.79695757381E+02 0.  0.
          6    2    1    2  501    0 -0.10406635349E+03  0.40955708785E+02  0.76836234660E+02  0.21979586640E+03  0.17291396681E+03 0.  0.
         24    2    5    5    0    0 -0.77797569137E+02  0.83053391834E+02  0.94741535964E+02  0.16683405219E+03  0.76859057205E+02 0.  0.
          5    1    5    5  501    0 -0.26268784353E+02 -0.42097683049E+02 -0.17905301304E+02  0.52961814209E+02  0.47000000000E+01 0. -1.
        -13    1    6    6    0    0 -0.29233808662E+02 -0.68269759444E+01  0.42657364680E+02  0.52161996998E+02  0.00000000000E+00 0.  1.
         14    1    6    6    0    0 -0.48563760475E+02  0.89880367779E+02  0.52084171284E+02  0.11467205519E+03  0.00000000000E+00 0. -1.
         -5    1    3    3    0  503  0.30968175966E+02  0.10123798472E+02 -0.13769261170E+03  0.14157282414E+03  0.47000000000E+01 0.  1.
         13    1    4    4    0    0  0.44909491131E+02 -0.68013482452E+02 -0.37129920262E+02  0.89561862238E+02  0.00000000000E+00 0. -1.
        -14    1    4    4    0    0  0.28188686393E+02  0.16933975195E+02  0.73354310982E+01  0.33692285554E+02  0.00000000000E+00 0.  1.
</event>
<event>
12    1  0.8488291E-002  0.2018286E+03  0.7818608E-02  0.1148415E+00
         21   -1    0    0  503  502  0.00000000000E+00  0.00000000000E+00  0.67084293867E+02  0.67084293867E+02  0.00000000000E+00 0.  1.
         21   -1    0    0  501  503 -0.00000000000E+00 -0.00000000000E+00 -0.88496245785E+03  0.88496245785E+03  0.00000000000E+00 0. -1.
          6    2    1    2  501    0 -0.33439503786E+02 -0.98540201739E+02 -0.67636512412E+03  0.70554982378E+03  0.17176262967E+03 0.  0.
         24    2    3    3    0    0  0.25677714198E+02  0.24736587275E+00 -0.23201185438E+03  0.24650108203E+03  0.79207806909E+02 0.  0.
         -6    2    1    2    0  502  0.33439503786E+02  0.98540201739E+02 -0.14151303987E+03  0.24649692793E+03  0.17293473698E+03 0.  0.
        -24    2    5    5    0    0  0.25402566291E+01 -0.13942279310E+02 -0.39167225747E+02  0.91242853315E+02  0.81180950057E+02 0.  0.
          5    1    3    3  501    0 -0.59117217984E+02 -0.98787567612E+02 -0.44435326974E+03  0.45904874175E+03  0.47000000000E+01 0. -1.
        -13    1    4    4    0    0 -0.28137575485E+02 -0.97998331432E+00 -0.60289149045E+02  0.66539199079E+02  0.00000000000E+00 0.  1.
         14    1    4    4    0    0  0.53815289683E+02  0.12273491871E+01 -0.17172270533E+03  0.17996188295E+03  0.00000000000E+00 0. -1.
         -5    1    5    5    0  502  0.30899247157E+02  0.11248248105E+03 -0.10234581412E+03  0.15525407462E+03  0.47000000000E+01 0.  1.
         13    1    6    6    0    0 -0.96108712654E+01 -0.36984885529E+02 -0.50084369678E+02  0.62997576859E+02  0.00000000000E+00 0. -1.
        -14    1    6    6    0    0  0.12151127895E+02  0.23042606219E+02  0.10917143931E+02  0.28245276456E+02  0.00000000000E+00 0.  1.
</event>
<event>
12    1  0.8488291E-002  0.2263484E+03  0.7818608E-02  0.1129372E+00
         21   -1    0    0  503  502  0.00000000000E+00  0.00000000000E+00  0.46455944101E+03  0.46455944101E+03  0.00000000000E+00 0.  1.
         21   -1    0    0  501  503 -0.00000000000E+00 -0.00000000000E+00 -0.11468497300E+03  0.11468497300E+03  0.00000000000E+00 0. -1.
          6    2    1    2  501    0 -0.10964337472E+03 -0.97283072845E+02  0.11616348608E+03  0.25441608390E+03  0.17247586024E+03 0.  0.
         24    2    3    3    0    0 -0.77859674003E+02 -0.11522610226E+03  0.13929823850E+03  0.21094813358E+03  0.75867860999E+02 0.  0.
         -6    2    1    2    0  502  0.10964337472E+03  0.97283072845E+02  0.23371098192E+03  0.32482833011E+03  0.17148456225E+03 0.  0.
        -24    2    5    5    0    0  0.77470000008E+02  0.13318324704E+03  0.20388821157E+03  0.26794743543E+03  0.80535999076E+02 0.  0.
          5    1    3    3  501    0 -0.31783700720E+02  0.17943029412E+02 -0.23134752417E+02  0.43467950324E+02  0.47000000000E+01 0. -1.
        -11    1    4    4    0    0  0.14996136443E+02 -0.97414995445E+01  0.15800838638E+02  0.23863097521E+02  0.00000000000E+00 0.  1.
         12    1    4    4    0    0 -0.92855810446E+02 -0.10548460271E+03  0.12349739986E+03  0.18708503605E+03  0.00000000000E+00 0. -1.
         -5    1    5    5    0  502  0.32173374715E+02 -0.35900174193E+02  0.29822770355E+02  0.56880894677E+02  0.47000000000E+01 0.  1.
         13    1    6    6    0    0  0.68401846187E+02  0.89469602168E+02  0.85434986734E+02  0.14136038778E+03  0.00000000000E+00 0. -1.
        -14    1    6    6    0    0  0.90681538212E+01  0.43713644869E+02  0.11845322483E+03  0.12658704766E+03  0.00000000000E+00 0.  1.
</event>
<event>
12    1  0.8488291E-002  0.2000663E+03  0.7818608E-02  0.1150556E+00
         21   -1    0    0  501  502  0.00000000000E+00  0.00000000000E+00  0.75113370669E+02  0.75113370669E+02  0.00000000000E+00 0.  1.
         21   -1    0    0  502  503 -0.00000000000E+00 -0.00000000000E+00 -0.52238748448E+03  0.52238748448E+03  0.00000000000E+00 0.  1.
         -6    2    1    2    0  503  0.73897338294E+02  0.70714060025E+02 -0.23373196597E+03  0.30766400880E+03  0.17194538522E+03 0.  0.
        -24    2    3    3    0    0 -0.15006449654E+02  0.71516978257E+02 -0.15513956757E+03  0.18890634262E+03  0.79230354948E+02 0.  0.
          6    2    1    2  501    0 -0.73897338294E+02 -0.70714060025E+02 -0.21354214784E+03  0.28983684635E+03  0.16716415198E+03 0.  0.
         24    2    5    5    0    0  0.12324464614E+02 -0.70175178312E+02 -0.13793417488E+03  0.17506252315E+03  0.80898716523E+02 0.  0.
          5    1    5    5  501    0 -0.86221802909E+02 -0.53888171315E+00 -0.75607972959E+02  0.11477432320E+03  0.47000000000E+01 0. -1.
        -11    1    6    6    0    0 -0.26382074332E+02 -0.99998193682E+01 -0.12941522139E+02  0.31040187318E+02  0.00000000000E+00 0.  1.
         12    1    6    6    0    0  0.38706538947E+02 -0.60175358944E+02 -0.12499265274E+03  0.14402233584E+03  0.00000000000E+00 0. -1.
         -5    1    3    3    0  503  0.88903787948E+02 -0.80291823210E+00 -0.78592398401E+02  0.11875766618E+03  0.47000000000E+01 0.  1.
         11    1    4    4    0    0 -0.31046866328E+01  0.17708858236E+02  0.57214942143E+01  0.18867385488E+02  0.00000000000E+00 0. -1.
        -12    1    4    4    0    0 -0.11901763021E+02  0.53808120021E+02 -0.16086106179E+03  0.17003895713E+03  0.00000000000E+00 0.  1.
</event>
<event>
12    1  0.8488291E-002  0.1889549E+03  0.7818608E-02  0.1160506E+00
         21   -1    0    0  503  502  0.00000000000E+00  0.00000000000E+00  0.41814997532E+03  0.41814997532E+03  0.00000000000E+00 0.  1.
         21   -1    0    0  501  503 -0.00000000000E+00 -0.00000000000E+00 -0.83754942588E+02  0.83754942588E+02  0.00000000000E+00 0.  1.
          6    2    1    2  501    0  0.41627120482E+02  0.63073274317E+02  0.18468699489E+03  0.26083136042E+03  0.16796623889E+03 0.  0.
         24    2    3    3    0    0  0.38548679498E+02 -0.25373605538E+02  0.88180080493E+02  0.12980463841E+03  0.83328848599E+02 0.  0.
         -6    2    1    2    0  502 -0.41627120482E+02 -0.63073274317E+02  0.14970803785E+03  0.24107355748E+03  0.17318460795E+03 0.  0.
        -24    2    5    5    0    0  0.19868804759E+02 -0.45906537998E+02  0.19159791536E+02  0.95672800018E+02  0.79271731520E+02 0.  0.
          5    1    3    3  501    0  0.30784409836E+01  0.88446879856E+02  0.96506914394E+02  0.13102672201E+03  0.47000000000E+01 0. -1.
        -13    1    4    4    0    0  0.45797365453E+02  0.13932159209E+02  0.22440678476E+02  0.52868589854E+02  0.00000000000E+00 0.  1.
         14    1    4    4    0    0 -0.72486859546E+01 -0.39305764748E+02  0.65739402017E+02  0.76936048560E+02  0.00000000000E+00 0. -1.
         -5    1    5    5    0  502 -0.61495925240E+02 -0.17166736319E+02  0.13054824631E+03  0.14540075747E+03  0.47000000000E+01 0.  1.
         11    1    6    6    0    0  0.23990361071E+02 -0.24559827288E+02  0.48335305027E+02  0.59287639966E+02  0.00000000000E+00 0. -1.
        -12    1    6    6    0    0 -0.41215563123E+01 -0.21346710711E+02 -0.29175513490E+02  0.36385160052E+02  0.00000000000E+00 0.  1.
</event>
<event>
12    1  0.8488291E-002  0.1948143E+03  0.7818608E-02  0.1154504E+00
         21   -1    0    0  503  502  0.00000000000E+00  0.00000000000E+00  0.46369078225E+03  0.46369078225E+03  0.00000000000E+00 0.  1.
         21   -1    0    0  501  503 -0.00000000000E+00 -0.00000000000E+00 -0.81538060769E+02  0.81538060769E+02  0.00000000000E+00 0.  1.
          6    2    1    2  501    0 -0.35239501484E+02  0.88214104500E+02  0.20668335457E+03  0.28304166579E+03  0.16843700550E+03 0.  0.
         24    2    3    3    0    0 -0.25044711749E+01  0.28805604263E+02  0.24028643685E+02  0.88142241682E+02  0.79722291980E+02 0.  0.
         -6    2    1    2    0  502  0.35239501484E+02 -0.88214104500E+02  0.17546936691E+03  0.26218717723E+03  0.17008546816E+03 0.  0.
        -24    2    5    5    0    0  0.24492594790E+02  0.16295328708E+02  0.10435105066E+03  0.13523197828E+03  0.80827725682E+02 0.  0.
          5    1    3    3  501    0 -0.32735030309E+02  0.59408500237E+02  0.18265471089E+03  0.19489942411E+03  0.47000000000E+01 0. -1.
        -13    1    4    4    0    0 -0.39232620868E+01  0.11083271285E+02  0.52924609538E+02  0.54214805934E+02  0.00000000000E+00 0.  1.
         14    1    4    4    0    0  0.14187909119E+01  0.17722332978E+02 -0.28895965853E+02  0.33927435748E+02  0.00000000000E+00 0. -1.
         -5    1    5    5    0  502  0.10746906694E+02 -0.10450943321E+03  0.71118316249E+02  0.12695519894E+03  0.47000000000E+01 0.  1.
         11    1    6    6    0    0  0.37134275581E+01 -0.44685690001E+01  0.10566749550E+03  0.10582711022E+03  0.00000000000E+00 0. -1.
        -12    1    6    6    0    0  0.20779167232E+02  0.20763897708E+02 -0.13164448333E+01  0.29404868064E+02  0.00000000000E+00 0.  1.
</event>
<event>
12    1  0.8488291E-002  0.1854887E+03  0.7818608E-02  0.1162962E+00
         21   -1    0    0  501  502  0.00000000000E+00  0.00000000000E+00  0.12750775718E+03  0.12750775718E+03  0.00000000000E+00 0.  1.
         21   -1    0    0  502  503 -0.00000000000E+00 -0.00000000000E+00 -0.47102201425E+03  0.47102201425E+03  0.00000000000E+00 0.  1.
         -6    2    1    2    0  503  0.51283227371E+01 -0.66104227851E+02 -0.36803229145E+03  0.41142772392E+03  0.17154863983E+03 0.  0.
        -24    2    3    3    0    0  0.28430405211E+02 -0.23905661892E+02 -0.34910267295E+03  0.35942650785E+03  0.77038754362E+02 0.  0.
          6    2    1    2  501    0 -0.51283227371E+01  0.66104227851E+02  0.24518034379E+02  0.18710204751E+03  0.17323386949E+03 0.  0.
         24    2    5    5    0    0 -0.16329451513E+02  0.11112854045E+03  0.10067762201E+02  0.13828038861E+03  0.80024387208E+02 0.  0.
          5    1    5    5  501    0  0.11201128776E+02 -0.45024312603E+02  0.14450272178E+02  0.48821658895E+02  0.47000000000E+01 0. -1.
        -13    1    6    6    0    0  0.18398860177E+02  0.25733271983E+01 -0.12098287759E+02  0.22169994033E+02  0.00000000000E+00 0.  1.
         14    1    6    6    0    0 -0.34728311691E+02  0.10855521326E+03  0.22166049961E+02  0.11611039458E+03  0.00000000000E+00 0. -1.
         -5    1    3    3    0  503 -0.23302082474E+02 -0.42198565959E+02 -0.18929618506E+02  0.52001216077E+02  0.47000000000E+01 0.  1.
         13    1    4    4    0    0  0.42954718056E+02  0.59671930728E+01 -0.11366291778E+03  0.12165514406E+03  0.00000000000E+00 0. -1.
        -14    1    4    4    0    0 -0.14524312845E+02 -0.29872854965E+02 -0.23543975516E+03  0.23777136379E+03  0.00000000000E+00 0.  1.
</event>
<event>
12    1  0.8488291E-002  0.2378034E+03  0.7818608E-02  0.1121364E+00
         21   -1    0    0  503  502  0.00000000000E+00  0.00000000000E+00  0.27688303341E+03  0.27688303341E+03  0.00000000000E+00 0.  1.
         21   -1    0    0  501  503 -0.00000000000E+00 -0.00000000000E+00 -0.29568994469E+03  0.29568994469E+03  0.00000000000E+00 0. -1.
          6    2    1    2  501    0 -0.15823613044E+03  0.42818827517E+02 -0.16906397352E+03  0.29177577049E+03  0.17227404952E+03 0.  0.
         24    2    3    3    0    0 -0.17610517599E+03  0.62740656202E+02 -0.16934819143E+03  0.26460312199E+03  0.79916076424E+02 0.  0.
         -6    2    1    2    0  502  0.15823613044E+03 -0.42818827517E+02  0.15025706225E+03  0.28079720761E+03  0.17145775596E+03 0.  0.
        -24    2    5    5    0    0  0.13399926395E+03  0.21820108496E+02  0.75507823154E+02  0.17893869549E+03  0.88801494986E+02 0.  0.
          5    1    3    3  501    0  0.17869045555E+02 -0.19921828685E+02  0.28421790837E+00  0.27172648509E+02  0.47000000000E+01 0. -1.
        -13    1    4    4    0    0 -0.39413402642E+02  0.51423117207E+02 -0.40444086252E+02  0.76377204740E+02  0.00000000000E+00 0.  1.
         14    1    4    4    0    0 -0.13669177335E+03  0.11317538995E+02 -0.12890410518E+03  0.18822591725E+03  0.00000000000E+00 0. -1.
         -5    1    5    5    0  502  0.24236866490E+02 -0.64638936013E+02  0.74749239095E+02  0.10185851212E+03  0.47000000000E+01 0.  1.
         13    1    6    6    0    0  0.70154930021E+02  0.51158074410E+02  0.19264738371E+02  0.88938141020E+02  0.00000000000E+00 0. -1.
        -14    1    6    6    0    0  0.63844333929E+02 -0.29337965914E+02  0.56243084782E+02  0.90000554468E+02  0.00000000000E+00 0.  1.
</event>
<event>
12    1  0.8488291E-002  0.1761837E+03  0.7818608E-02  0.1171879E+00
         21   -1    0    0  503  502  0.00000000000E+00  0.00000000000E+00  0.10332322944E+03  0.10332322944E+03  0.00000000000E+00 0.  1.
         21   -1    0    0  501  503 -0.00000000000E+00 -0.00000000000E+00 -0.42213114081E+03  0.42213114081E+03  0.00000000000E+00 0.  1.
          6    2    1    2  501    0  0.34808594425E+02  0.79267189021E+01 -0.30135008422E+03  0.34840781635E+03  0.17117728270E+03 0.  0.
         24    2    3    3    0    0 -0.31736951569E+02  0.44117060105E+02 -0.14781575660E+03  0.17713922540E+03  0.81087965738E+02 0.  0.
         -6    2    1    2    0  502 -0.34808594425E+02 -0.79267189021E+01 -0.17457827151E+02  0.17704655390E+03  0.17252894076E+03 0.  0.
        -24    2    5    5    0    0 -0.66871545371E+02  0.36027685722E+02  0.17776456189E+02  0.11205757613E+03  0.80443149204E+02 0.  0.
          5    1    3    3  501    0  0.66545545994E+02 -0.36190341203E+02 -0.15353432763E+03  0.17126859095E+03  0.47000000000E+01 0. -1.
        -13    1    4    4    0    0 -0.13769286731E+02  0.14088357840E+02 -0.13987559236E+03  0.14125599606E+03  0.00000000000E+00 0.  1.
         14    1    4    4    0    0 -0.17967664839E+02  0.30028702265E+02 -0.79401642348E+01  0.35883229336E+02  0.00000000000E+00 0. -1.
         -5    1    5    5    0  502  0.32062950946E+02 -0.43954404624E+02 -0.35234283340E+02  0.64988977771E+02  0.47000000000E+01 0.  1.
         11    1    6    6    0    0 -0.39412020028E+02  0.49898434280E+02 -0.16808517750E+02  0.65769957695E+02  0.00000000000E+00 0. -1.
        -12    1    6    6    0    0 -0.27459525343E+02 -0.13870748558E+02  0.34584973940E+02  0.46287618431E+02  0.00000000000E+00 0.  1.
</event>
<event>
12    1  0.8488291E-002  0.1846312E+03  0.7818608E-02  0.1164974E+00
         21   -1    0    0  503  502  0.00000000000E+00  0.00000000000E+00  0.35192238362E+03  0.35192238362E+03  0.00000000000E+00 0.  1.
         21   -1    0    0  501  503 -0.00000000000E+00 -0.00000000000E+00 -0.95738272029E+02  0.95738272029E+02  0.00000000000E+00 0. -1.
          6    2    1    2  501    0 -0.43455751145E+02  0.18017049367E+02  0.91011419234E+02  0.19992954711E+03  0.17168497022E+03 0.  0.
         24    2    3    3    0    0 -0.54444681861E+02  0.72419972456E+02  0.73346105741E+02  0.14149507150E+03  0.80201796967E+02 0.  0.
         -6    2    1    2    0  502  0.43455751145E+02 -0.18017049367E+02  0.16517269235E+03  0.24773110854E+03  0.17853757998E+03 0.  0.
        -24    2    5    5    0    0  0.11350095915E+02  0.77025887206E+00 -0.22851117321E+01  0.76127081205E+02  0.75237575593E+02 0.  0.
          5    1    3    3  501    0  0.10988930716E+02 -0.54402923089E+02  0.17665313494E+02  0.58434475609E+02  0.47000000000E+01 0. -1.
        -13    1    4    4    0    0  0.65879454447E+01  0.17499844975E+02  0.53994376641E+02  0.57140513720E+02  0.00000000000E+00 0.  1.
         14    1    4    4    0    0 -0.61032627306E+02  0.54920127481E+02  0.19351729099E+02  0.84354557776E+02  0.00000000000E+00 0. -1.
         -5    1    5    5    0  502  0.32105655230E+02 -0.18787308239E+02  0.16745780409E+03  0.17160402734E+03  0.47000000000E+01 0.  1.
         11    1    6    6    0    0 -0.27155889019E+02 -0.18631505007E+02  0.26562214272E+00  0.32933961838E+02  0.00000000000E+00 0. -1.
        -12    1    6    6    0    0  0.38505984934E+02  0.19401763880E+02 -0.25507338748E+01  0.43193119367E+02  0.00000000000E+00 0.  1.
</event>
<event>
12    1  0.8488291E-002  0.2006687E+03  0.7818608E-02  0.1149177E+00
         21   -1    0    0  501  502  0.00000000000E+00  0.00000000000E+00  0.32879484945E+03  0.32879484945E+03  0.00000000000E+00 0. -1.
         21   -1    0    0  502  503 -0.00000000000E+00 -0.00000000000E+00 -0.37566731409E+03  0.37566731409E+03  0.00000000000E+00 0. -1.
         -6    2    1    2    0  503  0.94898947064E+02  0.41293129137E+02 -0.31260851220E+03  0.37147031195E+03  0.17191619497E+03 0.  0.
        -24    2    3    3    0    0  0.82943860567E+02 -0.32612624977E+02 -0.23167942118E+03  0.26112271407E+03  0.81033636801E+02 0.  0.
          6    2    1    2  501    0 -0.94898947064E+02 -0.41293129137E+02  0.26573604756E+03  0.33299185159E+03  0.17192147506E+03 0.  0.
         24    2    5    5    0    0 -0.13407053082E+02 -0.32815035561E+02  0.22566905291E+03  0.24166682262E+03  0.78865430234E+02 0.  0.
          5    1    5    5  501    0 -0.81491893982E+02 -0.84780935762E+01  0.40066994655E+02  0.91325028969E+02  0.47000000000E+01 0. -1.
        -11    1    6    6    0    0  0.24862597306E+02 -0.38298426278E+01  0.25494487507E+02  0.35815992693E+02  0.00000000000E+00 0.  1.
         12    1    6    6    0    0 -0.38269650388E+02 -0.28985192933E+02  0.20017456540E+03  0.20585082993E+03  0.00000000000E+00 0. -1.
         -5    1    3    3    0  503  0.11955086498E+02  0.73905754114E+02 -0.80929091027E+02  0.11034759788E+03  0.47000000000E+01 0.  1.
         11    1    4    4    0    0  0.64850283255E+02  0.16992782927E+02 -0.14253963331E+03  0.15751781161E+03  0.00000000000E+00 0. -1.
        -12    1    4    4    0    0  0.18093577312E+02 -0.49605407903E+02 -0.89139787868E+02  0.10360490246E+03  0.00000000000E+00 0.  1.
</event>
<event>
12    1  0.8488291E-002  0.1828176E+03  0.7818608E-02  0.1165307E+00
         21   -1    0    0  503  502  0.00000000000E+00  0.00000000000E+00  0.15784727097E+02  0.15784727097E+02  0.00000000000E+00 0.  1.
         21   -1    0    0  501  503 -0.00000000000E+00 -0.00000000000E+00 -0.22754291481E+04  0.22754291481E+04  0.00000000000E+00 0.  1.
          6    2    1    2  501    0  0.42619626252E+02  0.33313674005E+02 -0.14386101182E+04  0.14500720343E+04  0.17373427727E+03 0.  0.
         24    2    3    3    0    0  0.71467800408E+02 -0.23661802441E+02 -0.10999922181E+04  0.11054525422E+04  0.79843069927E+02 0.  0.
         -6    2    1    2    0  502 -0.42619626252E+02 -0.33313674005E+02 -0.82103430283E+03  0.84114184091E+03  0.17463114466E+03 0.  0.
        -24    2    5    5    0    0 -0.22187292565E+02  0.23236758585E+02 -0.71323991781E+03  0.71762199988E+03  0.72373554931E+02 0.  0.
          5    1    3    3  501    0 -0.28848174156E+02  0.56975476445E+02 -0.33861790009E+03  0.34461949210E+03  0.47000000000E+01 0. -1.
        -13    1    4    4    0    0  0.94190494843E+01 -0.11204977475E+02 -0.72570156178E+03  0.72584917633E+03  0.00000000000E+00 0.  1.
         14    1    4    4    0    0  0.62048750924E+02 -0.12456824965E+02 -0.37429065635E+03  0.37960336591E+03  0.00000000000E+00 0. -1.
         -5    1    5    5    0  502 -0.20432333688E+02 -0.56550432590E+02 -0.10779438502E+03  0.12351984103E+03  0.47000000000E+01 0.  1.
         13    1    6    6    0    0 -0.48570542882E+02  0.97486058806E+01 -0.45277757854E+03  0.45547960281E+03  0.00000000000E+00 0. -1.
        -14    1    6    6    0    0  0.26383250318E+02  0.13488152704E+02 -0.26046233927E+03  0.26214239706E+03  0.00000000000E+00 0.  1.
</event>
<event>
12    1  0.8488291E-002  0.1853510E+03  0.7818608E-02  0.1163127E+00
         21   -1    0    0  501  502  0.00000000000E+00  0.00000000000E+00  0.28044030906E+03  0.28044030906E+03  0.00000000000E+00 0.  1.
         21   -1    0    0  502  503 -0.00000000000E+00 -0.00000000000E+00 -0.14520583555E+03  0.14520583555E+03  0.00000000000E+00 0. -1.
         -6    2    1    2    0  503  0.55024232373E+02  0.40418824476E+02  0.15358805039E+03  0.23938862323E+03  0.17045901615E+03 0.  0.
        -24    2    3    3    0    0  0.42183787189E+02  0.58542876898E+02  0.27434636425E+02  0.11120854614E+03  0.80049616618E+02 0.  0.
          6    2    1    2  501    0 -0.55024232373E+02 -0.40418824476E+02 -0.18353576870E+02  0.18625752138E+03  0.17231849282E+03 0.  0.
         24    2    5    5    0    0 -0.44285574687E+02 -0.80797562976E+02  0.26803833277E+02  0.12455628167E+03  0.79412615597E+02 0.  0.
          5    1    5    5  501    0 -0.10738657686E+02  0.40378738500E+02 -0.45157410146E+02  0.61701239719E+02  0.47000000000E+01 0. -1.
        -13    1    6    6    0    0 -0.38928469655E+02 -0.13703486226E+02  0.38264992028E+02  0.56279844521E+02  0.00000000000E+00 0.  1.
         14    1    6    6    0    0 -0.53571050319E+01 -0.67094076750E+02 -0.11461158751E+02  0.68276437145E+02  0.00000000000E+00 0. -1.
         -5    1    3    3    0  503  0.12840445184E+02 -0.18124052422E+02  0.12615341396E+03  0.12818007709E+03  0.47000000000E+01 0.  1.
         11    1    4    4    0    0 -0.17854462188E+02  0.26903009735E+02 -0.98736214849E+01  0.33764510274E+02  0.00000000000E+00 0. -1.
        -12    1    4    4    0    0  0.60038249377E+02  0.31639867164E+02  0.37308257909E+02  0.77444035862E+02  0.00000000000E+00 0.  1.
</event>
<event>
12    1  0.8488291E-002  0.2206352E+03  0.7818608E-02  0.1133467E+00
         21   -1    0    0  503  502  0.00000000000E+00  0.00000000000E+00  0.66052535471E+03  0.66052535471E+03  0.00000000000E+00 0.  1.
         21   -1    0    0  501  503 -0.00000000000E+00 -0.00000000000E+00 -0.87864921038E+02  0.87864921038E+02  0.00000000000E+00 0.  1.
          6    2    1    2  501    0 -0.11522843529E+03  0.72690244904E+02  0.43728103567E+03  0.48979035583E+03  0.17354660614E+03 0.  0.
         24    2    3    3    0    0 -0.14758627999E+03  0.40211021487E+02  0.36974916690E+03  0.40803111558E+03  0.79851791253E+02 0.  0.
         -6    2    1    2    0  502  0.11522843529E+03 -0.72690244904E+02  0.13537939801E+03  0.25859991992E+03  0.17316140787E+03 0.  0.
        -24    2    5    5    0    0  0.29983464966E+02 -0.76642707004E+02  0.22355734012E+02  0.11690035907E+03  0.79955002344E+02 0.  0.
          5    1    3    3  501    0  0.32357844696E+02  0.32479223417E+02  0.67531868767E+02  0.81759240250E+02  0.47000000000E+01 0. -1.
        -11    1    4    4    0    0 -0.42016741572E+02  0.13056668375E+02  0.35742553443E+02  0.56686976353E+02  0.00000000000E+00 0.  1.
         12    1    4    4    0    0 -0.10556953842E+03  0.27154353112E+02  0.33400661346E+03  0.35134413923E+03  0.00000000000E+00 0. -1.
         -5    1    5    5    0  502  0.85244970325E+02  0.39524620996E+01  0.11302366399E+03  0.14169956085E+03  0.47000000000E+01 0.  1.
         13    1    6    6    0    0 -0.12752656089E+02  0.10552994330E+02 -0.23047552366E+01  0.16712504999E+02  0.00000000000E+00 0. -1.
        -14    1    6    6    0    0  0.42736121054E+02 -0.87195701333E+02  0.24660489249E+02  0.10018785407E+03  0.00000000000E+00 0.  1.
</event>
<event>
12    1  0.8488291E-002  0.1891506E+03  0.7818608E-02  0.1159415E+00
         21   -1    0    0  501  502  0.00000000000E+00  0.00000000000E+00  0.18686544259E+03  0.18686544259E+03  0.00000000000E+00 0. -1.
         21   -1    0    0  502  503 -0.00000000000E+00 -0.00000000000E+00 -0.27353952635E+03  0.27353952635E+03  0.00000000000E+00 0.  1.
         -6    2    1    2    0  503 -0.76492340733E+02  0.16540078574E+01 -0.17013084976E+03  0.25440605530E+03  0.17298589827E+03 0.  0.
        -24    2    3    3    0    0 -0.36701230007E+02 -0.71657942041E+00 -0.21258868505E+02  0.10021815377E+03  0.90797825328E+02 0.  0.
          6    2    1    2  501    0  0.76492340733E+02 -0.16540078574E+01  0.83456765996E+02  0.20599891364E+03  0.17209505134E+03 0.  0.
         24    2    5    5    0    0 -0.26979685555E+02 -0.85683441046E+01  0.34274195426E+02  0.91128188396E+02  0.79550652385E+02 0.  0.
          5    1    5    5  501    0  0.10347202629E+03  0.69143362472E+01  0.49182570570E+02  0.11487072524E+03  0.47000000000E+01 0. -1.
        -13    1    6    6    0    0  0.10919042289E+02 -0.19762894332E+02 -0.15638582449E+02  0.27465664709E+02  0.00000000000E+00 0.  1.
         14    1    6    6    0    0 -0.37898727844E+02  0.11194550228E+02  0.49912777875E+02  0.63662523687E+02  0.00000000000E+00 0. -1.
         -5    1    3    3    0  503 -0.39791110726E+02  0.23705872778E+01 -0.14887198126E+03  0.15418790154E+03  0.47000000000E+01 0.  1.
         11    1    4    4    0    0  0.24973377531E+02  0.78490417265E+01  0.12914802242E+02  0.29190223676E+02  0.00000000000E+00 0. -1.
        -12    1    4    4    0    0 -0.61674607538E+02 -0.85656211470E+01 -0.34173670747E+02  0.71027930091E+02  0.00000000000E+00 0.  1.
</event>
<event>
12    1  0.8488291E-002  0.2757812E+03  0.7818608E-02  0.1098119E+00
         21   -1    0    0  501  502  0.00000000000E+00  0.00000000000E+00  0.28760601000E+03  0.28760601000E+03  0.00000000000E+00 0. -1.
         21   -1    0    0  502  503 -0.00000000000E+00 -0.00000000000E+00 -0.31870572476E+03  0.31870572476E+03  0.00000000000E+00 0. -1.
         -6    2    1    2    0  503  0.21536292510E+03  0.27456504763E+01 -0.14147548966E+03  0.30995253060E+03  0.17223974264E+03 0.  0.
        -24    2    3    3    0    0  0.22936623004E+03  0.11938132473E+02 -0.96488990672E+02  0.26171904259E+03  0.80220604851E+02 0.  0.
          6    2    1    2  501    0 -0.21536292510E+03 -0.27456504763E+01  0.11037577490E+03  0.29635920417E+03  0.17104747325E+03 0.  0.
         24    2    5    5    0    0 -0.60187396823E+02  0.19378812254E+02  0.33906866618E+02  0.12189281668E+03  0.98539951564E+02 0.  0.
          5    1    5    5  501    0 -0.15517552828E+03 -0.22124462730E+02  0.76468908278E+02  0.17446638748E+03  0.47000000000E+01 0. -1.
        -11    1    6    6    0    0 -0.48503959621E+02  0.58373422682E+02  0.27282764368E+02  0.80650107291E+02  0.00000000000E+00 0.  1.
         12    1    6    6    0    0 -0.11683437202E+02 -0.38994610428E+02  0.66241022492E+01  0.41242709391E+02  0.00000000000E+00 0. -1.
         -5    1    3    3    0  503 -0.14003304939E+02 -0.91924819964E+01 -0.44986498985E+02  0.48233488008E+02  0.47000000000E+01 0.  1.
         13    1    4    4    0    0  0.15402570615E+03  0.20347209286E+02 -0.24703316245E+02  0.15731554568E+03  0.00000000000E+00 0. -1.
        -14    1    4    4    0    0  0.75340523896E+02 -0.84090768133E+01 -0.71785674427E+02  0.10440349691E+03  0.00000000000E+00 0.  1.
</event>
<event>
12    1  0.8488291E-002  0.1733430E+03  0.7818608E-02  0.1175118E+00
         21   -1    0    0  501  502  0.00000000000E+00  0.00000000000E+00  0.26242132434E+03  0.26242132434E+03  0.00000000000E+00 0.  1.
         21   -1    0    0  502  503 -0.00000000000E+00 -0.00000000000E+00 -0.13078311492E+03  0.13078311492E+03  0.00000000000E+00 0.  1.
         -6    2    1    2    0  503 -0.24441339253E+01  0.67236714413E+01 -0.68769939156E+01  0.17347931886E+03  0.17319526401E+03 0.  0.
        -24    2    3    3    0    0  0.67100030083E+02 -0.50160384916E+01 -0.92166173774E+01  0.10275608805E+03  0.77112209910E+02 0.  0.
          6    2    1    2  501    0  0.24441339253E+01 -0.67236714413E+01  0.13851520333E+03  0.21972512041E+03  0.17041562556E+03 0.  0.
         24    2    5    5    0    0  0.65831088073E+02  0.73841842219E+01  0.96239888577E+02  0.14209632559E+03  0.80876394940E+02 0.  0.
          5    1    5    5  501    0 -0.63386954148E+02 -0.14107855663E+02  0.42275314757E+02  0.77628794821E+02  0.47000000000E+01 0. -1.
        -13    1    6    6    0    0  0.30423118855E+02  0.32227884520E+02  0.87332346622E+02  0.97934373271E+02  0.00000000000E+00 0.  1.
         14    1    6    6    0    0  0.35407969218E+02 -0.24843700298E+02  0.89075419548E+01  0.44161952316E+02  0.00000000000E+00 0. -1.
         -5    1    3    3    0  503 -0.69544164008E+02  0.11739709933E+02  0.23396234618E+01  0.70723230800E+02  0.47000000000E+01 0.  1.
         13    1    4    4    0    0  0.50192455010E+02 -0.13358194097E+02  0.29471585584E+02  0.59718491661E+02  0.00000000000E+00 0. -1.
        -14    1    4    4    0    0  0.16907575073E+02  0.83421556054E+01 -0.38688202961E+02  0.43037596394E+02  0.00000000000E+00 0.  1.
</event>
<event>
12    1  0.8488291E-002  0.2179057E+03  0.7818608E-02  0.1135835E+00
         21   -1    0    0  503  502  0.00000000000E+00  0.00000000000E+00  0.42669891342E+03  0.42669891342E+03  0.00000000000E+00 0.  1.
         21   -1    0    0  501  503 -0.00000000000E+00 -0.00000000000E+00 -0.20640901086E+03  0.20640901086E+03  0.00000000000E+00 0. -1.
          6    2    1    2  501    0 -0.11262554579E+02 -0.13046112862E+03 -0.10563594863E+03  0.24216076192E+03  0.17417212679E+03 0.  0.
         24    2    3    3    0    0  0.52448951282E+02 -0.59959499439E+02 -0.88792094675E+02  0.14554067543E+03  0.83378762669E+02 0.  0.
         -6    2    1    2    0  502  0.11262554579E+02  0.13046112862E+03  0.32592585119E+03  0.39094716236E+03  0.17165393112E+03 0.  0.
        -24    2    5    5    0    0  0.32498119291E+02  0.15617561144E+03  0.29432496067E+03  0.34476393904E+03  0.82389573491E+02 0.  0.
          5    1    3    3  501    0 -0.63711505861E+02 -0.70501629185E+02 -0.16843853955E+02  0.96620086487E+02  0.47000000000E+01 0. -1.
        -13    1    4    4    0    0  0.57510181187E+02 -0.49285616563E+02 -0.10249868841E+03  0.12744596528E+03  0.00000000000E+00 0.  1.
         14    1    4    4    0    0 -0.50612299053E+01 -0.10673882877E+02  0.13706593731E+02  0.18094710153E+02  0.00000000000E+00 0. -1.
         -5    1    5    5    0  502 -0.21235564712E+02 -0.25714482817E+02  0.31600890516E+02  0.46183223324E+02  0.47000000000E+01 0.  1.
         13    1    6    6    0    0  0.50295428024E+01  0.28097057493E+02  0.76061509863E+01  0.29539710110E+02  0.00000000000E+00 0. -1.
        -14    1    6    6    0    0  0.27468576489E+02  0.12807855395E+03  0.28671880968E+03  0.31522422893E+03  0.00000000000E+00 0.  1.
</event>
<event>
12    1  0.8488291E-002  0.1810153E+03  0.7818608E-02  0.1167335E+00
         21   -1    0    0  503  502  0.00000000000E+00  0.00000000000E+00  0.19104537554E+02  0.19104537554E+02  0.00000000000E+00 0.  1.
         21   -1    0    0  501  503 -0.00000000000E+00 -0.00000000000E+00 -0.18616074813E+04  0.18616074813E+04  0.00000000000E+00 0.  1.
          6    2    1    2  501    0  0.48359770413E+02  0.28228743690E+02 -0.63511498881E+03  0.65983027609E+03  0.16991001994E+03 0.  0.
         24    2    3    3    0    0  0.56177130585E+02 -0.40401768362E+02 -0.30598709113E+03  0.32349930617E+03  0.78965361149E+02 0.  0.
         -6    2    1    2    0  502 -0.48359770413E+02 -0.28228743690E+02 -0.12073879549E+04  0.12208817427E+04  0.17213665127E+03 0.  0.
        -24    2    5    5    0    0  0.28990209796E+00 -0.65152175217E+02 -0.47611481716E+03  0.48704755000E+03  0.79278665866E+02 0.  0.
          5    1    3    3  501    0 -0.78173601722E+01  0.68630512052E+02 -0.32912789767E+03  0.33633096992E+03  0.47000000000E+01 0. -1.
        -13    1    4    4    0    0  0.34342823360E+02 -0.10342658100E+02 -0.35471090816E+02  0.50444012297E+02  0.00000000000E+00 0.  1.
         14    1    4    4    0    0  0.21834307225E+02 -0.30059110262E+02 -0.27051600032E+03  0.27305529387E+03  0.00000000000E+00 0. -1.
         -5    1    5    5    0  502 -0.48649672511E+02  0.36923431528E+02 -0.73127313774E+03  0.73383419272E+03  0.47000000000E+01 0.  1.
         13    1    6    6    0    0  0.13839485305E+02 -0.41490429325E+02 -0.43803006266E+03  0.44020827215E+03  0.00000000000E+00 0. -1.
        -14    1    6    6    0    0 -0.13549583207E+02 -0.23661745892E+02 -0.38084754505E+02  0.46839277850E+02  0.00000000000E+00 0.  1.
</event>
<event>
12    1  0.8488291E-002  0.1832703E+03  0.7818608E-02  0.1164796E+00
         21   -1    0    0  503  502  0.00000000000E+00  0.00000000000E+00  0.22390189202E+03  0.22390189202E+03  0.00000000000E+00 0.  1.
         21   -1    0    0  501  503 -0.00000000000E+00 -0.00000000000E+00 -0.14963763368E+03  0.14963763368E+03  0.00000000000E+00 0.  1.
          6    2    1    2  501    0 -0.31603693191E+02 -0.56777777326E+02  0.33892474898E+02  0.18587524946E+03  0.17081685831E+03 0.  0.
         24    2    3    3    0    0  0.90801786071E+01 -0.43314420152E+02 -0.40294591861E+02  0.10007169309E+03  0.80200380223E+02 0.  0.
         -6    2    1    2    0  502  0.31603693191E+02  0.56777777326E+02  0.40371783443E+02  0.18766427625E+03  0.17136362000E+03 0.  0.
        -24    2    5    5    0    0  0.36807867900E+01  0.49250762923E+02  0.89905296644E+02  0.13011426689E+03  0.80047325022E+02 0.  0.
          5    1    3    3  501    0 -0.40683871798E+02 -0.13463357174E+02  0.74187066759E+02  0.85803556366E+02  0.47000000000E+01 0. -1.
        -13    1    4    4    0    0  0.64368087068E+01 -0.43039846287E+02  0.13997779775E+02  0.45714316285E+02  0.00000000000E+00 0.  1.
         14    1    4    4    0    0  0.26433699003E+01 -0.27457386453E+00 -0.54292371636E+02  0.54357376804E+02  0.00000000000E+00 0. -1.
         -5    1    5    5    0  502  0.27922906401E+02  0.75270144024E+01 -0.49533513201E+02  0.57550009363E+02  0.47000000000E+01 0.  1.
         13    1    6    6    0    0  0.12047778869E+02 -0.18492801489E+02  0.39550428441E+02  0.45292042043E+02  0.00000000000E+00 0. -1.
        -14    1    6    6    0    0 -0.83669920791E+01  0.67743564413E+02  0.50354868203E+02  0.84822224844E+02  0.00000000000E+00 0.  1.
</event>
<event>
12    1  0.8488291E-002  0.2367475E+03  0.7818608E-02  0.1122303E+00
         21   -1    0    0  501  502  0.00000000000E+00  0.00000000000E+00  0.28859604865E+03  0.28859604865E+03  0.00000000000E+00 0. -1.
         21   -1    0    0  502  503 -0.00000000000E+00 -0.00000000000E+00 -0.36981561042E+03  0.36981561042E+03  0.00000000000E+00 0.  1.
         -6    2    1    2    0  503  0.16044088819E+03 -0.38686489813E+01 -0.26854984817E+03  0.35800614774E+03  0.17404923390E+03 0.  0.
        -24    2    3    3    0    0  0.23380847743E+02  0.47205102776E+01 -0.43105667201E+02  0.93986457046E+02  0.80040041883E+02 0.  0.
          6    2    1    2  501    0 -0.16044088819E+03  0.38686489813E+01  0.18733028640E+03  0.30040551133E+03  0.17144850534E+03 0.  0.
         24    2    5    5    0    0 -0.12989182148E+03  0.34804233793E+02  0.20069722519E+03  0.25467782893E+03  0.80611415877E+02 0.  0.
          5    1    5    5  501    0 -0.30549066716E+02 -0.30935584812E+02 -0.13366938796E+02  0.45727682400E+02  0.47000000000E+01 0. -1.
        -13    1    6    6    0    0 -0.42577222958E+02  0.47431049377E+02  0.11611876282E+03  0.13246166026E+03  0.00000000000E+00 0.  1.
         14    1    6    6    0    0 -0.87314598520E+02 -0.12626815584E+02  0.84578462379E+02  0.12221616867E+03  0.00000000000E+00 0. -1.
         -5    1    3    3    0  503  0.13706004045E+03 -0.85891592589E+01 -0.22544418097E+03  0.26401969070E+03  0.47000000000E+01 0.  1.
         11    1    4    4    0    0  0.14539795482E+02  0.13246688473E+02 -0.65530223342E+02  0.68418495887E+02  0.00000000000E+00 0. -1.
        -12    1    4    4    0    0  0.88410522608E+01 -0.85261781951E+01  0.22424556141E+02  0.25567961159E+02  0.00000000000E+00 0.  1.
</event>
<event>
12    1  0.8488291E-002  0.2086851E+03  0.7818608E-02  0.1143040E+00
         21   -1    0    0  501  502  0.00000000000E+00  0.00000000000E+00  0.15804709671E+03  0.15804709671E+03  0.00000000000E+00 0. -1.
         21   -1    0    0  502  503 -0.00000000000E+00 -0.00000000000E+00 -0.32719515393E+03  0.32719515393E+03  0.00000000000E+00 0.  1.
         -6    2    1    2    0  503  0.74182542234E+02  0.87354929749E+02 -0.18319161290E+03  0.27608512159E+03  0.17184264315E+03 0.  0.
        -24    2    3    3    0    0  0.73173344417E+02  0.75358561251E+02 -0.47871918274E+02  0.14014969173E+03  0.79479333453E+02 0.  0.
          6    2    1    2  501    0 -0.74182542234E+02 -0.87354929749E+02  0.14043555689E+02  0.20915712905E+03  0.17440054429E+03 0.  0.
         24    2    5    5    0    0  0.81430390748E+01 -0.91278960489E+02 -0.14327745292E+02  0.12186497548E+03  0.79041952467E+02 0.  0.
          5    1    5    5  501    0 -0.82325581309E+02  0.39240307397E+01  0.28371300981E+02  0.87292153568E+02  0.47000000000E+01 0. -1.
        -13    1    6    6    0    0 -0.32654819865E+02 -0.41452534134E+02  0.86823681691E+01  0.53479279759E+02  0.00000000000E+00 0.  1.
         14    1    6    6    0    0  0.40797858940E+02 -0.49826426356E+02 -0.23010113461E+02  0.68385695719E+02  0.00000000000E+00 0. -1.
         -5    1    3    3    0  503  0.10091978171E+01  0.11996368498E+02 -0.13531969463E+03  0.13593542986E+03  0.47000000000E+01 0.  1.
         13    1    4    4    0    0  0.57541334080E+02  0.46373771682E+02 -0.68931874526E+02  0.10106005716E+03  0.00000000000E+00 0. -1.
        -14    1    4    4    0    0  0.15632010337E+02  0.28984789569E+02  0.21059956251E+02  0.39089634570E+02  0.00000000000E+00 0.  1.
</event>
<event>
12    1  0.8488291E-002  0.1877399E+03  0.7818608E-02  0.1160880E+00
         21   -1    0    0  501  502  0.00000000000E+00  0.00000000000E+00  0.11158838862E+03  0.11158838862E+03  0.00000000000E+00 0.  1.
         21   -1    0    0  502  503 -0.00000000000E+00 -0.00000000000E+00 -0.33415977535E+03  0.33415977535E+03  0.00000000000E+00 0.  1.
         -6    2    1    2    0  503 -0.50729334493E+02 -0.57061061769E+02 -0.16754150629E+03  0.25162752186E+03  0.17151333265E+03 0.  0.
        -24    2    3    3    0    0 -0.39879269306E+02 -0.57621004009E+02 -0.27381639873E+02  0.11096865934E+03  0.81570539601E+02 0.  0.
          6    2    1    2  501    0  0.50729334493E+02  0.57061061769E+02 -0.55029880446E+02  0.19412064211E+03  0.16977958005E+03 0.  0.
         24    2    5    5    0    0  0.31687280054E+02  0.71370281197E+02 -0.95303898763E+02  0.14709469024E+03  0.80350569516E+02 0.  0.
          5    1    5    5  501    0  0.19042054439E+02 -0.14309219428E+02  0.40274018318E+02  0.47025951871E+02  0.47000000000E+01 0. -1.
        -11    1    6    6    0    0  0.45008627516E+02  0.51240437583E+02 -0.24794817148E+02  0.72568188292E+02  0.00000000000E+00 0.  1.
         12    1    6    6    0    0 -0.13321347462E+02  0.20129843613E+02 -0.70509081616E+02  0.74526501946E+02  0.00000000000E+00 0. -1.
         -5    1    3    3    0  503 -0.10850065188E+02  0.55994224041E+00 -0.14015986642E+03  0.14065886252E+03  0.47000000000E+01 0.  1.
         13    1    4    4    0    0  0.21981628583E+01 -0.43149605008E+02  0.18549031044E+02  0.47019005571E+02  0.00000000000E+00 0. -1.
        -14    1    4    4    0    0 -0.42077432164E+02 -0.14471399002E+02 -0.45930670917E+02  0.63949653771E+02  0.00000000000E+00 0.  1.
</event>
<event>
12    1  0.8488291E-002  0.2596944E+03  0.7818608E-02  0.1107361E+00
         21   -1    0    0  501  502  0.00000000000E+00  0.00000000000E+00  0.11233821247E+04  0.11233821247E+04  0.00000000000E+00 0.  1.
         21   -1    0    0  502  503 -0.00000000000E+00 -0.00000000000E+00 -0.63617838670E+02  0.63617838670E+02  0.00000000000E+00 0.  1.
         -6    2    1    2    0  503 -0.57175317804E+02 -0.18580084010E+03  0.38776365181E+03  0.46656535237E+03  0.17184763372E+03 0.  0.
        -24    2    3    3    0    0  0.78360659323E+01 -0.17685792733E+03  0.30134536831E+03  0.35795289715E+03  0.77337669931E+02 0.  0.
          6    2    1    2  501    0  0.57175317804E+02  0.18580084010E+03  0.67200063419E+03  0.72043461097E+03  0.17219235520E+03 0.  0.
         24    2    5    5    0    0  0.53329628556E+02  0.15589230627E+03  0.31290917386E+03  0.36004860042E+03  0.67648970007E+02 0.  0.
          5    1    5    5  501    0  0.38456892478E+01  0.29908533832E+02  0.35909146033E+03  0.36038601055E+03  0.47000000000E+01 0. -1.
        -11    1    6    6    0    0  0.10443681356E+02  0.12020363326E+03  0.19006788108E+03  0.22513059176E+03  0.00000000000E+00 0.  1.
         12    1    6    6    0    0  0.42885947200E+02  0.35688673011E+02  0.12284129278E+03  0.13491800866E+03  0.00000000000E+00 0. -1.
         -5    1    3    3    0  503 -0.65011383736E+02 -0.89429127690E+01  0.86418283506E+02  0.10861245522E+03  0.47000000000E+01 0.  1.
         13    1    4    4    0    0  0.25431794828E+01 -0.36806207521E+02  0.13739757770E+03  0.14226474979E+03  0.00000000000E+00 0. -1.
        -14    1    4    4    0    0  0.52928864496E+01 -0.14005171981E+03  0.16394779060E+03  0.21568814736E+03  0.00000000000E+00 0.  1.
</event>
<event>
12    1  0.8488291E-002  0.2482083E+03  0.7818608E-02  0.1114624E+00
         21   -1    0    0  503  502  0.00000000000E+00  0.00000000000E+00  0.69805174297E+03  0.69805174297E+03  0.00000000000E+00 0.  1.
         21   -1    0    0  501  503 -0.00000000000E+00 -0.00000000000E+00 -0.12188014106E+03  0.12188014106E+03  0.00000000000E+00 0.  1.
          6    2    1    2  501    0 -0.16083795387E+03  0.74465709167E+02  0.71943281051E+02  0.25842441500E+03  0.17376234728E+03 0.  0.
         24    2    3    3    0    0 -0.17445486469E+03  0.32275093388E+02  0.84213336867E+02  0.21218468544E+03  0.80338491148E+02 0.  0.
         -6    2    1    2    0  502  0.16083795387E+03 -0.74465709167E+02  0.50422832086E+03  0.56150746903E+03  0.17213497312E+03 0.  0.
        -24    2    5    5    0    0  0.41101722307E+02 -0.75917809063E+02  0.17668010237E+03  0.21272558994E+03  0.81138478750E+02 0.  0.
          5    1    3    3  501    0  0.13616910820E+02  0.42190615779E+02 -0.12270055816E+02  0.46239729560E+02  0.47000000000E+01 0. -1.
        -11    1    4    4    0    0 -0.32412026410E+02  0.41036085040E+02  0.26378272409E+02  0.58568873872E+02  0.00000000000E+00 0.  1.
         12    1    4    4    0    0 -0.14204283828E+03 -0.87609916518E+01  0.57835064459E+02  0.15361581157E+03  0.00000000000E+00 0. -1.
         -5    1    5    5    0  502  0.11973623157E+03  0.14520998962E+01  0.32754821849E+03  0.34878187909E+03  0.47000000000E+01 0.  1.
         11    1    6    6    0    0 -0.23652364193E+02 -0.33124686951E+02  0.55666514701E+02  0.68959698929E+02  0.00000000000E+00 0. -1.
        -12    1    6    6    0    0  0.64754086500E+02 -0.42793122112E+02  0.12101358767E+03  0.14376589101E+03  0.00000000000E+00 0.  1.
</event>
<event>
12    1  0.8488291E-002  0.3608069E+03  0.7818608E-02  0.1058268E+00
         21   -1    0    0  503  502  0.00000000000E+00  0.00000000000E+00  0.12447749129E+03  0.12447749129E+03  0.00000000000E+00 0. -1.
         21   -1    0    0  501  503 -0.00000000000E+00 -0.00000000000E+00 -0.10496198994E+04  0.10496198994E+04  0.00000000000E+00 0. -1.
          6    2    1    2  501    0 -0.29143308225E+03 -0.12444288502E+03 -0.49824603739E+03  0.61515006427E+03  0.17245641403E+03 0.  0.
         24    2    3    3    0    0 -0.20853058008E+03 -0.90883914946E+02 -0.45762204360E+03  0.51680664452E+03  0.76982362903E+02 0.  0.
         -6    2    1    2    0  502  0.29143308225E+03  0.12444288502E+03 -0.42689637072E+03  0.55894732641E+03  0.17251762028E+03 0.  0.
        -24    2    5    5    0    0  0.58875812805E+02  0.26484190277E+02 -0.83641281077E+02  0.13288989365E+03  0.80598301878E+02 0.  0.
          5    1    3    3  501    0 -0.82902502171E+02 -0.33558970070E+02 -0.40623993783E+02  0.98343419755E+02  0.47000000000E+01 0. -1.
        -13    1    4    4    0    0 -0.11280335476E+03 -0.84790761179E+02 -0.23060448684E+03  0.27035624531E+03  0.00000000000E+00 0.  1.
         14    1    4    4    0    0 -0.95727225323E+02 -0.60931537676E+01 -0.22701755676E+03  0.24645039921E+03  0.00000000000E+00 0. -1.
         -5    1    5    5    0  502  0.23255726945E+03  0.97958694740E+02 -0.34325508964E+03  0.42605743276E+03  0.47000000000E+01 0.  1.
         13    1    6    6    0    0  0.61338391405E+02 -0.67900327801E+01 -0.27457288918E+02  0.67545581055E+02  0.00000000000E+00 0. -1.
        -14    1    6    6    0    0 -0.24625785999E+01  0.33274223057E+02 -0.56183992159E+02  0.65344312594E+02  0.00000000000E+00 0.  1.
</event>
<event>
12    1  0.8488291E-002  0.1787765E+03  0.7818608E-02  0.1169183E+00
         21   -1    0    0  503  502  0.00000000000E+00  0.00000000000E+00  0.57238837387E+02  0.57238837387E+02  0.00000000000E+00 0.  1.
         21   -1    0    0  501  503 -0.00000000000E+00 -0.00000000000E+00 -0.73914174151E+03  0.73914174151E+03  0.00000000000E+00 0.  1.
          6    2    1    2  501    0  0.41834252235E+02 -0.23279776684E+02 -0.53862613313E+03  0.56727524426E+03  0.17143814863E+03 0.  0.
         24    2    3    3    0    0  0.52625638763E+01 -0.44784643183E+02 -0.50419261758E+03  0.51243269996E+03  0.79647457739E+02 0.  0.
         -6    2    1    2    0  502 -0.41834252235E+02  0.23279776684E+02 -0.14327677100E+03  0.22910533463E+03  0.17224682461E+03 0.  0.
        -24    2    5    5    0    0 -0.93799331764E+00 -0.46024026889E+00 -0.16100746690E+03  0.17838492478E+03  0.76789877841E+02 0.  0.
          5    1    3    3  501    0  0.36571688359E+02  0.21504866498E+02 -0.34433515546E+02  0.54842544301E+02  0.47000000000E+01 0. -1.
        -13    1    4    4    0    0 -0.35845929308E+02 -0.32264353376E+02 -0.28808018770E+03  0.29208922214E+03  0.00000000000E+00 0.  1.
         14    1    4    4    0    0  0.41108493184E+02 -0.12520289806E+02 -0.21611242988E+03  0.22034347782E+03  0.00000000000E+00 0. -1.
         -5    1    5    5    0  502 -0.40896258917E+02  0.23740016953E+02  0.17730695904E+02  0.50720409853E+02  0.47000000000E+01 0.  1.
         13    1    6    6    0    0  0.17455398868E+02 -0.57582604079E+01 -0.22961481143E+01  0.18523520420E+02  0.00000000000E+00 0. -1.
        -14    1    6    6    0    0 -0.18393392186E+02  0.52980201390E+01 -0.15871131879E+03  0.15986140436E+03  0.00000000000E+00 0.  1.
</event>
<event>
12    1  0.8488291E-002  0.1846720E+03  0.7818608E-02  0.1163906E+00
         21   -1    0    0  501  502  0.00000000000E+00  0.00000000000E+00  0.86377616265E+02  0.86377616265E+02  0.00000000000E+00 0. -1.
         21   -1    0    0  502  503 -0.00000000000E+00 -0.00000000000E+00 -0.86260417577E+03  0.86260417577E+03  0.00000000000E+00 0. -1.
         -6    2    1    2    0  503 -0.49482576925E+02  0.35870857487E+02 -0.74049205118E+03  0.76317247189E+03  0.17426560233E+03 0.  0.
        -24    2    3    3    0    0 -0.20554093129E+02  0.82353549538E+02 -0.61700340647E+03  0.62800948433E+03  0.80610985252E+02 0.  0.
          6    2    1    2  501    0  0.49482576925E+02 -0.35870857487E+02 -0.35734508322E+02  0.18580932014E+03  0.17179320281E+03 0.  0.
         24    2    5    5    0    0  0.76961106695E+02  0.20678229780E+02 -0.48524247476E+02  0.12147786363E+03  0.77792465116E+02 0.  0.
          5    1    5    5  501    0 -0.27478529770E+02 -0.56549087267E+02  0.12789739154E+02  0.64331456510E+02  0.47000000000E+01 0. -1.
        -13    1    6    6    0    0 -0.12013474577E+02 -0.90999725222E+00 -0.23746842327E+02  0.26628259179E+02  0.00000000000E+00 0.  1.
         14    1    6    6    0    0  0.88974581272E+02  0.21588227032E+02 -0.24777405149E+02  0.94849604453E+02  0.00000000000E+00 0. -1.
         -5    1    3    3    0  503 -0.28928483796E+02 -0.46482692050E+02 -0.12348864471E+03  0.13516298757E+03  0.47000000000E+01 0.  1.
         13    1    4    4    0    0  0.20411643765E+02  0.34140152571E+02 -0.39995904824E+03  0.40193211552E+03  0.00000000000E+00 0. -1.
        -14    1    4    4    0    0 -0.40965736894E+02  0.48213396967E+02 -0.21704435823E+03  0.22607736880E+03  0.00000000000E+00 0.  1.
</event>
<event>
12    1  0.8488291E-002  0.2376280E+03  0.7818608E-02  0.1121432E+00
         21   -1    0    0  501  502  0.00000000000E+00  0.00000000000E+00  0.78929389494E+03  0.78929389494E+03  0.00000000000E+00 0. -1.
         21   -1    0    0  502  503 -0.00000000000E+00 -0.00000000000E+00 -0.12354949111E+03  0.12354949111E+03  0.00000000000E+00 0. -1.
         -6    2    1    2    0  503 -0.14107995223E+03 -0.76790302569E+02  0.36611305389E+02  0.24043178798E+03  0.17511925508E+03 0.  0.
        -24    2    3    3    0    0 -0.12224221420E+03 -0.60789249266E+02 -0.36559133335E+02  0.16305674560E+03  0.81316912735E+02 0.  0.
          6    2    1    2  501    0  0.14107995223E+03  0.76790302569E+02  0.62913309844E+03  0.67241159806E+03  0.17472434906E+03 0.  0.
         24    2    5    5    0    0  0.92488500827E+02  0.23534771863E+02  0.18786219346E+03  0.22526578036E+03  0.79652117345E+02 0.  0.
          5    1    5    5  501    0  0.48591451407E+02  0.53255530707E+02  0.44127090498E+03  0.44714581770E+03  0.47000000000E+01 0. -1.
        -11    1    6    6    0    0 -0.11241064593E+02  0.16119849934E+02  0.39062960572E+02  0.43727862785E+02  0.00000000000E+00 0.  1.
         12    1    6    6    0    0  0.10372956542E+03  0.74149219292E+01  0.14879923289E+03  0.18153791757E+03  0.00000000000E+00 0. -1.
         -5    1    3    3    0  503 -0.18837738038E+02 -0.16001053303E+02  0.73170438724E+02  0.77375042387E+02  0.47000000000E+01 0.  1.
         13    1    4    4    0    0 -0.41722657265E+02  0.16827643791E+02 -0.22614950029E+02  0.50352613533E+02  0.00000000000E+00 0. -1.
        -14    1    4    4    0    0 -0.80519556931E+02 -0.77616893058E+02 -0.13944183306E+02  0.11270413206E+03  0.00000000000E+00 0.  1.
</event>
<event>
12    1  0.8488291E-002  0.2671718E+03  0.7818608E-02  0.1103470E+00
         21   -1    0    0  501  502  0.00000000000E+00  0.00000000000E+00  0.27402710860E+03  0.27402710860E+03  0.00000000000E+00 0. -1.
         21   -1    0    0  502  503 -0.00000000000E+00 -0.00000000000E+00 -0.51401496539E+03  0.51401496539E+03  0.00000000000E+00 0.  1.
         -6    2    1    2    0  503  0.19220110306E+03 -0.60489283649E+02 -0.39917304972E+03  0.48033310758E+03  0.17544387467E+03 0.  0.
        -24    2    3    3    0    0  0.13549025185E+03  0.22952904935E+02 -0.29258930224E+03  0.33349678814E+03  0.82019288706E+02 0.  0.
          6    2    1    2  501    0 -0.19220110306E+03  0.60489283649E+02  0.15918519293E+03  0.30770896642E+03  0.16954251653E+03 0.  0.
         24    2    5    5    0    0 -0.12827301375E+03 -0.88873642529E-01  0.32706199745E+02  0.15351577765E+03  0.77739465729E+02 0.  0.
          5    1    5    5  501    0 -0.63928089313E+02  0.60578157292E+02  0.12647899318E+03  0.15419318876E+03  0.47000000000E+01 0. -1.
        -11    1    6    6    0    0 -0.33581287131E+02  0.34798569196E+02  0.36261787658E+01  0.48495282615E+02  0.00000000000E+00 0.  1.
         12    1    6    6    0    0 -0.94691726620E+02 -0.34887442839E+02  0.29080020979E+02  0.10502049504E+03  0.00000000000E+00 0. -1.
         -5    1    3    3    0  503  0.56710851213E+02 -0.83442188584E+02 -0.10658374747E+03  0.14683631944E+03  0.47000000000E+01 0.  1.
         13    1    4    4    0    0  0.52161248594E+02  0.50147622944E+02 -0.13522753609E+03  0.15336905313E+03  0.00000000000E+00 0. -1.
        -14    1    4    4    0    0  0.83329003257E+02 -0.27194718009E+02 -0.15736176616E+03  0.18012773501E+03  0.00000000000E+00 0.  1.
</event>
<event>
12    1  0.8488291E-002  0.1767454E+03  0.7818608E-02  0.1171577E+00
         21   -1    0    0  501  502  0.00000000000E+00  0.00000000000E+00  0.40751457858E+02  0.40751457858E+02  0.00000000000E+00 0. -1.
         21   -1    0    0  502  503 -0.00000000000E+00 -0.00000000000E+00 -0.11654363787E+04  0.11654363787E+04  0.00000000000E+00 0. -1.
         -6    2    1    2    0  503  0.27199393380E+02  0.13384518097E+02 -0.92206181760E+03  0.93884872159E+03  0.17412631693E+03 0.  0.
        -24    2    3    3    0    0 -0.29345074963E+02  0.67728371105E+01 -0.24960556902E+03  0.26397059373E+03  0.80439601688E+02 0.  0.
          6    2    1    2  501    0 -0.27199393380E+02 -0.13384518097E+02 -0.20262310329E+03  0.26733911501E+03  0.17174145714E+03 0.  0.
         24    2    5    5    0    0  0.41583659036E+02  0.25660945723E+02 -0.77995440151E+02  0.11965769788E+03  0.76465620668E+02 0.  0.
          5    1    5    5  501    0 -0.68783052416E+02 -0.39045463820E+02 -0.12462766314E+03  0.14768141712E+03  0.47000000000E+01 0. -1.
        -13    1    6    6    0    0  0.55171801558E+02 -0.53169794687E+01 -0.58617262522E+02  0.80673300561E+02  0.00000000000E+00 0.  1.
         14    1    6    6    0    0 -0.13588142522E+02  0.30977925192E+02 -0.19378177630E+02  0.38984397323E+02  0.00000000000E+00 0. -1.
         -5    1    3    3    0  503  0.56544468343E+02  0.66116809861E+01 -0.67245624857E+03  0.67487812786E+03  0.47000000000E+01 0.  1.
         13    1    4    4    0    0 -0.64093900768E+00  0.18954238677E+02 -0.22050484068E+03  0.22131890730E+03  0.00000000000E+00 0. -1.
        -14    1    4    4    0    0 -0.28704135955E+02 -0.12181401567E+02 -0.29100728348E+02  0.42651686431E+02  0.00000000000E+00 0.  1.
</event>
<event>
12    1  0.8488291E-002  0.2216360E+03  0.7818608E-02  0.1132777E+00
         21   -1    0    0  501  502  0.00000000000E+00  0.00000000000E+00  0.43339343621E+02  0.43339343621E+02  0.00000000000E+00 0. -1.
         21   -1    0    0  502  503 -0.00000000000E+00 -0.00000000000E+00 -0.13506593919E+04  0.13506593919E+04  0.00000000000E+00 0. -1.
         -6    2    1    2    0  503 -0.10764574909E+03  0.87903015120E+02 -0.93436376722E+03  0.96015670712E+03  0.17190318602E+03 0.  0.
        -24    2    3    3    0    0 -0.53298534226E+02 -0.92544164472E+01 -0.28432663475E+03  0.30063904256E+03  0.81337695495E+02 0.  0.
          6    2    1    2  501    0  0.10764574909E+03 -0.87903015120E+02 -0.37295628105E+03  0.43384202840E+03  0.17264984988E+03 0.  0.
         24    2    5    5    0    0  0.43265699047E+01 -0.18212965583E+02 -0.90465118891E+02  0.12504613709E+03  0.84274357558E+02 0.  0.
          5    1    5    5  501    0  0.10331917918E+03 -0.69690049537E+02 -0.28249116216E+03  0.30879589131E+03  0.47000000000E+01 0. -1.
        -13    1    6    6    0    0 -0.15828936227E+02  0.17123658400E+02 -0.79591571755E+02  0.82937284701E+02  0.00000000000E+00 0.  1.
         14    1    6    6    0    0  0.20155506132E+02 -0.35336623983E+02 -0.10873547136E+02  0.42108852386E+02  0.00000000000E+00 0. -1.
         -5    1    3    3    0  503 -0.54347214864E+02  0.97157431568E+02 -0.65003713248E+03  0.65951766456E+03  0.47000000000E+01 0.  1.
         13    1    4    4    0    0 -0.39390100619E+02  0.12863468306E+02 -0.26479608526E+03  0.26801868519E+03  0.00000000000E+00 0. -1.
        -14    1    4    4    0    0 -0.13908433606E+02 -0.22117884753E+02 -0.19530549490E+02  0.32620357367E+02  0.00000000000E+00 0.  1.
</event>
<event>
12    1  0.8488291E-002  0.3538389E+03  0.7818608E-02  0.1061076E+00
         21   -1    0    0  501  502  0.00000000000E+00  0.00000000000E+00  0.10173162775E+03  0.10173162775E+03  0.00000000000E+00 0.  1.
         21   -1    0    0  502  503 -0.00000000000E+00 -0.00000000000E+00 -0.12641142425E+04  0.12641142425E+04  0.00000000000E+00 0. -1.
         -6    2    1    2    0  503  0.60557482985E+02 -0.30322678603E+03 -0.69387075615E+03  0.77888292435E+03  0.17201247363E+03 0.  0.
        -24    2    3    3    0    0 -0.23114152034E+02 -0.94716844444E+02 -0.25162590502E+03  0.28281847632E+03  0.84647208006E+02 0.  0.
          6    2    1    2  501    0 -0.60557482985E+02  0.30322678603E+03 -0.46851185855E+03  0.58696294585E+03  0.17148890835E+03 0.  0.
         24    2    5    5    0    0 -0.30488154907E+02  0.54738402071E+02 -0.15717571072E+03  0.18745959367E+03  0.80691232292E+02 0.  0.
          5    1    5    5  501    0 -0.30069328078E+02  0.24848838396E+03 -0.31133614783E+03  0.39950335218E+03  0.47000000000E+01 0. -1.
        -11    1    6    6    0    0 -0.15473610763E+02 -0.12969354165E+02 -0.58846100374E+01  0.21030107294E+02  0.00000000000E+00 0.  1.
         12    1    6    6    0    0 -0.15014544143E+02  0.67707756237E+02 -0.15129110068E+03  0.16642948638E+03  0.00000000000E+00 0. -1.
         -5    1    3    3    0  503  0.83671635019E+02 -0.20850994159E+03 -0.44224485113E+03  0.49606444803E+03  0.47000000000E+01 0.  1.
         11    1    4    4    0    0 -0.11084481469E+02 -0.80821278580E+02 -0.95435023893E+02  0.12554994459E+03  0.00000000000E+00 0. -1.
        -12    1    4    4    0    0 -0.12029670565E+02 -0.13895565864E+02 -0.15619088113E+03  0.15726853173E+03  0.00000000000E+00 0.  1.
</event>
<event>
12    1  0.8488291E-002  0.1808401E+03  0.7818608E-02  0.1167182E+00
         21   -1    0    0  501  502  0.00000000000E+00  0.00000000000E+00  0.88847507935E+02  0.88847507935E+02  0.00000000000E+00 0.  1.
         21   -1    0    0  502  503 -0.00000000000E+00 -0.00000000000E+00 -0.11227815970E+04  0.11227815970E+04  0.00000000000E+00 0.  1.
         -6    2    1    2    0  503  0.10205583277E+02  0.55217229841E+02 -0.10145447536E+04  0.10305358725E+04  0.17190122427E+03 0.  0.
        -24    2    3    3    0    0  0.56775995518E+02 -0.11692415031E+02 -0.52603222430E+03  0.53524577041E+03  0.80111843732E+02 0.  0.
          6    2    1    2  501    0 -0.10205583277E+02 -0.55217229841E+02 -0.19389335389E+02  0.18109323243E+03  0.17107225404E+03 0.  0.
         24    2    5    5    0    0 -0.49225639362E+02 -0.55289856862E+02  0.33983566405E+02  0.11481105762E+03  0.80910841820E+02 0.  0.
          5    1    5    5  501    0  0.39020056084E+02  0.72627020506E-01 -0.53372901794E+02  0.66282174809E+02  0.47000000000E+01 0. -1.
        -13    1    6    6    0    0 -0.54842891174E+02 -0.12785617388E+02 -0.54286357204E+01  0.56574595095E+02  0.00000000000E+00 0.  1.
         14    1    6    6    0    0  0.56172518126E+01 -0.42504239474E+02  0.39412202125E+02  0.58236462526E+02  0.00000000000E+00 0. -1.
         -5    1    3    3    0  503 -0.46570412241E+02  0.66909644872E+02 -0.48851252933E+03  0.49529010204E+03  0.47000000000E+01 0.  1.
         13    1    4    4    0    0 -0.14997576024E+02 -0.18013009071E+02 -0.19868691181E+03  0.20006470130E+03  0.00000000000E+00 0. -1.
        -14    1    4    4    0    0  0.71773571543E+02  0.63205940407E+01 -0.32734531249E+03  0.33518106911E+03  0.00000000000E+00 0.  1.
</event>
<event>
12    1  0.8488291E-002  0.2363259E+03  0.7818608E-02  0.1122325E+00
         21   -1    0    0  503  502  0.00000000000E+00  0.00000000000E+00  0.41255900014E+03  0.41255900014E+03  0.00000000000E+00 0.  1.
         21   -1    0    0  501  503 -0.00000000000E+00 -0.00000000000E+00 -0.14919438406E+03  0.14919438406E+03  0.00000000000E+00 0.  1.
          6    2    1    2  501    0 -0.86442367487E+02 -0.13631221719E+03  0.45478678700E+02  0.24031256277E+03  0.17212935298E+03 0.  0.
         24    2    3    3    0    0 -0.54181892194E+02 -0.15172805655E+03 -0.29654951250E+01  0.17991956362E+03  0.80032334879E+02 0.  0.
         -6    2    1    2    0  502  0.86442367487E+02  0.13631221719E+03  0.21788593738E+03  0.32144082142E+03  0.17261696474E+03 0.  0.
        -24    2    5    5    0    0  0.43007990968E+02  0.11581015747E+03  0.63729913302E+02  0.15990739059E+03  0.79039179255E+02 0.  0.
          5    1    3    3  501    0 -0.32260475293E+02  0.15415839353E+02  0.48444173825E+02  0.60392999153E+02  0.47000000000E+01 0. -1.
        -13    1    4    4    0    0 -0.92789621678E+01 -0.12630149451E+03  0.89561318045E+01  0.12695817796E+03  0.00000000000E+00 0.  1.
         14    1    4    4    0    0 -0.44902930026E+02 -0.25426562035E+02 -0.11921626929E+02  0.52961385655E+02  0.00000000000E+00 0. -1.
         -5    1    5    5    0  502  0.43434376519E+02  0.20502059729E+02  0.15415602408E+03  0.16153343083E+03  0.47000000000E+01 0.  1.
         13    1    6    6    0    0 -0.39323198898E+01  0.14545415184E+02 -0.16578968331E+02  0.22403000547E+02  0.00000000000E+00 0. -1.
        -14    1    6    6    0    0  0.46940310858E+02  0.10126474228E+03  0.80308881632E+02  0.13750439005E+03  0.00000000000E+00 0.  1.
</event>
<event>
12    1  0.8488291E-002  0.1904110E+03  0.7818608E-02  0.1158226E+00
         21   -1    0    0  503  502  0.00000000000E+00  0.00000000000E+00  0.20058264958E+03  0.20058264958E+03  0.00000000000E+00 0. -1.
         21   -1    0    0  501  503 -0.00000000000E+00 -0.00000000000E+00 -0.18026555054E+03  0.18026555054E+03  0.00000000000E+00 0.  1.
          6    2    1    2  501    0 -0.40557703724E+01 -0.81040166475E+02  0.61813349535E+01  0.19051129117E+03  0.17225674241E+03 0.  0.
         24    2    3    3    0    0 -0.43787910469E+02 -0.10854292855E+03  0.67292945478E+01  0.14195786556E+03  0.80048758580E+02 0.  0.
         -6    2    1    2    0  502  0.40557703724E+01  0.81040166475E+02  0.14135764079E+02  0.19033690895E+03  0.17159359320E+03 0.  0.
        -24    2    5    5    0    0 -0.39977391473E+02  0.10292923200E+03  0.27494614182E+02  0.13916465663E+03  0.80113851590E+02 0.  0.
          5    1    3    3  501    0  0.39732140096E+02  0.27502762070E+02 -0.54795959433E+00  0.48553425604E+02  0.47000000000E+01 0. -1.
        -13    1    4    4    0    0 -0.58199957302E+02 -0.10099144830E+03  0.23153929566E+02  0.11883859691E+03  0.00000000000E+00 0.  1.
         14    1    4    4    0    0  0.14412046834E+02 -0.75514802409E+01 -0.16424635018E+02  0.23119268657E+02  0.00000000000E+00 0. -1.
         -5    1    5    5    0  502  0.44033161846E+02 -0.21889065525E+02 -0.13358850102E+02  0.51172252322E+02  0.47000000000E+01 0.  1.
         11    1    6    6    0    0 -0.34668475266E+02  0.57623812806E+01  0.22490170886E+02  0.41724285516E+02  0.00000000000E+00 0. -1.
        -12    1    6    6    0    0 -0.53089162070E+01  0.97166850719E+02  0.50044432951E+01  0.97440371113E+02  0.00000000000E+00 0.  1.
</event>
<event>
12    1  0.8488291E-002  0.1952240E+03  0.7818608E-02  0.1154015E+00
         21   -1    0    0  503  502  0.00000000000E+00  0.00000000000E+00  0.85934442060E+02  0.85934442060E+02  0.00000000000E+00 0. -1.
         21   -1    0    0  501  503 -0.00000000000E+00 -0.00000000000E+00 -0.57020323701E+03  0.57020323701E+03  0.00000000000E+00 0.  1.
          6    2    1    2  501    0  0.88092509895E+02  0.28997198561E+02 -0.39753324293E+03  0.44251305747E+03  0.17083324903E+03 0.  0.
         24    2    3    3    0    0  0.52424270772E+02 -0.40986082073E+02 -0.15000042165E+03  0.18277382197E+03  0.80485901940E+02 0.  0.
         -6    2    1    2    0  502 -0.88092509895E+02 -0.28997198561E+02 -0.86735552023E+02  0.21362462160E+03  0.17178851866E+03 0.  0.
        -24    2    5    5    0    0 -0.86253850100E+02  0.36489524534E+02 -0.82574342183E+02  0.14781202980E+03  0.79111706529E+02 0.  0.
          5    1    3    3  501    0  0.35668239123E+02  0.69983280635E+02 -0.24753282128E+03  0.25973923551E+03  0.47000000000E+01 0. -1.
        -11    1    4    4    0    0  0.62667019624E+02 -0.35848409411E+01 -0.70993838532E+02  0.94763555984E+02  0.00000000000E+00 0.  1.
         12    1    4    4    0    0 -0.10242748853E+02 -0.37401241132E+02 -0.79006583118E+02  0.88010265982E+02  0.00000000000E+00 0. -1.
         -5    1    5    5    0  502 -0.18386597947E+01 -0.65486723095E+02 -0.41612098400E+01  0.65812591796E+02  0.47000000000E+01 0.  1.
         11    1    6    6    0    0  0.73042165449E+01  0.14755437148E+02 -0.39015305965E+02  0.42347002306E+02  0.00000000000E+00 0. -1.
        -12    1    6    6    0    0 -0.93558066645E+02  0.21734087386E+02 -0.43559036218E+02  0.10546502750E+03  0.00000000000E+00 0.  1.
</event>
<event>
12    1  0.8488291E-002  0.2404052E+03  0.7818608E-02  0.1119565E+00
         21   -1    0    0  503  502  0.00000000000E+00  0.00000000000E+00  0.11115676168E+03  0.11115676168E+03  0.00000000000E+00 0.  1.
         21   -1    0    0  501  503 -0.00000000000E+00 -0.00000000000E+00 -0.52020652706E+03  0.52020652706E+03  0.00000000000E+00 0. -1.
          6    2    1    2  501    0  0.14269888691E+03 -0.88718039960E+02 -0.19218822392E+03  0.30778396733E+03  0.17193252802E+03 0.  0.
         24    2    3    3    0    0  0.12906397118E+03 -0.11122234566E+03 -0.96751119559E+02  0.20867450466E+03  0.71807735846E+02 0.  0.
         -6    2    1    2    0  502 -0.14269888691E+03  0.88718039960E+02 -0.21686154147E+03  0.32357932141E+03  0.17158317557E+03 0.  0.
        -24    2    5    5    0    0 -0.71706642117E+01  0.58770372847E+02 -0.71415594763E+02  0.12247891036E+03  0.79972002335E+02 0.  0.
          5    1    3    3  501    0  0.13634915725E+02  0.22504305703E+02 -0.95437104356E+02  0.99109462666E+02  0.47000000000E+01 0. -1.
        -13    1    4    4    0    0  0.41344887861E+02 -0.60820490288E+02 -0.75304303205E+02  0.10525811072E+03  0.00000000000E+00 0.  1.
         14    1    4    4    0    0  0.87719083321E+02 -0.50401855374E+02 -0.21446816354E+02  0.10341639394E+03  0.00000000000E+00 0. -1.
         -5    1    5    5    0  502 -0.13552822269E+03  0.29947667113E+02 -0.14544594671E+03  0.20110041106E+03  0.47000000000E+01 0.  1.
         13    1    6    6    0    0 -0.67197760635E+01 -0.49480553697E+01 -0.56399419016E+02  0.57013446726E+02  0.00000000000E+00 0. -1.
        -14    1    6    6    0    0 -0.45088814812E+00  0.63718428217E+02 -0.15016175747E+02  0.65465463632E+02  0.00000000000E+00 0.  1.
</event>
<event>
12    1  0.8488291E-002  0.2858408E+03  0.7818608E-02  0.1092985E+00
         21   -1    0    0  503  502  0.00000000000E+00  0.00000000000E+00  0.39193995347E+03  0.39193995347E+03  0.00000000000E+00 0.  1.
         21   -1    0    0  501  503 -0.00000000000E+00 -0.00000000000E+00 -0.24456474011E+03  0.24456474011E+03  0.00000000000E+00 0.  1.
          6    2    1    2  501    0  0.20191163793E+03  0.10544006570E+03 -0.52969475329E+02  0.28744459351E+03  0.16713082311E+03 0.  0.
         24    2    3    3    0    0  0.20718285448E+03  0.10983776517E+03 -0.14581394895E+02  0.24816533430E+03  0.79902103993E+02 0.  0.
         -6    2    1    2    0  502 -0.20191163793E+03 -0.10544006570E+03  0.20034468869E+03  0.34906010007E+03  0.17268191043E+03 0.  0.
        -24    2    5    5    0    0 -0.14787056327E+03 -0.11978153328E+03  0.20744094195E+03  0.29250426701E+03  0.79458685004E+02 0.  0.
          5    1    3    3  501    0 -0.52712165477E+01 -0.43976994750E+01 -0.38388080434E+02  0.39279259209E+02  0.47000000000E+01 0. -1.
        -13    1    4    4    0    0  0.13487475283E+03  0.75913737310E+02 -0.47323137178E+02  0.16184428867E+03  0.00000000000E+00 0.  1.
         14    1    4    4    0    0  0.72308101651E+02  0.33924027861E+02  0.32741742282E+02  0.86321045628E+02  0.00000000000E+00 0. -1.
         -5    1    5    5    0  502 -0.54041074665E+02  0.14341467586E+02 -0.70962532627E+01  0.56555833067E+02  0.47000000000E+01 0.  1.
         13    1    6    6    0    0 -0.92964498825E+02 -0.34224828873E+02  0.13599055671E+03  0.16824734312E+03  0.00000000000E+00 0. -1.
        -14    1    6    6    0    0 -0.54906064440E+02 -0.85556704410E+02  0.71450385241E+02  0.12425692388E+03  0.00000000000E+00 0.  1.
</event>
<event>
12    1  0.8488291E-002  0.2903246E+03  0.7818608E-02  0.1090380E+00
         21   -1    0    0  501  502  0.00000000000E+00  0.00000000000E+00  0.30387803415E+03  0.30387803415E+03  0.00000000000E+00 0. -1.
         21   -1    0    0  502  503 -0.00000000000E+00 -0.00000000000E+00 -0.44596959240E+03  0.44596959240E+03  0.00000000000E+00 0.  1.
         -6    2    1    2    0  503  0.49893705634E+02  0.22741753498E+03  0.16059009623E+03  0.33043784060E+03  0.17085628583E+03 0.  0.
        -24    2    3    3    0    0  0.35878623133E+02  0.22444423468E+03  0.18094110425E+03  0.30510966302E+03  0.93218738360E+02 0.  0.
          6    2    1    2  501    0 -0.49893705634E+02 -0.22741753498E+03 -0.30268165448E+03  0.41940978596E+03  0.17343663834E+03 0.  0.
         24    2    5    5    0    0 -0.41196526183E+02 -0.24928896313E+03 -0.27418042315E+03  0.38214840532E+03  0.83787578715E+02 0.  0.
          5    1    5    5  501    0 -0.86971794507E+01  0.21871428141E+02 -0.28501231334E+02  0.37261380635E+02  0.47000000000E+01 0. -1.
        -13    1    6    6    0    0  0.12125236390E+02 -0.16616718922E+03 -0.15728739816E+03  0.22912416230E+03  0.00000000000E+00 0.  1.
         14    1    6    6    0    0 -0.53321762573E+02 -0.83121773909E+02 -0.11689302499E+03  0.15302424303E+03  0.00000000000E+00 0. -1.
         -5    1    3    3    0  503  0.14015082501E+02  0.29733003047E+01 -0.20351008014E+02  0.25328177578E+02  0.47000000000E+01 0.  1.
         13    1    4    4    0    0  0.64279307408E+02  0.12008732312E+03  0.11635291553E+03  0.17913903954E+03  0.00000000000E+00 0. -1.
        -14    1    4    4    0    0 -0.28400684275E+02  0.10435691156E+03  0.64588188717E+02  0.12597062347E+03  0.00000000000E+00 0.  1.
</event>
<event>
12    1  0.8488291E-002  0.1864252E+03  0.7818608E-02  0.1161933E+00
         21   -1    0    0  503  502  0.00000000000E+00  0.00000000000E+00  0.17168966130E+03  0.17168966130E+03  0.00000000000E+00 0.  1.
         21   -1    0    0  501  503 -0.00000000000E+00 -0.00000000000E+00 -0.30333378347E+03  0.30333378347E+03  0.00000000000E+00 0.  1.
          6    2    1    2  501    0  0.66128892500E+02 -0.26024874597E+02 -0.20336372355E+03  0.27527843800E+03  0.17137995755E+03 0.  0.
         24    2    3    3    0    0  0.60021095832E+02 -0.75919451594E+02 -0.18116471949E+03  0.22012719345E+03  0.79177210324E+02 0.  0.
         -6    2    1    2    0  502 -0.66128892500E+02  0.26024874597E+02  0.71719601385E+02  0.19974500677E+03  0.17234860599E+03 0.  0.
        -24    2    5    5    0    0 -0.28813156770E+01 -0.42304929330E+02  0.57732113271E+02  0.10547434377E+03  0.77419837678E+02 0.  0.
          5    1    3    3  501    0  0.61077966678E+01  0.49894576998E+02 -0.22199004064E+02  0.55151244549E+02  0.47000000000E+01 0. -1.
        -13    1    4    4    0    0  0.24613003240E+02 -0.56868425594E+02 -0.16594163878E+03  0.17713397540E+03  0.00000000000E+00 0.  1.
         14    1    4    4    0    0  0.35408092592E+02 -0.19051026000E+02 -0.15223080707E+02  0.42993218057E+02  0.00000000000E+00 0. -1.
         -5    1    5    5    0  502 -0.63247576823E+02  0.68329803926E+02  0.13987488114E+02  0.94270662999E+02  0.47000000000E+01 0.  1.
         11    1    6    6    0    0  0.30302875745E+02 -0.31309422861E+02  0.55339130843E+02  0.70434108504E+02  0.00000000000E+00 0. -1.
        -12    1    6    6    0    0 -0.33184191422E+02 -0.10995506469E+02  0.23929824280E+01  0.35040235270E+02  0.00000000000E+00 0.  1.
</event>
<event>
12    1  0.8488291E-002  0.2724843E+03  0.7818608E-02  0.1100343E+00
         21   -1    0    0  503  502  0.00000000000E+00  0.00000000000E+00  0.42673506266E+02  0.42673506266E+02  0.00000000000E+00 0. -1.
         21   -1    0    0  501  503 -0.00000000000E+00 -0.00000000000E+00 -0.17278174937E+04  0.17278174937E+04  0.00000000000E+00 0. -1.
          6    2    1    2  501    0  0.14847611213E+03 -0.14555621523E+03 -0.78301327721E+03  0.82907024287E+03  0.17611333754E+03 0.  0.
         24    2    3    3    0    0  0.12762046973E+03 -0.17865367344E+03 -0.66848940080E+03  0.70795786602E+03  0.78244116307E+02 0.  0.
         -6    2    1    2    0  502 -0.14847611213E+03  0.14555621523E+03 -0.90213071028E+03  0.94142075715E+03  0.17088433487E+03 0.  0.
        -24    2    5    5    0    0 -0.17125940592E+03  0.14442908350E+03 -0.74032968404E+03  0.77795207209E+03  0.83257679121E+02 0.  0.
          5    1    3    3  501    0  0.20855642394E+02  0.33097458215E+02 -0.11452387640E+03  0.12111237685E+03  0.47000000000E+01 0. -1.
        -11    1    4    4    0    0  0.79732948361E+01 -0.34622522907E+02 -0.47273052503E+02  0.59135725378E+02  0.00000000000E+00 0.  1.
         12    1    4    4    0    0  0.11964717490E+03 -0.14403115053E+03 -0.62121634830E+03  0.64882214064E+03  0.00000000000E+00 0. -1.
         -5    1    5    5    0  502  0.22783293789E+02  0.11271317228E+01 -0.16180102624E+03  0.16346868505E+03  0.47000000000E+01 0.  1.
         11    1    6    6    0    0 -0.67001645059E+02  0.17818966160E+02 -0.30425139268E+03  0.31205071054E+03  0.00000000000E+00 0. -1.
        -12    1    6    6    0    0 -0.10425776086E+03  0.12661011734E+03 -0.43607829135E+03  0.46590136156E+03  0.00000000000E+00 0.  1.
</event>
<event>
12    1  0.8488291E-002  0.2591240E+03  0.7818608E-02  0.1107811E+00
         21   -1    0    0  503  502  0.00000000000E+00  0.00000000000E+00  0.97709375328E+02  0.97709375328E+02  0.00000000000E+00 0.  1.
         21   -1    0    0  501  503 -0.00000000000E+00 -0.00000000000E+00 -0.13290621162E+04  0.13290621162E+04  0.00000000000E+00 0.  1.
          6    2    1    2  501    0 -0.15510881906E+03 -0.11611995735E+03 -0.11118198749E+04  0.11414061778E+04  0.17065180378E+03 0.  0.
         24    2    3    3    0    0 -0.11855660373E+03 -0.13843554567E+03 -0.10292227258E+04  0.10482480919E+04  0.79401348745E+02 0.  0.
         -6    2    1    2    0  502  0.15510881906E+03  0.11611995735E+03 -0.11953286596E+03  0.28536531377E+03  0.17205425311E+03 0.  0.
        -24    2    5    5    0    0  0.71952143242E+02  0.64223101575E+02 -0.43320702470E+01  0.13403246966E+03  0.92974288912E+02 0.  0.
          5    1    3    3  501    0 -0.36552215328E+02  0.22315588321E+02 -0.82597149091E+02  0.93158085883E+02  0.47000000000E+01 0. -1.
        -11    1    4    4    0    0 -0.15978221363E+02 -0.36098203510E+02 -0.95312855372E+02  0.10316454940E+03  0.00000000000E+00 0.  1.
         12    1    4    4    0    0 -0.10257838237E+03 -0.10233734216E+03 -0.93390987045E+03  0.94508354248E+03  0.00000000000E+00 0. -1.
         -5    1    5    5    0  502  0.83156675817E+02  0.51896855771E+02 -0.11520079571E+03  0.15133284410E+03  0.47000000000E+01 0.  1.
         11    1    6    6    0    0  0.10448250010E+02  0.69324602671E+02 -0.14206368946E+02  0.71532421897E+02  0.00000000000E+00 0. -1.
        -12    1    6    6    0    0  0.61503893232E+02 -0.51015010960E+01  0.98742986991E+01  0.62500047768E+02  0.00000000000E+00 0.  1.
</event>
<event>
12    1  0.8488291E-002  0.2030310E+03  0.7818608E-02  0.1147334E+00
         21   -1    0    0  503  502  0.00000000000E+00  0.00000000000E+00  0.23410418998E+03  0.23410418998E+03  0.00000000000E+00 0.  1.
         21   -1    0    0  501  503 -0.00000000000E+00 -0.00000000000E+00 -0.17881591686E+03  0.17881591686E+03  0.00000000000E+00 0.  1.
          6    2    1    2  501    0  0.94614341801E+02  0.54273572286E+02 -0.29269218229E+00  0.20241875842E+03  0.17051619796E+03 0.  0.
         24    2    3    3    0    0  0.59667581381E+02  0.77749618740E+02 -0.44101317451E+02  0.14147873488E+03  0.92011318542E+02 0.  0.
         -6    2    1    2    0  502 -0.94614341801E+02 -0.54273572286E+02  0.55580965309E+02  0.21050134842E+03  0.17124275068E+03 0.  0.
        -24    2    5    5    0    0 -0.73394321440E+02 -0.88079420432E+02  0.82103860786E+02  0.16234868892E+03  0.80444652485E+02 0.  0.
          5    1    3    3  501    0  0.34946760420E+02 -0.23476046453E+02  0.43808625269E+02  0.60940023539E+02  0.47000000000E+01 0. -1.
        -13    1    4    4    0    0  0.18298351253E+02 -0.20176513581E+02 -0.26111073255E+01  0.27363099977E+02  0.00000000000E+00 0.  1.
         14    1    4    4    0    0  0.41369230128E+02  0.97926132321E+02 -0.41490210126E+02  0.11411563490E+03  0.00000000000E+00 0. -1.
         -5    1    5    5    0  502 -0.21220020361E+02  0.33805848146E+02 -0.26522895477E+02  0.48152659506E+02  0.47000000000E+01 0.  1.
         13    1    6    6    0    0  0.70836641067E+01 -0.50911378485E+02  0.31032209020E+02  0.60042857636E+02  0.00000000000E+00 0. -1.
        -14    1    6    6    0    0 -0.80477985547E+02 -0.37168041948E+02  0.51071651766E+02  0.10230583128E+03  0.00000000000E+00 0.  1.
</event>
<event>
12    1  0.8488291E-002  0.1802628E+03  0.7818608E-02  0.1169307E+00
         21   -1    0    0  503  502  0.00000000000E+00  0.00000000000E+00  0.84008515424E+03  0.84008515424E+03  0.00000000000E+00 0. -1.
         21   -1    0    0  501  503 -0.00000000000E+00 -0.00000000000E+00 -0.41878074580E+02  0.41878074580E+02  0.00000000000E+00 0. -1.
          6    2    1    2  501    0 -0.22489459052E+02  0.16376937042E+02  0.25836142712E+03  0.31503221983E+03  0.17810303948E+03 0.  0.
         24    2    3    3    0    0 -0.53931917158E+02  0.66393520984E+02  0.18671629044E+03  0.22205156351E+03  0.84422582418E+02 0.  0.
         -6    2    1    2    0  502  0.22489459052E+02 -0.16376937042E+02  0.53984565254E+03  0.56693100899E+03  0.17089020028E+03 0.  0.
        -24    2    5    5    0    0 -0.16759662730E+02  0.24254393327E+02  0.46640810163E+03  0.47415944841E+03  0.80134283313E+02 0.  0.
          5    1    3    3  501    0  0.31442458107E+02 -0.50016583942E+02  0.71645136682E+02  0.92980656328E+02  0.47000000000E+01 0. -1.
        -11    1    4    4    0    0  0.12238225586E+02 -0.12207697969E+02  0.23138608157E+02  0.28882472931E+02  0.00000000000E+00 0.  1.
         12    1    4    4    0    0 -0.66170142744E+02  0.78601218953E+02  0.16357768228E+03  0.19316909057E+03  0.00000000000E+00 0. -1.
         -5    1    5    5    0  502  0.39249121782E+02 -0.40631330369E+02  0.73437550908E+02  0.92771560575E+02  0.47000000000E+01 0.  1.
         11    1    6    6    0    0 -0.45479435531E+02 -0.19402620393E+01  0.21520793402E+03  0.21996954002E+03  0.00000000000E+00 0. -1.
        -12    1    6    6    0    0  0.28719772800E+02  0.26194655366E+02  0.25120016761E+03  0.25418990839E+03  0.00000000000E+00 0.  1.
</event>
<event>
12    1  0.8488291E-002  0.1937169E+03  0.7818608E-02  0.1158653E+00
         21   -1    0    0  501  502  0.00000000000E+00  0.00000000000E+00  0.31072493475E+03  0.31072493475E+03  0.00000000000E+00 0. -1.
         21   -1    0    0  502  503 -0.00000000000E+00 -0.00000000000E+00 -0.22787494062E+03  0.22787494062E+03  0.00000000000E+00 0. -1.
         -6    2    1    2    0  503 -0.58148816371E+02 -0.28885520675E+02 -0.15181437774E+03  0.23430791199E+03  0.16624359893E+03 0.  0.
        -24    2    3    3    0    0  0.24737576412E+02 -0.21633893800E+02 -0.11255027144E+03  0.14218570922E+03  0.80431581216E+02 0.  0.
          6    2    1    2  501    0  0.58148816371E+02  0.28885520675E+02  0.23466437187E+03  0.30429196338E+03  0.18251184455E+03 0.  0.
         24    2    5    5    0    0 -0.28905537421E+02  0.41278000755E+02  0.70772603554E+02  0.11824187389E+03  0.80205834493E+02 0.  0.
          5    1    5    5  501    0  0.87054353792E+02 -0.12392480079E+02  0.16389176832E+03  0.18605008949E+03  0.47000000000E+01 0. -1.
        -11    1    6    6    0    0  0.99771999659E+01  0.11878297655E+01 -0.13691931248E+02  0.16983063328E+02  0.00000000000E+00 0.  1.
         12    1    6    6    0    0 -0.38882737387E+02  0.40090170989E+02  0.84464534802E+02  0.10125881056E+03  0.00000000000E+00 0. -1.
         -5    1    3    3    0  503 -0.82886392783E+02 -0.72516268753E+01 -0.39264106299E+02  0.92122202776E+02  0.47000000000E+01 0.  1.
         13    1    4    4    0    0 -0.13111623879E+02 -0.37443208164E+02 -0.81826946591E+02  0.90937108524E+02  0.00000000000E+00 0. -1.
        -14    1    4    4    0    0  0.37849200290E+02  0.15809314364E+02 -0.30723324849E+02  0.51248600694E+02  0.00000000000E+00 0.  1.
</event>
<event>
12    1  0.8488291E-002  0.2261124E+03  0.7818608E-02  0.1129580E+00
         21   -1    0    0  503  502  0.00000000000E+00  0.00000000000E+00  0.71087456187E+03  0.71087456187E+03  0.00000000000E+00 0.  1.
         21   -1    0    0  501  503 -0.00000000000E+00 -0.00000000000E+00 -0.74079870930E+02  0.74079870930E+02  0.00000000000E+00 0.  1.
          6    2    1    2  501    0 -0.96117727587E+02  0.11193569017E+03  0.38932978143E+03  0.44974447889E+03  0.17007116539E+03 0.  0.
         24    2    3    3    0    0 -0.10283676558E+03  0.14301090692E+03  0.33058997313E+03  0.38278725638E+03  0.78796151304E+02 0.  0.
         -6    2    1    2    0  502  0.96117727587E+02 -0.11193569017E+03  0.24746490952E+03  0.33520995391E+03  0.17134355975E+03 0.  0.
        -24    2    5    5    0    0  0.81250563919E+01 -0.25508457063E+02  0.16883703683E+03  0.18886512424E+03  0.80295655090E+02 0.  0.
          5    1    3    3  501    0  0.67190379917E+01 -0.31075216752E+02  0.58739808294E+02  0.66957222509E+02  0.47000000000E+01 0. -1.
        -13    1    4    4    0    0 -0.63265939713E+02  0.46689487904E+02  0.83724042372E+02  0.11485731444E+03  0.00000000000E+00 0.  1.
         14    1    4    4    0    0 -0.39570825866E+02  0.96321419020E+02  0.24686593076E+03  0.26792994195E+03  0.00000000000E+00 0. -1.
         -5    1    5    5    0  502  0.87992671195E+02 -0.86427233110E+02  0.78627872686E+02  0.14634482967E+03  0.47000000000E+01 0.  1.
         13    1    6    6    0    0 -0.10671152750E+02 -0.92127567957E+01 -0.36747913214E+01  0.14568887399E+02  0.00000000000E+00 0. -1.
        -14    1    6    6    0    0  0.18796209142E+02 -0.16295700267E+02  0.17251182815E+03  0.17429623684E+03  0.00000000000E+00 0.  1.
</event>
<event>
12    1  0.8488291E-002  0.2085562E+03  0.7818608E-02  0.1142741E+00
         21   -1    0    0  501  502  0.00000000000E+00  0.00000000000E+00  0.35718678679E+03  0.35718678679E+03  0.00000000000E+00 0.  1.
         21   -1    0    0  502  503 -0.00000000000E+00 -0.00000000000E+00 -0.29788422120E+03  0.29788422120E+03  0.00000000000E+00 0. -1.
         -6    2    1    2    0  503 -0.27826658629E+02  0.11612641161E+03 -0.22224211934E+03  0.30477411410E+03  0.17098548071E+03 0.  0.
        -24    2    3    3    0    0 -0.56837238542E+02  0.86491909257E+02 -0.86340767450E+02  0.16260841879E+03  0.90969487666E+02 0.  0.
          6    2    1    2  501    0  0.27826658629E+02 -0.11612641161E+03  0.28154468493E+03  0.35029689389E+03  0.17082399672E+03 0.  0.
         24    2    5    5    0    0  0.51178568119E+02 -0.42198260555E+02  0.24354030198E+03  0.26382663127E+03  0.76763752168E+02 0.  0.
          5    1    5    5  501    0 -0.23351909491E+02 -0.73928151060E+02  0.38004382946E+02  0.86470262629E+02  0.47000000000E+01 0. -1.
        -11    1    6    6    0    0  0.34644096776E+02 -0.35161116441E+02  0.52943534621E+02  0.72384635171E+02  0.00000000000E+00 0.  1.
         12    1    6    6    0    0  0.16534471343E+02 -0.70371441145E+01  0.19059676736E+03  0.19144199609E+03  0.00000000000E+00 0. -1.
         -5    1    3    3    0  503  0.29010579914E+02  0.29634502358E+02 -0.13590135189E+03  0.14216569531E+03  0.47000000000E+01 0.  1.
         11    1    4    4    0    0  0.19884526145E+02  0.14192455198E+02 -0.41267694351E+02  0.47956675881E+02  0.00000000000E+00 0. -1.
        -12    1    4    4    0    0 -0.76721764687E+02  0.72299454059E+02 -0.45073073099E+02  0.11465174291E+03  0.00000000000E+00 0.  1.
</event>
<event>
12    1  0.8488291E-002  0.2310305E+03  0.7818608E-02  0.1126059E+00
         21   -1    0    0  503  502  0.00000000000E+00  0.00000000000E+00  0.97098881133E+02  0.97098881133E+02  0.00000000000E+00 0.  1.
         21   -1    0    0  501  503 -0.00000000000E+00 -0.00000000000E+00 -0.54793649072E+03  0.54793649072E+03  0.00000000000E+00 0.  1.
          6    2    1    2  501    0 -0.23996292729E+02  0.14941939228E+03 -0.22012869609E+03  0.31911088297E+03  0.17456556343E+03 0.  0.
         24    2    3    3    0    0 -0.76869267530E+02  0.72567904275E+02 -0.97338042093E+02  0.16483406235E+03  0.80750161924E+02 0.  0.
         -6    2    1    2    0  502  0.23996292729E+02 -0.14941939228E+03 -0.23070891349E+03  0.32592448888E+03  0.17348830747E+03 0.  0.
        -24    2    5    5    0    0  0.44143262021E+01 -0.96676358428E+02 -0.47070483817E+02  0.13380357932E+03  0.79510771838E+02 0.  0.
          5    1    3    3  501    0  0.52872974801E+02  0.76851488006E+02 -0.12279065400E+03  0.15427682062E+03  0.47000000000E+01 0. -1.
        -13    1    4    4    0    0 -0.73962562597E+02  0.82083943179E+02 -0.59062035492E+02  0.12528590675E+03  0.00000000000E+00 0.  1.
         14    1    4    4    0    0 -0.29067049328E+01 -0.95160389040E+01 -0.38276006601E+02  0.39548155600E+02  0.00000000000E+00 0. -1.
         -5    1    5    5    0  502  0.19581966527E+02 -0.52743033852E+02 -0.18363842968E+03  0.19212090955E+03  0.47000000000E+01 0.  1.
         13    1    6    6    0    0  0.26411619649E+02 -0.30302665901E+02  0.12339928415E+02  0.42048769856E+02  0.00000000000E+00 0. -1.
        -14    1    6    6    0    0 -0.21997293447E+02 -0.66373692528E+02 -0.59410412232E+02  0.91754809467E+02  0.00000000000E+00 0.  1.
</event>
<event>
12    1  0.8488291E-002  0.2637838E+03  0.7818608E-02  0.1104944E+00
         21   -1    0    0  501  502  0.00000000000E+00  0.00000000000E+00  0.65693497530E+03  0.65693497530E+03  0.00000000000E+00 0. -1.
         21   -1    0    0  502  503 -0.00000000000E+00 -0.00000000000E+00 -0.12465444683E+03  0.12465444683E+03  0.00000000000E+00 0.  1.
         -6    2    1    2    0  503  0.61664199944E+02  0.19023270160E+03  0.41807768360E+03  0.49414515392E+03  0.17146290942E+03 0.  0.
        -24    2    3    3    0    0  0.84070441044E+02  0.66996267276E+02  0.17506377440E+03  0.22070940562E+03  0.80678235819E+02 0.  0.
          6    2    1    2  501    0 -0.61664199944E+02 -0.19023270160E+03  0.11420284487E+03  0.28744426822E+03  0.17202024078E+03 0.  0.
         24    2    5    5    0    0 -0.85853145727E+02 -0.18557752961E+03  0.13760027148E+03  0.25314696079E+03  0.57790716555E+02 0.  0.
          5    1    5    5  501    0  0.24188945782E+02 -0.46551719916E+01 -0.23397426611E+02  0.34297307421E+02  0.47000000000E+01 0. -1.
        -11    1    6    6    0    0 -0.16795933411E+02 -0.10258955741E+03  0.76739714954E+02  0.12921185905E+03  0.00000000000E+00 0.  1.
         12    1    6    6    0    0 -0.69057212315E+02 -0.82987972200E+02  0.60860556530E+02  0.12393510174E+03  0.00000000000E+00 0. -1.
         -5    1    3    3    0  503 -0.22406241100E+02  0.12323643432E+03  0.24301390920E+03  0.27343574830E+03  0.47000000000E+01 0.  1.
         11    1    4    4    0    0  0.29116568785E+02  0.29152559712E+01  0.11084301386E+03  0.11464051211E+03  0.00000000000E+00 0. -1.
        -12    1    4    4    0    0  0.54953872259E+02  0.64081011305E+02  0.64220760544E+02  0.10606889351E+03  0.00000000000E+00 0.  1.
</event>
<event>
12    1  0.8488291E-002  0.2893477E+03  0.7818608E-02  0.1090791E+00
         21   -1    0    0  503  502  0.00000000000E+00  0.00000000000E+00  0.95036269087E+02  0.95036269087E+02  0.00000000000E+00 0.  1.
         21   -1    0    0  501  503 -0.00000000000E+00 -0.00000000000E+00 -0.10172357318E+04  0.10172357318E+04  0.00000000000E+00 0.  1.
          6    2    1    2  501    0  0.13720767511E+03 -0.18698140081E+03 -0.66587031382E+03  0.72571447702E+03  0.17172721673E+03 0.  0.
         24    2    3    3    0    0  0.38717532743E+02 -0.14249169977E+03 -0.50511349212E+03  0.53195047787E+03  0.77644955654E+02 0.  0.
         -6    2    1    2    0  502 -0.13720767511E+03  0.18698140081E+03 -0.25632914889E+03  0.38655752387E+03  0.17301472865E+03 0.  0.
        -24    2    5    5    0    0 -0.12083486003E+03  0.11646429329E+03 -0.90747939284E+02  0.20578153403E+03  0.77109378511E+02 0.  0.
          5    1    3    3  501    0  0.98490142371E+02 -0.44489701047E+02 -0.16075682171E+03  0.19376399916E+03  0.47000000000E+01 0. -1.
        -13    1    4    4    0    0  0.21937759481E+02 -0.13191300829E+03 -0.33530259725E+03  0.36098495643E+03  0.00000000000E+00 0.  1.
         14    1    4    4    0    0  0.16779773263E+02 -0.10578691480E+02 -0.16981089486E+03  0.17096552143E+03  0.00000000000E+00 0. -1.
         -5    1    5    5    0  502 -0.16372815087E+02  0.70517107522E+02 -0.16558120961E+03  0.18077598984E+03  0.47000000000E+01 0.  1.
         11    1    6    6    0    0 -0.33554944939E+02  0.63152664157E+02 -0.39196269119E+01  0.71620924283E+02  0.00000000000E+00 0. -1.
        -12    1    6    6    0    0 -0.87279915088E+02  0.53311629134E+02 -0.86828312372E+02  0.13416060975E+03  0.00000000000E+00 0.  1.
</event>
<event>
12    1  0.8488291E-002  0.1836228E+03  0.7818608E-02  0.1164729E+00
         21   -1    0    0  501  502  0.00000000000E+00  0.00000000000E+00  0.10823890525E+02  0.10823890525E+02  0.00000000000E+00 0.  1.
         21   -1    0    0  502  503 -0.00000000000E+00 -0.00000000000E+00 -0.30874530621E+04  0.30874530621E+04  0.00000000000E+00 0.  1.
         -6    2    1    2    0  503 -0.78611862756E+01  0.60700062732E+02 -0.15502524503E+04  0.15610893572E+04  0.17312141862E+03 0.  0.
        -24    2    3    3    0    0 -0.21811897309E+01 -0.30552279314E+02 -0.55821207847E+03  0.56483364622E+03  0.80610942125E+02 0.  0.
          6    2    1    2  501    0  0.78611862756E+01 -0.60700062732E+02 -0.15263767212E+04  0.15371875954E+04  0.17138702537E+03 0.  0.
         24    2    5    5    0    0 -0.38793215282E+02 -0.43136981480E+01 -0.49148774045E+03  0.49970345198E+03  0.81362272386E+02 0.  0.
          5    1    5    5  501    0  0.46654401557E+02 -0.56386364584E+02 -0.10348889808E+04  0.10374841434E+04  0.47000000000E+01 0. -1.
        -11    1    6    6    0    0 -0.38561666791E+02  0.12461488786E+02 -0.47302137705E+03  0.47475416164E+03  0.00000000000E+00 0.  1.
         12    1    6    6    0    0 -0.23154849075E+00 -0.16775186934E+02 -0.18466363398E+02  0.24949290341E+02  0.00000000000E+00 0. -1.
         -5    1    3    3    0  503 -0.56799965446E+01  0.91252342046E+02 -0.99204037185E+03  0.99625571099E+03  0.47000000000E+01 0.  1.
         13    1    4    4    0    0  0.10556499973E+01 -0.55619421951E+02 -0.46276740587E+03  0.46609903071E+03  0.00000000000E+00 0. -1.
        -14    1    4    4    0    0 -0.32368397282E+01  0.25067142637E+02 -0.95444672607E+02  0.98734615513E+02  0.00000000000E+00 0.  1.
</event>
<event>
12    1  0.8488291E-002  0.2876499E+03  0.7818608E-02  0.1091679E+00
         21   -1    0    0  501  502  0.00000000000E+00  0.00000000000E+00  0.23413073702E+03  0.23413073702E+03  0.00000000000E+00 0. -1.
         21   -1    0    0  502  503 -0.00000000000E+00 -0.00000000000E+00 -0.40876345546E+03  0.40876345546E+03  0.00000000000E+00 0.  1.
         -6    2    1    2    0  503  0.56354577636E+02  0.22366758796E+03  0.31839709360E+02  0.28940666528E+03  0.17187036538E+03 0.  0.
        -24    2    3    3    0    0  0.33972479921E+02  0.61929965062E+02  0.63189250246E+02  0.12307897465E+03  0.78524535594E+02 0.  0.
          6    2    1    2  501    0 -0.56354577636E+02 -0.22366758796E+03 -0.20647242780E+03  0.35348752720E+03  0.17064448459E+03 0.  0.
         24    2    5    5    0    0 -0.60603461289E+02 -0.22301796398E+03 -0.13063139699E+03  0.27737953170E+03  0.80405540554E+02 0.  0.
          5    1    5    5  501    0  0.42488836530E+01 -0.64962397733E+00 -0.75841030815E+02  0.76107995497E+02  0.47000000000E+01 0. -1.
        -11    1    6    6    0    0 -0.39307007185E+02 -0.13470162938E+03 -0.12232453820E+03  0.18615279320E+03  0.00000000000E+00 0.  1.
         12    1    6    6    0    0 -0.21296454104E+02 -0.88316334598E+02 -0.83068587853E+01  0.91226738499E+02  0.00000000000E+00 0. -1.
         -5    1    3    3    0  503  0.22382097715E+02  0.16173762289E+03 -0.31349540887E+02  0.16632769063E+03  0.47000000000E+01 0.  1.
         11    1    4    4    0    0 -0.59980777669E+01  0.65236786249E+02  0.39424956254E+02  0.76460070576E+02  0.00000000000E+00 0. -1.
        -12    1    4    4    0    0  0.39970557688E+02 -0.33068211872E+01  0.23764293993E+02  0.46618904075E+02  0.00000000000E+00 0.  1.
</event>
<event>
12    1  0.8488291E-002  0.2072830E+03  0.7818608E-02  0.1143838E+00
         21   -1    0    0  501  502  0.00000000000E+00  0.00000000000E+00  0.17282188650E+04  0.17282188650E+04  0.00000000000E+00 0. -1.
         21   -1    0    0  502  503 -0.00000000000E+00 -0.00000000000E+00 -0.45645719247E+02  0.45645719247E+02  0.00000000000E+00 0. -1.
         -6    2    1    2    0  503 -0.36719634882E+02  0.10935919354E+03  0.24136516185E+03  0.31782656520E+03  0.17160658319E+03 0.  0.
        -24    2    3    3    0    0 -0.52570448590E+02  0.13047451165E+03  0.14567051276E+03  0.21844517449E+03  0.81921582705E+02 0.  0.
          6    2    1    2  501    0  0.36719634882E+02 -0.10935919354E+03  0.14412079839E+04  0.14560380190E+04  0.17221641983E+03 0.  0.
         24    2    5    5    0    0  0.24746306977E+00  0.76541642990E+01  0.75776419860E+03  0.76167511473E+03  0.76705620710E+02 0.  0.
          5    1    5    5  501    0  0.36472171812E+02 -0.11701335784E+03  0.68344378529E+03  0.69436290431E+03  0.47000000000E+01 0. -1.
        -11    1    6    6    0    0  0.21952933653E+02  0.34845740116E+02  0.47402515922E+03  0.47581089571E+03  0.00000000000E+00 0.  1.
         12    1    6    6    0    0 -0.21705470583E+02 -0.27191575817E+02  0.28373903939E+03  0.28586421903E+03  0.00000000000E+00 0. -1.
         -5    1    3    3    0  503  0.15850813708E+02 -0.21115318119E+02  0.95694649095E+02  0.99381390712E+02  0.47000000000E+01 0.  1.
         11    1    4    4    0    0 -0.22709142917E+02  0.81977450124E+02  0.31230579929E+02  0.90616536148E+02  0.00000000000E+00 0. -1.
        -12    1    4    4    0    0 -0.29861305673E+02  0.48497061531E+02  0.11443993283E+03  0.12782863834E+03  0.00000000000E+00 0.  1.
</event>
<event>
12    1  0.8488291E-002  0.2215502E+03  0.7818608E-02  0.1132816E+00
         21   -1    0    0  503  502  0.00000000000E+00  0.00000000000E+00  0.40197690896E+03  0.40197690896E+03  0.00000000000E+00 0. -1.
         21   -1    0    0  501  503 -0.00000000000E+00 -0.00000000000E+00 -0.13313127386E+03  0.13313127386E+03  0.00000000000E+00 0.  1.
          6    2    1    2  501    0 -0.82231740736E+02 -0.11233700297E+03  0.56450030086E+02  0.22819389240E+03  0.17176782357E+03 0.  0.
         24    2    3    3    0    0  0.11379914779E+02 -0.63708610854E+02  0.37081747835E+02  0.12083895342E+03  0.95072115169E+02 0.  0.
         -6    2    1    2    0  502  0.82231740736E+02  0.11233700297E+03  0.21239560501E+03  0.30691429041E+03  0.17234508178E+03 0.  0.
        -24    2    5    5    0    0  0.37069198964E+02  0.12307402232E+03  0.21091897031E+03  0.26023228945E+03  0.81931019489E+02 0.  0.
          5    1    3    3  501    0 -0.93611655515E+02 -0.48628392114E+02  0.19368282251E+02  0.10735493899E+03  0.47000000000E+01 0. -1.
        -13    1    4    4    0    0  0.24068547558E+02 -0.19363457372E+02 -0.27580502675E+02  0.41411623860E+02  0.00000000000E+00 0.  1.
         14    1    4    4    0    0 -0.12688632778E+02 -0.44345153482E+02  0.64662250511E+02  0.79427329555E+02  0.00000000000E+00 0. -1.
         -5    1    5    5    0  502  0.45162541772E+02 -0.10737019350E+02  0.14766346976E+01  0.46682000963E+02  0.47000000000E+01 0.  1.
         13    1    6    6    0    0  0.10625280360E+02  0.66270802462E+02  0.17630900517E+03  0.18865201071E+03  0.00000000000E+00 0. -1.
        -14    1    6    6    0    0  0.26443918603E+02  0.56803219857E+02  0.34609965139E+02  0.71580278737E+02  0.00000000000E+00 0.  1.
</event>
<event>
12    1  0.8488291E-002  0.1747485E+03  0.7818608E-02  0.1173110E+00
         21   -1    0    0  503  502  0.00000000000E+00  0.00000000000E+00  0.51112515672E+02  0.51112515672E+02  0.00000000000E+00 0.  1.
         21   -1    0    0  501  503 -0.00000000000E+00 -0.00000000000E+00 -0.63138386754E+03  0.63138386754E+03  0.00000000000E+00 0.  1.
          6    2    1    2  501    0 -0.34375120648E+02 -0.67370823541E+01 -0.37160019316E+03  0.41063820968E+03  0.17120163112E+03 0.  0.
         24    2    3    3    0    0 -0.43456650707E+02 -0.28782004671E+02 -0.99726152838E+02  0.13768027045E+03  0.79332635329E+02 0.  0.
         -6    2    1    2    0  502  0.34375120648E+02  0.67370823541E+01 -0.20867115870E+03  0.27185817352E+03  0.17069322435E+03 0.  0.
        -24    2    5    5    0    0 -0.20443134430E+02  0.45378764932E+02 -0.71375873346E+02  0.11898467646E+03  0.81152226620E+02 0.  0.
          5    1    3    3  501    0  0.90815300589E+01  0.22044922317E+02 -0.27187404032E+03  0.27295793923E+03  0.47000000000E+01 0. -1.
        -13    1    4    4    0    0 -0.50730573476E+02 -0.45583885411E+02 -0.97853248181E+02  0.11927589813E+03  0.00000000000E+00 0.  1.
         14    1    4    4    0    0  0.72739227697E+01  0.16801880740E+02 -0.18729046576E+01  0.18404372326E+02  0.00000000000E+00 0. -1.
         -5    1    5    5    0  502  0.54818255077E+02 -0.38641682578E+02 -0.13729528536E+03  0.15287349706E+03  0.47000000000E+01 0.  1.
         11    1    6    6    0    0 -0.63455883248E+01  0.10355602083E+02  0.18141489086E+02  0.21831596642E+02  0.00000000000E+00 0. -1.
        -12    1    6    6    0    0 -0.14097546105E+02  0.35023162849E+02 -0.89517362432E+02  0.97153079822E+02  0.00000000000E+00 0.  1.
</event>
<event>
12    1  0.8488291E-002  0.2372393E+03  0.7818608E-02  0.1121867E+00
         21   -1    0    0  503  502  0.00000000000E+00  0.00000000000E+00  0.28706949042E+03  0.28706949042E+03  0.00000000000E+00 0. -1.
         21   -1    0    0  501  503 -0.00000000000E+00 -0.00000000000E+00 -0.44374464470E+03  0.44374464470E+03  0.00000000000E+00 0. -1.
          6    2    1    2  501    0  0.15646253885E+03 -0.40737377988E+02 -0.35183510207E+03  0.42361731324E+03  0.17182441328E+03 0.  0.
         24    2    3    3    0    0  0.26126041236E+02 -0.10712378683E+02 -0.22420878930E+03  0.23868578833E+03  0.76837486067E+02 0.  0.
         -6    2    1    2    0  502 -0.15646253885E+03  0.40737377988E+02  0.19515994780E+03  0.30719682188E+03  0.17361573120E+03 0.  0.
        -24    2    5    5    0    0 -0.10568852212E+03 -0.15048024098E+02  0.45376612957E+02  0.13942570024E+03  0.77356203029E+02 0.  0.
          5    1    3    3  501    0  0.13033649761E+03 -0.30024999305E+02 -0.12762631278E+03  0.18493152491E+03  0.47000000000E+01 0. -1.
        -13    1    4    4    0    0  0.12474477234E+02 -0.32562087740E+02 -0.20102406078E+03  0.20402591785E+03  0.00000000000E+00 0.  1.
         14    1    4    4    0    0  0.13651564001E+02  0.21849709057E+02 -0.23184728514E+02  0.34659870482E+02  0.00000000000E+00 0. -1.
         -5    1    5    5    0  502 -0.50774016736E+02  0.55785402086E+02  0.14978333484E+03  0.16777112164E+03  0.47000000000E+01 0.  1.
         13    1    6    6    0    0 -0.83727954745E+02 -0.43964269184E+02  0.40160935829E+02  0.10274301990E+03  0.00000000000E+00 0. -1.
        -14    1    6    6    0    0 -0.21960567370E+02  0.28916245087E+02  0.52156771278E+01  0.36682680341E+02  0.00000000000E+00 0.  1.
</event>
<event>
12    1  0.8488291E-002  0.1774400E+03  0.7818608E-02  0.1170748E+00
         21   -1    0    0  503  502  0.00000000000E+00  0.00000000000E+00  0.92215914916E+03  0.92215914916E+03  0.00000000000E+00 0.  1.
         21   -1    0    0  501  503 -0.00000000000E+00 -0.00000000000E+00 -0.34485885261E+02  0.34485885261E+02  0.00000000000E+00 0.  1.
          6    2    1    2  501    0  0.21761084860E+02  0.35207359172E+02  0.37852283295E+03  0.41804842687E+03  0.17254520911E+03 0.  0.
         24    2    3    3    0    0  0.56043766143E+02  0.43817906912E+02  0.13209258946E+03  0.16905164240E+03  0.77904383176E+02 0.  0.
         -6    2    1    2    0  502 -0.21761084860E+02 -0.35207359172E+02  0.50915043095E+03  0.53859660756E+03  0.17070161505E+03 0.  0.
        -24    2    5    5    0    0  0.48751569295E+02  0.15243920004E+01  0.22533847107E+03  0.24382114299E+03  0.79323917856E+02 0.  0.
          5    1    3    3  501    0 -0.34282681283E+02 -0.86105477401E+01  0.24643024349E+03  0.24899678447E+03  0.47000000000E+01 0. -1.
        -11    1    4    4    0    0  0.48734111736E+02 -0.11192386350E+02  0.62064161298E+02  0.79700961579E+02  0.00000000000E+00 0.  1.
         12    1    4    4    0    0  0.73096544072E+01  0.55010293262E+02  0.70028428164E+02  0.89350680823E+02  0.00000000000E+00 0. -1.
         -5    1    5    5    0  502 -0.70512654155E+02 -0.36731751173E+02  0.28381195988E+03  0.29477546457E+03  0.47000000000E+01 0.  1.
         11    1    6    6    0    0  0.58802187882E+02  0.21907582058E+02  0.20079437845E+03  0.21037115265E+03  0.00000000000E+00 0. -1.
        -12    1    6    6    0    0 -0.10050618587E+02 -0.20383190057E+02  0.24544092622E+02  0.33449990337E+02  0.00000000000E+00 0.  1.
</event>
<event>
12    1  0.8488291E-002  0.1821376E+03  0.7818608E-02  0.1165972E+00
         21   -1    0    0  503  502  0.00000000000E+00  0.00000000000E+00  0.10005587301E+04  0.10005587301E+04  0.00000000000E+00 0. -1.
         21   -1    0    0  501  503 -0.00000000000E+00 -0.00000000000E+00 -0.47646571193E+02  0.47646571193E+02  0.00000000000E+00 0. -1.
          6    2    1    2  501    0  0.43392799447E+02 -0.36768065250E+02  0.18658664227E+03  0.26074637991E+03  0.17302969079E+03 0.  0.
         24    2    3    3    0    0 -0.11207807466E+02  0.38735353001E+02  0.10209099289E+03  0.13487502810E+03  0.78375122672E+02 0.  0.
         -6    2    1    2    0  502 -0.43392799447E+02  0.36768065250E+02  0.76632551662E+03  0.78745892137E+03  0.17205211350E+03 0.  0.
        -24    2    5    5    0    0 -0.40911140627E+01  0.72549218969E+02  0.65779500202E+03  0.66652143325E+03  0.79223922535E+02 0.  0.
          5    1    3    3  501    0  0.54600606913E+02 -0.75503418251E+02  0.84495649381E+02  0.12587135181E+03  0.47000000000E+01 0. -1.
        -11    1    4    4    0    0 -0.35366270515E+02  0.77778269074E+01  0.84331873900E+02  0.91777626016E+02  0.00000000000E+00 0.  1.
         12    1    4    4    0    0  0.24158463049E+02  0.30957526094E+02  0.17759118993E+02  0.43097402081E+02  0.00000000000E+00 0. -1.
         -5    1    5    5    0  502 -0.39301685384E+02 -0.35781153719E+02  0.10853051460E+03  0.12093748813E+03  0.47000000000E+01 0.  1.
         11    1    6    6    0    0 -0.18892574745E+02  0.22902470874E+02  0.49028825678E+03  0.49118634680E+03  0.00000000000E+00 0. -1.
        -12    1    6    6    0    0  0.14801460682E+02  0.49646748095E+02  0.16750674524E+03  0.17533508644E+03  0.00000000000E+00 0.  1.
</event>
<event>
12    1  0.8488291E-002  0.1859165E+03  0.7818608E-02  0.1162357E+00
         21   -1    0    0  503  502  0.00000000000E+00  0.00000000000E+00  0.57575783687E+03  0.57575783687E+03  0.00000000000E+00 0.  1.
         21   -1    0    0  501  503 -0.00000000000E+00 -0.00000000000E+00 -0.19974053867E+03  0.19974053867E+03  0.00000000000E+00 0. -1.
          6    2    1    2  501    0 -0.58393115230E+02 -0.39624360383E+02 -0.13663925272E+03  0.23017123383E+03  0.17125614049E+03 0.  0.
         24    2    3    3    0    0 -0.49868059855E+02 -0.81539608625E+02 -0.13736868256E+03  0.18713419545E+03  0.83746767044E+02 0.  0.
         -6    2    1    2    0  502  0.58393115230E+02  0.39624360383E+02  0.51265655092E+03  0.54532714172E+03  0.17200321638E+03 0.  0.
        -24    2    5    5    0    0  0.46416130390E+01  0.82660421225E+02  0.35269894907E+03  0.37111505570E+03  0.80470777858E+02 0.  0.
          5    1    3    3  501    0 -0.85250553758E+01  0.41915248242E+02  0.72942984056E+00  0.43037038377E+02  0.47000000000E+01 0. -1.
        -13    1    4    4    0    0 -0.16574949157E+02 -0.18976929213E+01  0.76621231470E+01  0.18358603136E+02  0.00000000000E+00 0.  1.
         14    1    4    4    0    0 -0.33293110697E+02 -0.79641915704E+02 -0.14503080571E+03  0.16877559232E+03  0.00000000000E+00 0. -1.
         -5    1    5    5    0  502  0.53751502191E+02 -0.43036060842E+02  0.15995760186E+03  0.17421208601E+03  0.47000000000E+01 0.  1.
         11    1    6    6    0    0 -0.26415852601E+02  0.30089336014E+00  0.10386305433E+03  0.10717006047E+03  0.00000000000E+00 0. -1.
        -12    1    6    6    0    0  0.31057465640E+02  0.82359527865E+02  0.24883589473E+03  0.26394499524E+03  0.00000000000E+00 0.  1.
</event>
<event>
12    1  0.8488291E-002  0.1876330E+03  0.7818608E-02  0.1160777E+00
         21   -1    0    0  501  502  0.00000000000E+00  0.00000000000E+00  0.39041437775E+03  0.39041437775E+03  0.00000000000E+00 0. -1.
         21   -1    0    0  502  503 -0.00000000000E+00 -0.00000000000E+00 -0.10243922486E+03  0.10243922486E+03  0.00000000000E+00 0. -1.
         -6    2    1    2    0  503  0.74531596150E+02 -0.92453130144E+01  0.23066299673E+03  0.29734078953E+03  0.17194677204E+03 0.  0.
        -24    2    3    3    0    0  0.22176285053E+02  0.56400039746E+02  0.97577244451E+02  0.13991049257E+03  0.79880380533E+02 0.  0.
          6    2    1    2  501    0 -0.74531596150E+02  0.92453130144E+01  0.57312156158E+02  0.19551281309E+03  0.17117284306E+03 0.  0.
         24    2    5    5    0    0 -0.22887446703E+02 -0.19376925090E+02  0.93981026007E+02  0.12584900109E+03  0.78142417317E+02 0.  0.
          5    1    5    5  501    0 -0.51644149447E+02  0.28622238104E+02 -0.36668869849E+02  0.69663811999E+02  0.47000000000E+01 0. -1.
        -13    1    6    6    0    0 -0.87501627148E+01 -0.43125871863E+02  0.22948637028E+02  0.49629085352E+02  0.00000000000E+00 0.  1.
         14    1    6    6    0    0 -0.14137283988E+02  0.23748946773E+02  0.71032388980E+02  0.76219915741E+02  0.00000000000E+00 0. -1.
         -5    1    3    3    0  503  0.52355311097E+02 -0.65645352760E+02  0.13308575228E+03  0.15743029696E+03  0.47000000000E+01 0.  1.
         13    1    4    4    0    0  0.51935068167E+02  0.33254709565E+02  0.69419277522E+02  0.92855603522E+02  0.00000000000E+00 0. -1.
        -14    1    4    4    0    0 -0.29758783114E+02  0.23145330181E+02  0.28157966929E+02  0.47054889046E+02  0.00000000000E+00 0.  1.
</event>
<event>
12    1  0.8488291E-002  0.4488668E+03  0.7818608E-02  0.1028070E+00
         21   -1    0    0  501  502  0.00000000000E+00  0.00000000000E+00  0.16972010771E+04  0.16972010771E+04  0.00000000000E+00 0.  1.
         21   -1    0    0  502  503 -0.00000000000E+00 -0.00000000000E+00 -0.23756856505E+03  0.23756856505E+03  0.00000000000E+00 0. -1.
         -6    2    1    2    0  503 -0.41427112675E+03 -0.89385209679E+01  0.45418936305E+02  0.45103064278E+03  0.17223616731E+03 0.  0.
        -24    2    3    3    0    0 -0.11568549872E+03  0.33277399027E+02  0.22069803014E+02  0.14853629044E+03  0.84175016920E+02 0.  0.
          6    2    1    2  501    0  0.41427112675E+03  0.89385209679E+01  0.14142135757E+04  0.14837389993E+04  0.17257148321E+03 0.  0.
         24    2    5    5    0    0  0.33734990407E+03  0.65265733467E+01  0.91013069048E+03  0.97379357366E+03  0.78028817814E+02 0.  0.
          5    1    5    5  501    0  0.76921222684E+02  0.24119476212E+01  0.50408288522E+03  0.50994542567E+03  0.47000000000E+01 0. -1.
        -13    1    6    6    0    0 -0.34228600527E+01  0.25168535672E+01  0.46266021734E+01  0.62813987686E+01  0.00000000000E+00 0.  1.
         14    1    6    6    0    0  0.34077276412E+03  0.40097197795E+01  0.90550408831E+03  0.96751217489E+03  0.00000000000E+00 0. -1.
         -5    1    3    3    0  503 -0.29858562803E+03 -0.42215919995E+02  0.23349133291E+02  0.30249435233E+03  0.47000000000E+01 0.  1.
         13    1    4    4    0    0  0.12413274320E+02 -0.30684178793E+01  0.68721585272E+01  0.14516581225E+02  0.00000000000E+00 0. -1.
        -14    1    4    4    0    0 -0.12809877304E+03  0.36345816907E+02  0.15197644487E+02  0.13401970922E+03  0.00000000000E+00 0.  1.
</event>
<event>
12    1  0.8488291E-002  0.1765520E+03  0.7818608E-02  0.1171320E+00
         21   -1    0    0  501  502  0.00000000000E+00  0.00000000000E+00  0.29368398695E+03  0.29368398695E+03  0.00000000000E+00 0. -1.
         21   -1    0    0  502  503 -0.00000000000E+00 -0.00000000000E+00 -0.15164966143E+03  0.15164966143E+03  0.00000000000E+00 0. -1.
         -6    2    1    2    0  503  0.11165601250E+02  0.37136384309E+02 -0.51333020611E+02  0.18386319783E+03  0.17224057251E+03 0.  0.
        -24    2    3    3    0    0  0.38805627348E+02  0.61778378400E+02  0.13207535090E+02  0.10930602349E+03  0.80317638384E+02 0.  0.
          6    2    1    2  501    0 -0.11165601250E+02 -0.37136384309E+02  0.19336734613E+03  0.26147045055E+03  0.17167435531E+03 0.  0.
         24    2    5    5    0    0 -0.36493748253E+01  0.42340118876E+02  0.68112640982E+02  0.11286412707E+03  0.79328278148E+02 0.  0.
          5    1    5    5  501    0 -0.75162264247E+01 -0.79476503185E+02  0.12525470515E+03  0.14860632349E+03  0.47000000000E+01 0. -1.
        -11    1    6    6    0    0  0.27995114191E+02  0.24388617493E+02  0.66840292430E+02  0.76460158082E+02  0.00000000000E+00 0.  1.
         12    1    6    6    0    0 -0.31644489016E+02  0.17951501383E+02  0.12723485519E+01  0.36403968984E+02  0.00000000000E+00 0. -1.
         -5    1    3    3    0  503 -0.27640026098E+02 -0.24641994091E+02 -0.64540555701E+02  0.74557174340E+02  0.47000000000E+01 0.  1.
         11    1    4    4    0    0  0.58382097622E+02  0.57078767864E+02 -0.54865841729E+01  0.81832497637E+02  0.00000000000E+00 0. -1.
        -12    1    4    4    0    0 -0.19576470274E+02  0.46996105361E+01  0.18694119263E+02  0.27473525849E+02  0.00000000000E+00 0.  1.
</event>
<event>
12    1  0.8488291E-002  0.1951542E+03  0.7818608E-02  0.1154247E+00
         21   -1    0    0  503  502  0.00000000000E+00  0.00000000000E+00  0.74004094356E+03  0.74004094356E+03  0.00000000000E+00 0.  1.
         21   -1    0    0  501  503 -0.00000000000E+00 -0.00000000000E+00 -0.59510073918E+02  0.59510073918E+02  0.00000000000E+00 0.  1.
          6    2    1    2  501    0 -0.88736150761E+02 -0.98899056644E+00  0.19063753350E+03  0.27281464152E+03  0.17381046255E+03 0.  0.
         24    2    3    3    0    0 -0.44110044496E+02 -0.66366219450E+02  0.90046671912E+02  0.14472762870E+03  0.80545094682E+02 0.  0.
         -6    2    1    2    0  502  0.88736150761E+02  0.98899056644E+00  0.48989333615E+03  0.52673637597E+03  0.17199025092E+03 0.  0.
        -24    2    5    5    0    0  0.82276837492E+02  0.62442313525E+02  0.34799849499E+03  0.37189946313E+03  0.80856277759E+02 0.  0.
          5    1    3    3  501    0 -0.44626106265E+02  0.65377228884E+02  0.10059086159E+03  0.12808701281E+03  0.47000000000E+01 0. -1.
        -13    1    4    4    0    0 -0.64769937302E+02 -0.41926599087E+02  0.44520024379E+02  0.89078712720E+02  0.00000000000E+00 0.  1.
         14    1    4    4    0    0  0.20659892806E+02 -0.24439620363E+02  0.45526647532E+02  0.55648915980E+02  0.00000000000E+00 0. -1.
         -5    1    5    5    0  502  0.64593132692E+01 -0.61453322958E+02  0.14189484116E+03  0.15483691284E+03  0.47000000000E+01 0.  1.
         13    1    6    6    0    0  0.41280715544E+01  0.46978704036E+02  0.17831536388E+03  0.18444622144E+03  0.00000000000E+00 0. -1.
        -14    1    6    6    0    0  0.78148765937E+02  0.15463609489E+02  0.16968313111E+03  0.18745324169E+03  0.00000000000E+00 0.  1.
</event>
<event>
12    1  0.8488291E-002  0.2711611E+03  0.7818608E-02  0.1100769E+00
         21   -1    0    0  503  502  0.00000000000E+00  0.00000000000E+00  0.28720783458E+03  0.28720783458E+03  0.00000000000E+00 0.  1.
         21   -1    0    0  501  503 -0.00000000000E+00 -0.00000000000E+00 -0.25857431852E+03  0.25857431852E+03  0.00000000000E+00 0.  1.
          6    2    1    2  501    0  0.20466094702E+03 -0.46362045074E+02 -0.17780500939E+02  0.27067745293E+03  0.17004292062E+03 0.  0.
         24    2    3    3    0    0  0.88868421117E+02  0.23437184180E+02  0.33739026103E+02  0.12591491245E+03  0.79179198156E+02 0.  0.
         -6    2    1    2    0  502 -0.20466094702E+03  0.46362045074E+02  0.46414017002E+02  0.27510470016E+03  0.17173465759E+03 0.  0.
        -24    2    5    5    0    0 -0.39867039953E+02  0.17602679419E+02 -0.21809325194E+02  0.94382130072E+02  0.80827622841E+02 0.  0.
          5    1    3    3  501    0  0.11579252591E+03 -0.69799229254E+02 -0.51519527042E+02  0.14476254048E+03  0.47000000000E+01 0. -1.
        -11    1    4    4    0    0  0.37268672269E+02 -0.19101558800E+02 -0.13543572814E+02  0.44014223222E+02  0.00000000000E+00 0.  1.
         12    1    4    4    0    0  0.51599748847E+02  0.42538742980E+02  0.47282598918E+02  0.81900689227E+02  0.00000000000E+00 0. -1.
         -5    1    5    5    0  502 -0.16479390707E+03  0.28759365655E+02  0.68223342196E+02  0.18072257009E+03  0.47000000000E+01 0.  1.
         13    1    6    6    0    0 -0.29821954349E+02  0.37563442713E+02 -0.42384710594E+02  0.64006444065E+02  0.00000000000E+00 0. -1.
        -14    1    6    6    0    0 -0.10045085604E+02 -0.19960763294E+02  0.20575385400E+02  0.30375686007E+02  0.00000000000E+00 0.  1.
</event>
<event>
12    1  0.8488291E-002  0.2316168E+03  0.7818608E-02  0.1125561E+00
         21   -1    0    0  501  502  0.00000000000E+00  0.00000000000E+00  0.11427826999E+03  0.11427826999E+03  0.00000000000E+00 0. -1.
         21   -1    0    0  502  503 -0.00000000000E+00 -0.00000000000E+00 -0.51740556073E+03  0.51740556073E+03  0.00000000000E+00 0. -1.
         -6    2    1    2    0  503 -0.51171225623E+02  0.14644765575E+03 -0.10464950831E+03  0.25388050917E+03  0.17157617300E+03 0.  0.
        -24    2    3    3    0    0 -0.44992050263E+02  0.15884501545E+02 -0.12518046991E+02  0.93895461094E+02  0.79894018158E+02 0.  0.
          6    2    1    2  501    0  0.51171225623E+02 -0.14644765575E+03 -0.29847778242E+03  0.37780332155E+03  0.17199114212E+03 0.  0.
         24    2    5    5    0    0  0.16527991508E+02 -0.45606929988E+02 -0.47824789288E+02  0.10537347992E+03  0.80393987546E+02 0.  0.
          5    1    5    5  501    0  0.34643234115E+02 -0.10084072576E+03 -0.25065299314E+03  0.27242984163E+03  0.47000000000E+01 0. -1.
        -13    1    6    6    0    0  0.29248024579E+02  0.12810437702E+02 -0.27759186953E+02  0.42309889106E+02  0.00000000000E+00 0.  1.
         14    1    6    6    0    0 -0.12720033071E+02 -0.58417367690E+02 -0.20065602334E+02  0.63063590813E+02  0.00000000000E+00 0. -1.
         -5    1    3    3    0  503 -0.61791753603E+01  0.13056315420E+03 -0.92131461322E+02  0.15998504808E+03  0.47000000000E+01 0.  1.
         13    1    4    4    0    0 -0.47225145318E+02  0.18599653144E+02 -0.40969422908E+02  0.65227716968E+02  0.00000000000E+00 0. -1.
        -14    1    4    4    0    0  0.22330950551E+01 -0.27151515991E+01  0.28451375917E+02  0.28667744127E+02  0.00000000000E+00 0.  1.
</event>
<event>
12    1  0.8488291E-002  0.1816722E+03  0.7818608E-02  0.1167845E+00
         21   -1    0    0  503  502  0.00000000000E+00  0.00000000000E+00  0.16258247305E+04  0.16258247305E+04  0.00000000000E+00 0.  1.
         21   -1    0    0  501  503 -0.00000000000E+00 -0.00000000000E+00 -0.26236716507E+02  0.26236716507E+02  0.00000000000E+00 0.  1.
          6    2    1    2  501    0 -0.18708977814E+02 -0.28887852466E+02  0.39419014310E+03  0.43403990793E+03  0.17838228300E+03 0.  0.
         24    2    3    3    0    0 -0.71494846118E+02 -0.40368196790E+02  0.23115161858E+03  0.26222082670E+03  0.92669233554E+02 0.  0.
         -6    2    1    2    0  502  0.18708977814E+02  0.28887852466E+02  0.12053978709E+04  0.12180215391E+04  0.17148734248E+03 0.  0.
        -24    2    5    5    0    0 -0.28624502204E+02 -0.36939622025E+02  0.58674719546E+03  0.59406283616E+03  0.80339804127E+02 0.  0.
          5    1    3    3  501    0  0.52785868304E+02  0.11480344325E+02  0.16303852451E+03  0.17181908123E+03  0.47000000000E+01 0. -1.
        -13    1    4    4    0    0 -0.20948714950E+01 -0.50380008873E+02  0.12721570898E+03  0.13684432904E+03  0.00000000000E+00 0.  1.
         14    1    4    4    0    0 -0.69399974623E+02  0.10011812083E+02  0.10393590960E+03  0.12537649765E+03  0.00000000000E+00 0. -1.
         -5    1    5    5    0  502  0.47333480018E+02  0.65827474491E+02  0.61865067543E+03  0.62395870292E+03  0.47000000000E+01 0.  1.
         13    1    6    6    0    0 -0.54863589120E+00 -0.57586375823E+02  0.39470032850E+03  0.39887948180E+03  0.00000000000E+00 0. -1.
        -14    1    6    6    0    0 -0.28075866313E+02  0.20646753797E+02  0.19204686695E+03  0.19518335436E+03  0.00000000000E+00 0.  1.
</event>
<event>
12    1  0.8488291E-002  0.1807144E+03  0.7818608E-02  0.1167549E+00
         21   -1    0    0  501  502  0.00000000000E+00  0.00000000000E+00  0.49805471886E+03  0.49805471886E+03  0.00000000000E+00 0. -1.
         21   -1    0    0  502  503 -0.00000000000E+00 -0.00000000000E+00 -0.12657277575E+03  0.12657277575E+03  0.00000000000E+00 0. -1.
         -6    2    1    2    0  503 -0.83106810145E+01 -0.53591438061E+02 -0.32704945476E+02  0.18188068123E+03  0.17049885365E+03 0.  0.
        -24    2    3    3    0    0 -0.61176146577E+02 -0.29553668838E+02 -0.56408544025E+02  0.11897978790E+03  0.79739111092E+02 0.  0.
          6    2    1    2  501    0  0.83106810145E+01  0.53591438061E+02  0.40418688859E+03  0.44274681338E+03  0.17238500574E+03 0.  0.
         24    2    5    5    0    0  0.22826295538E+02 -0.27209138053E+02  0.28647499273E+03  0.29915845525E+03  0.78526956686E+02 0.  0.
          5    1    5    5  501    0 -0.14515614523E+02  0.80800576114E+02  0.11771189585E+03  0.14358835813E+03  0.47000000000E+01 0. -1.
        -13    1    6    6    0    0  0.37385702682E+01 -0.49959747265E+02  0.22954032045E+03  0.23494406136E+03  0.00000000000E+00 0.  1.
         14    1    6    6    0    0  0.19087725270E+02  0.22750609212E+02  0.56934672281E+02  0.64214393895E+02  0.00000000000E+00 0. -1.
         -5    1    3    3    0  503  0.52865465562E+02 -0.24037769223E+02  0.23703598549E+02  0.62900893336E+02  0.47000000000E+01 0.  1.
         13    1    4    4    0    0  0.11099853122E+02 -0.25505848967E+02 -0.32423448226E+02  0.42720429138E+02  0.00000000000E+00 0. -1.
        -14    1    4    4    0    0 -0.72275999699E+02 -0.40478198712E+01 -0.23985095799E+02  0.76259358761E+02  0.00000000000E+00 0.  1.
</event>
<event>
12    1  0.8488291E-002  0.1868170E+03  0.7818608E-02  0.1162599E+00
         21   -1    0    0  503  502  0.00000000000E+00  0.00000000000E+00  0.55720873145E+02  0.55720873145E+02  0.00000000000E+00 0.  1.
         21   -1    0    0  501  503 -0.00000000000E+00 -0.00000000000E+00 -0.61443514829E+03  0.61443514829E+03  0.00000000000E+00 0.  1.
          6    2    1    2  501    0  0.40265442138E+02 -0.43862361551E+02 -0.31545477862E+03  0.36662283818E+03  0.17707449148E+03 0.  0.
         24    2    3    3    0    0  0.74069270146E+02  0.20933725801E+02 -0.21830797488E+03  0.24496420429E+03  0.80153676341E+02 0.  0.
         -6    2    1    2    0  502 -0.40265442138E+02  0.43862361551E+02 -0.24325949653E+03  0.30353318326E+03  0.17149926558E+03 0.  0.
        -24    2    5    5    0    0 -0.25223515708E+02  0.31398686058E+02 -0.26129696516E+03  0.27653238638E+03  0.81067585918E+02 0.  0.
          5    1    3    3  501    0 -0.33803828008E+02 -0.64796087352E+02 -0.97146803731E+02  0.12165863389E+03  0.47000000000E+01 0. -1.
        -11    1    4    4    0    0  0.27583802696E+02 -0.27684079285E+02 -0.11703853524E+03  0.12339081468E+03  0.00000000000E+00 0.  1.
         12    1    4    4    0    0  0.46485467450E+02  0.48617805086E+02 -0.10126943964E+03  0.12157338961E+03  0.00000000000E+00 0. -1.
         -5    1    5    5    0  502 -0.15041926430E+02  0.12463675493E+02  0.18037468625E+02  0.27000796876E+02  0.47000000000E+01 0.  1.
         11    1    6    6    0    0  0.22447443493E+02  0.35666304331E+02 -0.13716980618E+03  0.14349748678E+03  0.00000000000E+00 0. -1.
        -12    1    6    6    0    0 -0.47670959201E+02 -0.42676182727E+01 -0.12412715898E+03  0.13303489960E+03  0.00000000000E+00 0.  1.
</event>
<event>
12    1  0.8488291E-002  0.1944056E+03  0.7818608E-02  0.1155009E+00
         21   -1    0    0  503  502  0.00000000000E+00  0.00000000000E+00  0.57903100947E+03  0.57903100947E+03  0.00000000000E+00 0. -1.
         21   -1    0    0  501  503 -0.00000000000E+00 -0.00000000000E+00 -0.70515565067E+02  0.70515565067E+02  0.00000000000E+00 0. -1.
          6    2    1    2  501    0  0.35460631364E+02 -0.78928328096E+02  0.16119191337E+03  0.25253982872E+03  0.17408731947E+03 0.  0.
         24    2    3    3    0    0  0.86705525124E+02 -0.28396355481E+02  0.88565753562E+02  0.15018667302E+03  0.79924607955E+02 0.  0.
         -6    2    1    2    0  502 -0.35460631364E+02  0.78928328096E+02  0.34732353103E+03  0.39700674582E+03  0.17173696068E+03 0.  0.
        -24    2    5    5    0    0 -0.88090324409E+02  0.69939811857E+02  0.23806015132E+03  0.27530524969E+03  0.80429237987E+02 0.  0.
          5    1    3    3  501    0 -0.51244893760E+02 -0.50531972615E+02  0.72626159806E+02  0.10235315570E+03  0.47000000000E+01 0. -1.
        -11    1    4    4    0    0  0.64939231300E+02 -0.18019227254E+02  0.10224947417E+03  0.12246122358E+03  0.00000000000E+00 0.  1.
         12    1    4    4    0    0  0.21766293824E+02 -0.10377128227E+02 -0.13683720606E+02  0.27725449441E+02  0.00000000000E+00 0. -1.
         -5    1    5    5    0  502  0.52629693045E+02  0.89885162385E+01  0.10926337971E+03  0.12170149613E+03  0.47000000000E+01 0.  1.
         11    1    6    6    0    0 -0.61562591536E+02  0.32703862370E+02  0.21091110650E+03  0.22213282093E+03  0.00000000000E+00 0. -1.
        -12    1    6    6    0    0 -0.26527732873E+02  0.37235949487E+02  0.27149044827E+02  0.53172428763E+02  0.00000000000E+00 0.  1.
</event>
<event>
12    1  0.8488291E-002  0.1733981E+03  0.7818608E-02  0.1174370E+00
         21   -1    0    0  501  502  0.00000000000E+00  0.00000000000E+00  0.33022566773E+03  0.33022566773E+03  0.00000000000E+00 0. -1.
         21   -1    0    0  502  503 -0.00000000000E+00 -0.00000000000E+00 -0.96624637047E+02  0.96624637047E+02  0.00000000000E+00 0. -1.
         -6    2    1    2    0  503  0.13855427702E+02  0.13938595308E+02  0.65366054765E+02  0.18530952396E+03  0.17228070478E+03 0.  0.
        -24    2    3    3    0    0  0.45829914940E+02  0.56804145673E+02  0.71674409858E+02  0.13125669253E+03  0.82243578689E+02 0.  0.
          6    2    1    2  501    0 -0.13855427702E+02 -0.13938595308E+02  0.16823497591E+03  0.24154078081E+03  0.17219954808E+03 0.  0.
         24    2    5    5    0    0  0.17237930110E+02  0.47880247811E+02  0.13511134926E+03  0.16467966641E+03  0.79212697616E+02 0.  0.
          5    1    5    5  501    0 -0.31093357812E+02 -0.61818843119E+02  0.33123626652E+02  0.76861114402E+02  0.47000000000E+01 0. -1.
        -13    1    6    6    0    0  0.47107170681E+02  0.17838657004E+02  0.59043548639E+02  0.77610848785E+02  0.00000000000E+00 0.  1.
         14    1    6    6    0    0 -0.29869240570E+02  0.30041590807E+02  0.76067800622E+02  0.87068817621E+02  0.00000000000E+00 0. -1.
         -5    1    3    3    0  503 -0.31974487238E+02 -0.42865550366E+02 -0.63083550931E+01  0.54052831436E+02  0.47000000000E+01 0.  1.
         11    1    4    4    0    0  0.56168481307E+02  0.46704939448E+01  0.30962485339E+02  0.64306977105E+02  0.00000000000E+00 0. -1.
        -12    1    4    4    0    0 -0.10338566367E+02  0.52133651728E+02  0.40711924519E+02  0.66949715422E+02  0.00000000000E+00 0.  1.
</event>
<event>
12    1  0.8488291E-002  0.1828537E+03  0.7818608E-02  0.1166105E+00
         21   -1    0    0  501  502  0.00000000000E+00  0.00000000000E+00  0.61724134021E+02  0.61724134021E+02  0.00000000000E+00 0. -1.
         21   -1    0    0  502  503 -0.00000000000E+00 -0.00000000000E+00 -0.54612395048E+03  0.54612395048E+03  0.00000000000E+00 0. -1.
         -6    2    1    2    0  503  0.31737127238E+02  0.34645749685E+02 -0.19117187155E+03  0.26454142118E+03  0.17671419251E+03 0.  0.
        -24    2    3    3    0    0  0.81828595583E+02  0.35243986755E+02 -0.81767983713E+02  0.14412209648E+03  0.78403557797E+02 0.  0.
          6    2    1    2  501    0 -0.31737127238E+02 -0.34645749685E+02 -0.29322794492E+03  0.34330666332E+03  0.17224768267E+03 0.  0.
         24    2    5    5    0    0 -0.37252043227E+02  0.43637073752E+02 -0.14125739768E+03  0.17220507955E+03  0.80056405694E+02 0.  0.
          5    1    5    5  501    0  0.55149159894E+01 -0.78282823437E+02 -0.15197054723E+03  0.17110158377E+03  0.47000000000E+01 0. -1.
        -11    1    6    6    0    0  0.19665002981E+02  0.36016637848E+02 -0.56684364189E+02  0.69978765977E+02  0.00000000000E+00 0.  1.
         12    1    6    6    0    0 -0.56917046209E+02  0.76204359039E+01 -0.84573033493E+02  0.10222631357E+03  0.00000000000E+00 0. -1.
         -5    1    3    3    0  503 -0.50091468345E+02 -0.59823707012E+00 -0.10940388783E+03  0.12041932470E+03  0.47000000000E+01 0.  1.
         11    1    4    4    0    0  0.27568649567E+02  0.11710468368E+00  0.12136198171E+02  0.30121943140E+02  0.00000000000E+00 0. -1.
        -12    1    4    4    0    0  0.54259946016E+02  0.35126882071E+02 -0.93904181885E+02  0.11400015334E+03  0.00000000000E+00 0.  1.
</event>
<event>
12    1  0.8488291E-002  0.1796775E+03  0.7818608E-02  0.1168699E+00
         21   -1    0    0  503  502  0.00000000000E+00  0.00000000000E+00  0.23308064572E+03  0.23308064572E+03  0.00000000000E+00 0.  1.
         21   -1    0    0  501  503 -0.00000000000E+00 -0.00000000000E+00 -0.22035963608E+03  0.22035963608E+03  0.00000000000E+00 0.  1.
          6    2    1    2  501    0 -0.32536598274E+02 -0.40743317190E+02 -0.13332813475E+03  0.22374183015E+03  0.17194582553E+03 0.  0.
         24    2    3    3    0    0 -0.17409341614E+02 -0.50945486115E+02 -0.16371086898E+03  0.18799104436E+03  0.75105634982E+02 0.  0.
         -6    2    1    2    0  502  0.32536598274E+02  0.40743317190E+02  0.14604914439E+03  0.22969845165E+03  0.16944727201E+03 0.  0.
        -24    2    5    5    0    0 -0.12798005364E+02 -0.35394416097E+02  0.75460980016E+02  0.11630991754E+03  0.80106702479E+02 0.  0.
          5    1    3    3  501    0 -0.15127256660E+02  0.10202168926E+02  0.30382734231E+02  0.35750785784E+02  0.47000000000E+01 0. -1.
        -13    1    4    4    0    0 -0.45453312690E+02 -0.44541515546E+02 -0.11196587254E+03  0.12878783659E+03  0.00000000000E+00 0.  1.
         14    1    4    4    0    0  0.28043971076E+02 -0.64039705695E+01 -0.51744996447E+02  0.59203207768E+02  0.00000000000E+00 0. -1.
         -5    1    5    5    0  502  0.45334603638E+02  0.76137733286E+02  0.70588164372E+02  0.11338853410E+03  0.47000000000E+01 0.  1.
         13    1    6    6    0    0  0.91144122627E+01 -0.53190608379E+02  0.68557552996E+02  0.87249363341E+02  0.00000000000E+00 0. -1.
        -14    1    6    6    0    0 -0.21912417627E+02  0.17796192282E+02  0.69034270199E+01  0.29060554204E+02  0.00000000000E+00 0.  1.
</event>
<event>
12    1  0.8488291E-002  0.1787473E+03  0.7818608E-02  0.1170056E+00
         21   -1    0    0  501  502  0.00000000000E+00  0.00000000000E+00  0.39114995197E+03  0.39114995197E+03  0.00000000000E+00 0. -1.
         21   -1    0    0  502  503 -0.00000000000E+00 -0.00000000000E+00 -0.91787840231E+02  0.91787840231E+02  0.00000000000E+00 0. -1.
         -6    2    1    2    0  503 -0.45974819365E+02 -0.18199560917E+02  0.60814224922E+02  0.18485110305E+03  0.16741162538E+03 0.  0.
        -24    2    3    3    0    0  0.33094413555E+01  0.94784671616E+01  0.88863340580E+02  0.12157508482E+03  0.82359056629E+02 0.  0.
          6    2    1    2  501    0  0.45974819365E+02  0.18199560917E+02  0.23854788682E+03  0.29808668915E+03  0.17177215116E+03 0.  0.
         24    2    5    5    0    0  0.76392055650E+02  0.57311977206E+02  0.13909169949E+03  0.18687242492E+03  0.80339239673E+02 0.  0.
          5    1    5    5  501    0 -0.30417236286E+02 -0.39112416289E+02  0.99456187326E+02  0.11121426423E+03  0.47000000000E+01 0. -1.
        -11    1    6    6    0    0  0.33804850025E+02  0.13349672271E+02  0.16095753270E+01  0.36380934123E+02  0.00000000000E+00 0.  1.
         12    1    6    6    0    0  0.42587205625E+02  0.43962304935E+02  0.13748212417E+03  0.15049149080E+03  0.00000000000E+00 0. -1.
         -5    1    3    3    0  503 -0.49284260720E+02 -0.27678028078E+02 -0.28049115658E+02  0.63276018224E+02  0.47000000000E+01 0.  1.
         13    1    4    4    0    0 -0.14066499426E+02 -0.27234831021E+02  0.89517865570E+01  0.31933319736E+02  0.00000000000E+00 0. -1.
        -14    1    4    4    0    0  0.17375940781E+02  0.36713298182E+02  0.79911554023E+02  0.89641765087E+02  0.00000000000E+00 0.  1.
</event>
<event>
12    1  0.8488291E-002  0.2172154E+03  0.7818608E-02  0.1136311E+00
         21   -1    0    0  501  502  0.00000000000E+00  0.00000000000E+00  0.37746113842E+03  0.37746113842E+03  0.00000000000E+00 0.  1.
         21   -1    0    0  502  503 -0.00000000000E+00 -0.00000000000E+00 -0.16767974054E+03  0.16767974054E+03  0.00000000000E+00 0.  1.
         -6    2    1    2    0  503  0.65138099342E+02  0.11719748410E+03 -0.34557877711E+02  0.21820937255E+03  0.16865011441E+03 0.  0.
        -24    2    3    3    0    0  0.12628657511E+02  0.59992293925E+02  0.41226176021E+02  0.10960463939E+03  0.80963084586E+02 0.  0.
          6    2    1    2  501    0 -0.65138099342E+02 -0.11719748410E+03  0.24433927559E+03  0.32693150641E+03  0.17089267399E+03 0.  0.
         24    2    5    5    0    0 -0.98201653689E+02 -0.65931835634E+02  0.10919025857E+03  0.17857817095E+03  0.77311569887E+02 0.  0.
          5    1    5    5  501    0  0.33063554347E+02 -0.51265648469E+02  0.13514901702E+03  0.14835333545E+03  0.47000000000E+01 0. -1.
        -11    1    6    6    0    0 -0.42265638653E+02 -0.49136255932E+02  0.10042084871E+03  0.11952030251E+03  0.00000000000E+00 0.  1.
         12    1    6    6    0    0 -0.55936015036E+02 -0.16795579703E+02  0.87694098596E+01  0.59057868442E+02  0.00000000000E+00 0. -1.
         -5    1    3    3    0  503  0.52509441831E+02  0.57205190179E+02 -0.75784053731E+02  0.10860473316E+03  0.47000000000E+01 0.  1.
         11    1    4    4    0    0  0.45212141855E+02  0.19288587469E+02  0.23941705800E+02  0.54675338630E+02  0.00000000000E+00 0. -1.
        -12    1    4    4    0    0 -0.32583484344E+02  0.40703706456E+02  0.17284470220E+02  0.54929300760E+02  0.00000000000E+00 0.  1.
</event>
<event>
12    1  0.8488291E-002  0.1958143E+03  0.7818608E-02  0.1153603E+00
         21   -1    0    0  503  502  0.00000000000E+00  0.00000000000E+00  0.92175225794E+03  0.92175225794E+03  0.00000000000E+00 0. -1.
         21   -1    0    0  501  503 -0.00000000000E+00 -0.00000000000E+00 -0.62275774058E+02  0.62275774058E+02  0.00000000000E+00 0. -1.
          6    2    1    2  501    0 -0.21730602888E+02  0.91716669112E+02  0.14529170750E+03  0.24382966600E+03  0.17163641589E+03 0.  0.
         24    2    3    3    0    0 -0.81574701429E+02  0.52046806480E+02  0.88588431105E+02  0.15221981017E+03  0.77198824498E+02 0.  0.
         -6    2    1    2    0  502  0.21730602888E+02 -0.91716669112E+02  0.71418477637E+03  0.74019836599E+03  0.17014570144E+03 0.  0.
        -24    2    5    5    0    0  0.56762680019E+02 -0.77255068032E+02  0.30520012336E+03  0.32943454001E+03  0.78674350798E+02 0.  0.
          5    1    3    3  501    0  0.59844098542E+02  0.39669862631E+02  0.56703276399E+02  0.91609855834E+02  0.47000000000E+01 0. -1.
        -13    1    4    4    0    0 -0.37664109397E+02 -0.17354084799E+02  0.25782826225E+02  0.48831378478E+02  0.00000000000E+00 0.  1.
         14    1    4    4    0    0 -0.43910592032E+02  0.69400891280E+02  0.62805604880E+02  0.10338843169E+03  0.00000000000E+00 0. -1.
         -5    1    5    5    0  502 -0.35032077131E+02 -0.14461601079E+02  0.40898465301E+03  0.41076382598E+03  0.47000000000E+01 0.  1.
         13    1    6    6    0    0  0.19765934998E+01 -0.68507280388E+02  0.16832675942E+03  0.18174446986E+03  0.00000000000E+00 0. -1.
        -14    1    6    6    0    0  0.54786086519E+02 -0.87477876449E+01  0.13687336395E+03  0.14769007016E+03  0.00000000000E+00 0.  1.
</event>
<event>
12    1  0.8488291E-002  0.1872347E+03  0.7818608E-02  0.1161191E+00
         21   -1    0    0  501  502  0.00000000000E+00  0.00000000000E+00  0.14212735569E+04  0.14212735569E+04  0.00000000000E+00 0.  1.
         21   -1    0    0  502  503 -0.00000000000E+00 -0.00000000000E+00 -0.25053144562E+02  0.25053144562E+02  0.00000000000E+00 0.  1.
         -6    2    1    2    0  503  0.73019061558E+02 -0.88162738330E+01  0.59682019252E+03  0.62550073471E+03  0.17218396233E+03 0.  0.
        -24    2    3    3    0    0 -0.34883165804E+02 -0.68538170809E+01  0.21296541318E+03  0.22673598761E+03  0.69217994771E+02 0.  0.
          6    2    1    2  501    0 -0.73019061558E+02  0.88162738330E+01  0.79940021983E+03  0.82082596677E+03  0.17118716723E+03 0.  0.
         24    2    5    5    0    0 -0.98807882830E+02 -0.24110705235E+02  0.43831680977E+03  0.45729801973E+03  0.81581427492E+02 0.  0.
          5    1    5    5  501    0  0.25788821271E+02  0.32926979068E+02  0.36108341007E+03  0.36352794704E+03  0.47000000000E+01 0. -1.
        -13    1    6    6    0    0 -0.69222677126E+02 -0.28358729675E+02  0.15184951539E+03  0.16927572744E+03  0.00000000000E+00 0.  1.
         14    1    6    6    0    0 -0.29585205703E+02  0.42480244405E+01  0.28646729438E+03  0.28802229229E+03  0.00000000000E+00 0. -1.
         -5    1    3    3    0  503  0.10790222736E+03 -0.19624567521E+01  0.38385477934E+03  0.39876474710E+03  0.47000000000E+01 0.  1.
         11    1    4    4    0    0  0.17978472266E+01 -0.16595777128E+02  0.84140556783E+01  0.18693539154E+02  0.00000000000E+00 0. -1.
        -12    1    4    4    0    0 -0.36681013030E+02  0.97419600474E+01  0.20455135750E+03  0.20804244845E+03  0.00000000000E+00 0.  1.
</event>
<event>
12    1  0.8488291E-002  0.2289074E+03  0.7818608E-02  0.1127629E+00
         21   -1    0    0  503  502  0.00000000000E+00  0.00000000000E+00  0.80555581568E+02  0.80555581568E+02  0.00000000000E+00 0. -1.
         21   -1    0    0  501  503 -0.00000000000E+00 -0.00000000000E+00 -0.71687876371E+03  0.71687876371E+03  0.00000000000E+00 0. -1.
          6    2    1    2  501    0 -0.70575793798E+02  0.12837909841E+03 -0.44343496598E+03  0.49903223756E+03  0.17588766158E+03 0.  0.
         24    2    3    3    0    0 -0.54120624279E+01  0.11917166153E+03 -0.19844280993E+03  0.24531125832E+03  0.81036345655E+02 0.  0.
         -6    2    1    2    0  502  0.70575793798E+02 -0.12837909841E+03 -0.19288821617E+03  0.29840210772E+03  0.17428659838E+03 0.  0.
        -24    2    5    5    0    0  0.60534165500E+02 -0.48286712374E+02 -0.29487402287E+02  0.11609044990E+03  0.81311093209E+02 0.  0.
          5    1    3    3  501    0 -0.65163731370E+02  0.92074368803E+01 -0.24499215605E+03  0.25372097924E+03  0.47000000000E+01 0. -1.
        -11    1    4    4    0    0  0.34321716903E+01 -0.73195082867E+01  0.18145859952E+01  0.82853923507E+01  0.00000000000E+00 0.  1.
         12    1    4    4    0    0 -0.88442341182E+01  0.12649116982E+03 -0.20025739592E+03  0.23702586597E+03  0.00000000000E+00 0. -1.
         -5    1    5    5    0  502  0.10041628297E+02 -0.80092386038E+02 -0.16340081388E+03  0.18231165782E+03  0.47000000000E+01 0.  1.
         13    1    6    6    0    0  0.26269645932E+02 -0.38066614909E+02 -0.55224995231E+02  0.72034447081E+02  0.00000000000E+00 0. -1.
        -14    1    6    6    0    0  0.34264519568E+02 -0.10220097466E+02  0.25737592945E+02  0.44056002815E+02  0.00000000000E+00 0.  1.
</event>
<event>
12    1  0.8488291E-002  0.2143217E+03  0.7818608E-02  0.1138323E+00
         21   -1    0    0  503  502  0.00000000000E+00  0.00000000000E+00  0.12734601811E+03  0.12734601811E+03  0.00000000000E+00 0.  1.
         21   -1    0    0  501  503 -0.00000000000E+00 -0.00000000000E+00 -0.36532593082E+03  0.36532593082E+03  0.00000000000E+00 0.  1.
          6    2    1    2  501    0  0.10150317111E+03  0.76976317152E+02 -0.88163437386E+02  0.23174684010E+03  0.17235300710E+03 0.  0.
         24    2    3    3    0    0  0.10643700028E+03  0.28246521041E+00 -0.68966417183E+02  0.15239379869E+03  0.84490167276E+02 0.  0.
         -6    2    1    2    0  502 -0.10150317111E+03 -0.76976317152E+02 -0.14981647533E+03  0.26092510883E+03  0.17148961773E+03 0.  0.
        -24    2    5    5    0    0 -0.80980503608E+02 -0.10237506415E+03 -0.16520120502E+03  0.22452378827E+03  0.77980751695E+02 0.  0.
          5    1    3    3  501    0 -0.49338291678E+01  0.76693851942E+02 -0.19197020203E+02  0.79353041407E+02  0.47000000000E+01 0. -1.
        -11    1    4    4    0    0  0.50669056271E+02  0.42100912125E+02 -0.28353286870E+02  0.71719934060E+02  0.00000000000E+00 0.  1.
         12    1    4    4    0    0  0.55767944007E+02 -0.41818446915E+02 -0.40613130313E+02  0.80673864634E+02  0.00000000000E+00 0. -1.
         -5    1    5    5    0  502 -0.20522667502E+02  0.25398747000E+02  0.15384729690E+02  0.36401320556E+02  0.47000000000E+01 0.  1.
         11    1    6    6    0    0  0.86922584455E+01  0.39446365144E+01 -0.26205681172E+02  0.27890020434E+02  0.00000000000E+00 0. -1.
        -12    1    6    6    0    0 -0.89672762054E+02 -0.10631970067E+03 -0.13899552385E+03  0.19663376784E+03  0.00000000000E+00 0.  1.
</event>
<event>
12    1  0.8488291E-002  0.2695162E+03  0.7818608E-02  0.1101593E+00
         21   -1    0    0  503  502  0.00000000000E+00  0.00000000000E+00  0.10618253734E+03  0.10618253734E+03  0.00000000000E+00 0.  1.
         21   -1    0    0  501  503 -0.00000000000E+00 -0.00000000000E+00 -0.99478520262E+03  0.99478520262E+03  0.00000000000E+00 0.  1.
          6    2    1    2  501    0 -0.19729991565E+03 -0.64627221865E+02 -0.75211622860E+03  0.79886259886E+03  0.17146047942E+03 0.  0.
         24    2    3    3    0    0 -0.68170762073E+02 -0.10798881044E+01 -0.44884750259E+03  0.46314454437E+03  0.91598959800E+02 0.  0.
         -6    2    1    2    0  502  0.19729991565E+03  0.64627221865E+02 -0.13648643667E+03  0.30210514110E+03  0.17185759908E+03 0.  0.
        -24    2    5    5    0    0  0.21959979723E+03  0.52849624276E+02 -0.10343871906E+03  0.26026929328E+03  0.77610454802E+02 0.  0.
          5    1    3    3  501    0 -0.12912915358E+03 -0.63547333760E+02 -0.30326872602E+03  0.33571805449E+03  0.47000000000E+01 0. -1.
        -13    1    4    4    0    0 -0.26428405510E+02  0.88532555440E+01 -0.25969796743E+02  0.38095552160E+02  0.00000000000E+00 0.  1.
         14    1    4    4    0    0 -0.41742356563E+02 -0.99331436484E+01 -0.42287770585E+03  0.42504899221E+03  0.00000000000E+00 0. -1.
         -5    1    5    5    0  502 -0.22299881577E+02  0.11777597589E+02 -0.33047717611E+02  0.41835847818E+02  0.47000000000E+01 0.  1.
         11    1    6    6    0    0  0.36943588051E+02  0.36614826687E+02 -0.52998495638E+01  0.52283483403E+02  0.00000000000E+00 0. -1.
        -12    1    6    6    0    0  0.18265620918E+03  0.16234797589E+02 -0.98138869498E+02  0.20798580988E+03  0.00000000000E+00 0.  1.
</event>
<event>
12    1  0.8488291E-002  0.1996935E+03  0.7818608E-02  0.1150514E+00
         21   -1    0    0  503  502  0.00000000000E+00  0.00000000000E+00  0.17093131210E+03  0.17093131210E+03  0.00000000000E+00 0. -1.
         21   -1    0    0  501  503 -0.00000000000E+00 -0.00000000000E+00 -0.60222045711E+03  0.60222045711E+03  0.00000000000E+00 0. -1.
          6    2    1    2  501    0 -0.36298093841E+02 -0.90959349116E+02 -0.51987485306E+03  0.55690876017E+03  0.17402973740E+03 0.  0.
         24    2    3    3    0    0 -0.66332525131E+02 -0.51952410433E+01 -0.34747510514E+03  0.36196950712E+03  0.76524381552E+02 0.  0.
         -6    2    1    2    0  502  0.36298093841E+02  0.90959349116E+02  0.88585708049E+02  0.21624300904E+03  0.17123801120E+03 0.  0.
        -24    2    5    5    0    0  0.49941190391E+02  0.77211622165E+02 -0.55464777493E+01  0.12002402711E+03  0.76936639997E+02 0.  0.
          5    1    3    3  501    0  0.30034431290E+02 -0.85764108073E+02 -0.17239974792E+03  0.19493925305E+03  0.47000000000E+01 0. -1.
        -13    1    4    4    0    0 -0.31607655804E+02  0.34464544423E+02 -0.19879888398E+03  0.20422498623E+03  0.00000000000E+00 0.  1.
         14    1    4    4    0    0 -0.34724869327E+02 -0.39659785466E+02 -0.14867622116E+03  0.15774452089E+03  0.00000000000E+00 0. -1.
         -5    1    5    5    0  502 -0.13643096550E+02  0.13747726951E+02  0.94132185798E+02  0.96218981926E+02  0.47000000000E+01 0.  1.
         13    1    6    6    0    0  0.24716665608E+02  0.23097063065E+02  0.34353871315E+02  0.48213860614E+02  0.00000000000E+00 0. -1.
        -14    1    6    6    0    0  0.25224524783E+02  0.54114559101E+02 -0.39900349065E+02  0.71810166500E+02  0.00000000000E+00 0.  1.
</event>
<event>
12    1  0.8488291E-002  0.2084023E+03  0.7818608E-02  0.1142916E+00
         21   -1    0    0  503  502  0.00000000000E+00  0.00000000000E+00  0.26181711512E+03  0.26181711512E+03  0.00000000000E+00 0.  1.
         21   -1    0    0  501  503 -0.00000000000E+00 -0.00000000000E+00 -0.36816732877E+03  0.36816732877E+03  0.00000000000E+00 0. -1.
          6    2    1    2  501    0  0.10542634324E+03 -0.50935627414E+02 -0.28681661333E+03  0.35430409833E+03  0.17192577590E+03 0.  0.
         24    2    3    3    0    0  0.11986943621E+03 -0.86367839745E+01 -0.14138862757E+03  0.20208982786E+03  0.80039232526E+02 0.  0.
         -6    2    1    2    0  502 -0.10542634324E+03  0.50935627414E+02  0.18046639968E+03  0.27568034555E+03  0.17240179675E+03 0.  0.
        -24    2    5    5    0    0 -0.68061959094E+02  0.70959084770E+02  0.46190104204E+02  0.13479298071E+03  0.79799748962E+02 0.  0.
          5    1    3    3  501    0 -0.14443092975E+02 -0.42298843440E+02 -0.14542798576E+03  0.15221427047E+03  0.47000000000E+01 0. -1.
        -11    1    4    4    0    0  0.38837800922E+02  0.22080279302E+02 -0.11820309661E+02  0.46212911994E+02  0.00000000000E+00 0.  1.
         12    1    4    4    0    0  0.81031635292E+02 -0.30717063277E+02 -0.12956831791E+03  0.15587691587E+03  0.00000000000E+00 0. -1.
         -5    1    5    5    0  502 -0.37364384145E+02 -0.20023457356E+02  0.13427629548E+03  0.14088736485E+03  0.47000000000E+01 0.  1.
         11    1    6    6    0    0 -0.80673915852E+02  0.43334719283E+02  0.17939026587E+02  0.93316596965E+02  0.00000000000E+00 0. -1.
        -12    1    6    6    0    0  0.12611956758E+02  0.27624365487E+02  0.28251077617E+02  0.41476383743E+02  0.00000000000E+00 0.  1.
</event>
<event>
12    1  0.8488291E-002  0.3238102E+03  0.7818608E-02  0.1073940E+00
         21   -1    0    0  501  502  0.00000000000E+00  0.00000000000E+00  0.12518663785E+03  0.12518663785E+03  0.00000000000E+00 0. -1.
         21   -1    0    0  502  503 -0.00000000000E+00 -0.00000000000E+00 -0.11270124967E+04  0.11270124967E+04  0.00000000000E+00 0.  1.
         -6    2    1    2    0  503 -0.24526773997E+03  0.12373365763E+03 -0.81843729938E+03  0.88006420812E+03  0.17090089260E+03 0.  0.
        -24    2    3    3    0    0 -0.14027973333E+03  0.63608762721E+02 -0.64823630687E+03  0.67119115486E+03  0.81010977878E+02 0.  0.
          6    2    1    2  501    0  0.24526773997E+03 -0.12373365763E+03 -0.18338855943E+03  0.37213492639E+03  0.17142566147E+03 0.  0.
         24    2    5    5    0    0  0.16467080815E+03 -0.13238047326E+03 -0.18339972523E+03  0.29093934176E+03  0.79807121297E+02 0.  0.
          5    1    5    5  501    0  0.80596931822E+02  0.86468156296E+01  0.11165801537E-01  0.81195584636E+02  0.47000000000E+01 0. -1.
        -13    1    6    6    0    0 -0.88828463295E+01 -0.58360207065E+01 -0.51008347971E+01  0.11789088694E+02  0.00000000000E+00 0.  1.
         14    1    6    6    0    0  0.17355365448E+03 -0.12654445255E+03 -0.17829889043E+03  0.27915025306E+03  0.00000000000E+00 0. -1.
         -5    1    3    3    0  503 -0.10498800664E+03  0.60124894910E+02 -0.17020099251E+03  0.20887305325E+03  0.47000000000E+01 0.  1.
         13    1    4    4    0    0 -0.40490348415E+02 -0.13703996547E+02 -0.10271503180E+03  0.11125486773E+03  0.00000000000E+00 0. -1.
        -14    1    4    4    0    0 -0.99789384918E+02  0.77312759269E+02 -0.54552127508E+03  0.55993628714E+03  0.00000000000E+00 0.  1.
</event>
<event>
12    1  0.8488291E-002  0.1892063E+03  0.7818608E-02  0.1159296E+00
         21   -1    0    0  503  502  0.00000000000E+00  0.00000000000E+00  0.11821725693E+03  0.11821725693E+03  0.00000000000E+00 0. -1.
         21   -1    0    0  501  503 -0.00000000000E+00 -0.00000000000E+00 -0.35423392349E+03  0.35423392349E+03  0.00000000000E+00 0. -1.
          6    2    1    2  501    0 -0.25640758059E+02  0.71978784404E+02 -0.20858066370E+03  0.28126605102E+03  0.17252914046E+03 0.  0.
         24    2    3    3    0    0 -0.27980466215E+02  0.77588938164E+01 -0.19970632457E+03  0.21622366118E+03  0.77633424876E+02 0.  0.
         -6    2    1    2    0  502  0.25640758059E+02 -0.71978784404E+02 -0.27436002865E+02  0.19118512940E+03  0.17309137925E+03 0.  0.
        -24    2    5    5    0    0  0.51404712219E+02 -0.37661930716E+02  0.38838246474E+02  0.11209155250E+03  0.83637559084E+02 0.  0.
          5    1    3    3  501    0  0.23397081566E+01  0.64219890587E+02 -0.88743391298E+01  0.65042389842E+02  0.47000000000E+01 0. -1.
        -11    1    4    4    0    0 -0.32471350369E+02 -0.21961136938E+02 -0.50026516629E+02  0.63555743221E+02  0.00000000000E+00 0.  1.
         12    1    4    4    0    0  0.44908841541E+01  0.29720030754E+02 -0.14967980794E+03  0.15266791796E+03  0.00000000000E+00 0. -1.
         -5    1    5    5    0  502 -0.25763954161E+02 -0.34316853688E+02 -0.66274249339E+02  0.79093576898E+02  0.47000000000E+01 0.  1.
         13    1    6    6    0    0  0.11069520004E+02 -0.19524921061E+02  0.59268008622E+02  0.63375497328E+02  0.00000000000E+00 0. -1.
        -14    1    6    6    0    0  0.40335192216E+02 -0.18137009655E+02 -0.20429762148E+02  0.48716055174E+02  0.00000000000E+00 0.  1.
</event>
<event>
12    1  0.8488291E-002  0.1775682E+03  0.7818608E-02  0.1170395E+00
         21   -1    0    0  503  502  0.00000000000E+00  0.00000000000E+00  0.66880307954E+03  0.66880307954E+03  0.00000000000E+00 0. -1.
         21   -1    0    0  501  503 -0.00000000000E+00 -0.00000000000E+00 -0.67298720676E+02  0.67298720676E+02  0.00000000000E+00 0.  1.
          6    2    1    2  501    0 -0.11478800025E+02 -0.37470161086E+02  0.98697762233E+02  0.20315437412E+03  0.17318970995E+03 0.  0.
         24    2    3    3    0    0 -0.34940542719E+02  0.16463763863E+02  0.11047930598E+03  0.14298613994E+03  0.82142937123E+02 0.  0.
         -6    2    1    2    0  502  0.11478800025E+02  0.37470161086E+02  0.50280659663E+03  0.53294742609E+03  0.17228670740E+03 0.  0.
        -24    2    5    5    0    0  0.71137900914E+02  0.45498808178E+02  0.35674829995E+03  0.37490064972E+03  0.78424518831E+02 0.  0.
          5    1    3    3  501    0  0.23461742695E+02 -0.53933924949E+02 -0.11781543749E+02  0.60168234176E+02  0.47000000000E+01 0. -1.
        -13    1    4    4    0    0  0.16332655153E+02 -0.44466620802E+01 -0.25535704052E+01  0.17118678390E+02  0.00000000000E+00 0.  1.
         14    1    4    4    0    0 -0.51273197872E+02  0.20910425943E+02  0.11303287639E+03  0.12586746155E+03  0.00000000000E+00 0. -1.
         -5    1    5    5    0  502 -0.59659100889E+02 -0.80286470921E+01  0.14605829668E+03  0.15804677637E+03  0.47000000000E+01 0.  1.
         13    1    6    6    0    0  0.65260703715E+02  0.17854359982E+01  0.26745927841E+03  0.27531184653E+03  0.00000000000E+00 0. -1.
        -14    1    6    6    0    0  0.58771971985E+01  0.43713372180E+02  0.89289021536E+02  0.99588803192E+02  0.00000000000E+00 0.  1.
</event>
<event>
12    1  0.8488291E-002  0.1740776E+03  0.7818608E-02  0.1173819E+00
         21   -1    0    0  501  502  0.00000000000E+00  0.00000000000E+00  0.60697869280E+02  0.60697869280E+02  0.00000000000E+00 0. -1.
         21   -1    0    0  502  503 -0.00000000000E+00 -0.00000000000E+00 -0.49936441128E+03  0.49936441128E+03  0.00000000000E+00 0. -1.
         -6    2    1    2    0  503 -0.10678053883E+02 -0.21031837544E+02 -0.20239516389E+03  0.26695847440E+03  0.17247221707E+03 0.  0.
        -24    2    3    3    0    0 -0.61780019930E+02  0.20885160269E+02 -0.93498397334E+02  0.13948674653E+03  0.80384335358E+02 0.  0.
          6    2    1    2  501    0  0.10678053883E+02  0.21031837544E+02 -0.23627137811E+03  0.29310380617E+03  0.17184096732E+03 0.  0.
         24    2    5    5    0    0 -0.16874743822E+02 -0.62900454068E+01 -0.23530506090E+03  0.25400565125E+03  0.93947206081E+02 0.  0.
          5    1    5    5  501    0  0.27552797705E+02  0.27321882951E+02 -0.96631721543E+00  0.39098154922E+02  0.47000000000E+01 0. -1.
        -11    1    6    6    0    0 -0.20698912565E+02 -0.14327971810E+01 -0.22516488600E+01  0.20870261420E+02  0.00000000000E+00 0.  1.
         12    1    6    6    0    0  0.38241687433E+01 -0.48572482258E+01 -0.23305341204E+03  0.23313538983E+03  0.00000000000E+00 0. -1.
         -5    1    3    3    0  503  0.51101966046E+02 -0.41916997813E+02 -0.10889676656E+03  0.12747172787E+03  0.47000000000E+01 0.  1.
         11    1    4    4    0    0 -0.59659123325E+02 -0.28623129616E+01 -0.21232528708E+02  0.63389463689E+02  0.00000000000E+00 0. -1.
        -12    1    4    4    0    0 -0.21208966043E+01  0.23747473230E+02 -0.72265868625E+02  0.76097282839E+02  0.00000000000E+00 0.  1.
</event>
<event>
12    1  0.8488291E-002  0.3046408E+03  0.7818608E-02  0.1083002E+00
         21   -1    0    0  503  502  0.00000000000E+00  0.00000000000E+00  0.12227336566E+03  0.12227336566E+03  0.00000000000E+00 0. -1.
         21   -1    0    0  501  503 -0.00000000000E+00 -0.00000000000E+00 -0.13644782778E+04  0.13644782778E+04  0.00000000000E+00 0.  1.
          6    2    1    2  501    0 -0.14363394486E+03 -0.20472530852E+03 -0.11170562062E+04  0.11578517124E+04  0.17396223143E+03 0.  0.
         24    2    3    3    0    0 -0.12945906766E+03 -0.89935712316E+02 -0.82919987872E+03  0.84759225029E+03  0.77408664469E+02 0.  0.
         -6    2    1    2    0  502  0.14363394486E+03  0.20472530852E+03 -0.12514870594E+03  0.32889993109E+03  0.17311789049E+03 0.  0.
        -24    2    5    5    0    0  0.17238910985E+03  0.17027616024E+03 -0.89632917357E+02  0.27147985995E+03  0.83398312579E+02 0.  0.
          5    1    3    3  501    0 -0.14174877197E+02 -0.11478959620E+03 -0.28785632752E+03  0.31025946212E+03  0.47000000000E+01 0. -1.
        -13    1    4    4    0    0 -0.30929518715E+02 -0.49920509873E+02 -0.16971507535E+03  0.17958813779E+03  0.00000000000E+00 0.  1.
         14    1    4    4    0    0 -0.98529548950E+02 -0.40015202442E+02 -0.65948480337E+03  0.66800411250E+03  0.00000000000E+00 0. -1.
         -5    1    5    5    0  502 -0.28755164992E+02  0.34449148271E+02 -0.35515788587E+02  0.57420071136E+02  0.47000000000E+01 0.  1.
         13    1    6    6    0    0  0.66513903656E+02  0.19685029730E+02 -0.70610328360E+01  0.69724156214E+02  0.00000000000E+00 0. -1.
        -14    1    6    6    0    0  0.10587520620E+03  0.15059113051E+03 -0.82571884521E+02  0.20175570374E+03  0.00000000000E+00 0.  1.
</event>
<event>
12    1  0.8488291E-002  0.1806558E+03  0.7818608E-02  0.1167275E+00
         21   -1    0    0  503  502  0.00000000000E+00  0.00000000000E+00  0.39353459797E+03  0.39353459797E+03  0.00000000000E+00 0.  1.
         21   -1    0    0  501  503 -0.00000000000E+00 -0.00000000000E+00 -0.83000027955E+02  0.83000027955E+02  0.00000000000E+00 0. -1.
          6    2    1    2  501    0  0.23652163788E+01  0.54938953627E+02  0.14192717249E+03  0.22973864442E+03  0.17208323444E+03 0.  0.
         24    2    3    3    0    0 -0.55715855700E+02  0.60999152030E+02  0.83625525166E+02  0.14708691111E+03  0.88409150189E+02 0.  0.
         -6    2    1    2    0  502 -0.23652163788E+01 -0.54938953627E+02  0.16860739752E+03  0.24679598150E+03  0.17162726797E+03 0.  0.
        -24    2    5    5    0    0 -0.49389869794E+02 -0.52135298254E+02  0.48741026888E+02  0.11791923681E+03  0.79823618968E+02 0.  0.
          5    1    3    3  501    0  0.58081072079E+02 -0.60601984030E+01  0.58301647324E+02  0.82651733310E+02  0.47000000000E+01 0. -1.
        -11    1    4    4    0    0 -0.24396074125E+02  0.74685163959E+02  0.31271081642E+02  0.84563128463E+02  0.00000000000E+00 0.  1.
         12    1    4    4    0    0 -0.31319781575E+02 -0.13686011929E+02  0.52354443524E+02  0.62523782652E+02  0.00000000000E+00 0. -1.
         -5    1    5    5    0  502  0.47024653415E+02 -0.28036553730E+01  0.11986637063E+03  0.12887674469E+03  0.47000000000E+01 0.  1.
         13    1    6    6    0    0 -0.35916527267E+02  0.13984042004E+02  0.26872430292E+02  0.46985932698E+02  0.00000000000E+00 0. -1.
        -14    1    6    6    0    0 -0.13473342527E+02 -0.66119340258E+02  0.21868596596E+02  0.70933304111E+02  0.00000000000E+00 0.  1.
</event>
<event>
12    1  0.8488291E-002  0.1783055E+03  0.7818608E-02  0.1169582E+00
         21   -1    0    0  503  502  0.00000000000E+00  0.00000000000E+00  0.14198460725E+03  0.14198460725E+03  0.00000000000E+00 0. -1.
         21   -1    0    0  501  503 -0.00000000000E+00 -0.00000000000E+00 -0.56957960255E+03  0.56957960255E+03  0.00000000000E+00 0. -1.
          6    2    1    2  501    0  0.12524941399E+02 -0.48513203798E+02 -0.49109973523E+03  0.52228746453E+03  0.17057209787E+03 0.  0.
         24    2    3    3    0    0 -0.16088187286E+02  0.27453868415E+02 -0.33623803835E+03  0.34737622318E+03  0.81250706673E+02 0.  0.
         -6    2    1    2    0  502 -0.12524941399E+02  0.48513203798E+02  0.63504739932E+02  0.18927674527E+03  0.17112109515E+03 0.  0.
        -24    2    5    5    0    0 -0.73714417889E+02  0.36547444431E+02  0.50656400975E+02  0.12544492527E+03  0.80005169934E+02 0.  0.
          5    1    3    3  501    0  0.28613128684E+02 -0.75967072213E+02 -0.15486169687E+03  0.17491124135E+03  0.47000000000E+01 0. -1.
        -11    1    4    4    0    0 -0.40433775713E+02 -0.10103844893E+02 -0.18604174742E+03  0.19065285123E+03  0.00000000000E+00 0.  1.
         12    1    4    4    0    0  0.24345588428E+02  0.37557713307E+02 -0.15019629094E+03  0.15672337195E+03  0.00000000000E+00 0. -1.
         -5    1    5    5    0  502  0.61189476491E+02  0.11965759367E+02  0.12848338956E+02  0.63831819999E+02  0.47000000000E+01 0.  1.
         13    1    6    6    0    0 -0.44002254465E+02  0.43181033548E+02 -0.51597349750E+01  0.61866169441E+02  0.00000000000E+00 0. -1.
        -14    1    6    6    0    0 -0.29712163424E+02 -0.66335891167E+01  0.55816135950E+02  0.63578755826E+02  0.00000000000E+00 0.  1.
</event>
<event>
12    1  0.8488291E-002  0.2841029E+03  0.7818608E-02  0.1094003E+00
         21   -1    0    0  503  502  0.00000000000E+00  0.00000000000E+00  0.37889217298E+03  0.37889217298E+03  0.00000000000E+00 0.  1.
         21   -1    0    0  501  503 -0.00000000000E+00 -0.00000000000E+00 -0.28889166177E+03  0.28889166177E+03  0.00000000000E+00 0. -1.
          6    2    1    2  501    0 -0.49404331183E+02 -0.21938221303E+03 -0.12963036114E+03  0.30868468211E+03  0.16707141920E+03 0.  0.
         24    2    3    3    0    0 -0.39580419895E+02 -0.36018775749E+02 -0.52131070933E+02  0.10931846295E+03  0.79805488152E+02 0.  0.
         -6    2    1    2    0  502  0.49404331183E+02  0.21938221303E+03  0.21963087235E+03  0.35909915264E+03  0.17362355256E+03 0.  0.
        -24    2    5    5    0    0  0.31947904686E+02  0.26949231274E+02  0.40829423387E+02  0.95798511842E+02  0.75916950524E+02 0.  0.
          5    1    3    3  501    0 -0.98239112880E+01 -0.18336343728E+03 -0.77499290205E+02  0.19936621917E+03  0.47000000000E+01 0. -1.
        -11    1    4    4    0    0  0.11440918266E+00 -0.10092443069E+02 -0.60360050744E+02  0.61198090023E+02  0.00000000000E+00 0.  1.
         12    1    4    4    0    0 -0.39694829077E+02 -0.25926332680E+02  0.82289798113E+01  0.48120372925E+02  0.00000000000E+00 0. -1.
         -5    1    5    5    0  502  0.17456426496E+02  0.19243298175E+03  0.17880144896E+03  0.26330064079E+03  0.47000000000E+01 0.  1.
         11    1    6    6    0    0 -0.20558591104E+02 -0.87295879665E+01  0.16690073937E+02  0.27882251385E+02  0.00000000000E+00 0. -1.
        -12    1    6    6    0    0  0.52506495791E+02  0.35678819241E+02  0.24139349450E+02  0.67916260457E+02  0.00000000000E+00 0.  1.
</event>
<event>
12    1  0.8488291E-002  0.2385087E+03  0.7818608E-02  0.1120851E+00
         21   -1    0    0  501  502  0.00000000000E+00  0.00000000000E+00  0.18411260016E+03  0.18411260016E+03  0.00000000000E+00 0.  1.
         21   -1    0    0  502  503 -0.00000000000E+00 -0.00000000000E+00 -0.34469794408E+03  0.34469794408E+03  0.00000000000E+00 0.  1.
         -6    2    1    2    0  503 -0.13988179172E+03  0.86521033916E+02 -0.16601771974E+03  0.29059987097E+03  0.17272404804E+03 0.  0.
        -24    2    3    3    0    0 -0.37002757223E+02  0.81105396872E+02 -0.37268385964E+02  0.12563955509E+03  0.80306137796E+02 0.  0.
          6    2    1    2  501    0  0.13988179172E+03 -0.86521033916E+02  0.54323758275E+01  0.23821067327E+03  0.17222662160E+03 0.  0.
         24    2    5    5    0    0  0.64867473993E+02  0.23265200211E+02 -0.41877622216E+01  0.10481351392E+03  0.78862390429E+02 0.  0.
          5    1    5    5  501    0  0.75014317731E+02 -0.10978623413E+03  0.96201380491E+01  0.13339715936E+03  0.47000000000E+01 0. -1.
        -13    1    6    6    0    0  0.51907698893E+02 -0.88985960921E+01 -0.30882627852E+02  0.61051870732E+02  0.00000000000E+00 0.  1.
         14    1    6    6    0    0  0.12959775100E+02  0.32163796303E+02  0.26694865631E+02  0.43761643186E+02  0.00000000000E+00 0. -1.
         -5    1    3    3    0  503 -0.10287903450E+03  0.54156370440E+01 -0.12874933378E+03  0.16496031587E+03  0.47000000000E+01 0.  1.
         13    1    4    4    0    0 -0.56601159000E+02  0.74716351972E+02 -0.14370608620E+02  0.94830052432E+02  0.00000000000E+00 0. -1.
        -14    1    4    4    0    0  0.19598401777E+02  0.63890449001E+01 -0.22897777345E+02  0.30809502662E+02  0.00000000000E+00 0.  1.
</event>
<event>
12    1  0.8488291E-002  0.2192447E+03  0.7818608E-02  0.1134709E+00
         21   -1    0    0  503  502  0.00000000000E+00  0.00000000000E+00  0.45289435238E+03  0.45289435238E+03  0.00000000000E+00 0. -1.
         21   -1    0    0  501  503 -0.00000000000E+00 -0.00000000000E+00 -0.10746660913E+03  0.10746660913E+03  0.00000000000E+00 0.  1.
          6    2    1    2  501    0  0.11810290213E+03 -0.67154777019E+02  0.21151846755E+03  0.30464451491E+03  0.17207602616E+03 0.  0.
         24    2    3    3    0    0  0.41656779607E+02 -0.10115014634E+03  0.13652059426E+03  0.19218800872E+03  0.79572097173E+02 0.  0.
         -6    2    1    2    0  502 -0.11810290213E+03  0.67154777019E+02  0.13390927569E+03  0.25571644661E+03  0.17029723245E+03 0.  0.
        -24    2    5    5    0    0 -0.15228795750E+03  0.57811310859E+02  0.11293408100E+03  0.21426807918E+03  0.81381407227E+02 0.  0.
          5    1    3    3  501    0  0.76446122527E+02  0.33995369320E+02  0.74997873298E+02  0.11245650619E+03  0.47000000000E+01 0. -1.
        -13    1    4    4    0    0 -0.60418339216E+01  0.55551644358E+01 -0.42310274440E+01  0.92339158691E+01  0.00000000000E+00 0.  1.
         14    1    4    4    0    0  0.47698613529E+02 -0.10670531077E+03  0.14075162170E+03  0.18295409285E+03  0.00000000000E+00 0. -1.
         -5    1    5    5    0  502  0.34185055362E+02  0.93434661594E+01  0.20975194695E+02  0.41448367428E+02  0.47000000000E+01 0.  1.
         11    1    6    6    0    0 -0.34030857515E+02 -0.20209025127E+02  0.33439154971E+02  0.51813907833E+02  0.00000000000E+00 0. -1.
        -12    1    6    6    0    0 -0.11825709998E+03  0.78020335986E+02  0.79494926025E+02  0.16245417134E+03  0.00000000000E+00 0.  1.
</event>
<event>
12    1  0.8488291E-002  0.2369545E+03  0.7818608E-02  0.1121966E+00
         21   -1    0    0  503  502  0.00000000000E+00  0.00000000000E+00  0.11328932291E+03  0.11328932291E+03  0.00000000000E+00 0.  1.
         21   -1    0    0  501  503 -0.00000000000E+00 -0.00000000000E+00 -0.55889070961E+03  0.55889070961E+03  0.00000000000E+00 0. -1.
          6    2    1    2  501    0 -0.14551828918E+03  0.71205394827E+02 -0.10800746637E+03  0.25972750042E+03  0.17189235278E+03 0.  0.
         24    2    3    3    0    0 -0.64288656663E+02  0.74217378369E+02 -0.12534518973E+03  0.17648080743E+03  0.76110499758E+02 0.  0.
         -6    2    1    2    0  502  0.14551828918E+03 -0.71205394827E+02 -0.33759392033E+03  0.41245253210E+03  0.17292095148E+03 0.  0.
        -24    2    5    5    0    0  0.19131767557E+02 -0.72707004953E+02 -0.17843997869E+03  0.20915994783E+03  0.79086817388E+02 0.  0.
          5    1    3    3  501    0 -0.81229632513E+02 -0.30119835421E+01  0.17337723359E+02  0.83246692993E+02  0.47000000000E+01 0. -1.
        -11    1    4    4    0    0 -0.10274042979E+02  0.25180372238E+02  0.44798410796E+01  0.27562221995E+02  0.00000000000E+00 0.  1.
         12    1    4    4    0    0 -0.54014613684E+02  0.49037006131E+02 -0.12982503081E+03  0.14891858543E+03  0.00000000000E+00 0. -1.
         -5    1    5    5    0  502  0.12638652162E+03  0.15016101266E+01 -0.15915394164E+03  0.20329258427E+03  0.47000000000E+01 0.  1.
         13    1    6    6    0    0 -0.10000651680E+02 -0.60275489356E+02 -0.16269268675E+03  0.17378739302E+03  0.00000000000E+00 0. -1.
        -14    1    6    6    0    0  0.29132419237E+02 -0.12431515597E+02 -0.15747291938E+02  0.35372554813E+02  0.00000000000E+00 0.  1.
</event>
<event>
12    1  0.8488291E-002  0.2221126E+03  0.7818608E-02  0.1133207E+00
         21   -1    0    0  501  502  0.00000000000E+00  0.00000000000E+00  0.72149884216E+02  0.72149884216E+02  0.00000000000E+00 0.  1.
         21   -1    0    0  502  503 -0.00000000000E+00 -0.00000000000E+00 -0.69934175539E+03  0.69934175539E+03  0.00000000000E+00 0. -1.
         -6    2    1    2    0  503  0.33453158070E+02 -0.12915756237E+03 -0.23018158382E+03  0.31657275324E+03  0.17156327365E+03 0.  0.
        -24    2    3    3    0    0  0.43010250465E+02 -0.34258531860E+02 -0.19027125178E+03  0.21307353291E+03  0.78572593968E+02 0.  0.
          6    2    1    2  501    0 -0.33453158070E+02  0.12915756237E+03 -0.39701028736E+03  0.45491888636E+03  0.17757599838E+03 0.  0.
         24    2    5    5    0    0 -0.24081782479E+02  0.12585730805E+03 -0.41053891443E+03  0.43748822058E+03  0.80210651706E+02 0.  0.
          5    1    5    5  501    0 -0.93713755918E+01  0.33002543198E+01  0.13528627076E+02  0.17430665782E+02  0.47000000000E+01 0. -1.
        -13    1    6    6    0    0 -0.40474112370E+02  0.23408086128E+02 -0.10921476185E+03  0.11880217370E+03  0.00000000000E+00 0.  1.
         14    1    6    6    0    0  0.16392329891E+02  0.10244922192E+03 -0.30132415258E+03  0.31868604688E+03  0.00000000000E+00 0. -1.
         -5    1    3    3    0  503 -0.95570923947E+01 -0.94899030507E+02 -0.39910332039E+02  0.10349922033E+03  0.47000000000E+01 0.  1.
         11    1    4    4    0    0  0.61841666423E+02 -0.12009150143E+02 -0.99774001543E+02  0.11799772361E+03  0.00000000000E+00 0. -1.
        -12    1    4    4    0    0 -0.18831415958E+02 -0.22249381718E+02 -0.90497250235E+02  0.95075809300E+02  0.00000000000E+00 0.  1.
</event>
<event>
12    1  0.8488291E-002  0.2045537E+03  0.7818608E-02  0.1146406E+00
         21   -1    0    0  503  502  0.00000000000E+00  0.00000000000E+00  0.61962615940E+02  0.61962615940E+02  0.00000000000E+00 0.  1.
         21   -1    0    0  501  503 -0.00000000000E+00 -0.00000000000E+00 -0.72019122317E+03  0.72019122317E+03  0.00000000000E+00 0.  1.
          6    2    1    2  501    0 -0.98839333675E+02 -0.52604202553E+02 -0.22552660833E+03  0.30447405240E+03  0.17118931484E+03 0.  0.
         24    2    3    3    0    0 -0.13381635097E+03 -0.27043219271E+02 -0.15372098609E+03  0.22048064200E+03  0.79645592701E+02 0.  0.
         -6    2    1    2    0  502  0.98839333675E+02  0.52604202553E+02 -0.43270199891E+03  0.47767978672E+03  0.16855427248E+03 0.  0.
        -24    2    5    5    0    0  0.59609324207E+02  0.98532190822E+02 -0.26813510721E+03  0.30231523616E+03  0.78969627922E+02 0.  0.
          5    1    3    3  501    0  0.34977017298E+02 -0.25560983282E+02 -0.71805622241E+02  0.83993410401E+02  0.47000000000E+01 0. -1.
        -11    1    4    4    0    0 -0.49675153795E+02  0.27876997049E+02 -0.65115365737E+02  0.86514500080E+02  0.00000000000E+00 0.  1.
         12    1    4    4    0    0 -0.84141197178E+02 -0.54920216320E+02 -0.88605620348E+02  0.13396614192E+03  0.00000000000E+00 0. -1.
         -5    1    5    5    0  502  0.39230009468E+02 -0.45927988268E+02 -0.16456689169E+03  0.17536455055E+03  0.47000000000E+01 0.  1.
         13    1    6    6    0    0  0.65228555788E+01  0.50209970636E+02 -0.44386923926E+02  0.67333407843E+02  0.00000000000E+00 0. -1.
        -14    1    6    6    0    0  0.53086468628E+02  0.48322220185E+02 -0.22374818329E+03  0.23498182832E+03  0.00000000000E+00 0.  1.
</event>
<event>
12    1  0.8488291E-002  0.1967589E+03  0.7818608E-02  0.1153632E+00
         21   -1    0    0  503  502  0.00000000000E+00  0.00000000000E+00  0.25288445208E+03  0.25288445208E+03  0.00000000000E+00 0. -1.
         21   -1    0    0  501  503 -0.00000000000E+00 -0.00000000000E+00 -0.15199725138E+03  0.15199725138E+03  0.00000000000E+00 0. -1.
          6    2    1    2  501    0  0.83158143121E+02 -0.19402742882E+02  0.23141324677E+02  0.19811512723E+03  0.17726347489E+03 0.  0.
         24    2    3    3    0    0  0.51272053122E+02 -0.66963813854E+02  0.49776107678E+02  0.13478835664E+03  0.92613521656E+02 0.  0.
         -6    2    1    2    0  502 -0.83158143121E+02  0.19402742882E+02  0.77745876021E+02  0.20676657623E+03  0.17151166901E+03 0.  0.
        -24    2    5    5    0    0 -0.91418993158E+02  0.26564319291E+02  0.11392963479E+03  0.16867610210E+03  0.80053546875E+02 0.  0.
          5    1    3    3  501    0  0.31886090000E+02  0.47561070971E+02 -0.26634783001E+02  0.63326770587E+02  0.47000000000E+01 0. -1.
        -13    1    4    4    0    0  0.16981464361E+02  0.22451791498E+02  0.19888841174E+02  0.34467652612E+02  0.00000000000E+00 0.  1.
         14    1    4    4    0    0  0.34290588761E+02 -0.89415605352E+02  0.29887266504E+02  0.10032070403E+03  0.00000000000E+00 0. -1.
         -5    1    5    5    0  502  0.82608500363E+01 -0.71615764089E+01 -0.36183758773E+02  0.38090474123E+02  0.47000000000E+01 0.  1.
         13    1    6    6    0    0 -0.39810830526E+02  0.31569525165E+02  0.89516305871E+01  0.51591363972E+02  0.00000000000E+00 0. -1.
        -14    1    6    6    0    0 -0.51608162632E+02 -0.50052058740E+01  0.10497800421E+03  0.11708473813E+03  0.00000000000E+00 0.  1.
</event>
<event>
12    1  0.8488291E-002  0.1884010E+03  0.7818608E-02  0.1160234E+00
         21   -1    0    0  501  502  0.00000000000E+00  0.00000000000E+00  0.46309375501E+03  0.46309375501E+03  0.00000000000E+00 0. -1.
         21   -1    0    0  502  503 -0.00000000000E+00 -0.00000000000E+00 -0.10206662107E+03  0.10206662107E+03  0.00000000000E+00 0. -1.
         -6    2    1    2    0  503 -0.32165935022E+02 -0.68804025417E+02  0.37408113281E+02  0.19069515737E+03  0.17087022799E+03 0.  0.
        -24    2    3    3    0    0 -0.25335906089E+02 -0.26020952655E+01 -0.36215255755E+02  0.91338047308E+02  0.79890018773E+02 0.  0.
          6    2    1    2  501    0  0.32165935022E+02  0.68804025417E+02  0.32361902066E+03  0.37446521872E+03  0.17241313234E+03 0.  0.
         24    2    5    5    0    0  0.26763393939E+02  0.11132270157E+03  0.20259806318E+03  0.24599270250E+03  0.79733376580E+02 0.  0.
          5    1    5    5  501    0  0.54025410835E+01 -0.42518676153E+02  0.12102095749E+03  0.12847251622E+03  0.47000000000E+01 0. -1.
        -13    1    6    6    0    0  0.49884720635E+02  0.92172580671E+02  0.18047636241E+03  0.20870071243E+03  0.00000000000E+00 0.  1.
         14    1    6    6    0    0 -0.23121326696E+02  0.19150120899E+02  0.22121700769E+02  0.37291990073E+02  0.00000000000E+00 0. -1.
         -5    1    3    3    0  503 -0.68300289326E+01 -0.66201930152E+02  0.73623369036E+02  0.99357110059E+02  0.47000000000E+01 0.  1.
         13    1    4    4    0    0 -0.30967293320E+02 -0.37311647841E+02 -0.17868079708E+02  0.51675918885E+02  0.00000000000E+00 0. -1.
        -14    1    4    4    0    0  0.56313872301E+01  0.34709552576E+02 -0.18347176047E+02  0.39662128423E+02  0.00000000000E+00 0.  1.
</event>
<event>
12    1  0.8488291E-002  0.2516601E+03  0.7818608E-02  0.1112332E+00
         21   -1    0    0  503  502  0.00000000000E+00  0.00000000000E+00  0.63891516319E+02  0.63891516319E+02  0.00000000000E+00 0.  1.
         21   -1    0    0  501  503 -0.00000000000E+00 -0.00000000000E+00 -0.23778718063E+04  0.23778718063E+04  0.00000000000E+00 0. -1.
          6    2    1    2  501    0  0.17917353408E+03 -0.41464662323E+02 -0.20903386439E+04  0.21054330837E+04  0.17178576900E+03 0.  0.
         24    2    3    3    0    0  0.11368251637E+03 -0.95380191242E+01 -0.18241192403E+04  0.18293837317E+04  0.78861564907E+02 0.  0.
         -6    2    1    2    0  502 -0.17917353408E+03  0.41464662323E+02 -0.22364164609E+03  0.33633023887E+03  0.17111390996E+03 0.  0.
        -24    2    5    5    0    0 -0.62352475366E+02 -0.27593090785E+02 -0.14878621156E+03  0.18127683162E+03  0.77940638242E+02 0.  0.
          5    1    3    3  501    0  0.65491017706E+02 -0.31926643198E+02 -0.26621940356E+03  0.27604935207E+03  0.47000000000E+01 0. -1.
        -13    1    4    4    0    0  0.49110822237E+02 -0.29811703578E+02 -0.12447061104E+04  0.12460312644E+04  0.00000000000E+00 0.  1.
         14    1    4    4    0    0  0.64571694133E+02  0.20273684454E+02 -0.57941312990E+03  0.58335246727E+03  0.00000000000E+00 0. -1.
         -5    1    5    5    0  502 -0.11682105871E+03  0.69057753108E+02 -0.74855434527E+02  0.15505340725E+03  0.47000000000E+01 0.  1.
         13    1    6    6    0    0  0.18483092466E+02 -0.84157899487E+01 -0.25263549054E+02  0.32414458786E+02  0.00000000000E+00 0. -1.
        -14    1    6    6    0    0 -0.80835567832E+02 -0.19177300837E+02 -0.12352266250E+03  0.14886237284E+03  0.00000000000E+00 0.  1.
</event>
<event>
12    1  0.8488291E-002  0.2484017E+03  0.7818608E-02  0.1114463E+00
         21   -1    0    0  501  502  0.00000000000E+00  0.00000000000E+00  0.58551262800E+03  0.58551262800E+03  0.00000000000E+00 0. -1.
         21   -1    0    0  502  503 -0.00000000000E+00 -0.00000000000E+00 -0.65521800511E+03  0.65521800511E+03  0.00000000000E+00 0. -1.
         -6    2    1    2    0  503  0.17843085328E+03 -0.13208963769E+02 -0.60335113231E+03  0.65248449347E+03  0.17231186617E+03 0.  0.
        -24    2    3    3    0    0  0.17696509786E+03 -0.51341728237E+01 -0.36270663276E+03  0.41165422989E+03  0.80994431598E+02 0.  0.
          6    2    1    2  501    0 -0.17843085328E+03  0.13208963769E+02  0.53364575520E+03  0.58824613965E+03  0.17100784380E+03 0.  0.
         24    2    5    5    0    0 -0.19676073187E+03  0.34132035833E+01  0.41796719815E+03  0.47062148268E+03  0.89786222020E+02 0.  0.
          5    1    5    5  501    0  0.18329878582E+02  0.97957601852E+01  0.11567855705E+03  0.11762465697E+03  0.47000000000E+01 0. -1.
        -11    1    6    6    0    0 -0.46274768494E+02 -0.16557724987E+02  0.19347853549E+03  0.19962328559E+03  0.00000000000E+00 0.  1.
         12    1    6    6    0    0 -0.15048596337E+03  0.19970928571E+02  0.22448866267E+03  0.27099819709E+03  0.00000000000E+00 0. -1.
         -5    1    3    3    0  503  0.14657554288E+01 -0.80747909448E+01 -0.24064449955E+03  0.24083026357E+03  0.47000000000E+01 0.  1.
         11    1    4    4    0    0  0.15728556064E+03 -0.32494336567E+02 -0.30905351458E+03  0.34829399129E+03  0.00000000000E+00 0. -1.
        -12    1    4    4    0    0  0.19679537211E+02  0.27360163743E+02 -0.53653118184E+02  0.63360238602E+02  0.00000000000E+00 0.  1.
</event>
<event>
12    1  0.8488291E-002  0.3049943E+03  0.7818608E-02  0.1083551E+00
         21   -1    0    0  501  502  0.00000000000E+00  0.00000000000E+00  0.37827410687E+03  0.37827410687E+03  0.00000000000E+00 0.  1.
         21   -1    0    0  502  503 -0.00000000000E+00 -0.00000000000E+00 -0.37491070341E+03  0.37491070341E+03  0.00000000000E+00 0. -1.
         -6    2    1    2    0  503 -0.45106396425E+01 -0.24438548429E+03  0.22688211607E+03  0.38012767289E+03  0.18241968728E+03 0.  0.
        -24    2    3    3    0    0  0.69528810628E+01 -0.65545850605E+02  0.15902557206E+02  0.10327122789E+03  0.77893864309E+02 0.  0.
          6    2    1    2  501    0  0.45106396425E+01  0.24438548429E+03 -0.22351871261E+03  0.37305713738E+03  0.17165780513E+03 0.  0.
         24    2    5    5    0    0  0.40632887422E+02  0.56508681417E+02 -0.88380813469E+02  0.13877770673E+03  0.81263897761E+02 0.  0.
          5    1    5    5  501    0 -0.36122247780E+02  0.18787680287E+03 -0.13513789914E+03  0.23427943065E+03  0.47000000000E+01 0. -1.
        -13    1    6    6    0    0 -0.13966819075E+02  0.49649943368E+02 -0.48685157185E+02  0.70925548582E+02  0.00000000000E+00 0.  1.
         14    1    6    6    0    0  0.54599706497E+02  0.68587380484E+01 -0.39695656283E+02  0.67852158145E+02  0.00000000000E+00 0. -1.
         -5    1    3    3    0  503 -0.11463520705E+02 -0.17883963368E+03  0.21097955887E+03  0.27685644501E+03  0.47000000000E+01 0.  1.
         13    1    4    4    0    0  0.34094664329E+02 -0.54573432579E+02 -0.88240749585E+01  0.64950519459E+02  0.00000000000E+00 0. -1.
        -14    1    4    4    0    0 -0.27141783266E+02 -0.10972418027E+02  0.24726632164E+02  0.38320708428E+02  0.00000000000E+00 0.  1.
</event>
<event>
12    1  0.8488291E-002  0.1845872E+03  0.7818608E-02  0.1164572E+00
         21   -1    0    0  501  502  0.00000000000E+00  0.00000000000E+00  0.26578236783E+03  0.26578236783E+03  0.00000000000E+00 0. -1.
         21   -1    0    0  502  503 -0.00000000000E+00 -0.00000000000E+00 -0.32997596100E+03  0.32997596100E+03  0.00000000000E+00 0. -1.
         -6    2    1    2    0  503 -0.27270529685E+02 -0.55047634466E+02 -0.26676353761E+03  0.32170170159E+03  0.16898306411E+03 0.  0.
        -24    2    3    3    0    0  0.24733686496E+02 -0.70918750108E+02 -0.23273645283E+03  0.25738791371E+03  0.80256197796E+02 0.  0.
          6    2    1    2  501    0  0.27270529685E+02  0.55047634466E+02  0.20256994443E+03  0.27405662724E+03  0.17406472560E+03 0.  0.
         24    2    5    5    0    0  0.48345535775E+02  0.16420760674E+02  0.20846155923E+03  0.22941368395E+03  0.81040017872E+02 0.  0.
          5    1    5    5  501    0 -0.21075006090E+02  0.38626873792E+02 -0.58916148016E+01  0.44642943290E+02  0.47000000000E+01 0. -1.
        -11    1    6    6    0    0 -0.19453869391E+02 -0.18455876710E+01  0.18576908716E+02  0.26962209953E+02  0.00000000000E+00 0.  1.
         12    1    6    6    0    0  0.67799405166E+02  0.18266348345E+02  0.18988465052E+03  0.20245147400E+03  0.00000000000E+00 0. -1.
         -5    1    3    3    0  503 -0.52004216180E+02  0.15871115642E+02 -0.34027084780E+02  0.64313787875E+02  0.47000000000E+01 0.  1.
         11    1    4    4    0    0  0.25174838018E+00 -0.10905583097E+02 -0.15835048840E+03  0.15872577704E+03  0.00000000000E+00 0. -1.
        -12    1    4    4    0    0  0.24481938115E+02 -0.60013167012E+02 -0.74385964425E+02  0.98662136669E+02  0.00000000000E+00 0.  1.
</event>
<event>
12    1  0.8488291E-002  0.1808384E+03  0.7818608E-02  0.1167014E+00
         21   -1    0    0  503  502  0.00000000000E+00  0.00000000000E+00  0.14446095830E+03  0.14446095830E+03  0.00000000000E+00 0. -1.
         21   -1    0    0  501  503 -0.00000000000E+00 -0.00000000000E+00 -0.28749079335E+03  0.28749079335E+03  0.00000000000E+00 0. -1.
          6    2    1    2  501    0 -0.38321348861E+02  0.36978332371E+02 -0.17118824360E+03  0.24901392055E+03  0.17281954472E+03 0.  0.
         24    2    3    3    0    0  0.44836394962E+02  0.37307808941E+02 -0.94232222120E+02  0.13561357595E+03  0.78161086071E+02 0.  0.
         -6    2    1    2    0  502  0.38321348861E+02 -0.36978332371E+02  0.28158408555E+02  0.18293783109E+03  0.17273514763E+03 0.  0.
        -24    2    5    5    0    0  0.34125591837E+02 -0.57673082494E+02 -0.39121896670E+02  0.11226530085E+03  0.81130971354E+02 0.  0.
          5    1    3    3  501    0 -0.83157743822E+02 -0.32947656913E+00 -0.76956021484E+02  0.11340034460E+03  0.47000000000E+01 0. -1.
        -13    1    4    4    0    0  0.66350536775E+01  0.31424844355E+02  0.17254066310E+01  0.32163983088E+02  0.00000000000E+00 0.  1.
         14    1    4    4    0    0  0.38201341284E+02  0.58829645854E+01 -0.95957628751E+02  0.10344959286E+03  0.00000000000E+00 0. -1.
         -5    1    5    5    0  502  0.41957570241E+01  0.20694750123E+02  0.67280305225E+02  0.70672530242E+02  0.47000000000E+01 0.  1.
         13    1    6    6    0    0  0.19963736159E+02 -0.38814537648E+02  0.20445622845E+02  0.48198989489E+02  0.00000000000E+00 0. -1.
        -14    1    6    6    0    0  0.14161855678E+02 -0.18858544846E+02 -0.59567519515E+02  0.64066311359E+02  0.00000000000E+00 0.  1.
</event>
<event>
12    1  0.8488291E-002  0.2488247E+03  0.7818608E-02  0.1114755E+00
         21   -1    0    0  501  502  0.00000000000E+00  0.00000000000E+00  0.31799684782E+03  0.31799684782E+03  0.00000000000E+00 0.  1.
         21   -1    0    0  502  503 -0.00000000000E+00 -0.00000000000E+00 -0.19602649529E+03  0.19602649529E+03  0.00000000000E+00 0. -1.
         -6    2    1    2    0  503 -0.61383196765E+02  0.16231661590E+03  0.20441250480E+02  0.24528202411E+03  0.17213612634E+03 0.  0.
        -24    2    3    3    0    0 -0.91616281195E+02  0.16997923376E+03  0.45286398528E+01  0.20995418405E+03  0.82302903546E+02 0.  0.
          6    2    1    2  501    0  0.61383196765E+02 -0.16231661590E+03  0.10152910204E+03  0.26874131900E+03  0.17832318227E+03 0.  0.
         24    2    5    5    0    0 -0.15565036187E+02 -0.82065371827E+02  0.10645132526E+03  0.15735186254E+03  0.80316426652E+02 0.  0.
          5    1    5    5  501    0  0.76948232952E+02 -0.80251244069E+02 -0.49222232154E+01  0.11138945646E+03  0.47000000000E+01 0. -1.
        -13    1    6    6    0    0  0.99283613850E+01  0.11137147468E+02  0.32210271023E+02  0.35498027732E+02  0.00000000000E+00 0.  1.
         14    1    6    6    0    0 -0.25493397572E+02 -0.93202519296E+02  0.74241054237E+02  0.12185383481E+03  0.00000000000E+00 0. -1.
         -5    1    3    3    0  503  0.30233084430E+02 -0.76626178625E+01  0.15912610627E+02  0.35327840065E+02  0.47000000000E+01 0.  1.
         13    1    4    4    0    0 -0.50216246630E+02  0.11260846491E+03 -0.35965815518E+02  0.12843627868E+03  0.00000000000E+00 0. -1.
        -14    1    4    4    0    0 -0.41400034565E+02  0.57370768844E+02  0.40494455371E+02  0.81517905367E+02  0.00000000000E+00 0.  1.
</event>
<event>
12    1  0.8488291E-002  0.1858332E+03  0.7818608E-02  0.1162515E+00
         21   -1    0    0  503  502  0.00000000000E+00  0.00000000000E+00  0.14361996055E+03  0.14361996055E+03  0.00000000000E+00 0.  1.
         21   -1    0    0  501  503 -0.00000000000E+00 -0.00000000000E+00 -0.11029654955E+04  0.11029654955E+04  0.00000000000E+00 0.  1.
          6    2    1    2  501    0  0.17306977765E+02  0.67211194698E+02 -0.10309892537E+04  0.10474201950E+04  0.17126980933E+03 0.  0.
         24    2    3    3    0    0 -0.24526926960E+02  0.89633703242E+02 -0.53076079674E+03  0.54492298747E+03  0.81229723726E+02 0.  0.
         -6    2    1    2    0  502 -0.17306977765E+02 -0.67211194698E+02  0.71643718746E+02  0.19916526100E+03  0.17238649188E+03 0.  0.
        -24    2    5    5    0    0  0.36707386180E+02 -0.20372208141E+02 -0.11241803311E+02  0.89604584019E+02  0.78359072677E+02 0.  0.
          5    1    3    3  501    0  0.41833904724E+02 -0.22422508544E+02 -0.50022845691E+03  0.50249720754E+03  0.47000000000E+01 0. -1.
        -11    1    4    4    0    0 -0.26233299379E+02 -0.67014737750E+01 -0.11600701215E+03  0.11912481948E+03  0.00000000000E+00 0.  1.
         12    1    4    4    0    0  0.17063724197E+01  0.96335177017E+02 -0.41475378459E+03  0.42579816800E+03  0.00000000000E+00 0. -1.
         -5    1    5    5    0  502 -0.54014363945E+02 -0.46838986557E+02  0.82885522057E+02  0.10956067698E+03  0.47000000000E+01 0.  1.
         11    1    6    6    0    0 -0.18541442183E+02  0.52298165026E+01 -0.20363943235E+02  0.28032592512E+02  0.00000000000E+00 0. -1.
        -12    1    6    6    0    0  0.55248828363E+02 -0.25602024644E+02  0.91221399239E+01  0.61571991507E+02  0.00000000000E+00 0.  1.
</event>
<event>
12    1  0.8488291E-002  0.1963352E+03  0.7818608E-02  0.1152879E+00
         21   -1    0    0  503  502  0.00000000000E+00  0.00000000000E+00  0.50448450282E+02  0.50448450282E+02  0.00000000000E+00 0.  1.
         21   -1    0    0  501  503 -0.00000000000E+00 -0.00000000000E+00 -0.76430734121E+03  0.76430734121E+03  0.00000000000E+00 0.  1.
          6    2    1    2  501    0  0.95415685681E+02  0.33538198491E+00 -0.34768677523E+03  0.39929139288E+03  0.17159037619E+03 0.  0.
         24    2    3    3    0    0 -0.16809526026E+02  0.64027282393E+01 -0.15823591278E+03  0.17896202553E+03  0.81640966396E+02 0.  0.
         -6    2    1    2    0  502 -0.95415685681E+02 -0.33538198491E+00 -0.36617211570E+03  0.41546439862E+03  0.17153536850E+03 0.  0.
        -24    2    5    5    0    0  0.17054250278E+02  0.79331336680E+01 -0.12880259800E+03  0.15262560244E+03  0.79691173944E+02 0.  0.
          5    1    3    3  501    0  0.11222521171E+03 -0.60673462544E+01 -0.18945086245E+03  0.22032936735E+03  0.47000000000E+01 0. -1.
        -13    1    4    4    0    0 -0.73960435019E+01 -0.35831302848E+02 -0.99462603110E+02  0.10597826730E+03  0.00000000000E+00 0.  1.
         14    1    4    4    0    0 -0.94134825245E+01  0.42234031087E+02 -0.58773309668E+02  0.72983758224E+02  0.00000000000E+00 0. -1.
         -5    1    5    5    0  502 -0.11246993596E+03 -0.82685156529E+01 -0.23736951770E+03  0.26283879618E+03  0.47000000000E+01 0.  1.
         11    1    6    6    0    0  0.15145520696E+01  0.91837505801E+01 -0.13538386376E+03  0.13570344767E+03  0.00000000000E+00 0. -1.
        -12    1    6    6    0    0  0.15539698208E+02 -0.12506169121E+01  0.65812657562E+01  0.16922154768E+02  0.00000000000E+00 0.  1.
</event>
<event>
12    1  0.8488291E-002  0.3187428E+03  0.7818608E-02  0.1076263E+00
         21   -1    0    0  503  502  0.00000000000E+00  0.00000000000E+00  0.69939420482E+03  0.69939420482E+03  0.00000000000E+00 0. -1.
         21   -1    0    0  501  503 -0.00000000000E+00 -0.00000000000E+00 -0.42709142040E+03  0.42709142040E+03  0.00000000000E+00 0.  1.
          6    2    1    2  501    0 -0.26804992404E+03  0.12547540834E+02 -0.32147190074E+03  0.45270429356E+03  0.17201392932E+03 0.  0.
         24    2    3    3    0    0 -0.24990468511E+03  0.98734387092E+01 -0.33786388687E+03  0.42766057724E+03  0.78687526617E+02 0.  0.
         -6    2    1    2    0  502  0.26804992404E+03 -0.12547540834E+02  0.59377468517E+03  0.67378133166E+03  0.17147799741E+03 0.  0.
        -24    2    5    5    0    0  0.10010012466E+03  0.49347654092E+02  0.23870371401E+03  0.27611861676E+03  0.82503342467E+02 0.  0.
          5    1    3    3  501    0 -0.18145238930E+02  0.26741021252E+01  0.16391986124E+02  0.25043716319E+02  0.47000000000E+01 0. -1.
        -11    1    4    4    0    0 -0.69075335691E+02 -0.23226513166E+02 -0.59541460004E+02  0.94106632997E+02  0.00000000000E+00 0.  1.
         12    1    4    4    0    0 -0.18082934942E+03  0.33099951875E+02 -0.27832242686E+03  0.33355394424E+03  0.00000000000E+00 0. -1.
         -5    1    5    5    0  502  0.16794979938E+03 -0.61895194926E+02  0.35507097115E+03  0.39766271490E+03  0.47000000000E+01 0.  1.
         11    1    6    6    0    0  0.93182771887E+02  0.35653479272E+02  0.24078409342E+03  0.26063610495E+03  0.00000000000E+00 0. -1.
        -12    1    6    6    0    0  0.69173527741E+01  0.13694174820E+02 -0.20803794099E+01  0.15482511808E+02  0.00000000000E+00 0.  1.
</event>
<event>
12    1  0.8488291E-002  0.1837603E+03  0.7818608E-02  0.1165388E+00
         21   -1    0    0  501  502  0.00000000000E+00  0.00000000000E+00  0.69181199827E+03  0.69181199827E+03  0.00000000000E+00 0. -1.
         21   -1    0    0  502  503 -0.00000000000E+00 -0.00000000000E+00 -0.63763858193E+02  0.63763858193E+02  0.00000000000E+00 0.  1.
         -6    2    1    2    0  503  0.65637982375E+02  0.29249663859E+01  0.50155754726E+03  0.53248905737E+03  0.16633617419E+03 0.  0.
        -24    2    3    3    0    0  0.10559017074E+03 -0.14428728113E+02  0.39566049337E+03  0.41788711982E+03  0.82005771388E+02 0.  0.
          6    2    1    2  501    0 -0.65637982375E+02 -0.29249663859E+01  0.12649059282E+03  0.22308679910E+03  0.17161279003E+03 0.  0.
         24    2    5    5    0    0 -0.73274274065E+02  0.19614607573E+02  0.15174731505E+03  0.18806769913E+03  0.81168711709E+02 0.  0.
          5    1    5    5  501    0  0.76362916902E+01 -0.22539573959E+02 -0.25256722229E+02  0.35019099971E+02  0.47000000000E+01 0. -1.
        -13    1    6    6    0    0 -0.28853878571E+02  0.34492728698E+02  0.21881447877E+02  0.50010922835E+02  0.00000000000E+00 0.  1.
         14    1    6    6    0    0 -0.44420395495E+02 -0.14878121125E+02  0.12986586717E+03  0.13805677629E+03  0.00000000000E+00 0. -1.
         -5    1    3    3    0  503 -0.39952188369E+02  0.17353694499E+02  0.10589705389E+03  0.11460193755E+03  0.47000000000E+01 0.  1.
         11    1    4    4    0    0  0.68993826339E+02 -0.26597462584E+02  0.35178025760E+03  0.35946755449E+03  0.00000000000E+00 0. -1.
        -12    1    4    4    0    0  0.36596344405E+02  0.12168734470E+02  0.43880235771E+02  0.58419565333E+02  0.00000000000E+00 0.  1.
</event>
<event>
12    1  0.8488291E-002  0.2494844E+03  0.7818608E-02  0.1113686E+00
         21   -1    0    0  501  502  0.00000000000E+00  0.00000000000E+00  0.20851497911E+03  0.20851497911E+03  0.00000000000E+00 0. -1.
         21   -1    0    0  502  503 -0.00000000000E+00 -0.00000000000E+00 -0.36184380990E+03  0.36184380990E+03  0.00000000000E+00 0. -1.
         -6    2    1    2    0  503  0.95152116761E+02 -0.15286478868E+03 -0.19632288578E+03  0.31719691743E+03  0.17219070823E+03 0.  0.
        -24    2    3    3    0    0  0.47713287170E+02 -0.16438677861E+03 -0.11284519016E+03  0.22037845601E+03  0.80827323202E+02 0.  0.
          6    2    1    2  501    0 -0.95152116761E+02  0.15286478868E+03  0.42994054986E+02  0.25316187158E+03  0.17268721875E+03 0.  0.
         24    2    5    5    0    0 -0.50683779475E+02  0.15903067386E+03  0.73167800407E+02  0.19886641990E+03  0.79590987025E+02 0.  0.
          5    1    5    5  501    0 -0.44468337286E+02 -0.61658851849E+01 -0.30173745421E+02  0.54295451686E+02  0.47000000000E+01 0. -1.
        -13    1    6    6    0    0  0.60988076244E-01 -0.66081555090E+01  0.14549943855E+02  0.15980372491E+02  0.00000000000E+00 0.  1.
         14    1    6    6    0    0 -0.50744767551E+02  0.16563882937E+03  0.58617856552E+02  0.18288604741E+03  0.00000000000E+00 0. -1.
         -5    1    3    3    0  503  0.47438829592E+02  0.11521989933E+02 -0.83477695625E+02  0.96818461421E+02  0.47000000000E+01 0.  1.
         11    1    4    4    0    0  0.40422201732E+01 -0.41059827263E+02 -0.72587894043E+02  0.83494019669E+02  0.00000000000E+00 0. -1.
        -12    1    4    4    0    0  0.43671066996E+02 -0.12332695135E+03 -0.40257296115E+02  0.13688443634E+03  0.00000000000E+00 0.  1.
</event>
<event>
12    1  0.8488291E-002  0.1979070E+03  0.7818608E-02  0.1151929E+00
         21   -1    0    0  501  502  0.00000000000E+00  0.00000000000E+00  0.29445931023E+03  0.29445931023E+03  0.00000000000E+00 0.  1.
         21   -1    0    0  502  503 -0.00000000000E+00 -0.00000000000E+00 -0.13366324955E+03  0.13366324955E+03  0.00000000000E+00 0. -1.
         -6    2    1    2    0  503 -0.53888611602E+02 -0.76903075248E+02  0.54264334287E+02  0.20336449965E+03  0.17203033540E+03 0.  0.
        -24    2    3    3    0    0 -0.59958762576E+02  0.14347168923E+02  0.46142049547E+02  0.11143237630E+03  0.80543102034E+02 0.  0.
          6    2    1    2  501    0  0.53888611602E+02  0.76903075248E+02  0.10653172640E+03  0.22475806013E+03  0.17420996362E+03 0.  0.
         24    2    5    5    0    0  0.86197398986E+01 -0.14826230895E+02  0.17747277419E+02  0.89228341138E+02  0.85747384613E+02 0.  0.
          5    1    5    5  501    0  0.45268871703E+02  0.91729306143E+02  0.88784448976E+02  0.13552971899E+03  0.47000000000E+01 0. -1.
        -11    1    6    6    0    0 -0.20498769563E+02  0.19906117330E+02  0.30849173763E+02  0.42049073505E+02  0.00000000000E+00 0.  1.
         12    1    6    6    0    0  0.29118509462E+02 -0.34732348225E+02 -0.13101896344E+02  0.47179267633E+02  0.00000000000E+00 0. -1.
         -5    1    3    3    0  503  0.60701509744E+01 -0.91250244170E+02  0.81222847400E+01  0.91932123349E+02  0.47000000000E+01 0.  1.
         11    1    4    4    0    0 -0.19461081985E+02 -0.26101053824E+02 -0.70302732117E+01  0.33308009010E+02  0.00000000000E+00 0. -1.
        -12    1    4    4    0    0 -0.40497680591E+02  0.40448222747E+02  0.53172322759E+02  0.78124367288E+02  0.00000000000E+00 0.  1.
</event>
<event>
12    1  0.8488291E-002  0.2498495E+03  0.7818608E-02  0.1113474E+00
         21   -1    0    0  503  502  0.00000000000E+00  0.00000000000E+00  0.66916078303E+03  0.66916078303E+03  0.00000000000E+00 0.  1.
         21   -1    0    0  501  503 -0.00000000000E+00 -0.00000000000E+00 -0.11647013889E+03  0.11647013889E+03  0.00000000000E+00 0.  1.
          6    2    1    2  501    0 -0.80954894286E+02 -0.16217659049E+03  0.10064517286E+03  0.26935893853E+03  0.17195884837E+03 0.  0.
         24    2    3    3    0    0 -0.75958867498E+02 -0.95839521625E+02  0.13122952148E+03  0.19598960318E+03  0.78966915786E+02 0.  0.
         -6    2    1    2    0  502  0.80954894286E+02  0.16217659049E+03  0.45204547127E+03  0.51627198339E+03  0.17127962905E+03 0.  0.
        -24    2    5    5    0    0  0.45453571474E+02  0.15627168448E+02  0.22739171567E+03  0.24566437647E+03  0.79584910347E+02 0.  0.
          5    1    3    3  501    0 -0.49960267879E+01 -0.66337068860E+02 -0.30584348620E+02  0.73369335346E+02  0.47000000000E+01 0. -1.
        -13    1    4    4    0    0 -0.48171424109E+02 -0.75806483294E+02  0.39587410942E+02  0.98154328051E+02  0.00000000000E+00 0.  1.
         14    1    4    4    0    0 -0.27787443389E+02 -0.20033038330E+02  0.91642110541E+02  0.97835275127E+02  0.00000000000E+00 0. -1.
         -5    1    5    5    0  502  0.35501322812E+02  0.14654942204E+03  0.22465375560E+03  0.27060760693E+03  0.47000000000E+01 0.  1.
         11    1    6    6    0    0  0.66534085042E+02  0.17581350965E+02  0.19660207716E+03  0.20829850004E+03  0.00000000000E+00 0. -1.
        -12    1    6    6    0    0 -0.21080513568E+02 -0.19541825168E+01  0.30789638507E+02  0.37365876425E+02  0.00000000000E+00 0.  1.
</event>
<event>
12    1  0.8488291E-002  0.1854406E+03  0.7818608E-02  0.1163161E+00
         21   -1    0    0  503  502  0.00000000000E+00  0.00000000000E+00  0.25260633857E+03  0.25260633857E+03  0.00000000000E+00 0.  1.
         21   -1    0    0  501  503 -0.00000000000E+00 -0.00000000000E+00 -0.72593754520E+03  0.72593754520E+03  0.00000000000E+00 0.  1.
          6    2    1    2  501    0  0.55038707533E+02 -0.33003197150E+02 -0.67802447336E+03  0.70234188985E+03  0.17160557511E+03 0.  0.
         24    2    3    3    0    0  0.76634548423E+02 -0.67484684399E+02 -0.59786439084E+03  0.61232476849E+03  0.84099676805E+02 0.  0.
         -6    2    1    2    0  502 -0.55038707533E+02  0.33003197150E+02  0.20469326674E+03  0.27620199392E+03  0.17398200380E+03 0.  0.
        -24    2    5    5    0    0 -0.81854926904E+02  0.43911080625E+02  0.77830986760E+02  0.14599362389E+03  0.81412920703E+02 0.  0.
          5    1    3    3  501    0 -0.21595840890E+02  0.34481487249E+02 -0.80160082529E+02  0.90017121359E+02  0.47000000000E+01 0. -1.
        -13    1    4    4    0    0  0.17025624080E+02 -0.58406388677E+02 -0.42309345875E+03  0.42744502915E+03  0.00000000000E+00 0.  1.
         14    1    4    4    0    0  0.59608924344E+02 -0.90782957226E+01 -0.17477093209E+03  0.18487973934E+03  0.00000000000E+00 0. -1.
         -5    1    5    5    0  502  0.26816219371E+02 -0.10907883475E+02  0.12686227998E+03  0.13020837002E+03  0.47000000000E+01 0.  1.
         13    1    6    6    0    0 -0.26725417265E+02  0.41414046405E+02  0.76239636333E+02  0.90784653526E+02  0.00000000000E+00 0. -1.
        -14    1    6    6    0    0 -0.55129509639E+02  0.24970342200E+01  0.15913504274E+01  0.55208970368E+02  0.00000000000E+00 0.  1.
</event>
<event>
12    1  0.8488291E-002  0.2111585E+03  0.7818608E-02  0.1140654E+00
         21   -1    0    0  501  502  0.00000000000E+00  0.00000000000E+00  0.75806183489E+03  0.75806183489E+03  0.00000000000E+00 0. -1.
         21   -1    0    0  502  503 -0.00000000000E+00 -0.00000000000E+00 -0.63818716963E+02  0.63818716963E+02  0.00000000000E+00 0. -1.
         -6    2    1    2    0  503  0.83567752725E+02 -0.87457359628E+02  0.23204829664E+03  0.31373495311E+03  0.17306313815E+03 0.  0.
        -24    2    3    3    0    0  0.12204928942E+03 -0.80231487758E+02  0.21156733730E+03  0.26929846376E+03  0.80173584770E+02 0.  0.
          6    2    1    2  501    0 -0.83567752725E+02  0.87457359628E+02  0.46219482129E+03  0.50814559874E+03  0.17307668139E+03 0.  0.
         24    2    5    5    0    0 -0.11639953120E+03  0.60826633029E+02  0.42369004876E+03  0.45077113765E+03  0.80203684299E+02 0.  0.
          5    1    5    5  501    0  0.32831778474E+02  0.26630726599E+02  0.38504772527E+02  0.57374461080E+02  0.47000000000E+01 0. -1.
        -13    1    6    6    0    0  0.49323045315E+01 -0.10174212214E+02  0.16543367169E+02  0.20038094207E+02  0.00000000000E+00 0.  1.
         14    1    6    6    0    0 -0.12133183573E+03  0.71000845243E+02  0.40714668159E+03  0.43073304345E+03  0.00000000000E+00 0. -1.
         -5    1    3    3    0  503 -0.38481536696E+02 -0.72258718699E+01  0.20480959334E+02  0.44436489353E+02  0.47000000000E+01 0.  1.
         11    1    4    4    0    0  0.11684602103E+03 -0.87464260278E+02  0.21490585663E+03  0.25978359584E+03  0.00000000000E+00 0. -1.
        -12    1    4    4    0    0  0.52032683884E+01  0.72327725192E+01 -0.33385193230E+01  0.95148679185E+01  0.00000000000E+00 0.  1.
</event>
<event>
12    1  0.8488291E-002  0.2161386E+03  0.7818608E-02  0.1136815E+00
         21   -1    0    0  503  502  0.00000000000E+00  0.00000000000E+00  0.87286726833E+03  0.87286726833E+03  0.00000000000E+00 0. -1.
         21   -1    0    0  501  503 -0.00000000000E+00 -0.00000000000E+00 -0.53506713988E+02  0.53506713988E+02  0.00000000000E+00 0.  1.
          6    2    1    2  501    0  0.84069443049E+02 -0.99804413237E+02  0.40251108139E+03  0.45687096359E+03  0.17230007132E+03 0.  0.
         24    2    3    3    0    0  0.90721578939E+01  0.53406722037E+00  0.89100622918E+02  0.11932006533E+03  0.78840140209E+02 0.  0.
         -6    2    1    2    0  502 -0.84069443049E+02  0.99804413237E+02  0.41684947296E+03  0.46950301873E+03  0.17216564505E+03 0.  0.
        -24    2    5    5    0    0 -0.43376278169E+02  0.15644328250E+02  0.16092213205E+03  0.19699660157E+03  0.10385317487E+03 0.  0.
          5    1    3    3  501    0  0.74997285155E+02 -0.10033848046E+03  0.31341045847E+03  0.33755089826E+03  0.47000000000E+01 0. -1.
        -13    1    4    4    0    0  0.27616778348E+02  0.29478433246E+02  0.27789754822E+02  0.49029939283E+02  0.00000000000E+00 0.  1.
         14    1    4    4    0    0 -0.18544620455E+02 -0.28944366026E+02  0.61310868096E+02  0.70290126042E+02  0.00000000000E+00 0. -1.
         -5    1    5    5    0  502 -0.40693164879E+02  0.84160084987E+02  0.25592734090E+03  0.27250641716E+03  0.47000000000E+01 0.  1.
         13    1    6    6    0    0  0.23733535483E+02 -0.80671982465E+01  0.10066623168E+03  0.10374030362E+03  0.00000000000E+00 0. -1.
        -14    1    6    6    0    0 -0.67109813653E+02  0.23711526496E+02  0.60255900370E+02  0.93256297946E+02  0.00000000000E+00 0.  1.
</event>
<event>
12    1  0.8488291E-002  0.2359699E+03  0.7818608E-02  0.1122961E+00
         21   -1    0    0  503  502  0.00000000000E+00  0.00000000000E+00  0.12242921425E+04  0.12242921425E+04  0.00000000000E+00 0.  1.
         21   -1    0    0  501  503 -0.00000000000E+00 -0.00000000000E+00 -0.85626824886E+02  0.85626824886E+02  0.00000000000E+00 0.  1.
          6    2    1    2  501    0  0.70660848858E+02 -0.14448673761E+03  0.10223240474E+04  0.10492036356E+04  0.17266278707E+03 0.  0.
         24    2    3    3    0    0  0.37471289784E+02 -0.16009596457E+03  0.95636374470E+03  0.97358587090E+03  0.78759256005E+02 0.  0.
         -6    2    1    2    0  502 -0.70660848858E+02  0.14448673761E+03  0.11634127019E+03  0.26071533182E+03  0.16902017687E+03 0.  0.
        -24    2    5    5    0    0 -0.50312346489E+02  0.14789009281E+02  0.18894362285E+02  0.97150200627E+02  0.79568320021E+02 0.  0.
          5    1    3    3  501    0  0.33189559074E+02  0.15609226964E+02  0.65960302720E+02  0.75617764665E+02  0.47000000000E+01 0. -1.
        -11    1    4    4    0    0  0.34127760884E+02 -0.16917439056E+03  0.89994423516E+03  0.91634289700E+03  0.00000000000E+00 0.  1.
         12    1    4    4    0    0  0.33435288994E+01  0.90784259909E+01  0.56419509542E+02  0.57242973900E+02  0.00000000000E+00 0. -1.
         -5    1    5    5    0  502 -0.20348502369E+02  0.12969772833E+03  0.97446907907E+02  0.16356513119E+03  0.47000000000E+01 0.  1.
         13    1    6    6    0    0 -0.48997064316E+02  0.32609686058E+02  0.38727033002E+02  0.70454858041E+02  0.00000000000E+00 0. -1.
        -14    1    6    6    0    0 -0.13152821723E+01 -0.17820676778E+02 -0.19832670717E+02  0.26695342586E+02  0.00000000000E+00 0.  1.
</event>
<event>
12    1  0.8488291E-002  0.2142538E+03  0.7818608E-02  0.1139477E+00
         21   -1    0    0  501  502  0.00000000000E+00  0.00000000000E+00  0.12929542342E+04  0.12929542342E+04  0.00000000000E+00 0. -1.
         21   -1    0    0  502  503 -0.00000000000E+00 -0.00000000000E+00 -0.65521504378E+02  0.65521504378E+02  0.00000000000E+00 0. -1.
         -6    2    1    2    0  503  0.87137206766E+01  0.12316716850E+03  0.15094327117E+03  0.26208502827E+03  0.17509600398E+03 0.  0.
        -24    2    3    3    0    0 -0.17258291750E+01  0.33325653462E+02  0.15402766123E+01  0.87374333672E+02  0.80736138548E+02 0.  0.
          6    2    1    2  501    0 -0.87137206766E+01 -0.12316716850E+03  0.10764894586E+04  0.10963907103E+04  0.16732290558E+03 0.  0.
         24    2    5    5    0    0  0.36611839434E+02 -0.48277527483E+02  0.32927486557E+03  0.34405129033E+03  0.79235136377E+02 0.  0.
          5    1    5    5  501    0 -0.45325560110E+02 -0.74889641014E+02  0.74721459306E+03  0.75233941995E+03  0.47000000000E+01 0. -1.
        -11    1    6    6    0    0  0.52832858739E+02 -0.12445706229E+02  0.24651937056E+03  0.25242425919E+03  0.00000000000E+00 0.  1.
         12    1    6    6    0    0 -0.16221019305E+02 -0.35831821254E+02  0.82755495008E+02  0.91627031141E+02  0.00000000000E+00 0. -1.
         -5    1    3    3    0  503  0.10439549852E+02  0.89841515035E+02  0.14940299456E+03  0.17471069460E+03  0.47000000000E+01 0.  1.
         11    1    4    4    0    0  0.15142475256E+02  0.55447032466E+02  0.99055394412E+01  0.58324846145E+02  0.00000000000E+00 0. -1.
        -12    1    4    4    0    0 -0.16868304431E+02 -0.22121379005E+02 -0.83652628289E+01  0.29049487528E+02  0.00000000000E+00 0.  1.
</event>
<event>
12    1  0.8488291E-002  0.1900106E+03  0.7818608E-02  0.1158985E+00
         21   -1    0    0  501  502  0.00000000000E+00  0.00000000000E+00  0.23910622473E+03  0.23910622473E+03  0.00000000000E+00 0.  1.
         21   -1    0    0  502  503 -0.00000000000E+00 -0.00000000000E+00 -0.25407142893E+03  0.25407142893E+03  0.00000000000E+00 0.  1.
         -6    2    1    2    0  503  0.70001420214E+02 -0.22392792813E+02 -0.16598241120E+03  0.25229783133E+03  0.17522100007E+03 0.  0.
        -24    2    3    3    0    0  0.43428270313E+02 -0.65198598995E+02 -0.16710559241E+03  0.20168339787E+03  0.81332908388E+02 0.  0.
          6    2    1    2  501    0 -0.70001420214E+02  0.22392792813E+02  0.15101720700E+03  0.24087982233E+03  0.17267094716E+03 0.  0.
         24    2    5    5    0    0 -0.49837996702E+02 -0.17639572067E+02  0.13404720085E+02  0.96074986633E+02  0.79093211579E+02 0.  0.
          5    1    5    5  501    0 -0.20163423512E+02  0.40032364880E+02  0.13761248691E+03  0.14480483569E+03  0.47000000000E+01 0. -1.
        -13    1    6    6    0    0 -0.55405488915E+01 -0.22541474653E+02  0.38478640583E+02  0.44937974395E+02  0.00000000000E+00 0.  1.
         14    1    6    6    0    0 -0.44297447810E+02  0.49019025862E+01 -0.25073920498E+02  0.51137012238E+02  0.00000000000E+00 0. -1.
         -5    1    3    3    0  503  0.26573149901E+02  0.42805806182E+02  0.11231812147E+01  0.50614433461E+02  0.47000000000E+01 0.  1.
         13    1    4    4    0    0 -0.12052594056E+02 -0.36802843366E+02 -0.23911015512E+02  0.45513195517E+02  0.00000000000E+00 0. -1.
        -14    1    4    4    0    0  0.55480864369E+02 -0.28395755628E+02 -0.14319457690E+03  0.15617020235E+03  0.00000000000E+00 0.  1.
</event>
<event>
12    1  0.8488291E-002  0.1987874E+03  0.7818608E-02  0.1151037E+00
         21   -1    0    0  503  502  0.00000000000E+00  0.00000000000E+00  0.10009488260E+04  0.10009488260E+04  0.00000000000E+00 0. -1.
         21   -1    0    0  501  503 -0.00000000000E+00 -0.00000000000E+00 -0.54744620881E+02  0.54744620881E+02  0.00000000000E+00 0. -1.
          6    2    1    2  501    0 -0.93553617280E+02 -0.33189663097E+02  0.19098483363E+03  0.27474995686E+03  0.17075859884E+03 0.  0.
         24    2    3    3    0    0  0.83468000965E+01 -0.48625670248E+02  0.68865944316E+02  0.11488414280E+03  0.77599762256E+02 0.  0.
         -6    2    1    2    0  502  0.93553617280E+02  0.33189663097E+02  0.75521937146E+03  0.78094348999E+03  0.17222834401E+03 0.  0.
        -24    2    5    5    0    0  0.40109288281E+02  0.82980984075E+02  0.39863497448E+03  0.41692426781E+03  0.80133660107E+02 0.  0.
          5    1    3    3  501    0 -0.10190041738E+03  0.15436007151E+02  0.12211888931E+03  0.15986581406E+03  0.47000000000E+01 0. -1.
        -11    1    4    4    0    0 -0.15715921695E+02  0.61510338688E+01  0.49028976798E+02  0.51852347857E+02  0.00000000000E+00 0.  1.
         12    1    4    4    0    0  0.24062721791E+02 -0.54776704116E+02  0.19836967517E+02  0.63031794946E+02  0.00000000000E+00 0. -1.
         -5    1    5    5    0  502  0.53444328999E+02 -0.49791320978E+02  0.35658439698E+03  0.36401922218E+03  0.47000000000E+01 0.  1.
         13    1    6    6    0    0  0.35376290769E+02 -0.33287259571E+01  0.10667555660E+03  0.11243770160E+03  0.00000000000E+00 0. -1.
        -14    1    6    6    0    0  0.47329975123E+01  0.86309710032E+02  0.29195941788E+03  0.30448656621E+03  0.00000000000E+00 0.  1.
</event>
<event>
12    1  0.8488291E-002  0.3052560E+03  0.7818608E-02  0.1082833E+00
         21   -1    0    0  501  502  0.00000000000E+00  0.00000000000E+00  0.32528950628E+03  0.32528950628E+03  0.00000000000E+00 0.  1.
         21   -1    0    0  502  503 -0.00000000000E+00 -0.00000000000E+00 -0.40147033595E+03  0.40147033595E+03  0.00000000000E+00 0. -1.
         -6    2    1    2    0  503  0.12746690140E+03  0.21746534814E+03 -0.23374782384E+03  0.38323605451E+03  0.16938960928E+03 0.  0.
        -24    2    3    3    0    0  0.96635918326E+02  0.23660450808E+03 -0.20242801412E+03  0.33507094845E+03  0.77299713078E+02 0.  0.
          6    2    1    2  501    0 -0.12746690140E+03 -0.21746534814E+03  0.15756699417E+03  0.34352378773E+03  0.17216923792E+03 0.  0.
         24    2    5    5    0    0 -0.13919841078E+03 -0.19880171453E+03  0.88346049266E+02  0.27072551339E+03  0.81172408599E+02 0.  0.
          5    1    5    5  501    0  0.11731509377E+02 -0.18663633608E+02  0.69220944907E+02  0.72798274331E+02  0.47000000000E+01 0. -1.
        -11    1    6    6    0    0 -0.81010766024E+02 -0.64149386095E+02  0.65304910607E+02  0.12224000694E+03  0.00000000000E+00 0.  1.
         12    1    6    6    0    0 -0.58187644758E+02 -0.13465232843E+03  0.23041138659E+02  0.14848550645E+03  0.00000000000E+00 0. -1.
         -5    1    3    3    0  503  0.30830983078E+02 -0.19139159940E+02 -0.31319809717E+02  0.48165106057E+02  0.47000000000E+01 0.  1.
         13    1    4    4    0    0  0.24592237146E+02  0.98182970413E+02 -0.12508902654E+03  0.16090972117E+03  0.00000000000E+00 0. -1.
        -14    1    4    4    0    0  0.72043681180E+02  0.13842153766E+03 -0.77338987583E+02  0.17416122728E+03  0.00000000000E+00 0.  1.
</event>
<event>
12    1  0.8488291E-002  0.2855299E+03  0.7818608E-02  0.1092745E+00
         21   -1    0    0  501  502  0.00000000000E+00  0.00000000000E+00  0.32888296154E+03  0.32888296154E+03  0.00000000000E+00 0.  1.
         21   -1    0    0  502  503 -0.00000000000E+00 -0.00000000000E+00 -0.25101978394E+03  0.25101978394E+03  0.00000000000E+00 0. -1.
         -6    2    1    2    0  503  0.17631400960E+03 -0.14385158140E+03  0.72610926223E+02  0.29461788375E+03  0.17247447162E+03 0.  0.
        -24    2    3    3    0    0  0.89693711786E+02 -0.34669309860E+02 -0.21908906435E+02  0.12615443614E+03  0.78663959962E+02 0.  0.
          6    2    1    2  501    0 -0.17631400960E+03  0.14385158140E+03  0.52522513769E+01  0.28528486174E+03  0.17198825175E+03 0.  0.
         24    2    5    5    0    0 -0.12764988410E+03  0.13607576015E+03  0.60467699001E+02  0.21112627382E+03  0.78146372035E+02 0.  0.
          5    1    5    5  501    0 -0.48664125501E+02  0.77758212542E+01 -0.55215447624E+02  0.74158587927E+02  0.47000000000E+01 0. -1.
        -13    1    6    6    0    0 -0.52680587963E+02  0.79347711292E+02  0.67673326188E+02  0.11683742000E+03  0.00000000000E+00 0.  1.
         14    1    6    6    0    0 -0.74969296138E+02  0.56728048857E+02 -0.72056271871E+01  0.94288853815E+02  0.00000000000E+00 0. -1.
         -5    1    3    3    0  503  0.86620297816E+02 -0.10918227154E+03  0.94519832658E+02  0.16846344760E+03  0.47000000000E+01 0.  1.
         13    1    4    4    0    0 -0.45018869867E+01  0.14880980786E+02  0.50739839413E+01  0.16354078654E+02  0.00000000000E+00 0. -1.
        -14    1    4    4    0    0  0.94195598772E+02 -0.49550290647E+02 -0.26982890377E+02  0.10980035749E+03  0.00000000000E+00 0.  1.
</event>
<event>
12    1  0.8488291E-002  0.1844283E+03  0.7818608E-02  0.1163758E+00
         21   -1    0    0  503  502  0.00000000000E+00  0.00000000000E+00  0.34245439623E+03  0.34245439623E+03  0.00000000000E+00 0.  1.
         21   -1    0    0  501  503 -0.00000000000E+00 -0.00000000000E+00 -0.44966651530E+03  0.44966651530E+03  0.00000000000E+00 0.  1.
          6    2    1    2  501    0 -0.63070294742E+02  0.88923273177E+01 -0.40337311448E+03  0.44322963492E+03  0.17229539813E+03 0.  0.
         24    2    3    3    0    0 -0.40980091780E+02 -0.38492969710E+02 -0.36723005471E+03  0.37949774172E+03  0.77456737886E+02 0.  0.
         -6    2    1    2    0  502  0.63070294742E+02 -0.88923273177E+01  0.29616099541E+03  0.34889127662E+03  0.17308047878E+03 0.  0.
        -24    2    5    5    0    0 -0.20080943672E+02  0.20909865562E+02  0.20608322210E+03  0.22264392261E+03  0.79117349970E+02 0.  0.
          5    1    3    3  501    0 -0.22090202962E+02  0.47385297027E+02 -0.36143059769E+02  0.63731893199E+02  0.47000000000E+01 0. -1.
        -11    1    4    4    0    0  0.19247284656E+02 -0.21833621922E+02 -0.17391680059E+03  0.17633552830E+03  0.00000000000E+00 0.  1.
         12    1    4    4    0    0 -0.60227376437E+02 -0.16659347788E+02 -0.19331325412E+03  0.20316221341E+03  0.00000000000E+00 0. -1.
         -5    1    5    5    0  502  0.83151238414E+02 -0.29802192880E+02  0.90077773313E+02  0.12624735401E+03  0.47000000000E+01 0.  1.
         11    1    6    6    0    0  0.49966583662E+01 -0.10653839604E+02 -0.87132144568E+00  0.11799580255E+02  0.00000000000E+00 0. -1.
        -12    1    6    6    0    0 -0.25077602038E+02  0.31563705166E+02  0.20695454355E+03  0.21084434235E+03  0.00000000000E+00 0.  1.
</event>
<event>
12    1  0.8488291E-002  0.3005075E+03  0.7818608E-02  0.1085160E+00
         21   -1    0    0  501  502  0.00000000000E+00  0.00000000000E+00  0.29748711323E+03  0.29748711323E+03  0.00000000000E+00 0.  1.
         21   -1    0    0  502  503 -0.00000000000E+00 -0.00000000000E+00 -0.53008136328E+03  0.53008136328E+03  0.00000000000E+00 0. -1.
         -6    2    1    2    0  503 -0.87894457542E+01 -0.24522095689E+03 -0.38747081180E+03  0.48949816810E+03  0.17106798217E+03 0.  0.
        -24    2    3    3    0    0 -0.35191311287E+02 -0.17026541918E+03 -0.35513975412E+03  0.40357507210E+03  0.80745603610E+02 0.  0.
          6    2    1    2  501    0  0.87894457542E+01  0.24522095689E+03  0.15487656176E+03  0.33807030841E+03  0.17347683416E+03 0.  0.
         24    2    5    5    0    0 -0.35926458885E+02  0.18321941169E+03  0.16399717412E+03  0.26094068178E+03  0.79592103986E+02 0.  0.
          5    1    5    5  501    0  0.44715904639E+02  0.62001545194E+02 -0.91206123646E+01  0.77129626630E+02  0.47000000000E+01 0. -1.
        -11    1    6    6    0    0 -0.36206467285E+02  0.29204437403E+02  0.56175280734E+02  0.72934694096E+02  0.00000000000E+00 0.  1.
         12    1    6    6    0    0  0.28000839952E+00  0.15401497429E+03  0.10782189339E+03  0.18800598768E+03  0.00000000000E+00 0. -1.
         -5    1    3    3    0  503  0.26401865533E+02 -0.74955537705E+02 -0.32331057685E+02  0.85923096006E+02  0.47000000000E+01 0.  1.
         13    1    4    4    0    0  0.19596244718E+02 -0.10545015608E+02 -0.31997146350E+02  0.38974703794E+02  0.00000000000E+00 0. -1.
        -14    1    4    4    0    0 -0.54787556005E+02 -0.15972040357E+03 -0.32314260777E+03  0.36460036830E+03  0.00000000000E+00 0.  1.
</event>
<event>
12    1  0.8488291E-002  0.2007023E+03  0.7818608E-02  0.1149498E+00
         21   -1    0    0  503  502  0.00000000000E+00  0.00000000000E+00  0.19575965125E+03  0.19575965125E+03  0.00000000000E+00 0.  1.
         21   -1    0    0  501  503 -0.00000000000E+00 -0.00000000000E+00 -0.21373370986E+03  0.21373370986E+03  0.00000000000E+00 0. -1.
          6    2    1    2  501    0 -0.21279001740E+02  0.10245776669E+03  0.34508806493E+02  0.20364744705E+03  0.17126305817E+03 0.  0.
         24    2    3    3    0    0 -0.71049239296E+02  0.72923544236E+02  0.57746776692E+02  0.14110594002E+03  0.78805827090E+02 0.  0.
         -6    2    1    2    0  502  0.21279001740E+02 -0.10245776669E+03 -0.52482865095E+02  0.20584591406E+03  0.16931538423E+03 0.  0.
        -24    2    5    5    0    0  0.53729200074E+00  0.13168400343E+02 -0.21957378649E+02  0.84381827400E+02  0.80401933235E+02 0.  0.
          5    1    3    3  501    0  0.49770237556E+02  0.29534222452E+02 -0.23237970199E+02  0.62541507027E+02  0.47000000000E+01 0. -1.
        -11    1    4    4    0    0 -0.79057552762E+01 -0.92202239125E+01  0.32171326636E+02  0.34387610458E+02  0.00000000000E+00 0.  1.
         12    1    4    4    0    0 -0.63143484020E+02  0.82143768149E+02  0.25575450056E+02  0.10671832957E+03  0.00000000000E+00 0. -1.
         -5    1    5    5    0  502  0.20741709739E+02 -0.11562616703E+03 -0.30525486446E+02  0.12146408666E+03  0.47000000000E+01 0.  1.
         11    1    6    6    0    0 -0.51988000910E+01 -0.33090610361E+02 -0.16501215989E+01  0.33537127452E+02  0.00000000000E+00 0. -1.
        -12    1    6    6    0    0  0.57360920918E+01  0.46259010704E+02 -0.20307257050E+02  0.50844699947E+02  0.00000000000E+00 0.  1.
</event>
<event>
12    1  0.8488291E-002  0.1900176E+03  0.7818608E-02  0.1158603E+00
         21   -1    0    0  501  502  0.00000000000E+00  0.00000000000E+00  0.10029272702E+04  0.10029272702E+04  0.00000000000E+00 0. -1.
         21   -1    0    0  502  503 -0.00000000000E+00 -0.00000000000E+00 -0.40253777149E+02  0.40253777149E+02  0.00000000000E+00 0. -1.
         -6    2    1    2    0  503  0.66788422342E+02 -0.47487970268E+02  0.30840544562E+03  0.36187834350E+03  0.17066404404E+03 0.  0.
        -24    2    3    3    0    0  0.80817322390E+02 -0.60999442904E+02  0.31506975745E+03  0.34076263888E+03  0.81227165195E+02 0.  0.
          6    2    1    2  501    0 -0.66788422342E+02  0.47487970268E+02  0.65426804745E+03  0.68130270386E+03  0.17143773126E+03 0.  0.
         24    2    5    5    0    0 -0.10137697595E+03  0.18525869701E+02  0.57825646571E+03  0.59278704498E+03  0.79971503992E+02 0.  0.
          5    1    5    5  501    0  0.34588553613E+02  0.28962100567E+02  0.76011581734E+02  0.88515658886E+02  0.47000000000E+01 0. -1.
        -11    1    6    6    0    0  0.31048947695E+01 -0.16512384985E+02  0.13480100987E+03  0.13584407051E+03  0.00000000000E+00 0.  1.
         12    1    6    6    0    0 -0.10448187072E+03  0.35038254686E+02  0.44345545584E+03  0.45694297447E+03  0.00000000000E+00 0. -1.
         -5    1    3    3    0  503 -0.14028900048E+02  0.13511472635E+02 -0.66643118313E+01  0.21115704618E+02  0.47000000000E+01 0.  1.
         13    1    4    4    0    0  0.77488657387E+02 -0.21666170290E+02  0.14164766316E+03  0.16290480483E+03  0.00000000000E+00 0. -1.
        -14    1    4    4    0    0  0.33286650036E+01 -0.39333272613E+02  0.17342209429E+03  0.17785783405E+03  0.00000000000E+00 0.  1.
</event>
<event>
12    1  0.8488291E-002  0.2418143E+03  0.7818608E-02  0.1118775E+00
         21   -1    0    0  501  502  0.00000000000E+00  0.00000000000E+00  0.31144814212E+03  0.31144814212E+03  0.00000000000E+00 0.  1.
         21   -1    0    0  502  503 -0.00000000000E+00 -0.00000000000E+00 -0.21901526979E+03  0.21901526979E+03  0.00000000000E+00 0.  1.
         -6    2    1    2    0  503  0.79187857754E+02  0.14903934524E+03 -0.55471431568E+02  0.24700296116E+03  0.17160984778E+03 0.  0.
        -24    2    3    3    0    0  0.82829906585E+02  0.36970864149E+02  0.26533611435E+01  0.12061787303E+03  0.79460636465E+02 0.  0.
          6    2    1    2  501    0 -0.79187857754E+02 -0.14903934524E+03  0.14790430390E+03  0.28346045075E+03  0.17317823415E+03 0.  0.
         24    2    5    5    0    0  0.23753957530E+02 -0.84596241427E+02  0.61423348476E+02  0.13429283827E+03  0.80876227098E+02 0.  0.
          5    1    5    5  501    0 -0.10294181528E+03 -0.64443103816E+02  0.86480955421E+02  0.14916761248E+03  0.47000000000E+01 0. -1.
        -13    1    6    6    0    0  0.58650442081E+01 -0.43588393763E+02  0.75512485841E+02  0.87386968893E+02  0.00000000000E+00 0.  1.
         14    1    6    6    0    0  0.17888913322E+02 -0.41007847664E+02 -0.14089137366E+02  0.46905869372E+02  0.00000000000E+00 0. -1.
         -5    1    3    3    0  503 -0.36420488302E+01  0.11206848109E+03 -0.58124792711E+02  0.12638508813E+03  0.47000000000E+01 0.  1.
         13    1    4    4    0    0  0.12958985912E+02 -0.17316824150E+02  0.21118925625E+02  0.30229401815E+02  0.00000000000E+00 0. -1.
        -14    1    4    4    0    0  0.69870920672E+02  0.54287688299E+02 -0.18465564482E+02  0.90388471212E+02  0.00000000000E+00 0.  1.
</event>
<event>
12    1  0.8488291E-002  0.2115636E+03  0.7818608E-02  0.1140360E+00
         21   -1    0    0  501  502  0.00000000000E+00  0.00000000000E+00  0.11872677312E+04  0.11872677312E+04  0.00000000000E+00 0.  1.
         21   -1    0    0  502  503 -0.00000000000E+00 -0.00000000000E+00 -0.37770946793E+02  0.37770946793E+02  0.00000000000E+00 0.  1.
         -6    2    1    2    0  503  0.21498342153E+02 -0.12073108402E+03  0.54411406764E+03  0.58379729104E+03  0.17239775245E+03 0.  0.
        -24    2    3    3    0    0  0.81288919718E+02 -0.75977331367E+02  0.36256574558E+03  0.38743106485E+03  0.79173649618E+02 0.  0.
          6    2    1    2  501    0 -0.21498342153E+02  0.12073108402E+03  0.60538271677E+03  0.64124138696E+03  0.17223271822E+03 0.  0.
         24    2    5    5    0    0 -0.23863147351E+01  0.12942010001E+03  0.59704256184E+03  0.61816722879E+03  0.94422694961E+02 0.  0.
          5    1    5    5  501    0 -0.19112027418E+02 -0.86890159841E+01  0.83401549271E+01  0.23074158165E+02  0.47000000000E+01 0. -1.
        -13    1    6    6    0    0 -0.34898514154E+02  0.73551521809E+02  0.20061587912E+03  0.21650511219E+03  0.00000000000E+00 0.  1.
         14    1    6    6    0    0  0.32512199419E+02  0.55868578198E+02  0.39642668272E+03  0.40166211660E+03  0.00000000000E+00 0. -1.
         -5    1    3    3    0  503 -0.59790577565E+02 -0.44753752656E+02  0.18154832206E+03  0.19636622618E+03  0.47000000000E+01 0.  1.
         11    1    4    4    0    0  0.27679253330E+02 -0.61181638785E+02  0.27959408616E+03  0.28754510429E+03  0.00000000000E+00 0. -1.
        -12    1    4    4    0    0  0.53609666388E+02 -0.14795692582E+02  0.82971659423E+02  0.99885960559E+02  0.00000000000E+00 0.  1.
</event>
<event>
12    1  0.8488291E-002  0.2375884E+03  0.7818608E-02  0.1121580E+00
         21   -1    0    0  501  502  0.00000000000E+00  0.00000000000E+00  0.68577880091E+03  0.68577880091E+03  0.00000000000E+00 0. -1.
         21   -1    0    0  502  503 -0.00000000000E+00 -0.00000000000E+00 -0.10427798474E+03  0.10427798474E+03  0.00000000000E+00 0.  1.
         -6    2    1    2    0  503  0.16057748991E+03  0.21390334683E+02  0.10753177296E+03  0.25987293030E+03  0.17241862146E+03 0.  0.
        -24    2    3    3    0    0  0.20022741819E+02  0.28199503872E+02  0.76379720724E+02  0.11566980151E+03  0.79683869353E+02 0.  0.
          6    2    1    2  501    0 -0.16057748991E+03 -0.21390334683E+02  0.47396904322E+03  0.53018385535E+03  0.17379755425E+03 0.  0.
         24    2    5    5    0    0 -0.13546870242E+02  0.26243472466E+02  0.13779823610E+03  0.16015698570E+03  0.76089872234E+02 0.  0.
          5    1    5    5  501    0 -0.14703061966E+03 -0.47633807149E+02  0.33617080712E+03  0.37002686965E+03  0.47000000000E+01 0. -1.
        -13    1    6    6    0    0  0.78634208719E+01 -0.22084197589E+02  0.19159828330E+02  0.30276132392E+02  0.00000000000E+00 0.  1.
         14    1    6    6    0    0 -0.21410291114E+02  0.48327670055E+02  0.11863840777E+03  0.12988085331E+03  0.00000000000E+00 0. -1.
         -5    1    3    3    0  503  0.14055474809E+03 -0.68091691888E+01  0.31152052235E+02  0.14420312879E+03  0.47000000000E+01 0.  1.
         13    1    4    4    0    0  0.45096363225E-01 -0.13109323839E+02  0.67715726986E+02  0.68973009840E+02  0.00000000000E+00 0. -1.
        -14    1    4    4    0    0  0.19977645456E+02  0.41308827711E+02  0.86639937376E+01  0.46696791670E+02  0.00000000000E+00 0.  1.
</event>
<event>
12    1  0.8488291E-002  0.1817982E+03  0.7818608E-02  0.1166189E+00
         21   -1    0    0  501  502  0.00000000000E+00  0.00000000000E+00  0.39208820129E+03  0.39208820129E+03  0.00000000000E+00 0.  1.
         21   -1    0    0  502  503 -0.00000000000E+00 -0.00000000000E+00 -0.16801771861E+03  0.16801771861E+03  0.00000000000E+00 0.  1.
         -6    2    1    2    0  503 -0.37849138005E+02 -0.43582215568E+02 -0.85994081718E+02  0.20067497784E+03  0.17188222095E+03 0.  0.
        -24    2    3    3    0    0 -0.26225708874E+02 -0.94663484927E+02 -0.52338333011E+02  0.13823140647E+03  0.81973516752E+02 0.  0.
          6    2    1    2  501    0  0.37849138005E+02  0.43582215568E+02  0.31006456440E+03  0.35943094206E+03  0.17239083866E+03 0.  0.
         24    2    5    5    0    0  0.77772291292E+02  0.62643860233E+01  0.26660802869E+03  0.28945209479E+03  0.81332050194E+02 0.  0.
          5    1    5    5  501    0 -0.39923153287E+02  0.37317829544E+02  0.43456535707E+02  0.69978847275E+02  0.47000000000E+01 0. -1.
        -11    1    6    6    0    0 -0.12570672600E+02  0.70772165513E+01  0.10407624960E+02  0.17788408052E+02  0.00000000000E+00 0.  1.
         12    1    6    6    0    0  0.90342963891E+02 -0.81283052807E+00  0.25620040373E+03  0.27166368673E+03  0.00000000000E+00 0. -1.
         -5    1    3    3    0  503 -0.11623429130E+02  0.51081269359E+02 -0.33655748707E+02  0.62443571368E+02  0.47000000000E+01 0.  1.
         13    1    4    4    0    0 -0.38447457047E+02 -0.79814389741E+02 -0.69387242664E+02  0.11253058788E+03  0.00000000000E+00 0. -1.
        -14    1    4    4    0    0  0.12221748173E+02 -0.14849095186E+02  0.17048909653E+02  0.25700818598E+02  0.00000000000E+00 0.  1.
</event>
<event>
12    1  0.8488291E-002  0.1855204E+03  0.7818608E-02  0.1162962E+00
         21   -1    0    0  503  502  0.00000000000E+00  0.00000000000E+00  0.11717249031E+04  0.11717249031E+04  0.00000000000E+00 0. -1.
         21   -1    0    0  501  503 -0.00000000000E+00 -0.00000000000E+00 -0.97921412928E+02  0.97921412928E+02  0.00000000000E+00 0.  1.
          6    2    1    2  501    0 -0.66286005468E+02 -0.97169882925E+01  0.54569272694E+01  0.18560064279E+03  0.17300163631E+03 0.  0.
         24    2    3    3    0    0 -0.68485494581E+01 -0.50611736899E+02 -0.36590473841E+02  0.10196293849E+03  0.80306459936E+02 0.  0.
         -6    2    1    2    0  502  0.66286005468E+02  0.97169882925E+01  0.10683465629E+04  0.10840456732E+04  0.17117940537E+03 0.  0.
        -24    2    5    5    0    0  0.17081033391E+01  0.16301040155E+02  0.89690263459E+03  0.90066419724E+03  0.80579269909E+02 0.  0.
          5    1    3    3  501    0 -0.59437456010E+02  0.40894748607E+02  0.42047401110E+02  0.83637704300E+02  0.47000000000E+01 0. -1.
        -11    1    4    4    0    0  0.19483559036E+02 -0.36468246709E+02 -0.53504860534E+02  0.67618874521E+02  0.00000000000E+00 0.  1.
         12    1    4    4    0    0 -0.26332108494E+02 -0.14143490190E+02  0.16914386693E+02  0.34344063966E+02  0.00000000000E+00 0. -1.
         -5    1    5    5    0  502  0.64577902129E+02 -0.65840518628E+01  0.17144392831E+03  0.18338147599E+03  0.47000000000E+01 0.  1.
         13    1    6    6    0    0  0.73098187730E+01 -0.30972435739E+02  0.47970544916E+03  0.48075986020E+03  0.00000000000E+00 0. -1.
        -14    1    6    6    0    0 -0.56017154339E+01  0.47273475894E+02  0.41719718543E+03  0.41990433705E+03  0.00000000000E+00 0.  1.
</event>
<event>
12    1  0.8488291E-002  0.3161977E+03  0.7818608E-02  0.1077514E+00
         21   -1    0    0  501  502  0.00000000000E+00  0.00000000000E+00  0.12920635410E+04  0.12920635410E+04  0.00000000000E+00 0. -1.
         21   -1    0    0  502  503 -0.00000000000E+00 -0.00000000000E+00 -0.21909922718E+03  0.21909922718E+03  0.00000000000E+00 0.  1.
         -6    2    1    2    0  503 -0.26232833923E+03  0.32406231237E+02 -0.71908345452E+02  0.32342778080E+03  0.17195463896E+03 0.  0.
        -24    2    3    3    0    0 -0.25030796499E+03 -0.14973460545E+02 -0.74020852690E+02  0.27427620628E+03  0.82885878411E+02 0.  0.
          6    2    1    2  501    0  0.26232833923E+03 -0.32406231237E+02  0.11448726593E+04  0.11877349874E+04  0.17353579723E+03 0.  0.
         24    2    5    5    0    0  0.21720738524E+03  0.36595188298E-01  0.10668305117E+04  0.10918126007E+04  0.82148431163E+02 0.  0.
          5    1    5    5  501    0  0.45120953988E+02 -0.32442826426E+02  0.78042147563E+02  0.95922386707E+02  0.47000000000E+01 0. -1.
        -13    1    6    6    0    0  0.82118466641E+02  0.57928559221E+01  0.23356436835E+03  0.24764755986E+03  0.00000000000E+00 0.  1.
         14    1    6    6    0    0  0.13508891860E+03 -0.57562607338E+01  0.83326614334E+03  0.84416504079E+03  0.00000000000E+00 0. -1.
         -5    1    3    3    0  503 -0.12020374237E+02  0.47379691783E+02  0.21125072378E+01  0.49151574512E+02  0.47000000000E+01 0.  1.
         11    1    4    4    0    0 -0.29326462275E+02  0.17068638501E+02  0.10504846916E+02  0.35520861737E+02  0.00000000000E+00 0. -1.
        -12    1    4    4    0    0 -0.22098150272E+03 -0.32042099046E+02 -0.84525699606E+02  0.23875534455E+03  0.00000000000E+00 0.  1.
</event>
<event>
12    1  0.8488291E-002  0.1865913E+03  0.7818608E-02  0.1161884E+00
         21   -1    0    0  503  502  0.00000000000E+00  0.00000000000E+00  0.85965074459E+02  0.85965074459E+02  0.00000000000E+00 0.  1.
         21   -1    0    0  501  503 -0.00000000000E+00 -0.00000000000E+00 -0.67023051650E+03  0.67023051650E+03  0.00000000000E+00 0.  1.
          6    2    1    2  501    0  0.20618559799E+02  0.65801238012E+02 -0.53615973128E+02  0.19414170693E+03  0.17338224207E+03 0.  0.
         24    2    3    3    0    0 -0.27353188978E+02  0.89265188367E+02 -0.67282773385E+02  0.13881795908E+03  0.77633648430E+02 0.  0.
         -6    2    1    2    0  502 -0.20618559799E+02 -0.65801238012E+02 -0.53064946892E+03  0.56205388403E+03  0.17193249186E+03 0.  0.
        -24    2    5    5    0    0 -0.72659324730E+02 -0.70882908593E+02 -0.32148033507E+03  0.34639702431E+03  0.79608595088E+02 0.  0.
          5    1    3    3  501    0  0.47971748777E+02 -0.23463950355E+02  0.13666800256E+02  0.55323747850E+02  0.47000000000E+01 0. -1.
        -13    1    4    4    0    0 -0.30191175050E+02  0.26522892291E+02  0.77929269764E+01  0.40935321878E+02  0.00000000000E+00 0.  1.
         14    1    4    4    0    0  0.28379860716E+01  0.62742296076E+02 -0.75075700361E+02  0.97882637206E+02  0.00000000000E+00 0. -1.
         -5    1    5    5    0  502  0.52040764931E+02  0.50816705812E+01 -0.20916913385E+03  0.21565685972E+03  0.47000000000E+01 0.  1.
         13    1    6    6    0    0 -0.57560310177E+02 -0.44886436168E+01 -0.11008009006E+03  0.12430190448E+03  0.00000000000E+00 0. -1.
        -14    1    6    6    0    0 -0.15099014553E+02 -0.66394264976E+02 -0.21140024500E+03  0.22209511982E+03  0.00000000000E+00 0.  1.
</event>
<event>
12    1  0.8488291E-002  0.2353787E+03  0.7818608E-02  0.1123041E+00
         21   -1    0    0  503  502  0.00000000000E+00  0.00000000000E+00  0.55837667961E+03  0.55837667961E+03  0.00000000000E+00 0. -1.
         21   -1    0    0  501  503 -0.00000000000E+00 -0.00000000000E+00 -0.14059339264E+03  0.14059339264E+03  0.00000000000E+00 0. -1.
          6    2    1    2  501    0 -0.14013625076E+03 -0.74846976274E+02  0.18336613751E+02  0.23533146318E+03  0.17263958852E+03 0.  0.
         24    2    3    3    0    0 -0.14136110460E+03 -0.28477515622E+02 -0.30274890927E+02  0.16797572449E+03  0.80655714039E+02 0.  0.
         -6    2    1    2    0  502  0.14013625076E+03  0.74846976274E+02  0.39944667322E+03  0.46363860907E+03  0.17367462809E+03 0.  0.
        -24    2    5    5    0    0  0.15048646857E+03  0.30847689325E+02  0.37289772601E+03  0.41100781145E+03  0.79227203969E+02 0.  0.
          5    1    3    3  501    0  0.12248538330E+01 -0.46369460652E+02  0.48611504678E+02  0.67355738695E+02  0.47000000000E+01 0. -1.
        -13    1    4    4    0    0 -0.89484619638E+02 -0.51035334215E+02  0.16340366704E+01  0.10302801835E+03  0.00000000000E+00 0.  1.
         14    1    4    4    0    0 -0.51876484957E+02  0.22557818593E+02 -0.31908927597E+02  0.64947706131E+02  0.00000000000E+00 0. -1.
         -5    1    5    5    0  502 -0.10350217802E+02  0.43999286949E+02  0.26548947203E+02  0.52630797621E+02  0.47000000000E+01 0.  1.
         13    1    6    6    0    0  0.99510319506E+02 -0.18614835211E+02  0.23545412535E+03  0.25629565139E+03  0.00000000000E+00 0. -1.
        -14    1    6    6    0    0  0.50976149059E+02  0.49462524536E+02  0.13744360067E+03  0.15471216006E+03  0.00000000000E+00 0.  1.
</event>
<event>
12    1  0.8488291E-002  0.2096239E+03  0.7818608E-02  0.1142416E+00
         21   -1    0    0  503  502  0.00000000000E+00  0.00000000000E+00  0.96660703946E+03  0.96660703946E+03  0.00000000000E+00 0.  1.
         21   -1    0    0  501  503 -0.00000000000E+00 -0.00000000000E+00 -0.45006405512E+02  0.45006405512E+02  0.00000000000E+00 0. -1.
          6    2    1    2  501    0  0.56193400933E+02 -0.10317401200E+03  0.48627189241E+03  0.52844339223E+03  0.17026300356E+03 0.  0.
         24    2    3    3    0    0  0.14332424824E+02 -0.56796107617E+02  0.43909062751E+03  0.45001244749E+03  0.79242712494E+02 0.  0.
         -6    2    1    2    0  502 -0.56193400933E+02  0.10317401200E+03  0.43532874154E+03  0.48317005274E+03  0.17360763693E+03 0.  0.
        -24    2    5    5    0    0 -0.51913219237E+02  0.10813387033E+02  0.11302517904E+03  0.14783368222E+03  0.79171932087E+02 0.  0.
          5    1    3    3  501    0  0.41860976109E+02 -0.46377904380E+02  0.47181264898E+02  0.78430944740E+02  0.47000000000E+01 0. -1.
        -13    1    4    4    0    0  0.23821110332E+01  0.17157708099E+02  0.35179243951E+02  0.39212760744E+02  0.00000000000E+00 0.  1.
         14    1    4    4    0    0  0.11950313791E+02 -0.73953815717E+02  0.40391138356E+03  0.41079968674E+03  0.00000000000E+00 0. -1.
         -5    1    5    5    0  502 -0.42801816962E+01  0.92360624964E+02  0.32230356249E+03  0.33533637052E+03  0.47000000000E+01 0.  1.
         11    1    6    6    0    0 -0.48538542540E+02 -0.27468720548E+02  0.77626761755E+02  0.95584699932E+02  0.00000000000E+00 0. -1.
        -12    1    6    6    0    0 -0.33746766962E+01  0.38282107581E+02  0.35398417288E+02  0.52248982288E+02  0.00000000000E+00 0.  1.
</event>
<event>
12    1  0.8488291E-002  0.2360321E+03  0.7818608E-02  0.1122513E+00
         21   -1    0    0  501  502  0.00000000000E+00  0.00000000000E+00  0.19725474762E+03  0.19725474762E+03  0.00000000000E+00 0. -1.
         21   -1    0    0  502  503 -0.00000000000E+00 -0.00000000000E+00 -0.33585114105E+03  0.33585114105E+03  0.00000000000E+00 0. -1.
         -6    2    1    2    0  503 -0.44846378996E+02 -0.15452219920E+03  0.37375864770E+02  0.23869562899E+03  0.17230885142E+03 0.  0.
        -24    2    3    3    0    0 -0.19648990043E+02 -0.91562556549E+01  0.37326607512E+02  0.91087165888E+02  0.80210200934E+02 0.  0.
          6    2    1    2  501    0  0.44846378996E+02  0.15452219920E+03 -0.17597225820E+03  0.29441025968E+03  0.17269295756E+03 0.  0.
         24    2    5    5    0    0 -0.22104423334E+02  0.54698076870E+02 -0.25237924763E+02  0.10156266542E+03  0.78724437231E+02 0.  0.
          5    1    5    5  501    0  0.66950802329E+02  0.99824122333E+02 -0.15073433344E+03  0.19284759425E+03  0.47000000000E+01 0. -1.
        -11    1    6    6    0    0 -0.91592915679E+01  0.64414411139E+02  0.70516946903E+01  0.65443375390E+02  0.00000000000E+00 0.  1.
         12    1    6    6    0    0 -0.12945131766E+02 -0.97163342689E+01 -0.32289619453E+02  0.36119290033E+02  0.00000000000E+00 0. -1.
         -5    1    3    3    0  503 -0.25197388952E+02 -0.14536594355E+03  0.49257258003E-01  0.14760846310E+03  0.47000000000E+01 0.  1.
         13    1    4    4    0    0  0.30776432633E+02 -0.29257734489E+01  0.62892239595E+01  0.31548427756E+02  0.00000000000E+00 0. -1.
        -14    1    4    4    0    0 -0.50425422676E+02 -0.62304822061E+01  0.31037383552E+02  0.59538738132E+02  0.00000000000E+00 0.  1.
</event>
<event>
12    1  0.8488291E-002  0.2693864E+03  0.7818608E-02  0.1102017E+00
         21   -1    0    0  501  502  0.00000000000E+00  0.00000000000E+00  0.29512427289E+04  0.29512427289E+04  0.00000000000E+00 0. -1.
         21   -1    0    0  502  503 -0.00000000000E+00 -0.00000000000E+00 -0.37507742810E+02  0.37507742810E+02  0.00000000000E+00 0.  1.
         -6    2    1    2    0  503  0.68426578983E+02  0.19684768187E+03  0.56691179534E+03  0.62651675527E+03  0.16644234549E+03 0.  0.
        -24    2    3    3    0    0 -0.20801374286E+02  0.60695228147E+02  0.18268924458E+03  0.20920610742E+03  0.79216332938E+02 0.  0.
          6    2    1    2  501    0 -0.68426578983E+02 -0.19684768187E+03  0.23468231908E+04  0.23622337165E+04  0.17069808398E+03 0.  0.
         24    2    5    5    0    0 -0.64580612709E+02 -0.12783404335E+03  0.99249656269E+03  0.10061362350E+04  0.82149243475E+02 0.  0.
          5    1    5    5  501    0 -0.38459662744E+01 -0.69013638513E+02  0.13543266281E+04  0.13560974815E+04  0.47000000000E+01 0. -1.
        -13    1    6    6    0    0 -0.59433556618E+02 -0.41085109754E+02  0.58716436813E+03  0.59159304348E+03  0.00000000000E+00 0.  1.
         14    1    6    6    0    0 -0.51470560914E+01 -0.86748933599E+02  0.40533219456E+03  0.41454319149E+03  0.00000000000E+00 0. -1.
         -5    1    3    3    0  503  0.89227953269E+02  0.13615245372E+03  0.38422255076E+03  0.41731064785E+03  0.47000000000E+01 0.  1.
         11    1    4    4    0    0 -0.19307613909E+02  0.60799840035E+02  0.19068437144E+03  0.20107196228E+03  0.00000000000E+00 0. -1.
        -12    1    4    4    0    0 -0.14937603769E+01 -0.10461188786E+00 -0.79951268581E+01  0.81341451418E+01  0.00000000000E+00 0.  1.
</event>
<event>
12    1  0.8488291E-002  0.1743925E+03  0.7818608E-02  0.1173355E+00
         21   -1    0    0  503  502  0.00000000000E+00  0.00000000000E+00  0.24118333363E+03  0.24118333363E+03  0.00000000000E+00 0.  1.
         21   -1    0    0  501  503 -0.00000000000E+00 -0.00000000000E+00 -0.21809884410E+03  0.21809884410E+03  0.00000000000E+00 0.  1.
          6    2    1    2  501    0 -0.80037893613E+01 -0.31472532769E+02 -0.13763444955E+03  0.22212541530E+03  0.17129470937E+03 0.  0.
         24    2    3    3    0    0 -0.56306631350E+02 -0.51734110220E+02 -0.51388657183E+02  0.12110995725E+03  0.78612802792E+02 0.  0.
         -6    2    1    2    0  502  0.80037893613E+01  0.31472532769E+02  0.16071893908E+03  0.23715676243E+03  0.17134226455E+03 0.  0.
        -24    2    5    5    0    0 -0.51229338101E+02  0.36329996963E+02  0.54843806628E+02  0.11565041683E+03  0.80142760289E+02 0.  0.
          5    1    3    3  501    0  0.48302841988E+02  0.20261577451E+02 -0.86245792371E+02  0.10101545806E+03  0.47000000000E+01 0. -1.
        -11    1    4    4    0    0  0.12532841801E+02 -0.23784418034E+02 -0.36505608911E+02  0.45336851972E+02  0.00000000000E+00 0.  1.
         12    1    4    4    0    0 -0.68839473150E+02 -0.27949692186E+02 -0.14883048272E+02  0.75773105273E+02  0.00000000000E+00 0. -1.
         -5    1    5    5    0  502  0.59233127462E+02 -0.48574641936E+01  0.10587513246E+03  0.12150634560E+03  0.47000000000E+01 0.  1.
         13    1    6    6    0    0 -0.11996572202E+02  0.48208977705E+02  0.32927580093E+01  0.49788206749E+02  0.00000000000E+00 0. -1.
        -14    1    6    6    0    0 -0.39232765899E+02 -0.11878980742E+02  0.51551048619E+02  0.65862210085E+02  0.00000000000E+00 0.  1.
</event>
<event>
12    1  0.8488291E-002  0.1760211E+03  0.7818608E-02  0.1172158E+00
         21   -1    0    0  501  502  0.00000000000E+00  0.00000000000E+00  0.41555504148E+03  0.41555504148E+03  0.00000000000E+00 0.  1.
         21   -1    0    0  502  503 -0.00000000000E+00 -0.00000000000E+00 -0.78414551453E+02  0.78414551453E+02  0.00000000000E+00 0.  1.
         -6    2    1    2    0  503 -0.56240311418E+01  0.31231695898E+02  0.10948917883E+03  0.20729518843E+03  0.17313684273E+03 0.  0.
        -24    2    3    3    0    0  0.64065629476E+01  0.84292258494E+02  0.99206218763E+02  0.15172552256E+03  0.77669372755E+02 0.  0.
          6    2    1    2  501    0  0.56240311418E+01 -0.31231695898E+02  0.22765131120E+03  0.28667440451E+03  0.17131855169E+03 0.  0.
         24    2    5    5    0    0  0.55674194290E+02 -0.21775088810E+02  0.72644355002E+02  0.12344544654E+03  0.79923748382E+02 0.  0.
          5    1    5    5  501    0 -0.50050163148E+02 -0.94566070874E+01  0.15500695620E+03  0.16322895797E+03  0.47000000000E+01 0. -1.
        -11    1    6    6    0    0 -0.69731419670E+01  0.10670610027E+02  0.46484938136E+02  0.48200996885E+02  0.00000000000E+00 0.  1.
         12    1    6    6    0    0  0.62647336257E+02 -0.32445698838E+02  0.26159416867E+02  0.75244449655E+02  0.00000000000E+00 0. -1.
         -5    1    3    3    0  503 -0.12030594089E+02 -0.53060562596E+02  0.10282960068E+02  0.55569665870E+02  0.47000000000E+01 0.  1.
         11    1    4    4    0    0  0.23274661055E+02 -0.41634324132E+01  0.29751721415E+02  0.38002749162E+02  0.00000000000E+00 0. -1.
        -12    1    4    4    0    0 -0.16868098107E+02  0.88455690907E+02  0.69454497347E+02  0.11372277340E+03  0.00000000000E+00 0.  1.
</event>
<event>
12    1  0.8488291E-002  0.1827890E+03  0.7818608E-02  0.1165967E+00
         21   -1    0    0  503  502  0.00000000000E+00  0.00000000000E+00  0.15989325606E+03  0.15989325606E+03  0.00000000000E+00 0.  1.
         21   -1    0    0  501  503 -0.00000000000E+00 -0.00000000000E+00 -0.34360583688E+03  0.34360583688E+03  0.00000000000E+00 0. -1.
          6    2    1    2  501    0 -0.30619713756E+02 -0.50160379159E+02 -0.25227621988E+03  0.31153666242E+03  0.17308428700E+03 0.  0.
         24    2    3    3    0    0 -0.81853091043E+02 -0.59935261866E+02 -0.17245008994E+03  0.21606568096E+03  0.81567032787E+02 0.  0.
         -6    2    1    2    0  502  0.30619713756E+02  0.50160379159E+02  0.68563639065E+02  0.19196243052E+03  0.16939590202E+03 0.  0.
        -24    2    5    5    0    0 -0.44990719630E+02  0.47521618896E+02  0.24925206296E+02  0.10449641708E+03  0.77561370271E+02 0.  0.
          5    1    3    3  501    0  0.51233377287E+02  0.97748827078E+01 -0.79826129940E+02  0.95470981462E+02  0.47000000000E+01 0. -1.
        -11    1    4    4    0    0 -0.29057121597E+02  0.97353095735E+01 -0.11165994470E+02  0.32615517787E+02  0.00000000000E+00 0.  1.
         12    1    4    4    0    0 -0.52795969446E+02 -0.69670571440E+02 -0.16128409548E+03  0.18345016317E+03  0.00000000000E+00 0. -1.
         -5    1    5    5    0  502  0.75610433386E+02  0.26387602627E+01  0.43638432768E+02  0.87466013440E+02  0.47000000000E+01 0.  1.
         13    1    6    6    0    0 -0.26529267189E+02 -0.17012016188E+02 -0.32867802075E+01  0.31686174217E+02  0.00000000000E+00 0. -1.
        -14    1    6    6    0    0 -0.18461452441E+02  0.64533635084E+02  0.28211986504E+02  0.72810242864E+02  0.00000000000E+00 0.  1.
</event>
<event>
12    1  0.8488291E-002  0.2015617E+03  0.7818608E-02  0.1148478E+00
         21   -1    0    0  503  502  0.00000000000E+00  0.00000000000E+00  0.16763128506E+03  0.16763128506E+03  0.00000000000E+00 0. -1.
         21   -1    0    0  501  503 -0.00000000000E+00 -0.00000000000E+00 -0.25397482533E+03  0.25397482533E+03  0.00000000000E+00 0. -1.
          6    2    1    2  501    0 -0.79430787264E+02 -0.67848040199E+02 -0.88832364339E+02  0.22026868491E+03  0.17237893744E+03 0.  0.
         24    2    3    3    0    0 -0.10917621230E+03 -0.51743644014E+02 -0.10869633123E+03  0.18076160873E+03  0.79139223767E+02 0.  0.
         -6    2    1    2    0  502  0.79430787264E+02  0.67848040199E+02  0.24888240622E+01  0.20133742549E+03  0.17209868719E+03 0.  0.
        -24    2    5    5    0    0  0.81890641838E+02 -0.10545300291E+02  0.26011547540E+02  0.11931928580E+03  0.82117055351E+02 0.  0.
          5    1    3    3  501    0  0.29745425040E+02 -0.16104396185E+02  0.19863966894E+02  0.39507076177E+02  0.47000000000E+01 0. -1.
        -11    1    4    4    0    0 -0.62618651465E+02  0.90855938466E+01 -0.27071605886E+02  0.68822346459E+02  0.00000000000E+00 0.  1.
         12    1    4    4    0    0 -0.46557560839E+02 -0.60829237860E+02 -0.81624725347E+02  0.11193926227E+03  0.00000000000E+00 0. -1.
         -5    1    5    5    0  502 -0.24598545743E+01  0.78393340490E+02 -0.23522723478E+02  0.82018139686E+02  0.47000000000E+01 0.  1.
         13    1    6    6    0    0  0.51062128148E+02  0.34114772668E+02  0.69499821185E+01  0.61801787164E+02  0.00000000000E+00 0. -1.
        -14    1    6    6    0    0  0.30828513690E+02 -0.44660072959E+02  0.19061565422E+02  0.57517498636E+02  0.00000000000E+00 0.  1.
</event>
<event>
12    1  0.8488291E-002  0.2612269E+03  0.7818608E-02  0.1106432E+00
         21   -1    0    0  501  502  0.00000000000E+00  0.00000000000E+00  0.12480228597E+03  0.12480228597E+03  0.00000000000E+00 0. -1.
         21   -1    0    0  502  503 -0.00000000000E+00 -0.00000000000E+00 -0.81686797988E+03  0.81686797988E+03  0.00000000000E+00 0.  1.
         -6    2    1    2    0  503  0.10995807594E+03  0.16279926555E+03 -0.61700310318E+03  0.67002412690E+03  0.17217758846E+03 0.  0.
        -24    2    3    3    0    0  0.54918442346E+02  0.29016250919E+02 -0.16587311686E+03  0.19624399770E+03  0.84497559780E+02 0.  0.
          6    2    1    2  501    0 -0.10995807594E+03 -0.16279926555E+03 -0.75062590733E+02  0.27164613894E+03  0.17193851502E+03 0.  0.
         24    2    5    5    0    0 -0.11340503001E+03 -0.10850730214E+03 -0.10952652899E+03  0.20707562072E+03  0.79055149699E+02 0.  0.
          5    1    5    5  501    0  0.34469540728E+01 -0.54291963413E+02  0.34463938255E+02  0.64570518224E+02  0.47000000000E+01 0. -1.
        -13    1    6    6    0    0 -0.17007985799E+02 -0.34526914891E+02 -0.68952603806E+02  0.78967341379E+02  0.00000000000E+00 0.  1.
         14    1    6    6    0    0 -0.96397044213E+02 -0.73980387249E+02 -0.40573925182E+02  0.12810827934E+03  0.00000000000E+00 0. -1.
         -5    1    3    3    0  503  0.55039633593E+02  0.13378301463E+03 -0.45112998632E+03  0.47378012920E+03  0.47000000000E+01 0.  1.
         11    1    4    4    0    0  0.26374606765E+02 -0.19451912986E+00 -0.15020053860E+03  0.15249871972E+03  0.00000000000E+00 0. -1.
        -12    1    4    4    0    0  0.28543835581E+02  0.29210770049E+02 -0.15672578264E+02  0.43745277984E+02  0.00000000000E+00 0.  1.
</event>
<event>
12    1  0.8488291E-002  0.2072685E+03  0.7818608E-02  0.1144210E+00
         21   -1    0    0  503  502  0.00000000000E+00  0.00000000000E+00  0.29774008027E+03  0.29774008027E+03  0.00000000000E+00 0. -1.
         21   -1    0    0  501  503 -0.00000000000E+00 -0.00000000000E+00 -0.15835507804E+03  0.15835507804E+03  0.00000000000E+00 0.  1.
          6    2    1    2  501    0  0.36038966128E+02  0.10422837002E+03 -0.16585115195E+01  0.20727516314E+03  0.17549325456E+03 0.  0.
         24    2    3    3    0    0  0.82906083357E+01  0.67635579060E+02 -0.68303742073E+02  0.12620309355E+03  0.81354249430E+02 0.  0.
         -6    2    1    2    0  502 -0.36038966128E+02 -0.10422837002E+03  0.14104351374E+03  0.24881999517E+03  0.17278818546E+03 0.  0.
        -24    2    5    5    0    0 -0.22761628999E+02 -0.24976403146E+01  0.11708605288E+03  0.14336157219E+03  0.79492557132E+02 0.  0.
          5    1    3    3  501    0  0.27748357792E+02  0.36592790964E+02  0.66645230553E+02  0.81072069581E+02  0.47000000000E+01 0. -1.
        -13    1    4    4    0    0 -0.12566696005E+02  0.79404369056E+02 -0.42264318301E+02  0.90825372420E+02  0.00000000000E+00 0.  1.
         14    1    4    4    0    0  0.20857304341E+02 -0.11768789997E+02 -0.26039423771E+02  0.35377721135E+02  0.00000000000E+00 0. -1.
         -5    1    5    5    0  502 -0.13277337129E+02 -0.10173072971E+03  0.23957460865E+02  0.10545842299E+03  0.47000000000E+01 0.  1.
         13    1    6    6    0    0  0.84792592816E+01  0.15254955997E+02  0.10347646225E+03  0.10493802819E+03  0.00000000000E+00 0. -1.
        -14    1    6    6    0    0 -0.31240888280E+02 -0.17752596311E+02  0.13609590629E+02  0.38423543999E+02  0.00000000000E+00 0.  1.
</event>
<event>
12    1  0.8488291E-002  0.1989703E+03  0.7818608E-02  0.1155310E+00
         21   -1    0    0  503  502  0.00000000000E+00  0.00000000000E+00  0.33921285035E+03  0.33921285035E+03  0.00000000000E+00 0.  1.
         21   -1    0    0  501  503 -0.00000000000E+00 -0.00000000000E+00 -0.14107109214E+03  0.14107109214E+03  0.00000000000E+00 0.  1.
          6    2    1    2  501    0 -0.83569331729E+02 -0.63557441084E+01 -0.26642110349E+02  0.18008906682E+03  0.15715610473E+03 0.  0.
         24    2    3    3    0    0 -0.10593965939E+03 -0.30323927156E+02  0.12641930588E+02  0.12870588639E+03  0.65288856576E+02 0.  0.
         -6    2    1    2    0  502  0.83569331729E+02  0.63557441084E+01  0.22478386856E+03  0.30019487568E+03  0.18045760479E+03 0.  0.
        -24    2    5    5    0    0  0.67147080581E+01  0.68314725933E+01  0.21789585831E+02  0.83087463734E+02  0.79605177326E+02 0.  0.
          5    1    3    3  501    0  0.22370327661E+02  0.23968183048E+02 -0.39284040937E+02  0.51383180425E+02  0.47000000000E+01 0. -1.
        -11    1    4    4    0    0 -0.85192066324E+02  0.63705540317E+01  0.31031694612E+01  0.85486266639E+02  0.00000000000E+00 0.  1.
         12    1    4    4    0    0 -0.20747593066E+02 -0.36694481188E+02  0.95387611266E+01  0.43219619752E+02  0.00000000000E+00 0. -1.
         -5    1    5    5    0  502  0.76854623671E+02 -0.47572848490E+00  0.20299428273E+03  0.21710741194E+03  0.47000000000E+01 0.  1.
         11    1    6    6    0    0 -0.32919338499E+02  0.15840709322E+02 -0.88966398802E+00  0.36543158334E+02  0.00000000000E+00 0. -1.
        -12    1    6    6    0    0  0.39634046557E+02 -0.90092367283E+01  0.22679249819E+02  0.46544305401E+02  0.00000000000E+00 0.  1.
</event>
<event>
12    1  0.8488291E-002  0.1791161E+03  0.7818608E-02  0.1169089E+00
         21   -1    0    0  503  502  0.00000000000E+00  0.00000000000E+00  0.87923028848E+02  0.87923028848E+02  0.00000000000E+00 0. -1.
         21   -1    0    0  501  503 -0.00000000000E+00 -0.00000000000E+00 -0.36547214683E+03  0.36547214683E+03  0.00000000000E+00 0. -1.
          6    2    1    2  501    0  0.30544079398E+02 -0.38624361005E+02 -0.16354952324E+03  0.24255105616E+03  0.17221436132E+03 0.  0.
         24    2    3    3    0    0 -0.22673091694E+02 -0.28663203621E+02 -0.20249545893E+02  0.89292237618E+02  0.78913948458E+02 0.  0.
         -6    2    1    2    0  502 -0.30544079398E+02  0.38624361005E+02 -0.11399959474E+03  0.21084411951E+03  0.17039528480E+03 0.  0.
        -24    2    5    5    0    0  0.65151375324E+01  0.57245782644E+02 -0.13331880053E+03  0.16484993928E+03  0.77987648109E+02 0.  0.
          5    1    3    3  501    0  0.53217171091E+02 -0.99611573838E+01 -0.14329997734E+03  0.15325881854E+03  0.47000000000E+01 0. -1.
        -11    1    4    4    0    0  0.13234711103E+02  0.17828758329E+02  0.86434897462E+01  0.23827129842E+02  0.00000000000E+00 0.  1.
         12    1    4    4    0    0 -0.35907802797E+02 -0.46491961950E+02 -0.28893035639E+02  0.65465107776E+02  0.00000000000E+00 0. -1.
         -5    1    5    5    0  502 -0.37059216930E+02 -0.18621421639E+02  0.19319205786E+02  0.45994180235E+02  0.47000000000E+01 0.  1.
         11    1    6    6    0    0  0.22217824477E+02  0.68249697113E+02 -0.76575747047E+02  0.10495474223E+03  0.00000000000E+00 0. -1.
        -12    1    6    6    0    0 -0.15702686945E+02 -0.11003914470E+02 -0.56743053482E+02  0.59895197048E+02  0.00000000000E+00 0.  1.
</event>
<event>
12    1  0.8488291E-002  0.4603223E+03  0.7818608E-02  0.1024725E+00
         21   -1    0    0  501  502  0.00000000000E+00  0.00000000000E+00  0.55744277329E+03  0.55744277329E+03  0.00000000000E+00 0.  1.
         21   -1    0    0  502  503 -0.00000000000E+00 -0.00000000000E+00 -0.41809154083E+03  0.41809154083E+03  0.00000000000E+00 0. -1.
         -6    2    1    2    0  503 -0.23540283952E+03  0.35558681979E+03 -0.78094801041E+02  0.46689975149E+03  0.17332079140E+03 0.  0.
        -24    2    3    3    0    0 -0.22826244322E+03  0.34251010756E+03 -0.10800528607E+03  0.43315493298E+03  0.80877298312E+02 0.  0.
          6    2    1    2  501    0  0.23540283952E+03 -0.35558681979E+03  0.21744603351E+03  0.50863456263E+03  0.17195888330E+03 0.  0.
         24    2    5    5    0    0  0.18148303831E+03 -0.15265156331E+03  0.11663680093E+03  0.27566534865E+03  0.78413316097E+02 0.  0.
          5    1    5    5  501    0  0.53919801208E+02 -0.20293525648E+03  0.10080923258E+03  0.23296921397E+03  0.47000000000E+01 0. -1.
        -13    1    6    6    0    0  0.26146115710E+02 -0.45480899765E+02  0.57639665045E+02  0.77938838820E+02  0.00000000000E+00 0.  1.
         14    1    6    6    0    0  0.15533692260E+03 -0.10717066354E+03  0.58997135883E+02  0.19772650983E+03  0.00000000000E+00 0. -1.
         -5    1    3    3    0  503 -0.71403963036E+01  0.13076712235E+02  0.29910485026E+02  0.33744818517E+02  0.47000000000E+01 0.  1.
         13    1    4    4    0    0 -0.21195949634E+03  0.27094913503E+03 -0.72238062282E+02  0.35150903190E+03  0.00000000000E+00 0. -1.
        -14    1    4    4    0    0 -0.16302946874E+02  0.71560972530E+02 -0.35767223784E+02  0.81645901082E+02  0.00000000000E+00 0.  1.
</event>
<event>
12    1  0.8488291E-002  0.1811264E+03  0.7818608E-02  0.1166980E+00
         21   -1    0    0  503  502  0.00000000000E+00  0.00000000000E+00  0.31926392587E+03  0.31926392587E+03  0.00000000000E+00 0.  1.
         21   -1    0    0  501  503 -0.00000000000E+00 -0.00000000000E+00 -0.14980036547E+03  0.14980036547E+03  0.00000000000E+00 0.  1.
          6    2    1    2  501    0  0.38494411703E+02  0.35447231157E+02 -0.47383218742E+02  0.18722160013E+03  0.17340251500E+03 0.  0.
         24    2    3    3    0    0 -0.22262666460E+02  0.68562428142E+02 -0.11878176455E+02  0.10930666673E+03  0.81304510612E+02 0.  0.
         -6    2    1    2    0  502 -0.38494411703E+02 -0.35447231157E+02  0.21684677914E+03  0.28184269121E+03  0.17226273839E+03 0.  0.
        -24    2    5    5    0    0 -0.45717197627E+02 -0.15728992595E+02  0.39451666599E+02  0.10314715819E+03  0.82130620836E+02 0.  0.
          5    1    3    3  501    0  0.60757078163E+02 -0.33115196985E+02 -0.35505042287E+02  0.77914933396E+02  0.47000000000E+01 0. -1.
        -11    1    4    4    0    0  0.83251813424E+01  0.69980686108E+02 -0.26604754171E+02  0.75328733011E+02  0.00000000000E+00 0.  1.
         12    1    4    4    0    0 -0.30587847802E+02 -0.14182579665E+01  0.14726577716E+02  0.33977933722E+02  0.00000000000E+00 0. -1.
         -5    1    5    5    0  502  0.72227859242E+01 -0.19718238562E+02  0.17739511254E+03  0.17869553302E+03  0.47000000000E+01 0.  1.
         13    1    6    6    0    0 -0.39324601775E+01 -0.44424330914E+02  0.17490402073E+02  0.47905110217E+02  0.00000000000E+00 0. -1.
        -14    1    6    6    0    0 -0.41784737450E+02  0.28695338319E+02  0.21961264525E+02  0.55242047976E+02  0.00000000000E+00 0.  1.
</event>
<event>
12    1  0.8488291E-002  0.1746028E+03  0.7818608E-02  0.1173216E+00
         21   -1    0    0  501  502  0.00000000000E+00  0.00000000000E+00  0.40897778198E+02  0.40897778198E+02  0.00000000000E+00 0. -1.
         21   -1    0    0  502  503 -0.00000000000E+00 -0.00000000000E+00 -0.81563869228E+03  0.81563869228E+03  0.00000000000E+00 0. -1.
         -6    2    1    2    0  503 -0.11292497415E+02 -0.30344052162E+02 -0.51396562517E+03  0.54270550955E+03  0.17123178513E+03 0.  0.
        -24    2    3    3    0    0 -0.14988367241E+02 -0.26187776746E+02 -0.11565696857E+03  0.14433029696E+03  0.80896535395E+02 0.  0.
          6    2    1    2  501    0  0.11292497415E+02  0.30344052162E+02 -0.26077528891E+03  0.31383096093E+03  0.17157458650E+03 0.  0.
         24    2    5    5    0    0 -0.26976120433E+02  0.73277876392E+02 -0.12765199706E+03  0.16873891701E+03  0.77977121765E+02 0.  0.
          5    1    5    5  501    0  0.38268617848E+02 -0.42933824229E+02 -0.13312329185E+03  0.14509204392E+03  0.47000000000E+01 0. -1.
        -11    1    6    6    0    0 -0.24233978982E+02 -0.72451771641E+01 -0.12539815253E+02  0.28231636439E+02  0.00000000000E+00 0.  1.
         12    1    6    6    0    0 -0.27421414516E+01  0.80523053556E+02 -0.11511218181E+03  0.14050728057E+03  0.00000000000E+00 0. -1.
         -5    1    3    3    0  503  0.36958698263E+01 -0.41562754168E+01 -0.39830865661E+03  0.39837521259E+03  0.47000000000E+01 0.  1.
         11    1    4    4    0    0 -0.93244359783E+01  0.29132674950E+02 -0.45063394223E+02  0.54464367755E+02  0.00000000000E+00 0. -1.
        -12    1    4    4    0    0 -0.56639312631E+01 -0.55320451696E+02 -0.70593574343E+02  0.89865929204E+02  0.00000000000E+00 0.  1.
</event>
<event>
12    1  0.8488291E-002  0.1904132E+03  0.7818608E-02  0.1158176E+00
         21   -1    0    0  501  502  0.00000000000E+00  0.00000000000E+00  0.78381240550E+03  0.78381240550E+03  0.00000000000E+00 0.  1.
         21   -1    0    0  502  503 -0.00000000000E+00 -0.00000000000E+00 -0.54156206230E+02  0.54156206230E+02  0.00000000000E+00 0.  1.
         -6    2    1    2    0  503 -0.74208683834E+02 -0.36119773649E+02  0.20418642437E+03  0.27919396344E+03  0.17159722177E+03 0.  0.
        -24    2    3    3    0    0 -0.29763301266E+02 -0.10787328535E+02  0.21099126385E+03  0.22737195415E+03  0.78603254091E+02 0.  0.
          6    2    1    2  501    0  0.74208683834E+02  0.36119773649E+02  0.52546977489E+03  0.55877464828E+03  0.17116967147E+03 0.  0.
         24    2    5    5    0    0 -0.25510226188E+02  0.20308269804E+02  0.19045461875E+03  0.20884449880E+03  0.79245601860E+02 0.  0.
          5    1    5    5  501    0  0.99718910022E+02  0.15811503845E+02  0.33501515615E+03  0.34993014948E+03  0.47000000000E+01 0. -1.
        -11    1    6    6    0    0 -0.46694923298E+02  0.88510564662E+01  0.61834422650E+02  0.77988799752E+02  0.00000000000E+00 0.  1.
         12    1    6    6    0    0  0.21184697110E+02  0.11457213338E+02  0.12862019610E+03  0.13085569905E+03  0.00000000000E+00 0. -1.
         -5    1    3    3    0  503 -0.44445382568E+02 -0.25332445114E+02 -0.68048394757E+01  0.51822009295E+02  0.47000000000E+01 0.  1.
         11    1    4    4    0    0 -0.54242717819E+02 -0.35878527711E+01  0.10365939971E+03  0.11704877732E+03  0.00000000000E+00 0. -1.
        -12    1    4    4    0    0  0.24479416553E+02 -0.71994757635E+01  0.10733186414E+03  0.11032317683E+03  0.00000000000E+00 0.  1.
</event>
<event>
12    1  0.8488291E-002  0.1982260E+03  0.7818608E-02  0.1152487E+00
         21   -1    0    0  503  502  0.00000000000E+00  0.00000000000E+00  0.69447434147E+03  0.69447434147E+03  0.00000000000E+00 0.  1.
         21   -1    0    0  501  503 -0.00000000000E+00 -0.00000000000E+00 -0.68330564998E+02  0.68330564998E+02  0.00000000000E+00 0.  1.
          6    2    1    2  501    0  0.36964264126E+02 -0.76297140681E+02  0.14064899359E+03  0.23840167933E+03  0.17281669714E+03 0.  0.
         24    2    3    3    0    0  0.24116988092E+02 -0.73437888314E+02  0.17180758801E+03  0.20425236262E+03  0.78907716884E+02 0.  0.
         -6    2    1    2    0  502 -0.36964264126E+02  0.76297140681E+02  0.48549478287E+03  0.52440322713E+03  0.17918133254E+03 0.  0.
        -24    2    5    5    0    0  0.26921697792E+02 -0.96010333956E+01  0.14662927334E+03  0.16899946240E+03  0.79017193284E+02 0.  0.
          5    1    3    3  501    0  0.12847276034E+02 -0.28592523671E+01 -0.31158594418E+02  0.34149316709E+02  0.47000000000E+01 0. -1.
        -13    1    4    4    0    0 -0.75186230315E+01  0.12745728767E+02  0.89320844510E+01  0.17284832274E+02  0.00000000000E+00 0.  1.
         14    1    4    4    0    0  0.31635611123E+02 -0.86183617081E+02  0.16287550356E+03  0.18696753035E+03  0.00000000000E+00 0. -1.
         -5    1    5    5    0  502 -0.63885961919E+02  0.85898174076E+02  0.33886550953E+03  0.35540376474E+03  0.47000000000E+01 0.  1.
         11    1    6    6    0    0  0.37109899634E+02  0.10543859431E+01  0.14944792317E+03  0.15399005851E+03  0.00000000000E+00 0. -1.
        -12    1    6    6    0    0 -0.10188201842E+02 -0.10655419339E+02 -0.28186498279E+01  0.15009403882E+02  0.00000000000E+00 0.  1.
</event>
<event>
12    1  0.8488291E-002  0.1853704E+03  0.7818608E-02  0.1163307E+00
         21   -1    0    0  503  502  0.00000000000E+00  0.00000000000E+00  0.56776260317E+03  0.56776260317E+03  0.00000000000E+00 0.  1.
         21   -1    0    0  501  503 -0.00000000000E+00 -0.00000000000E+00 -0.28263611088E+03  0.28263611088E+03  0.00000000000E+00 0.  1.
          6    2    1    2  501    0  0.58391638442E+02 -0.34685929858E+02 -0.23486881904E+03  0.29920818295E+03  0.17248036821E+03 0.  0.
         24    2    3    3    0    0  0.18276770304E+02  0.10823121579E+02 -0.22291558234E+03  0.23719813315E+03  0.78233095481E+02 0.  0.
         -6    2    1    2    0  502 -0.58391638442E+02  0.34685929858E+02  0.51999531134E+03  0.55119053110E+03  0.16971499813E+03 0.  0.
        -24    2    5    5    0    0 -0.27189948687E+02  0.17162206839E+02  0.70746768664E+02  0.10049443681E+03  0.63719635123E+02 0.  0.
          5    1    3    3  501    0  0.40114868138E+02 -0.45509051437E+02 -0.11953236705E+02  0.62010049799E+02  0.47000000000E+01 0. -1.
        -11    1    4    4    0    0 -0.17712908251E+02  0.32779704618E+01 -0.17907025312E+03  0.17997401969E+03  0.00000000000E+00 0.  1.
         12    1    4    4    0    0  0.35989678556E+02  0.75451511176E+01 -0.43845329218E+02  0.57224113468E+02  0.00000000000E+00 0. -1.
         -5    1    5    5    0  502 -0.31201689755E+02  0.17523723019E+02  0.44924854268E+03  0.45069609429E+03  0.47000000000E+01 0.  1.
         13    1    6    6    0    0 -0.46096688759E+02  0.22782918747E+02  0.54630570662E+02  0.75023098790E+02  0.00000000000E+00 0. -1.
        -14    1    6    6    0    0  0.18906740072E+02 -0.56207119082E+01  0.16116198002E+02  0.25471338020E+02  0.00000000000E+00 0.  1.
</event>
<event>
12    1  0.8488291E-002  0.1939797E+03  0.7818608E-02  0.1155790E+00
         21   -1    0    0  503  502  0.00000000000E+00  0.00000000000E+00  0.51835235320E+03  0.51835235320E+03  0.00000000000E+00 0. -1.
         21   -1    0    0  501  503 -0.00000000000E+00 -0.00000000000E+00 -0.71402688601E+02  0.71402688601E+02  0.00000000000E+00 0. -1.
          6    2    1    2  501    0  0.74527157477E+02 -0.46128115446E+02  0.23934139171E+03  0.30562600942E+03  0.16864416864E+03 0.  0.
         24    2    3    3    0    0  0.10542640530E+03 -0.30026120117E+02  0.12160969332E+03  0.18275664557E+03  0.81208245684E+02 0.  0.
         -6    2    1    2    0  502 -0.74527157477E+02  0.46128115446E+02  0.20760827289E+03  0.28412903238E+03  0.17304916016E+03 0.  0.
        -24    2    5    5    0    0 -0.52663337708E+02  0.87541578980E+02  0.88675163794E+02  0.15622173776E+03  0.78134444939E+02 0.  0.
          5    1    3    3  501    0 -0.30899247818E+02 -0.16101995329E+02  0.11773169838E+03  0.12286936385E+03  0.47000000000E+01 0. -1.
        -13    1    4    4    0    0 -0.53139512714E+01 -0.30463281258E+01  0.45019830424E+02  0.45434604924E+02  0.00000000000E+00 0.  1.
         14    1    4    4    0    0  0.11074035657E+03 -0.26979791991E+02  0.76589862900E+02  0.13732204065E+03  0.00000000000E+00 0. -1.
         -5    1    5    5    0  502 -0.21863819769E+02 -0.41413463534E+02  0.11893310910E+03  0.12790729462E+03  0.47000000000E+01 0.  1.
         11    1    6    6    0    0 -0.38829496760E+02  0.10606173629E+02  0.61425218495E+02  0.73438942019E+02  0.00000000000E+00 0. -1.
        -12    1    6    6    0    0 -0.13833840948E+02  0.76935405351E+02  0.27249945298E+02  0.82782795741E+02  0.00000000000E+00 0.  1.
</event>
<event>
12    1  0.8488291E-002  0.1891074E+03  0.7818608E-02  0.1160076E+00
         21   -1    0    0  501  502  0.00000000000E+00  0.00000000000E+00  0.35476292032E+02  0.35476292032E+02  0.00000000000E+00 0. -1.
         21   -1    0    0  502  503 -0.00000000000E+00 -0.00000000000E+00 -0.19871396550E+04  0.19871396550E+04  0.00000000000E+00 0. -1.
         -6    2    1    2    0  503  0.86500465442E+01 -0.59784530014E+02 -0.16969981520E+04  0.17075023719E+04  0.17919991250E+03 0.  0.
        -24    2    3    3    0    0  0.25631889774E+02 -0.90016417458E+02 -0.15907602942E+04  0.15956501369E+04  0.82589931722E+02 0.  0.
          6    2    1    2  501    0 -0.86500465442E+01  0.59784530014E+02 -0.25466521095E+03  0.31511357517E+03  0.17547986281E+03 0.  0.
         24    2    5    5    0    0 -0.43122333027E+02  0.15928594537E+02 -0.53443468853E+02  0.10625007643E+03  0.79496029137E+02 0.  0.
          5    1    5    5  501    0  0.34472286483E+02  0.43855935477E+02 -0.20122174210E+03  0.20886349874E+03  0.47000000000E+01 0. -1.
        -13    1    6    6    0    0 -0.32324989164E+02  0.39457158982E+01 -0.73571521454E+02  0.80456462559E+02  0.00000000000E+00 0.  1.
         14    1    6    6    0    0 -0.10797343863E+02  0.11982878639E+02  0.20128052602E+02  0.25793613870E+02  0.00000000000E+00 0. -1.
         -5    1    3    3    0  503 -0.16981843230E+02  0.30231887444E+02 -0.10623785786E+03  0.11185223493E+03  0.47000000000E+01 0.  1.
         11    1    4    4    0    0  0.24497640618E+02 -0.95726647793E+02 -0.10018474138E+04  0.10067084812E+04  0.00000000000E+00 0. -1.
        -12    1    4    4    0    0  0.11342491558E+01  0.57102303350E+01 -0.58891288033E+03  0.58894165574E+03  0.00000000000E+00 0.  1.
</event>
<event>
12    1  0.8488291E-002  0.2198160E+03  0.7818608E-02  0.1134396E+00
         21   -1    0    0  501  502  0.00000000000E+00  0.00000000000E+00  0.22733587039E+03  0.22733587039E+03  0.00000000000E+00 0.  1.
         21   -1    0    0  502  503 -0.00000000000E+00 -0.00000000000E+00 -0.27574890412E+03  0.27574890412E+03  0.00000000000E+00 0.  1.
         -6    2    1    2    0  503 -0.81208674828E+02  0.10870046286E+03 -0.14637559122E+03  0.26242784860E+03  0.17038756564E+03 0.  0.
        -24    2    3    3    0    0 -0.56364420928E+02  0.14331206475E+03 -0.10503069754E+03  0.20287375411E+03  0.80068825577E+02 0.  0.
          6    2    1    2  501    0  0.81208674828E+02 -0.10870046286E+03  0.97962557488E+02  0.24065692592E+03  0.17294060781E+03 0.  0.
         24    2    5    5    0    0  0.93812407224E+02 -0.13988033929E+03  0.87103308369E+02  0.20500510891E+03  0.77928372748E+02 0.  0.
          5    1    5    5  501    0 -0.12603732396E+02  0.31179876434E+02  0.10859249119E+02  0.35651817011E+02  0.47000000000E+01 0. -1.
        -11    1    6    6    0    0  0.58325037416E+02 -0.45363767394E+02  0.35821935561E+01  0.73976438766E+02  0.00000000000E+00 0.  1.
         12    1    6    6    0    0  0.35487369808E+02 -0.94516571898E+02  0.83521114813E+02  0.13102867014E+03  0.00000000000E+00 0. -1.
         -5    1    3    3    0  503 -0.24844253901E+02 -0.34611601895E+02 -0.41344893680E+02  0.59554094494E+02  0.47000000000E+01 0.  1.
         13    1    4    4    0    0  0.19979648943E+02  0.33200376174E+02 -0.32130519326E+02  0.50337079992E+02  0.00000000000E+00 0. -1.
        -14    1    4    4    0    0 -0.76344069871E+02  0.11011168858E+03 -0.72900178214E+02  0.15253667411E+03  0.00000000000E+00 0.  1.
</event>
<event>
12    1  0.8488291E-002  0.2744612E+03  0.7818608E-02  0.1098766E+00
         21   -1    0    0  501  502  0.00000000000E+00  0.00000000000E+00  0.45192597023E+02  0.45192597023E+02  0.00000000000E+00 0. -1.
         21   -1    0    0  502  503 -0.00000000000E+00 -0.00000000000E+00 -0.17095341229E+04  0.17095341229E+04  0.00000000000E+00 0.  1.
         -6    2    1    2    0  503 -0.15126845017E+03  0.15159202554E+03 -0.97188876941E+03  0.10098993770E+04  0.17165863007E+03 0.  0.
        -24    2    3    3    0    0 -0.32942792292E+02  0.11554005130E+02 -0.21992688331E+03  0.23589654970E+03  0.77850019657E+02 0.  0.
          6    2    1    2  501    0  0.15126845017E+03 -0.15159202554E+03 -0.69245275650E+03  0.74482734298E+03  0.17150703964E+03 0.  0.
         24    2    5    5    0    0  0.22764417550E+02 -0.11048748007E+03 -0.36971939834E+03  0.39499626870E+03  0.81264486869E+02 0.  0.
          5    1    5    5  501    0  0.12850403262E+03 -0.41104545469E+02 -0.32273335816E+03  0.34983107428E+03  0.47000000000E+01 0. -1.
        -13    1    6    6    0    0  0.46232354633E+02 -0.98004317486E+02 -0.32884502726E+03  0.34623883204E+03  0.00000000000E+00 0.  1.
         14    1    6    6    0    0 -0.23467937082E+02 -0.12483162585E+02 -0.40874371077E+02  0.48757436663E+02  0.00000000000E+00 0. -1.
         -5    1    3    3    0  503 -0.11832565788E+03  0.14003802041E+03 -0.75196188610E+03  0.77400282727E+03  0.47000000000E+01 0.  1.
         13    1    4    4    0    0 -0.32313429523E+01  0.36670769914E+02 -0.53228204461E+02  0.64718070842E+02  0.00000000000E+00 0. -1.
        -14    1    4    4    0    0 -0.29711449339E+02 -0.25116764784E+02 -0.16669867885E+03  0.17117847886E+03  0.00000000000E+00 0.  1.
</event>
<event>
12    1  0.8488291E-002  0.2441836E+03  0.7818608E-02  0.1117205E+00
         21   -1    0    0  501  502  0.00000000000E+00  0.00000000000E+00  0.37840376780E+02  0.37840376780E+02  0.00000000000E+00 0. -1.
         21   -1    0    0  502  503 -0.00000000000E+00 -0.00000000000E+00 -0.18765005516E+04  0.18765005516E+04  0.00000000000E+00 0.  1.
         -6    2    1    2    0  503  0.99784332311E+02 -0.14010919255E+03 -0.13083922863E+04  0.13309830967E+04  0.17331511773E+03 0.  0.
        -24    2    3    3    0    0  0.54705915340E+02 -0.17279704183E+01 -0.60495719861E+03  0.61263468617E+03  0.79701464804E+02 0.  0.
          6    2    1    2  501    0 -0.99784332311E+02  0.14010919255E+03 -0.53026788847E+03  0.58335783164E+03  0.17185699687E+03 0.  0.
         24    2    5    5    0    0 -0.62868457561E+02  0.33319388333E+02 -0.37448446893E+03  0.39085482413E+03  0.86407473533E+02 0.  0.
          5    1    5    5  501    0 -0.36915874751E+02  0.10678980422E+03 -0.15578341954E+03  0.19250300751E+03  0.47000000000E+01 0. -1.
        -13    1    6    6    0    0 -0.84578219080E+02  0.26229279622E+02 -0.28108245189E+03  0.29470119615E+03  0.00000000000E+00 0.  1.
         14    1    6    6    0    0  0.21709761520E+02  0.70901087116E+01 -0.93402017035E+02  0.96153627976E+02  0.00000000000E+00 0. -1.
         -5    1    3    3    0  503  0.45078416972E+02 -0.13838122213E+03 -0.70343508769E+03  0.71834841053E+03  0.47000000000E+01 0.  1.
         13    1    4    4    0    0  0.32017300483E+02 -0.71184078623E+01 -0.71455850235E+02  0.78623900905E+02  0.00000000000E+00 0. -1.
        -14    1    4    4    0    0  0.22688614857E+02  0.53904374440E+01 -0.53350134838E+03  0.53401078526E+03  0.00000000000E+00 0.  1.
</event>
<event>
12    1  0.8488291E-002  0.1962325E+03  0.7818608E-02  0.1156006E+00
         21   -1    0    0  501  502  0.00000000000E+00  0.00000000000E+00  0.83838009188E+03  0.83838009188E+03  0.00000000000E+00 0. -1.
         21   -1    0    0  502  503 -0.00000000000E+00 -0.00000000000E+00 -0.18879408828E+03  0.18879408828E+03  0.00000000000E+00 0. -1.
         -6    2    1    2    0  503 -0.61572087486E+02 -0.97205077743E+01 -0.12412485477E+03  0.23219428209E+03  0.18606879059E+03 0.  0.
        -24    2    3    3    0    0 -0.47035886758E+02  0.66510570853E+02 -0.51485045074E+02  0.12579357517E+03  0.80853466275E+02 0.  0.
          6    2    1    2  501    0  0.61572087486E+02  0.97205077743E+01  0.77371085837E+03  0.79497989808E+03  0.17169430903E+03 0.  0.
         24    2    5    5    0    0 -0.62556048738E+01 -0.40502173027E+01  0.63293431362E+03  0.63803929061E+03  0.80204452191E+02 0.  0.
          5    1    5    5  501    0  0.67827692359E+02  0.13770725077E+02  0.14077654476E+03  0.15694060747E+03  0.47000000000E+01 0. -1.
        -13    1    6    6    0    0  0.49839243513E+01  0.36430561367E+02  0.22999340606E+03  0.23291413038E+03  0.00000000000E+00 0.  1.
         14    1    6    6    0    0 -0.11239529225E+02 -0.40480778670E+02  0.40294090756E+03  0.40512516022E+03  0.00000000000E+00 0. -1.
         -5    1    3    3    0  503 -0.14536200728E+02 -0.76231078627E+02 -0.72639809699E+02  0.10640070692E+03  0.47000000000E+01 0.  1.
         13    1    4    4    0    0 -0.30538183762E+02  0.51390117166E+02 -0.73270103885E+02  0.94562323011E+02  0.00000000000E+00 0. -1.
        -14    1    4    4    0    0 -0.16497702996E+02  0.15120453687E+02  0.21785058811E+02  0.31231252156E+02  0.00000000000E+00 0.  1.
</event>
<event>
12    1  0.8488291E-002  0.2075695E+03  0.7818608E-02  0.1144010E+00
         21   -1    0    0  501  502  0.00000000000E+00  0.00000000000E+00  0.38930502278E+03  0.38930502278E+03  0.00000000000E+00 0.  1.
         21   -1    0    0  502  503 -0.00000000000E+00 -0.00000000000E+00 -0.18738204952E+03  0.18738204952E+03  0.00000000000E+00 0.  1.
         -6    2    1    2    0  503  0.50700588554E+02 -0.98201659237E+02 -0.84758508721E+02  0.22420773359E+03  0.17570141561E+03 0.  0.
        -24    2    3    3    0    0  0.64520249432E+02 -0.45391207620E+02  0.11270130067E+02  0.11364772141E+03  0.81028170618E+02 0.  0.
          6    2    1    2  501    0 -0.50700588554E+02  0.98201659237E+02  0.28668148198E+03  0.35247933871E+03  0.17274633585E+03 0.  0.
         24    2    5    5    0    0 -0.34459018355E+02 -0.15989843349E+02  0.74725346809E+02  0.11112693847E+03  0.72953546596E+02 0.  0.
          5    1    5    5  501    0 -0.16241570199E+02  0.11419150259E+03  0.21195613517E+03  0.24135240024E+03  0.47000000000E+01 0. -1.
        -11    1    6    6    0    0 -0.47435631519E+02 -0.30973435807E+02  0.71209088705E+02  0.90995753623E+02  0.00000000000E+00 0.  1.
         12    1    6    6    0    0  0.12976613164E+02  0.14983592458E+02  0.35162581047E+01  0.20131184844E+02  0.00000000000E+00 0. -1.
         -5    1    3    3    0  503 -0.13819660878E+02 -0.52810451616E+02 -0.96028638789E+02  0.11056001218E+03  0.47000000000E+01 0.  1.
         11    1    4    4    0    0  0.14144675372E+01 -0.46917130053E+02  0.17770402816E+02  0.50189690446E+02  0.00000000000E+00 0. -1.
        -12    1    4    4    0    0  0.63105781895E+02  0.15259224329E+01 -0.65002727490E+01  0.63458030962E+02  0.00000000000E+00 0.  1.
</event>
<event>
12    1  0.8488291E-002  0.2044313E+03  0.7818608E-02  0.1146078E+00
         21   -1    0    0  501  502  0.00000000000E+00  0.00000000000E+00  0.14529113563E+04  0.14529113563E+04  0.00000000000E+00 0. -1.
         21   -1    0    0  502  503 -0.00000000000E+00 -0.00000000000E+00 -0.31492907730E+02  0.31492907730E+02  0.00000000000E+00 0. -1.
         -6    2    1    2    0  503  0.24666370923E+02 -0.10744056268E+03  0.49136288746E+03  0.53214614978E+03  0.17201782811E+03 0.  0.
        -24    2    3    3    0    0 -0.52134996825E+02 -0.65708828194E+02  0.26514080710E+03  0.28957964881E+03  0.80752816781E+02 0.  0.
          6    2    1    2  501    0 -0.24666370923E+02  0.10744056268E+03  0.93005556114E+03  0.95225811428E+03  0.17216348346E+03 0.  0.
         24    2    5    5    0    0 -0.34755108580E+02 -0.25460022949E+01  0.28849835724E+03  0.30124616126E+03  0.79394885483E+02 0.  0.
          5    1    5    5  501    0  0.10088737657E+02  0.10998656498E+03  0.64155720390E+03  0.65101195302E+03  0.47000000000E+01 0. -1.
        -13    1    6    6    0    0  0.11451431202E+02  0.88486041124E+01  0.76023252196E+01  0.16347122684E+02  0.00000000000E+00 0.  1.
         14    1    6    6    0    0 -0.46206539782E+02 -0.11394606407E+02  0.28089603202E+03  0.28489903857E+03  0.00000000000E+00 0. -1.
         -5    1    3    3    0  503  0.76801367748E+02 -0.41731734488E+02  0.22622208036E+03  0.24256650097E+03  0.47000000000E+01 0.  1.
         13    1    4    4    0    0 -0.54776902688E+02 -0.45137420269E+02  0.97165988899E+02  0.12032923658E+03  0.00000000000E+00 0. -1.
        -14    1    4    4    0    0  0.26419058630E+01 -0.20571407924E+02  0.16797481820E+03  0.16925041223E+03  0.00000000000E+00 0.  1.
</event>
<event>
12    1  0.8488291E-002  0.1797597E+03  0.7818608E-02  0.1169249E+00
         21   -1    0    0  501  502  0.00000000000E+00  0.00000000000E+00  0.15547132730E+04  0.15547132730E+04  0.00000000000E+00 0.  1.
         21   -1    0    0  502  503 -0.00000000000E+00 -0.00000000000E+00 -0.12004079002E+03  0.12004079002E+03  0.00000000000E+00 0.  1.
         -6    2    1    2    0  503 -0.32369583980E+02  0.23709171410E+02 -0.47940871273E+02  0.18128296853E+03  0.17016248930E+03 0.  0.
        -24    2    3    3    0    0  0.72815506507E+01  0.74890186488E+02 -0.36929858711E+02  0.11544193892E+03  0.79381772380E+02 0.  0.
          6    2    1    2  501    0  0.32369583980E+02 -0.23709171410E+02  0.14826133542E+04  0.14934710945E+04  0.17522453339E+03 0.  0.
         24    2    5    5    0    0 -0.47853631477E+02  0.37050912852E+01  0.78361843202E+03  0.78933808333E+03  0.81811154815E+02 0.  0.
          5    1    5    5  501    0  0.80223215457E+02 -0.27414262695E+02  0.69899492221E+03  0.70413301114E+03  0.47000000000E+01 0. -1.
        -11    1    6    6    0    0 -0.16400995923E+02 -0.27744975619E+02  0.58108285833E+03  0.58197600000E+03  0.00000000000E+00 0.  1.
         12    1    6    6    0    0 -0.31452635554E+02  0.31450066904E+02  0.20253557369E+03  0.20736208333E+03  0.00000000000E+00 0. -1.
         -5    1    3    3    0  503 -0.39651134631E+02 -0.51181015078E+02 -0.11011012562E+02  0.65841029606E+02  0.47000000000E+01 0.  1.
         11    1    4    4    0    0  0.20041144345E+02 -0.10650999088E+02 -0.10494403037E+02  0.25004474466E+02  0.00000000000E+00 0. -1.
        -12    1    4    4    0    0 -0.12759593694E+02  0.85541185576E+02 -0.26435455674E+02  0.90437464458E+02  0.00000000000E+00 0.  1.
</event>
<event>
12    1  0.8488291E-002  0.1822600E+03  0.7818608E-02  0.1166696E+00
         21   -1    0    0  503  502  0.00000000000E+00  0.00000000000E+00  0.39319140166E+03  0.39319140166E+03  0.00000000000E+00 0. -1.
         21   -1    0    0  501  503 -0.00000000000E+00 -0.00000000000E+00 -0.34094039044E+03  0.34094039044E+03  0.00000000000E+00 0. -1.
          6    2    1    2  501    0 -0.34685936347E+02 -0.25816518648E+02 -0.29340259629E+03  0.34540382602E+03  0.17705680644E+03 0.  0.
         24    2    3    3    0    0  0.20849629951E+02  0.21911458988E+02 -0.67750398818E+02  0.10812095012E+03  0.78646069262E+02 0.  0.
         -6    2    1    2    0  502  0.34685936347E+02  0.25816518648E+02  0.34565360751E+03  0.38872796609E+03  0.17252074779E+03 0.  0.
        -24    2    5    5    0    0 -0.16347652246E+02  0.33623758534E+02  0.31745388547E+03  0.32971360781E+03  0.80847330850E+02 0.  0.
          5    1    3    3  501    0 -0.55535566298E+02 -0.47727977637E+02 -0.22565219747E+03  0.23728287590E+03  0.47000000000E+01 0. -1.
        -11    1    4    4    0    0  0.47454767745E+02  0.95519447863E+01 -0.61258139875E+02  0.78075311923E+02  0.00000000000E+00 0.  1.
         12    1    4    4    0    0 -0.26605137794E+02  0.12359514202E+02 -0.64922589428E+01  0.30045638195E+02  0.00000000000E+00 0. -1.
         -5    1    5    5    0  502  0.51033588593E+02 -0.78072398859E+01  0.28199722041E+02  0.59014358274E+02  0.47000000000E+01 0.  1.
         11    1    6    6    0    0  0.23553777528E+02  0.42135041432E+02  0.17336569341E+03  0.17996056735E+03  0.00000000000E+00 0. -1.
        -12    1    6    6    0    0 -0.39901429774E+02 -0.85112828981E+01  0.14408819206E+03  0.14975304046E+03  0.00000000000E+00 0.  1.
</event>
<event>
12    1  0.8488291E-002  0.1722869E+03  0.7818608E-02  0.1175758E+00
         21   -1    0    0  503  502  0.00000000000E+00  0.00000000000E+00  0.17367032027E+02  0.17367032027E+02  0.00000000000E+00 0. -1.
         21   -1    0    0  501  503 -0.00000000000E+00 -0.00000000000E+00 -0.17335835644E+04  0.17335835644E+04  0.00000000000E+00 0. -1.
          6    2    1    2  501    0  0.10834346200E+02 -0.32025836310E+01 -0.97990133054E+03  0.99474769031E+03  0.17084703736E+03 0.  0.
         24    2    3    3    0    0 -0.35853083949E+02  0.28806609650E+02 -0.81781414218E+03  0.82299597643E+03  0.79919595123E+02 0.  0.
         -6    2    1    2    0  502 -0.10834346200E+02  0.32025836310E+01 -0.73631520180E+03  0.75620290609E+03  0.17191602361E+03 0.  0.
        -24    2    5    5    0    0 -0.45729320665E+02 -0.29729152906E+02 -0.64961405290E+03  0.65699938934E+03  0.81699367007E+02 0.  0.
          5    1    3    3  501    0  0.46687430149E+02 -0.32009193281E+02 -0.16208718836E+03  0.17175171388E+03  0.47000000000E+01 0. -1.
        -13    1    4    4    0    0 -0.92611444344E+00  0.50865357892E+02 -0.44175570487E+03  0.44467543794E+03  0.00000000000E+00 0.  1.
         14    1    4    4    0    0 -0.34926969506E+02 -0.22058748243E+02 -0.37605843731E+03  0.37832053849E+03  0.00000000000E+00 0. -1.
         -5    1    5    5    0  502  0.34894974465E+02  0.32931736537E+02 -0.86701148902E+02  0.99203516748E+02  0.47000000000E+01 0.  1.
         13    1    6    6    0    0  0.21765985510E+02  0.72569522294E-01 -0.92807529393E+02  0.95325762014E+02  0.00000000000E+00 0. -1.
        -14    1    6    6    0    0 -0.67495306175E+02 -0.29801722428E+02 -0.55680652351E+03  0.56167362733E+03  0.00000000000E+00 0.  1.
</event>
<event>
12    1  0.8488291E-002  0.2026134E+03  0.7818608E-02  0.1148107E+00
         21   -1    0    0  501  502  0.00000000000E+00  0.00000000000E+00  0.19348451375E+03  0.19348451375E+03  0.00000000000E+00 0.  1.
         21   -1    0    0  502  503 -0.00000000000E+00 -0.00000000000E+00 -0.22235140344E+03  0.22235140344E+03  0.00000000000E+00 0.  1.
         -6    2    1    2    0  503  0.88391160035E+02  0.59110395158E+02 -0.64517505612E+02  0.21011003171E+03  0.16934190535E+03 0.  0.
        -24    2    3    3    0    0  0.45201444955E+02  0.66739210972E+01  0.26689931991E+02  0.96286387532E+02  0.80442551585E+02 0.  0.
          6    2    1    2  501    0 -0.88391160035E+02 -0.59110395158E+02  0.35650615922E+02  0.20572588547E+03  0.17246778699E+03 0.  0.
         24    2    5    5    0    0 -0.82194977286E+02 -0.35380857244E+02  0.88746908052E+02  0.14705059350E+03  0.75763078139E+02 0.  0.
          5    1    5    5  501    0 -0.61961827490E+01 -0.23729537914E+02 -0.53096292130E+02  0.58675291974E+02  0.47000000000E+01 0. -1.
        -13    1    6    6    0    0 -0.50366345379E+02 -0.57361182461E+02  0.71883561520E+02  0.10485380497E+03  0.00000000000E+00 0.  1.
         14    1    6    6    0    0 -0.31828631907E+02  0.21980325217E+02  0.16863346532E+02  0.42196788527E+02  0.00000000000E+00 0. -1.
         -5    1    3    3    0  503  0.43189715080E+02  0.52436474061E+02 -0.91207437603E+02  0.11382364418E+03  0.47000000000E+01 0.  1.
         11    1    4    4    0    0 -0.22725392268E+01 -0.28584461019E+02 -0.51362900547E+01  0.29131037088E+02  0.00000000000E+00 0. -1.
        -12    1    4    4    0    0  0.47473984182E+02  0.35258382117E+02  0.31826222046E+02  0.67155350444E+02  0.00000000000E+00 0.  1.
</event>
<event>
12    1  0.8488291E-002  0.2397376E+03  0.7818608E-02  0.1120001E+00
         21   -1    0    0  501  502  0.00000000000E+00  0.00000000000E+00  0.29096927219E+03  0.29096927219E+03  0.00000000000E+00 0.  1.
         21   -1    0    0  502  503 -0.00000000000E+00 -0.00000000000E+00 -0.22025770437E+03  0.22025770437E+03  0.00000000000E+00 0.  1.
         -6    2    1    2    0  503  0.10691528053E+03  0.13170838810E+03 -0.47041928175E+02  0.24430935331E+03  0.16939935183E+03 0.  0.
        -24    2    3    3    0    0  0.33811690505E+01  0.11438848912E+03 -0.56356564685E+02  0.13881933674E+03  0.54759356499E+02 0.  0.
          6    2    1    2  501    0 -0.10691528053E+03 -0.13170838810E+03  0.11775349600E+03  0.26691762325E+03  0.16911876027E+03 0.  0.
         24    2    5    5    0    0  0.35830630021E+01 -0.85398360657E+02  0.36671852626E+02  0.12217362352E+03  0.79220269916E+02 0.  0.
          5    1    5    5  501    0 -0.11049834354E+03 -0.46310027445E+02  0.81081643375E+02  0.14474399973E+03  0.47000000000E+01 0. -1.
        -13    1    6    6    0    0 -0.18887888927E+02 -0.54584050395E+02 -0.13339598526E+02  0.59279978023E+02  0.00000000000E+00 0.  1.
         14    1    6    6    0    0  0.22470951929E+02 -0.30814310262E+02  0.50011451152E+02  0.62893645497E+02  0.00000000000E+00 0. -1.
         -5    1    3    3    0  503  0.10353411148E+03  0.17319898985E+02  0.93146365100E+01  0.10549001657E+03  0.47000000000E+01 0.  1.
         11    1    4    4    0    0 -0.87506031064E+01  0.24383279755E+02 -0.38274727332E+02  0.46217660463E+02  0.00000000000E+00 0. -1.
        -12    1    4    4    0    0  0.12131772157E+02  0.90005209361E+02 -0.18081837353E+02  0.92601676280E+02  0.00000000000E+00 0.  1.
</event>
<event>
12    1  0.8488291E-002  0.1894143E+03  0.7818608E-02  0.1159267E+00
         21   -1    0    0  503  502  0.00000000000E+00  0.00000000000E+00  0.27149659829E+03  0.27149659829E+03  0.00000000000E+00 0.  1.
         21   -1    0    0  501  503 -0.00000000000E+00 -0.00000000000E+00 -0.13831853868E+03  0.13831853868E+03  0.00000000000E+00 0.  1.
          6    2    1    2  501    0 -0.46568602302E+02  0.59627127871E+02  0.11294602632E+03  0.22053249037E+03  0.17364833817E+03 0.  0.
         24    2    3    3    0    0  0.19118862072E+02  0.86495758010E+02  0.61350508493E+02  0.13266353270E+03  0.77386568451E+02 0.  0.
         -6    2    1    2    0  502  0.46568602302E+02 -0.59627127871E+02  0.20232033287E+02  0.18928264660E+03  0.17232108413E+03 0.  0.
        -24    2    5    5    0    0  0.23624116832E+02  0.32261254839E+02 -0.98030803440E+01  0.89813443626E+02  0.79821468364E+02 0.  0.
          5    1    3    3  501    0 -0.65687464375E+02 -0.26868630139E+02  0.51595517826E+02  0.87868957666E+02  0.47000000000E+01 0. -1.
        -13    1    4    4    0    0 -0.13712645970E+02  0.79257135144E+02  0.27633582927E+02  0.85049074281E+02  0.00000000000E+00 0.  1.
         14    1    4    4    0    0  0.32831508042E+02  0.72386228662E+01  0.33716925566E+02  0.47614458423E+02  0.00000000000E+00 0. -1.
         -5    1    5    5    0  502  0.22944485470E+02 -0.91888382710E+02  0.30035113631E+02  0.99469202979E+02  0.47000000000E+01 0.  1.
         11    1    6    6    0    0  0.48197453467E+02  0.32259007178E+02 -0.22433223468E+02  0.62184303325E+02  0.00000000000E+00 0. -1.
        -12    1    6    6    0    0 -0.24573336634E+02  0.22476604734E-02  0.12630143125E+02  0.27629140301E+02  0.00000000000E+00 0.  1.
</event>
<event>
12    1  0.8488291E-002  0.1882176E+03  0.7818608E-02  0.1160108E+00
         21   -1    0    0  501  502  0.00000000000E+00  0.00000000000E+00  0.36835838404E+02  0.36835838404E+02  0.00000000000E+00 0.  1.
         21   -1    0    0  502  503 -0.00000000000E+00 -0.00000000000E+00 -0.98972872806E+03  0.98972872806E+03  0.00000000000E+00 0.  1.
         -6    2    1    2    0  503 -0.59166971716E+02  0.48734729475E+02 -0.56394308089E+03  0.59452304487E+03  0.17190127400E+03 0.  0.
        -24    2    3    3    0    0  0.30813936223E+02  0.10027895238E+02 -0.22565607729E+03  0.24230866468E+03  0.82114349612E+02 0.  0.
          6    2    1    2  501    0  0.59166971716E+02 -0.48734729475E+02 -0.38894980877E+03  0.43204152160E+03  0.17176180670E+03 0.  0.
         24    2    5    5    0    0  0.52867611639E+02 -0.71969519582E+02 -0.15075200874E+03  0.19258417811E+03  0.79924348048E+02 0.  0.
          5    1    5    5  501    0  0.62993600762E+01  0.23234790107E+02 -0.23819780004E+03  0.23945734349E+03  0.47000000000E+01 0. -1.
        -13    1    6    6    0    0  0.33961308225E+02  0.83250879410E+01 -0.28528289006E+02  0.45128049140E+02  0.00000000000E+00 0.  1.
         14    1    6    6    0    0  0.18906303414E+02 -0.80294607523E+02 -0.12222371973E+03  0.14745612897E+03  0.00000000000E+00 0. -1.
         -5    1    3    3    0  503 -0.89980907938E+02  0.38706834237E+02 -0.33828700360E+03  0.35221438019E+03  0.47000000000E+01 0.  1.
         13    1    4    4    0    0  0.36570491480E+02  0.36214864985E+02 -0.86997558727E+02  0.10108161315E+03  0.00000000000E+00 0. -1.
        -14    1    4    4    0    0 -0.57565552570E+01 -0.26186969747E+02 -0.13865851856E+03  0.14122705153E+03  0.00000000000E+00 0.  1.
</event>
<event>
12    1  0.8488291E-002  0.2009873E+03  0.7818608E-02  0.1149021E+00
         21   -1    0    0  503  502  0.00000000000E+00  0.00000000000E+00  0.65331743018E+03  0.65331743018E+03  0.00000000000E+00 0. -1.
         21   -1    0    0  501  503 -0.00000000000E+00 -0.00000000000E+00 -0.78043256111E+02  0.78043256111E+02  0.00000000000E+00 0.  1.
          6    2    1    2  501    0 -0.94709806300E+02  0.41865375392E+02  0.12043400591E+03  0.23430801581E+03  0.17225922160E+03 0.  0.
         24    2    3    3    0    0 -0.54960178611E+02 -0.29609296922E+02  0.18059110322E+02  0.10319214747E+03  0.80157071657E+02 0.  0.
         -6    2    1    2    0  502  0.94709806300E+02 -0.41865375392E+02  0.45484016815E+03  0.49705267048E+03  0.17163659749E+03 0.  0.
        -24    2    5    5    0    0  0.56088595239E+01  0.14709277640E+02  0.16994289600E+03  0.19319708675E+03  0.90535651948E+02 0.  0.
          5    1    3    3  501    0 -0.39749627689E+02  0.71474672314E+02  0.10237489559E+03  0.13111586834E+03  0.47000000000E+01 0. -1.
        -11    1    4    4    0    0 -0.32949230427E+02 -0.26724554697E+02 -0.28843658749E+02  0.51301172106E+02  0.00000000000E+00 0.  1.
         12    1    4    4    0    0 -0.22010948184E+02 -0.28847422245E+01  0.46902769071E+02  0.51890975364E+02  0.00000000000E+00 0. -1.
         -5    1    5    5    0  502  0.89100946776E+02 -0.56574653032E+02  0.28489727215E+03  0.30385558373E+03  0.47000000000E+01 0.  1.
         13    1    6    6    0    0 -0.19751685759E+01  0.46148668492E+02  0.46325321126E+02  0.65418929003E+02  0.00000000000E+00 0. -1.
        -14    1    6    6    0    0  0.75840280999E+01 -0.31439390852E+02  0.12361757487E+03  0.12777815774E+03  0.00000000000E+00 0.  1.
</event>
<event>
12    1  0.8488291E-002  0.2194098E+03  0.7818608E-02  0.1134416E+00
         21   -1    0    0  503  502  0.00000000000E+00  0.00000000000E+00  0.23314243799E+03  0.23314243799E+03  0.00000000000E+00 0.  1.
         21   -1    0    0  501  503 -0.00000000000E+00 -0.00000000000E+00 -0.22413369045E+03  0.22413369045E+03  0.00000000000E+00 0. -1.
          6    2    1    2  501    0 -0.87935915176E+02 -0.10236062611E+03 -0.60479658018E+02  0.22759276838E+03  0.17300363068E+03 0.  0.
         24    2    3    3    0    0 -0.52416279555E+02 -0.13834391420E+03 -0.34733792846E+02  0.17065963997E+03  0.77664479598E+02 0.  0.
         -6    2    1    2    0  502  0.87935915176E+02  0.10236062611E+03  0.69488405556E+02  0.22968336007E+03  0.17238150837E+03 0.  0.
        -24    2    5    5    0    0  0.10059095931E+03  0.68046833137E+02 -0.65839484964E+01  0.14514532377E+03  0.79214291882E+02 0.  0.
          5    1    3    3  501    0 -0.35519635621E+02  0.35983288088E+02 -0.25745865172E+02  0.56933128403E+02  0.47000000000E+01 0. -1.
        -13    1    4    4    0    0 -0.56161309678E+02 -0.10884106356E+03  0.31256755441E+01  0.12251628329E+03  0.00000000000E+00 0.  1.
         14    1    4    4    0    0  0.37450301233E+01 -0.29502850638E+02 -0.37859468390E+02  0.48143356688E+02  0.00000000000E+00 0. -1.
         -5    1    5    5    0  502 -0.12655044134E+02  0.34313792977E+02  0.76072354053E+02  0.84538036301E+02  0.47000000000E+01 0.  1.
         11    1    6    6    0    0  0.67355768065E+02  0.81354206040E+02  0.92026678289E+01  0.10601884468E+03  0.00000000000E+00 0. -1.
        -12    1    6    6    0    0  0.33235191245E+02 -0.13307372903E+02 -0.15786616325E+02  0.39126479086E+02  0.00000000000E+00 0.  1.
</event>
<event>
12    1  0.8488291E-002  0.1842824E+03  0.7818608E-02  0.1164119E+00
         21   -1    0    0  501  502  0.00000000000E+00  0.00000000000E+00  0.61714301522E+03  0.61714301522E+03  0.00000000000E+00 0. -1.
         21   -1    0    0  502  503 -0.00000000000E+00 -0.00000000000E+00 -0.12056672012E+03  0.12056672012E+03  0.00000000000E+00 0. -1.
         -6    2    1    2    0  503 -0.62107183972E+02  0.54583967183E+01 -0.25217013925E+02  0.18433080098E+03  0.17162415332E+03 0.  0.
        -24    2    3    3    0    0 -0.97621691082E+02 -0.99636124842E+01 -0.52801243049E+02  0.13655948868E+03  0.78938295752E+02 0.  0.
          6    2    1    2  501    0  0.62107183972E+02 -0.54583967183E+01  0.52179330902E+03  0.55337893436E+03  0.17341537201E+03 0.  0.
         24    2    5    5    0    0  0.88282681320E+02  0.35448011465E+02  0.44651713980E+03  0.46367340194E+03  0.81025145478E+02 0.  0.
          5    1    5    5  501    0 -0.26175497348E+02 -0.40906408183E+02  0.75276169227E+02  0.89705532412E+02  0.47000000000E+01 0. -1.
        -13    1    6    6    0    0  0.42714507119E+02  0.34645832811E+02  0.37401116380E+03  0.37803334971E+03  0.00000000000E+00 0.  1.
         14    1    6    6    0    0  0.45568174201E+02  0.80217865394E+00  0.72505976001E+02  0.85640052233E+02  0.00000000000E+00 0. -1.
         -5    1    3    3    0  503  0.35514507110E+02  0.15422009202E+02  0.27584229124E+02  0.47771312306E+02  0.47000000000E+01 0.  1.
         11    1    4    4    0    0 -0.25147110113E+02 -0.22842874906E+01 -0.58238243022E+02  0.63476673406E+02  0.00000000000E+00 0. -1.
        -12    1    4    4    0    0 -0.72474580968E+02 -0.76793249936E+01  0.54369999735E+01  0.73082815269E+02  0.00000000000E+00 0.  1.
</event>
<event>
12    1  0.8488291E-002  0.1950494E+03  0.7818608E-02  0.1154087E+00
         21   -1    0    0  503  502  0.00000000000E+00  0.00000000000E+00  0.25782771200E+03  0.25782771200E+03  0.00000000000E+00 0.  1.
         21   -1    0    0  501  503 -0.00000000000E+00 -0.00000000000E+00 -0.33347234759E+03  0.33347234759E+03  0.00000000000E+00 0.  1.
          6    2    1    2  501    0 -0.21940771203E+02  0.90324778113E+02 -0.25876571722E+03  0.32376017250E+03  0.17094148093E+03 0.  0.
         24    2    3    3    0    0  0.18236574792E+02  0.14107494430E+02 -0.18004119027E+03  0.20695719905E+03  0.99422623099E+02 0.  0.
         -6    2    1    2    0  502  0.21940771203E+02 -0.90324778113E+02  0.18312108163E+03  0.26753988709E+03  0.17147681378E+03 0.  0.
        -24    2    5    5    0    0  0.15587223343E+02 -0.22234394459E+02  0.16848429370E+02  0.87691748910E+02  0.81661762326E+02 0.  0.
          5    1    3    3  501    0 -0.40177345995E+02  0.76217283683E+02 -0.78724526949E+02  0.11680297345E+03  0.47000000000E+01 0. -1.
        -13    1    4    4    0    0  0.13911020936E+02  0.52908968916E+02 -0.14313141297E+03  0.15323014349E+03  0.00000000000E+00 0.  1.
         14    1    4    4    0    0  0.43255538563E+01 -0.38801474485E+02 -0.36909777301E+02  0.53727055557E+02  0.00000000000E+00 0. -1.
         -5    1    5    5    0  502  0.63535478595E+01 -0.68090383654E+02  0.16627265226E+03  0.17984813818E+03  0.47000000000E+01 0.  1.
         13    1    6    6    0    0  0.14323203315E+02 -0.14998820382E+01  0.48075622051E+02  0.50186345104E+02  0.00000000000E+00 0. -1.
        -14    1    6    6    0    0  0.12640200281E+01 -0.20734512421E+02 -0.31227192680E+02  0.37505403806E+02  0.00000000000E+00 0.  1.
</event>
<event>
12    1  0.8488291E-002  0.1893799E+03  0.7818608E-02  0.1159376E+00
         21   -1    0    0  501  502  0.00000000000E+00  0.00000000000E+00  0.10274213704E+03  0.10274213704E+03  0.00000000000E+00 0.  1.
         21   -1    0    0  502  503 -0.00000000000E+00 -0.00000000000E+00 -0.34621140364E+03  0.34621140364E+03  0.00000000000E+00 0. -1.
         -6    2    1    2    0  503  0.81472624121E+02  0.90271592860E+01 -0.12303894542E+03  0.22583915629E+03  0.17072042742E+03 0.  0.
        -24    2    3    3    0    0  0.95832343374E+02 -0.25630094347E+02 -0.13567165952E+03  0.18597686544E+03  0.79623209617E+02 0.  0.
          6    2    1    2  501    0 -0.81472624121E+02 -0.90271592860E+01 -0.12043032117E+03  0.22311438439E+03  0.16898901792E+03 0.  0.
         24    2    5    5    0    0 -0.35293117015E+02 -0.54805989065E+02 -0.20616312903E+02  0.10389536586E+03  0.78229880119E+02 0.  0.
          5    1    5    5  501    0 -0.46179507105E+02  0.45778829779E+02 -0.99814008271E+02  0.11921901853E+03  0.47000000000E+01 0. -1.
        -11    1    6    6    0    0  0.24420339084E+02 -0.75381983072E+01 -0.73304200588E+01  0.26587825276E+02  0.00000000000E+00 0.  1.
         12    1    6    6    0    0 -0.59713456099E+02 -0.47267790758E+02 -0.13285892844E+02  0.77307540583E+02  0.00000000000E+00 0. -1.
         -5    1    3    3    0  503 -0.14359719254E+02  0.34657253633E+02  0.12632714099E+02  0.39862290852E+02  0.47000000000E+01 0.  1.
         13    1    4    4    0    0  0.13349656935E+02 -0.29908699102E+02 -0.76660078186E+01  0.33637944321E+02  0.00000000000E+00 0. -1.
        -14    1    4    4    0    0  0.82482686439E+02  0.42786047547E+01 -0.12800565170E+03  0.15233892112E+03  0.00000000000E+00 0.  1.
</event>
<event>
12    1  0.8488291E-002  0.1803410E+03  0.7818608E-02  0.1168029E+00
         21   -1    0    0  501  502  0.00000000000E+00  0.00000000000E+00  0.80537667622E+02  0.80537667622E+02  0.00000000000E+00 0.  1.
         21   -1    0    0  502  503 -0.00000000000E+00 -0.00000000000E+00 -0.59503345379E+03  0.59503345379E+03  0.00000000000E+00 0.  1.
         -6    2    1    2    0  503  0.42802617748E+02  0.20453683074E+02 -0.45236151772E+03  0.48698439931E+03  0.17398978482E+03 0.  0.
        -24    2    3    3    0    0 -0.27546162585E+02  0.31224790943E+01 -0.35961294291E+03  0.36919768676E+03  0.78847461899E+02 0.  0.
          6    2    1    2  501    0 -0.42802617748E+02 -0.20453683074E+02 -0.62134268452E+02  0.18858672210E+03  0.17162129005E+03 0.  0.
         24    2    5    5    0    0 -0.95364490810E+02 -0.19506573323E+02 -0.37520509050E+02  0.13034949459E+03  0.78155675608E+02 0.  0.
          5    1    5    5  501    0  0.52561873062E+02 -0.94710975094E+00 -0.24613759402E+02  0.58237227514E+02  0.47000000000E+01 0. -1.
        -11    1    6    6    0    0 -0.10546906134E+03 -0.19146934983E+02 -0.46483576849E+02  0.11683771196E+03  0.00000000000E+00 0.  1.
         12    1    6    6    0    0  0.10104570532E+02 -0.35963834066E+00  0.89630677991E+01  0.13511782627E+02  0.00000000000E+00 0. -1.
         -5    1    3    3    0  503  0.70348780333E+02  0.17331203980E+02 -0.92748574804E+02  0.11778671255E+03  0.47000000000E+01 0.  1.
         11    1    4    4    0    0  0.12124895571E+02 -0.21135047854E+02 -0.23380819015E+03  0.23507439912E+03  0.00000000000E+00 0. -1.
        -12    1    4    4    0    0 -0.39671058156E+02  0.24257526948E+02 -0.12580475276E+03  0.13412328763E+03  0.00000000000E+00 0.  1.
</event>
<event>
12    1  0.8488291E-002  0.1897671E+03  0.7818608E-02  0.1159780E+00
         21   -1    0    0  501  502  0.00000000000E+00  0.00000000000E+00  0.61556323783E+03  0.61556323783E+03  0.00000000000E+00 0. -1.
         21   -1    0    0  502  503 -0.00000000000E+00 -0.00000000000E+00 -0.78413781237E+02  0.78413781237E+02  0.00000000000E+00 0.  1.
         -6    2    1    2    0  503 -0.36158556561E+02 -0.51077741064E+02  0.89860266395E+02  0.20996762019E+03  0.17915121324E+03 0.  0.
        -24    2    3    3    0    0 -0.53053343581E+02 -0.97606549841E+02  0.79967946564E+02  0.15926937696E+03  0.81425832039E+02 0.  0.
          6    2    1    2  501    0  0.36158556561E+02  0.51077741064E+02  0.44728919020E+03  0.48400939888E+03  0.17401465941E+03 0.  0.
         24    2    5    5    0    0  0.16741725845E+02 -0.25778711640E+02  0.12507523499E+03  0.15215423383E+03  0.81007833613E+02 0.  0.
          5    1    5    5  501    0  0.19416830716E+02  0.76856452704E+02  0.32221395520E+03  0.33185516504E+03  0.47000000000E+01 0. -1.
        -11    1    6    6    0    0 -0.14171164267E+02 -0.38335857166E+02  0.28099068625E+02  0.49598563476E+02  0.00000000000E+00 0.  1.
         12    1    6    6    0    0  0.30912890112E+02  0.12557145526E+02  0.96976166368E+02  0.10255567036E+03  0.00000000000E+00 0. -1.
         -5    1    3    3    0  503  0.16894787020E+02  0.46528808778E+02  0.98923198319E+01  0.50698243228E+02  0.47000000000E+01 0.  1.
         13    1    4    4    0    0 -0.13667469727E+01 -0.33245878576E+02  0.68206488214E+02  0.75889929991E+02  0.00000000000E+00 0. -1.
        -14    1    4    4    0    0 -0.51686596609E+02 -0.64360671266E+02  0.11761458350E+02  0.83379446971E+02  0.00000000000E+00 0.  1.
</event>
<event>
12    1  0.8488291E-002  0.1738437E+03  0.7818608E-02  0.1174503E+00
         21   -1    0    0  501  502  0.00000000000E+00  0.00000000000E+00  0.19271407392E+03  0.19271407392E+03  0.00000000000E+00 0. -1.
         21   -1    0    0  502  503 -0.00000000000E+00 -0.00000000000E+00 -0.95242907663E+03  0.95242907663E+03  0.00000000000E+00 0. -1.
         -6    2    1    2    0  503 -0.32503750517E+01  0.97304059785E+01 -0.90344750543E+03  0.91957571871E+03  0.17116326020E+03 0.  0.
        -24    2    3    3    0    0 -0.71609538606E+02  0.86662861656E+01 -0.39194847339E+03  0.40350648172E+03  0.63173130855E+02 0.  0.
          6    2    1    2  501    0  0.32503750517E+01 -0.97304059785E+01  0.14373250272E+03  0.22556743184E+03  0.17354073939E+03 0.  0.
         24    2    5    5    0    0 -0.25988672849E+02  0.22145471055E+02  0.12316255381E+02  0.87135811448E+02  0.79215695954E+02 0.  0.
          5    1    5    5  501    0  0.29239047901E+02 -0.31875877033E+02  0.13141624734E+03  0.13843162039E+03  0.47000000000E+01 0. -1.
        -11    1    6    6    0    0 -0.52226008635E+02  0.77172447621E+01  0.19609899844E+02  0.56317492989E+02  0.00000000000E+00 0.  1.
         12    1    6    6    0    0  0.26237335786E+02  0.14428226293E+02 -0.72936444628E+01  0.30818318459E+02  0.00000000000E+00 0. -1.
         -5    1    3    3    0  503  0.68359163554E+02  0.10641198128E+01 -0.51149903204E+03  0.51606923699E+03  0.47000000000E+01 0.  1.
         13    1    4    4    0    0 -0.71960147697E+02  0.24850022091E+02 -0.35648180454E+03  0.36452031963E+03  0.00000000000E+00 0. -1.
        -14    1    4    4    0    0  0.35060909092E+00 -0.16183735925E+02 -0.35466668845E+02  0.38986162086E+02  0.00000000000E+00 0.  1.
</event>
<event>
12    1  0.8488291E-002  0.1960542E+03  0.7818608E-02  0.1156807E+00
         21   -1    0    0  503  502  0.00000000000E+00  0.00000000000E+00  0.65727366025E+02  0.65727366025E+02  0.00000000000E+00 0.  1.
         21   -1    0    0  501  503 -0.00000000000E+00 -0.00000000000E+00 -0.84279590510E+03  0.84279590510E+03  0.00000000000E+00 0.  1.
          6    2    1    2  501    0 -0.60471939594E+02  0.45261560988E+01 -0.65117347284E+03  0.67552796683E+03  0.16921524951E+03 0.  0.
         24    2    3    3    0    0 -0.78542616417E+01 -0.56524330197E+02 -0.37970868419E+03  0.39231249517E+03  0.80459428810E+02 0.  0.
         -6    2    1    2    0  502  0.60471939594E+02 -0.45261560988E+01 -0.12589506623E+03  0.23299530430E+03  0.18644007765E+03 0.  0.
        -24    2    5    5    0    0 -0.23732939563E+02 -0.22686072084E+01 -0.12522001939E+03  0.14862644814E+03  0.76428848164E+02 0.  0.
          5    1    3    3  501    0 -0.52617677953E+02  0.61050486295E+02 -0.27146478865E+03  0.28321547166E+03  0.47000000000E+01 0. -1.
        -13    1    4    4    0    0 -0.24216856312E+02 -0.20628433919E+02 -0.31446192582E+03  0.31606690938E+03  0.00000000000E+00 0.  1.
         14    1    4    4    0    0  0.16362594670E+02 -0.35895896277E+02 -0.65246758371E+02  0.76245585786E+02  0.00000000000E+00 0. -1.
         -5    1    5    5    0  502  0.84204879158E+02 -0.22575488904E+01 -0.67504684064E+00  0.84368856157E+02  0.47000000000E+01 0.  1.
         11    1    6    6    0    0 -0.52547868907E+01  0.30103978472E+02 -0.97492098170E+02  0.10216932764E+03  0.00000000000E+00 0. -1.
        -12    1    6    6    0    0 -0.18478152673E+02 -0.32372585680E+02 -0.27727921220E+02  0.46457120499E+02  0.00000000000E+00 0.  1.
</event>
<event>
12    1  0.8488291E-002  0.3562638E+03  0.7818608E-02  0.1060271E+00
         21   -1    0    0  503  502  0.00000000000E+00  0.00000000000E+00  0.17465739827E+03  0.17465739827E+03  0.00000000000E+00 0. -1.
         21   -1    0    0  501  503 -0.00000000000E+00 -0.00000000000E+00 -0.81757471611E+03  0.81757471611E+03  0.00000000000E+00 0.  1.
          6    2    1    2  501    0 -0.25036514909E+03 -0.18237176431E+03 -0.49124250195E+03  0.60683035377E+03  0.17601623287E+03 0.  0.
         24    2    3    3    0    0 -0.21651295887E+03 -0.21031986569E+03 -0.42776650454E+03  0.52951050249E+03  0.79277251360E+02 0.  0.
         -6    2    1    2    0  502  0.25036514909E+03  0.18237176431E+03 -0.15167481589E+03  0.38540176062E+03  0.17200900852E+03 0.  0.
        -24    2    5    5    0    0  0.12275223035E+03  0.14356861090E+03 -0.14573344472E+03  0.25180486081E+03  0.80544366212E+02 0.  0.
          5    1    3    3  501    0 -0.33852190219E+02  0.27948101382E+02 -0.63475997416E+02  0.77319851277E+02  0.47000000000E+01 0. -1.
        -11    1    4    4    0    0 -0.16943796065E+03 -0.11223544785E+03 -0.28312495486E+03  0.34851938013E+03  0.00000000000E+00 0.  1.
         12    1    4    4    0    0 -0.47074998223E+02 -0.98084417839E+02 -0.14464154968E+03  0.18099112236E+03  0.00000000000E+00 0. -1.
         -5    1    5    5    0  502  0.12761291874E+03  0.38803153415E+02 -0.59413711664E+01  0.13359689980E+03  0.47000000000E+01 0.  1.
         13    1    6    6    0    0  0.32420092048E+02  0.90109553370E+02 -0.43152926487E+02  0.10503794096E+03  0.00000000000E+00 0. -1.
        -14    1    6    6    0    0  0.90332138301E+02  0.53459057526E+02 -0.10258051824E+03  0.14676691985E+03  0.00000000000E+00 0.  1.
</event>
<event>
12    1  0.8488291E-002  0.2056698E+03  0.7818608E-02  0.1148668E+00
         21   -1    0    0  501  502  0.00000000000E+00  0.00000000000E+00  0.17419981948E+03  0.17419981948E+03  0.00000000000E+00 0.  1.
         21   -1    0    0  502  503 -0.00000000000E+00 -0.00000000000E+00 -0.22555672817E+03  0.22555672817E+03  0.00000000000E+00 0.  1.
         -6    2    1    2    0  503  0.67039736365E+02  0.19722285456E+01 -0.45258854585E+02  0.19399634556E+03  0.17631790106E+03 0.  0.
        -24    2    3    3    0    0 -0.20978899414E+01  0.99479955206E+01  0.41686304434E+02  0.82528076946E+02  0.70496608073E+02 0.  0.
          6    2    1    2  501    0 -0.67039736365E+02 -0.19722285456E+01 -0.60980541007E+01  0.20576020209E+03  0.19442700060E+03 0.  0.
         24    2    5    5    0    0 -0.84340255995E+02 -0.23774750061E+02 -0.68991402307E+02  0.13682312083E+03  0.79260553118E+02 0.  0.
          5    1    5    5  501    0  0.17300519630E+02  0.21802521515E+02  0.62893348206E+02  0.68937081259E+02  0.47000000000E+01 0. -1.
        -11    1    6    6    0    0 -0.56955922491E+02  0.23485817441E+02 -0.48783916258E+02  0.78583911923E+02  0.00000000000E+00 0.  1.
         12    1    6    6    0    0 -0.27384333504E+02 -0.47260567502E+02 -0.20207486049E+02  0.58239208910E+02  0.00000000000E+00 0. -1.
         -5    1    3    3    0  503  0.69137626306E+02 -0.79757669750E+01 -0.86945159019E+02  0.11146826861E+03  0.47000000000E+01 0.  1.
         13    1    4    4    0    0 -0.34271313407E+02 -0.67462393606E+01  0.22006592085E+02  0.41283468402E+02  0.00000000000E+00 0. -1.
        -14    1    4    4    0    0  0.32173423465E+02  0.16694234881E+02  0.19679712349E+02  0.41244608543E+02  0.00000000000E+00 0.  1.
</event>
<event>
12    1  0.8488291E-002  0.1818920E+03  0.7818608E-02  0.1166258E+00
         21   -1    0    0  501  502  0.00000000000E+00  0.00000000000E+00  0.49724077226E+03  0.49724077226E+03  0.00000000000E+00 0.  1.
         21   -1    0    0  502  503 -0.00000000000E+00 -0.00000000000E+00 -0.35205735135E+03  0.35205735135E+03  0.00000000000E+00 0. -1.
         -6    2    1    2    0  503  0.26481568563E+02  0.52574025489E+02 -0.31015185788E+03  0.35897686972E+03  0.17089445987E+03 0.  0.
        -24    2    3    3    0    0 -0.48297871623E+02  0.12484050643E+02 -0.13576721895E+03  0.16498907872E+03  0.79373310590E+02 0.  0.
          6    2    1    2  501    0 -0.26481568563E+02 -0.52574025489E+02  0.45533527879E+03  0.49032125389E+03  0.17210291769E+03 0.  0.
         24    2    5    5    0    0  0.35026896879E+02  0.17317102616E+02  0.21931413075E+03  0.23655732140E+03  0.79585883269E+02 0.  0.
          5    1    5    5  501    0 -0.61508465442E+02 -0.69891128105E+02  0.23602114804E+03  0.25376393249E+03  0.47000000000E+01 0. -1.
        -11    1    6    6    0    0  0.97906704724E+01 -0.31425417296E+02  0.98638556320E+02  0.10398547434E+03  0.00000000000E+00 0.  1.
         12    1    6    6    0    0  0.25236226407E+02  0.48742519912E+02  0.12067557443E+03  0.13257184706E+03  0.00000000000E+00 0. -1.
         -5    1    3    3    0  503  0.74779440186E+02  0.40089974847E+02 -0.17438463894E+03  0.19398779099E+03  0.47000000000E+01 0.  1.
         13    1    4    4    0    0  0.18004745296E+02  0.11660686277E+02 -0.62953803341E+02  0.66508073290E+02  0.00000000000E+00 0. -1.
        -14    1    4    4    0    0 -0.66302616919E+02  0.82336436580E+00 -0.72813415604E+02  0.98481005433E+02  0.00000000000E+00 0.  1.
</event>
<event>
12    1  0.8488291E-002  0.1811080E+03  0.7818608E-02  0.1168670E+00
         21   -1    0    0  503  502  0.00000000000E+00  0.00000000000E+00  0.11942789344E+04  0.11942789344E+04  0.00000000000E+00 0. -1.
         21   -1    0    0  501  503 -0.00000000000E+00 -0.00000000000E+00 -0.31910420400E+02  0.31910420400E+02  0.00000000000E+00 0. -1.
          6    2    1    2  501    0 -0.47256902172E+02  0.19284129481E+02  0.31314327654E+03  0.35786705287E+03  0.16554462671E+03 0.  0.
         24    2    3    3    0    0 -0.75884458194E+01  0.37918713961E+02  0.29053357562E+03  0.30832794969E+03  0.95712865467E+02 0.  0.
         -6    2    1    2    0  502  0.47256902172E+02 -0.19284129481E+02  0.84922523751E+03  0.86832230198E+03  0.17376715353E+03 0.  0.
        -24    2    5    5    0    0  0.18512948017E+02 -0.32711342715E+01  0.82140709638E+03  0.82497982984E+03  0.74355040753E+02 0.  0.
          5    1    3    3  501    0 -0.39668456352E+02 -0.18634584480E+02  0.22609700918E+02  0.49539103179E+02  0.47000000000E+01 0. -1.
        -13    1    4    4    0    0  0.13617020770E+02  0.19306798538E+01 -0.10259469149E+01  0.13791422930E+02  0.00000000000E+00 0.  1.
         14    1    4    4    0    0 -0.21205466589E+02  0.35988034107E+02  0.29155952254E+03  0.29453652676E+03  0.00000000000E+00 0. -1.
         -5    1    5    5    0  502  0.28743954155E+02 -0.16012995210E+02  0.27818141124E+02  0.43342472145E+02  0.47000000000E+01 0.  1.
         11    1    6    6    0    0  0.47488019589E+02 -0.72946542520E+00  0.48721624764E+03  0.48952560310E+03  0.00000000000E+00 0. -1.
        -12    1    6    6    0    0 -0.28975071572E+02 -0.25416688463E+01  0.33419084874E+03  0.33545422674E+03  0.00000000000E+00 0.  1.
</event>
<event>
12    1  0.8488291E-002  0.1723689E+03  0.7818608E-02  0.1175445E+00
         21   -1    0    0  503  502  0.00000000000E+00  0.00000000000E+00  0.45808265266E+03  0.45808265266E+03  0.00000000000E+00 0.  1.
         21   -1    0    0  501  503 -0.00000000000E+00 -0.00000000000E+00 -0.17865882742E+03  0.17865882742E+03  0.00000000000E+00 0.  1.
          6    2    1    2  501    0 -0.21060876925E+01  0.42121545146E+01 -0.11442819206E+03  0.20689332506E+03  0.17230455294E+03 0.  0.
         24    2    3    3    0    0 -0.18660708948E+02  0.18661780551E+02  0.62357759150E+01  0.84154861876E+02  0.79666001307E+02 0.  0.
         -6    2    1    2    0  502  0.21060876925E+01 -0.42121545146E+01  0.39385201730E+03  0.42984815502E+03  0.17212741499E+03 0.  0.
        -24    2    5    5    0    0 -0.26322079690E+02  0.23877230258E+02  0.99050967058E+02  0.13231341173E+03  0.80204556265E+02 0.  0.
          5    1    3    3  501    0  0.16554621256E+02 -0.14449626037E+02 -0.12066396797E+03  0.12273846318E+03  0.47000000000E+01 0. -1.
        -11    1    4    4    0    0 -0.14021544624E+02  0.99668479842E+01 -0.36471588993E+02  0.40325160583E+02  0.00000000000E+00 0.  1.
         12    1    4    4    0    0 -0.46391643241E+01  0.86949325669E+01  0.42707364908E+02  0.43829701292E+02  0.00000000000E+00 0. -1.
         -5    1    5    5    0  502  0.28428167383E+02 -0.28089384772E+02  0.29480105024E+03  0.29753474328E+03  0.47000000000E+01 0.  1.
         13    1    6    6    0    0 -0.11082507393E+02 -0.27766746294E+02  0.55578749432E+02  0.63109520347E+02  0.00000000000E+00 0. -1.
        -14    1    6    6    0    0 -0.15239572297E+02  0.51643976552E+02  0.43472217626E+02  0.69203891388E+02  0.00000000000E+00 0.  1.
</event>
<event>
12    1  0.8488291E-002  0.2195333E+03  0.7818608E-02  0.1134376E+00
         21   -1    0    0  503  502  0.00000000000E+00  0.00000000000E+00  0.11805852532E+04  0.11805852532E+04  0.00000000000E+00 0. -1.
         21   -1    0    0  501  503 -0.00000000000E+00 -0.00000000000E+00 -0.49431388709E+02  0.49431388709E+02  0.00000000000E+00 0. -1.
          6    2    1    2  501    0 -0.13247380176E+03  0.32855939260E+02  0.30761712084E+03  0.37791951750E+03  0.17194780538E+03 0.  0.
         24    2    3    3    0    0 -0.80933813755E+02 -0.34914643420E+02  0.10714841080E+03  0.16006861449E+03  0.79823961762E+02 0.  0.
         -6    2    1    2    0  502  0.13247380176E+03 -0.32855939260E+02  0.82353674367E+03  0.85209712443E+03  0.17096175125E+03 0.  0.
        -24    2    5    5    0    0  0.51605105369E+02 -0.62434791774E+02  0.30160871392E+03  0.32309276451E+03  0.82824682578E+02 0.  0.
          5    1    3    3  501    0 -0.51539988007E+02  0.67770582681E+02  0.20046871004E+03  0.21785090302E+03  0.47000000000E+01 0. -1.
        -11    1    4    4    0    0  0.13356178249E+02  0.89746470526E+00  0.30754139774E+02  0.33541169531E+02  0.00000000000E+00 0.  1.
         12    1    4    4    0    0 -0.94289992003E+02 -0.35812108125E+02  0.76394271031E+02  0.12652744495E+03  0.00000000000E+00 0. -1.
         -5    1    5    5    0  502  0.80868696393E+02  0.29578852514E+02  0.52192802975E+03  0.52900435992E+03  0.47000000000E+01 0.  1.
         13    1    6    6    0    0  0.29660885655E+02 -0.48435868741E+02  0.28833279284E+03  0.29387344376E+03  0.00000000000E+00 0. -1.
        -14    1    6    6    0    0  0.21944219713E+02 -0.13998923033E+02  0.13275921079E+02  0.29219320755E+02  0.00000000000E+00 0.  1.
</event>
<event>
12    1  0.8488291E-002  0.2525452E+03  0.7818608E-02  0.1111768E+00
         21   -1    0    0  501  502  0.00000000000E+00  0.00000000000E+00  0.12475797190E+04  0.12475797190E+04  0.00000000000E+00 0.  1.
         21   -1    0    0  502  503 -0.00000000000E+00 -0.00000000000E+00 -0.24837322014E+03  0.24837322014E+03  0.00000000000E+00 0.  1.
         -6    2    1    2    0  503  0.87152209092E+02 -0.16272246944E+03 -0.16702025972E+03  0.30277855063E+03  0.17235130969E+03 0.  0.
        -24    2    3    3    0    0 -0.85574451585E+01 -0.24174587504E+02 -0.50107284021E+02  0.97725905210E+02  0.79887246095E+02 0.  0.
          6    2    1    2  501    0 -0.87152209092E+02  0.16272246944E+03  0.11662267585E+04  0.11931743885E+04  0.17177357002E+03 0.  0.
         24    2    5    5    0    0 -0.33110848918E+00  0.16764193522E+02  0.41083473732E+03  0.41891285801E+03  0.80135219504E+02 0.  0.
          5    1    5    5  501    0 -0.86821100603E+02  0.14595827592E+03  0.75539202122E+03  0.77426153045E+03  0.47000000000E+01 0. -1.
        -11    1    6    6    0    0 -0.11747984377E+02  0.11172348615E+02  0.40428892844E+03  0.40461385811E+03  0.00000000000E+00 0.  1.
         12    1    6    6    0    0  0.11416875887E+02  0.55918449078E+01  0.65458088738E+01  0.14298999906E+02  0.00000000000E+00 0. -1.
         -5    1    3    3    0  503  0.95709654250E+02 -0.13854788194E+03 -0.11691297570E+03  0.20505264542E+03  0.47000000000E+01 0.  1.
         13    1    4    4    0    0  0.21492607011E+02  0.14403667527E+02  0.23883913490E+01  0.25982729025E+02  0.00000000000E+00 0. -1.
        -14    1    4    4    0    0 -0.30050052169E+02 -0.38578255031E+02 -0.52495675370E+02  0.71743176185E+02  0.00000000000E+00 0.  1.
</event>
<event>
12    1  0.8488291E-002  0.2621587E+03  0.7818608E-02  0.1106059E+00
         21   -1    0    0  503  502  0.00000000000E+00  0.00000000000E+00  0.11702329964E+03  0.11702329964E+03  0.00000000000E+00 0. -1.
         21   -1    0    0  501  503 -0.00000000000E+00 -0.00000000000E+00 -0.90350377270E+03  0.90350377270E+03  0.00000000000E+00 0. -1.
          6    2    1    2  501    0  0.26707837032E+02 -0.19529208247E+03 -0.69725005811E+03  0.74490593422E+03  0.17284357453E+03 0.  0.
         24    2    3    3    0    0  0.38190588941E+02 -0.99390516584E+02 -0.21458486089E+03  0.25264914499E+03  0.80299016617E+02 0.  0.
         -6    2    1    2    0  502 -0.26707837032E+02  0.19529208247E+03 -0.89230414948E+02  0.27562113813E+03  0.17074143843E+03 0.  0.
        -24    2    5    5    0    0 -0.82583635715E+02  0.11973737381E+03 -0.68412351487E+02  0.17925672226E+03  0.79344987644E+02 0.  0.
          5    1    3    3  501    0 -0.11482751910E+02 -0.95901565890E+02 -0.48266519722E+03  0.49225678923E+03  0.47000000000E+01 0. -1.
        -13    1    4    4    0    0  0.35954868889E+02 -0.56329970849E+01 -0.37459102696E+02  0.52227077534E+02  0.00000000000E+00 0.  1.
         14    1    4    4    0    0  0.22357200524E+01 -0.93757519499E+02 -0.17712575820E+03  0.20042206746E+03  0.00000000000E+00 0. -1.
         -5    1    5    5    0  502  0.55875798683E+02  0.75554708661E+02 -0.20818063461E+02  0.96364415868E+02  0.47000000000E+01 0.  1.
         13    1    6    6    0    0 -0.30637657933E+02  0.10664341958E+03 -0.36035816481E+02  0.11666218365E+03  0.00000000000E+00 0. -1.
        -14    1    6    6    0    0 -0.51945977782E+02  0.13093954229E+02 -0.32376535006E+02  0.62594538612E+02  0.00000000000E+00 0.  1.
</event>
<event>
12    1  0.8488291E-002  0.1924585E+03  0.7818608E-02  0.1156298E+00
         21   -1    0    0  501  502  0.00000000000E+00  0.00000000000E+00  0.20700714098E+03  0.20700714098E+03  0.00000000000E+00 0.  1.
         21   -1    0    0  502  503 -0.00000000000E+00 -0.00000000000E+00 -0.19217237507E+03  0.19217237507E+03  0.00000000000E+00 0.  1.
         -6    2    1    2    0  503 -0.37306936173E+02 -0.77529684115E+02 -0.45265213498E+02  0.19770989232E+03  0.17215575089E+03 0.  0.
        -24    2    3    3    0    0 -0.88933596415E+02 -0.76735594318E+02 -0.72591362456E+00  0.12935945809E+03  0.54183082608E+02 0.  0.
          6    2    1    2  501    0  0.37306936173E+02  0.77529684115E+02  0.60099979406E+02  0.20146962373E+03  0.17197483059E+03 0.  0.
         24    2    5    5    0    0 -0.21454402396E+02  0.84615437237E+02  0.45795696441E+01  0.12018180971E+03  0.82478065734E+02 0.  0.
          5    1    5    5  501    0  0.58761338568E+02 -0.70857531215E+01  0.55520409762E+02  0.81287814018E+02  0.47000000000E+01 0. -1.
        -11    1    6    6    0    0 -0.35843920000E+02  0.23466030183E+01  0.71462109316E+01  0.36624602078E+02  0.00000000000E+00 0.  1.
         12    1    6    6    0    0  0.14389517604E+02  0.82268834219E+02 -0.25666412874E+01  0.83557207637E+02  0.00000000000E+00 0. -1.
         -5    1    3    3    0  503  0.51626660242E+02 -0.79408979771E+00 -0.44539299873E+02  0.68350434231E+02  0.47000000000E+01 0.  1.
         13    1    4    4    0    0 -0.13240041767E+02 -0.29674306231E+02 -0.20017453970E+02  0.38164926565E+02  0.00000000000E+00 0. -1.
        -14    1    4    4    0    0 -0.75693554648E+02 -0.47061288087E+02  0.19291540345E+02  0.91194531528E+02  0.00000000000E+00 0.  1.
</event>
<event>
12    1  0.8488291E-002  0.2226112E+03  0.7818608E-02  0.1132247E+00
         21   -1    0    0  503  502  0.00000000000E+00  0.00000000000E+00  0.16030103724E+04  0.16030103724E+04  0.00000000000E+00 0. -1.
         21   -1    0    0  501  503 -0.00000000000E+00 -0.00000000000E+00 -0.55302428034E+02  0.55302428034E+02  0.00000000000E+00 0. -1.
          6    2    1    2  501    0 -0.13949700310E+03  0.21190625927E+02  0.21916807861E+03  0.31125157932E+03  0.17010127115E+03 0.  0.
         24    2    3    3    0    0 -0.23388475323E+02  0.13048501024E+02  0.27069961431E+02  0.86593481217E+02  0.77771228745E+02 0.  0.
         -6    2    1    2    0  502  0.13949700310E+03 -0.21190625927E+02  0.13285398658E+04  0.13470612212E+04  0.17218391917E+03 0.  0.
        -24    2    5    5    0    0  0.62763016447E+02 -0.42431173489E+02  0.39571703485E+03  0.41083486524E+03  0.80335011728E+02 0.  0.
          5    1    3    3  501    0 -0.11610852778E+03  0.81421249031E+01  0.19209811718E+03  0.22465809810E+03  0.47000000000E+01 0. -1.
        -13    1    4    4    0    0  0.27639860124E+01 -0.13209237395E+02  0.43873547496E+02  0.45902197563E+02  0.00000000000E+00 0.  1.
         14    1    4    4    0    0 -0.26152461335E+02  0.26257738419E+02 -0.16803586065E+02  0.40691283654E+02  0.00000000000E+00 0. -1.
         -5    1    5    5    0  502  0.76733986652E+02  0.21240547562E+02  0.93282283095E+03  0.93622635592E+03  0.47000000000E+01 0.  1.
         13    1    6    6    0    0  0.61902693938E+02  0.56987513739E+01  0.23251127861E+03  0.24067802967E+03  0.00000000000E+00 0. -1.
        -14    1    6    6    0    0  0.86032250898E+00 -0.48129924862E+02  0.16320575624E+03  0.17015683557E+03  0.00000000000E+00 0.  1.
</event>
<event>
12    1  0.8488291E-002  0.2006662E+03  0.7818608E-02  0.1149277E+00
         21   -1    0    0  501  502  0.00000000000E+00  0.00000000000E+00  0.43834728135E+03  0.43834728135E+03  0.00000000000E+00 0.  1.
         21   -1    0    0  502  503 -0.00000000000E+00 -0.00000000000E+00 -0.11177939810E+03  0.11177939810E+03  0.00000000000E+00 0.  1.
         -6    2    1    2    0  503  0.31795602559E+02  0.98329106358E+02  0.27986561323E+03  0.34409752118E+03  0.17146069262E+03 0.  0.
        -24    2    3    3    0    0  0.57788498993E+01  0.12775987858E+03  0.25781463785E+03  0.29880538844E+03  0.80375935382E+02 0.  0.
          6    2    1    2  501    0 -0.31795602559E+02 -0.98329106358E+02  0.46702270024E+02  0.20602915828E+03  0.17200970477E+03 0.  0.
         24    2    5    5    0    0  0.11711813512E+02 -0.97922980590E+01 -0.11053881609E+02  0.91619697444E+02  0.89660052331E+02 0.  0.
          5    1    5    5  501    0 -0.43507416071E+02 -0.88536808299E+02  0.57756151632E+02  0.11440946083E+03  0.47000000000E+01 0. -1.
        -11    1    6    6    0    0  0.11180465373E+02 -0.49158939972E+02  0.10678392684E+01  0.50425633024E+02  0.00000000000E+00 0.  1.
         12    1    6    6    0    0  0.53134813874E+00  0.39366641913E+02 -0.12121720877E+02  0.41194064420E+02  0.00000000000E+00 0. -1.
         -5    1    3    3    0  503  0.26016752659E+02 -0.29430772226E+02  0.22050975374E+02  0.45292132735E+02  0.47000000000E+01 0.  1.
         13    1    4    4    0    0  0.35255477836E+02  0.24906792990E+02  0.60071564964E+02  0.73972224326E+02  0.00000000000E+00 0. -1.
        -14    1    4    4    0    0 -0.29476627937E+02  0.10285308559E+03  0.19774307289E+03  0.22483316412E+03  0.00000000000E+00 0.  1.
</event>
<event>
12    1  0.8488291E-002  0.2124525E+03  0.7818608E-02  0.1139780E+00
         21   -1    0    0  503  502  0.00000000000E+00  0.00000000000E+00  0.26743629240E+03  0.26743629240E+03  0.00000000000E+00 0. -1.
         21   -1    0    0  501  503 -0.00000000000E+00 -0.00000000000E+00 -0.19155403816E+03  0.19155403816E+03  0.00000000000E+00 0.  1.
          6    2    1    2  501    0  0.35604885120E+01 -0.12433902462E+03  0.11802307816E+03  0.24239870565E+03  0.17133247037E+03 0.  0.
         24    2    3    3    0    0 -0.51165317005E+02 -0.12214020692E+03  0.10075541470E+03  0.18477917086E+03  0.80346553012E+02 0.  0.
         -6    2    1    2    0  502 -0.35604885120E+01  0.12433902462E+03 -0.42140823924E+02  0.21659162491E+03  0.17223011588E+03 0.  0.
        -24    2    5    5    0    0  0.38830244611E+02  0.31376512325E+02  0.15684053651E+02  0.99097755222E+02  0.84155226390E+02 0.  0.
          5    1    3    3  501    0  0.54725805517E+02 -0.21988177033E+01  0.17267663454E+02  0.57619534795E+02  0.47000000000E+01 0. -1.
        -13    1    4    4    0    0 -0.64506835478E+02 -0.61827001620E+02  0.79065002053E+02  0.11931045429E+03  0.00000000000E+00 0.  1.
         14    1    4    4    0    0  0.13341518472E+02 -0.60313205299E+02  0.21690412651E+02  0.65468716572E+02  0.00000000000E+00 0. -1.
         -5    1    5    5    0  502 -0.42390733123E+02  0.92962512297E+02 -0.57824877575E+02  0.11749386969E+03  0.47000000000E+01 0.  1.
         13    1    6    6    0    0 -0.14458225245E+02 -0.13920310851E+02  0.20885216303E+02  0.28965627759E+02  0.00000000000E+00 0. -1.
        -14    1    6    6    0    0  0.53288469856E+02  0.45296823177E+02 -0.52011626521E+01  0.70132127463E+02  0.00000000000E+00 0.  1.
</event>
<event>
12    1  0.8488291E-002  0.2033123E+03  0.7818608E-02  0.1147184E+00
         21   -1    0    0  503  502  0.00000000000E+00  0.00000000000E+00  0.19283272072E+03  0.19283272072E+03  0.00000000000E+00 0. -1.
         21   -1    0    0  501  503 -0.00000000000E+00 -0.00000000000E+00 -0.38664046605E+03  0.38664046605E+03  0.00000000000E+00 0. -1.
          6    2    1    2  501    0  0.67828782751E+02 -0.81396322613E+02 -0.29103914271E+03  0.35502068077E+03  0.17352174527E+03 0.  0.
         24    2    3    3    0    0  0.10301416307E+03 -0.21695302575E+02 -0.18530723834E+03  0.22851554892E+03  0.82449860954E+02 0.  0.
         -6    2    1    2    0  502 -0.67828782751E+02  0.81396322613E+02  0.97231397373E+02  0.22445250600E+03  0.17233362328E+03 0.  0.
        -24    2    5    5    0    0 -0.47117152207E+02  0.85132136601E+01  0.11359627329E+03  0.14679416212E+03  0.79698882616E+02 0.  0.
          5    1    3    3  501    0 -0.35185380320E+02 -0.59701020037E+02 -0.10573190436E+03  0.12650513184E+03  0.47000000000E+01 0. -1.
        -13    1    4    4    0    0  0.20726257451E+02  0.14375293192E+01 -0.11773714260E+03  0.11955617502E+03  0.00000000000E+00 0.  1.
         14    1    4    4    0    0  0.82287905620E+02 -0.23132831895E+02 -0.67570095746E+02  0.10895937391E+03  0.00000000000E+00 0. -1.
         -5    1    5    5    0  502 -0.20711630545E+02  0.72883108953E+02 -0.16364875913E+02  0.77658343879E+02  0.47000000000E+01 0.  1.
         11    1    6    6    0    0  0.59833829761E+01  0.18397749201E+02 -0.17527783321E+01  0.19425505898E+02  0.00000000000E+00 0. -1.
        -12    1    6    6    0    0 -0.53100535183E+02 -0.98845355410E+01  0.11534905162E+03  0.12736865623E+03  0.00000000000E+00 0.  1.
</event>
<event>
12    1  0.8488291E-002  0.2077889E+03  0.7818608E-02  0.1143457E+00
         21   -1    0    0  503  502  0.00000000000E+00  0.00000000000E+00  0.10872937523E+03  0.10872937523E+03  0.00000000000E+00 0.  1.
         21   -1    0    0  501  503 -0.00000000000E+00 -0.00000000000E+00 -0.95066348768E+03  0.95066348768E+03  0.00000000000E+00 0.  1.
          6    2    1    2  501    0 -0.99604045556E+02 -0.36755387343E+02 -0.82588402788E+03  0.85162237786E+03  0.17861781148E+03 0.  0.
         24    2    3    3    0    0 -0.97945272872E+02 -0.26301540145E+02 -0.82956909192E+03  0.83946901845E+03  0.78982954958E+02 0.  0.
         -6    2    1    2    0  502  0.99604045556E+02  0.36755387343E+02 -0.16050084577E+02  0.20777048505E+03  0.17787367667E+03 0.  0.
        -24    2    5    5    0    0  0.75960005024E+02  0.77613574865E+02 -0.55205957684E+02  0.14625866066E+03  0.80932741760E+02 0.  0.
          5    1    3    3  501    0 -0.16587726840E+01 -0.10453847198E+02  0.36850640389E+01  0.12153359413E+02  0.47000000000E+01 0. -1.
        -13    1    4    4    0    0 -0.29250666318E+02 -0.30999882535E+02 -0.54596287212E+03  0.54762400598E+03  0.00000000000E+00 0.  1.
         14    1    4    4    0    0 -0.68694606554E+02  0.46983423903E+01 -0.28360621981E+03  0.29184501247E+03  0.00000000000E+00 0. -1.
         -5    1    5    5    0  502  0.23644040532E+02 -0.40858187522E+02  0.39155873108E+02  0.61511824384E+02  0.47000000000E+01 0.  1.
         11    1    6    6    0    0  0.84295471196E+01 -0.11854774570E+02 -0.27002889047E+02  0.30671631219E+02  0.00000000000E+00 0. -1.
        -12    1    6    6    0    0  0.67530457905E+02  0.89468349435E+02 -0.28203068638E+02  0.11558702945E+03  0.00000000000E+00 0.  1.
</event>
<event>
12    1  0.8488291E-002  0.1816706E+03  0.7818608E-02  0.1166914E+00
         21   -1    0    0  501  502  0.00000000000E+00  0.00000000000E+00  0.76806099932E+02  0.76806099932E+02  0.00000000000E+00 0.  1.
         21   -1    0    0  502  503 -0.00000000000E+00 -0.00000000000E+00 -0.97974447908E+03  0.97974447908E+03  0.00000000000E+00 0.  1.
         -6    2    1    2    0  503  0.51436152317E+02  0.20408104633E+02 -0.85141215473E+03  0.87057846178E+03  0.17303766177E+03 0.  0.
        -24    2    3    3    0    0  0.66217793984E+02  0.72140962755E+02 -0.56970781231E+03  0.58374364507E+03  0.81243689000E+02 0.  0.
          6    2    1    2  501    0 -0.51436152317E+02 -0.20408104633E+02 -0.51526224421E+02  0.18597211724E+03  0.16990735148E+03 0.  0.
         24    2    5    5    0    0 -0.54296070016E+02 -0.63565220660E+02  0.67665882261E+01  0.11323383433E+03  0.76075712452E+02 0.  0.
          5    1    5    5  501    0  0.28599176992E+01  0.43157116028E+02 -0.58292812647E+02  0.72738282901E+02  0.47000000000E+01 0. -1.
        -13    1    6    6    0    0 -0.92205848858E+01 -0.17077074828E+02  0.36992043667E+02  0.41773878980E+02  0.00000000000E+00 0.  1.
         14    1    6    6    0    0 -0.45075485130E+02 -0.46488145833E+02 -0.30225455441E+02  0.71459955355E+02  0.00000000000E+00 0. -1.
         -5    1    3    3    0  503 -0.14781641668E+02 -0.51732858122E+02 -0.28170434242E+03  0.28683481671E+03  0.47000000000E+01 0.  1.
         11    1    4    4    0    0 -0.10867568441E+02  0.20737491979E+02 -0.24380042638E+03  0.24492201927E+03  0.00000000000E+00 0. -1.
        -12    1    4    4    0    0  0.77085362426E+02  0.51403470776E+02 -0.32590738592E+03  0.33882162580E+03  0.00000000000E+00 0.  1.
</event>
<event>
12    1  0.8488291E-002  0.3278485E+03  0.7818608E-02  0.1072144E+00
         21   -1    0    0  501  502  0.00000000000E+00  0.00000000000E+00  0.21983010086E+03  0.21983010086E+03  0.00000000000E+00 0. -1.
         21   -1    0    0  502  503 -0.00000000000E+00 -0.00000000000E+00 -0.76957388482E+03  0.76957388482E+03  0.00000000000E+00 0. -1.
         -6    2    1    2    0  503 -0.21514316474E+03 -0.17838211303E+03 -0.57409437301E+03  0.66111192207E+03  0.17139972227E+03 0.  0.
        -24    2    3    3    0    0 -0.20442252703E+03 -0.89395788722E+02 -0.44194328948E+03  0.50136369245E+03  0.79192830451E+02 0.  0.
          6    2    1    2  501    0  0.21514316474E+03  0.17838211303E+03  0.24350589057E+02  0.32829206361E+03  0.17051676827E+03 0.  0.
         24    2    5    5    0    0  0.97854498527E+02  0.17054850675E+02  0.22214067107E+01  0.12755614876E+03  0.79995410027E+02 0.  0.
          5    1    5    5  501    0  0.11728866621E+03  0.16132726235E+03  0.22129182347E+02  0.20073591485E+03  0.47000000000E+01 0. -1.
        -13    1    6    6    0    0  0.31876978793E+02  0.74468811783E+01 -0.37633685393E+02  0.49878773968E+02  0.00000000000E+00 0.  1.
         14    1    6    6    0    0  0.65977519734E+02  0.96079694969E+01  0.39855092104E+02  0.77677374793E+02  0.00000000000E+00 0. -1.
         -5    1    3    3    0  503 -0.10720637700E+02 -0.88986324303E+02 -0.13215108354E+03  0.15974822962E+03  0.47000000000E+01 0.  1.
         11    1    4    4    0    0 -0.12723034843E+03 -0.85752435032E+02 -0.34352156117E+03  0.37622879297E+03  0.00000000000E+00 0. -1.
        -12    1    4    4    0    0 -0.77192178606E+02 -0.36433536906E+01 -0.98421728307E+02  0.12513489948E+03  0.00000000000E+00 0.  1.
</event>
<event>
12    1  0.8488291E-002  0.2596754E+03  0.7818608E-02  0.1108539E+00
         21   -1    0    0  501  502  0.00000000000E+00  0.00000000000E+00  0.44684330226E+03  0.44684330226E+03  0.00000000000E+00 0. -1.
         21   -1    0    0  502  503 -0.00000000000E+00 -0.00000000000E+00 -0.21797166566E+03  0.21797166566E+03  0.00000000000E+00 0.  1.
         -6    2    1    2    0  503  0.18159399833E+03 -0.32466823497E+02 -0.77231916062E+02  0.26340406472E+03  0.17142478700E+03 0.  0.
        -24    2    3    3    0    0  0.47868994872E+02 -0.64052743104E+02 -0.49974622087E+02  0.12324309676E+03  0.79354920933E+02 0.  0.
          6    2    1    2  501    0 -0.18159399833E+03  0.32466823497E+02  0.30610355266E+03  0.40141090319E+03  0.18275900359E+03 0.  0.
         24    2    5    5    0    0 -0.13200192742E+03  0.90051934892E+02  0.17905827780E+03  0.25329604771E+03  0.81013339110E+02 0.  0.
          5    1    5    5  501    0 -0.49592070908E+02 -0.57585111395E+02  0.12704527486E+03  0.14811485549E+03  0.47000000000E+01 0. -1.
        -13    1    6    6    0    0 -0.24042697712E+02  0.60794721684E+02  0.84443363161E+02  0.10679293553E+03  0.00000000000E+00 0.  1.
         14    1    6    6    0    0 -0.10795922971E+03  0.29257213208E+02  0.94614914641E+02  0.14650311217E+03  0.00000000000E+00 0. -1.
         -5    1    3    3    0  503  0.13372500345E+03  0.31585919607E+02 -0.27257293976E+02  0.14016096797E+03  0.47000000000E+01 0.  1.
         11    1    4    4    0    0  0.28864491947E+02  0.92044161176E+01  0.36113509500E+01  0.30511014849E+02  0.00000000000E+00 0. -1.
        -12    1    4    4    0    0  0.19004502925E+02 -0.73257159222E+02 -0.53585973037E+02  0.92732081908E+02  0.00000000000E+00 0.  1.
</event>
<event>
12    1  0.8488291E-002  0.2797608E+03  0.7818608E-02  0.1097363E+00
         21   -1    0    0  503  502  0.00000000000E+00  0.00000000000E+00  0.25096619221E+03  0.25096619221E+03  0.00000000000E+00 0. -1.
         21   -1    0    0  501  503 -0.00000000000E+00 -0.00000000000E+00 -0.42800578253E+03  0.42800578253E+03  0.00000000000E+00 0.  1.
          6    2    1    2  501    0  0.45715782657E+01 -0.20788973083E+03  0.96105772784E+02  0.29580810864E+03  0.18715522452E+03 0.  0.
         24    2    3    3    0    0 -0.31992501305E+01 -0.12854040749E+03 -0.21312828198E+02  0.15380135266E+03  0.81656278843E+02 0.  0.
         -6    2    1    2    0  502 -0.45715782657E+01  0.20788973083E+03 -0.27314536311E+03  0.38316386609E+03  0.17019729546E+03 0.  0.
        -24    2    5    5    0    0 -0.38448799760E+02  0.75966504357E+02 -0.74561469044E+02  0.14231317209E+03  0.86280972978E+02 0.  0.
          5    1    3    3  501    0  0.77708283961E+01 -0.79349323338E+02  0.11741860098E+03  0.14200675598E+03  0.47000000000E+01 0. -1.
        -13    1    4    4    0    0 -0.32160762683E+02 -0.50953301628E+02 -0.35269154842E+02  0.69817382409E+02  0.00000000000E+00 0.  1.
         14    1    4    4    0    0  0.28961512552E+02 -0.77587105864E+02  0.13956326645E+02  0.83983970250E+02  0.00000000000E+00 0. -1.
         -5    1    5    5    0  502  0.33877221495E+02  0.13192322647E+03 -0.19858389406E+03  0.24085069400E+03  0.47000000000E+01 0.  1.
         11    1    6    6    0    0 -0.62817196421E+02  0.68032587073E+02 -0.44274034877E+02  0.10263831270E+03  0.00000000000E+00 0. -1.
        -12    1    6    6    0    0  0.24368396661E+02  0.79339172839E+01 -0.30287434167E+02  0.39674859391E+02  0.00000000000E+00 0.  1.
</event>
<event>
12    1  0.8488291E-002  0.1874073E+03  0.7818608E-02  0.1160913E+00
         21   -1    0    0  503  502  0.00000000000E+00  0.00000000000E+00  0.38678897572E+03  0.38678897572E+03  0.00000000000E+00 0.  1.
         21   -1    0    0  501  503 -0.00000000000E+00 -0.00000000000E+00 -0.92134935982E+02  0.92134935982E+02  0.00000000000E+00 0.  1.
          6    2    1    2  501    0  0.65600060451E+02  0.38838510330E+02  0.17830157082E+03  0.25867538144E+03  0.17120077391E+03 0.  0.
         24    2    3    3    0    0  0.65150113693E+02  0.87908194769E+02  0.14460671643E+03  0.19896382816E+03  0.81872550074E+02 0.  0.
         -6    2    1    2    0  502 -0.65600060451E+02 -0.38838510330E+02  0.11635246892E+03  0.22024853026E+03  0.17076217451E+03 0.  0.
        -24    2    5    5    0    0 -0.46369839473E+02 -0.89975277429E+02  0.63296270702E+02  0.14394767498E+03  0.80428867242E+02 0.  0.
          5    1    3    3  501    0  0.44994675718E+00 -0.49069684439E+02  0.33694854390E+02  0.59711553282E+02  0.47000000000E+01 0. -1.
        -13    1    4    4    0    0  0.24903493368E+02  0.36367841177E+02  0.12209051842E+03  0.12980330713E+03  0.00000000000E+00 0.  1.
         14    1    4    4    0    0  0.40246620325E+02  0.51540353592E+02  0.22516198015E+02  0.69160521029E+02  0.00000000000E+00 0. -1.
         -5    1    5    5    0  502 -0.19230220978E+02  0.51136767098E+02  0.53056198215E+02  0.76300855284E+02  0.47000000000E+01 0.  1.
         11    1    6    6    0    0 -0.27736180020E+01 -0.76827579100E+02  0.16451274348E+02  0.78618154995E+02  0.00000000000E+00 0. -1.
        -12    1    6    6    0    0 -0.43596221471E+02 -0.13147698329E+02  0.46844996354E+02  0.65329519983E+02  0.00000000000E+00 0.  1.
</event>
<event>
12    1  0.8488291E-002  0.2201464E+03  0.7818608E-02  0.1133801E+00
         21   -1    0    0  503  502  0.00000000000E+00  0.00000000000E+00  0.11985840459E+03  0.11985840459E+03  0.00000000000E+00 0. -1.
         21   -1    0    0  501  503 -0.00000000000E+00 -0.00000000000E+00 -0.44594264069E+03  0.44594264069E+03  0.00000000000E+00 0. -1.
          6    2    1    2  501    0  0.12465759786E+03 -0.57174920647E+02 -0.24967121883E+03  0.33277017169E+03  0.17202261886E+03 0.  0.
         24    2    3    3    0    0  0.71253826662E+01 -0.63260247605E+02 -0.14499384415E+03  0.17519385500E+03  0.74946927778E+02 0.  0.
         -6    2    1    2    0  502 -0.12465759786E+03  0.57174920647E+02 -0.76413017264E+02  0.23303087358E+03  0.17220903165E+03 0.  0.
        -24    2    5    5    0    0 -0.49584811442E+02  0.28858416638E+02  0.27713584313E+02  0.10149309644E+03  0.79002178028E+02 0.  0.
          5    1    3    3  501    0  0.11753221519E+03  0.60853269577E+01 -0.10467737469E+03  0.15757631670E+03  0.47000000000E+01 0. -1.
        -13    1    4    4    0    0  0.55419626363E+00  0.17211647824E+02 -0.31673680757E+02  0.36052323184E+02  0.00000000000E+00 0.  1.
         14    1    4    4    0    0  0.65711864025E+01 -0.80471895429E+02 -0.11332016339E+03  0.13914153181E+03  0.00000000000E+00 0. -1.
         -5    1    5    5    0  502 -0.75072786417E+02  0.28316504009E+02 -0.10412660158E+03  0.13153777714E+03  0.47000000000E+01 0.  1.
         13    1    6    6    0    0  0.32727299151E+01  0.42751726730E+02  0.14537823537E+02  0.45274377000E+02  0.00000000000E+00 0. -1.
        -14    1    6    6    0    0 -0.52857541357E+02 -0.13893310092E+02  0.13175760776E+02  0.56218719442E+02  0.00000000000E+00 0.  1.
</event>
<event>
12    1  0.8488291E-002  0.1933503E+03  0.7818608E-02  0.1157483E+00
         21   -1    0    0  503  502  0.00000000000E+00  0.00000000000E+00  0.13916137544E+03  0.13916137544E+03  0.00000000000E+00 0.  1.
         21   -1    0    0  501  503 -0.00000000000E+00 -0.00000000000E+00 -0.49289233309E+03  0.49289233309E+03  0.00000000000E+00 0.  1.
          6    2    1    2  501    0  0.10495405338E+02 -0.65789702545E+02 -0.39788818563E+03  0.44237919273E+03  0.18151006418E+03 0.  0.
         24    2    3    3    0    0  0.13630561162E+02  0.37747174992E+02 -0.19474177621E+03  0.21429967179E+03  0.79933400454E+02 0.  0.
         -6    2    1    2    0  502 -0.10495405338E+02  0.65789702545E+02  0.44157227982E+02  0.18967451580E+03  0.17201198408E+03 0.  0.
        -24    2    5    5    0    0  0.21755025802E+02  0.47351576498E+02 -0.34134288091E+02  0.10288911213E+03  0.81887525466E+02 0.  0.
          5    1    3    3  501    0 -0.31351558247E+01 -0.10353687754E+03 -0.20314640942E+03  0.22807952094E+03  0.47000000000E+01 0. -1.
        -13    1    4    4    0    0  0.29674700951E+01  0.19148905491E+02 -0.19166470152E+03  0.19264175110E+03  0.00000000000E+00 0.  1.
         14    1    4    4    0    0  0.10663091067E+02  0.18598269501E+02 -0.30770746914E+01  0.21657920680E+02  0.00000000000E+00 0. -1.
         -5    1    5    5    0  502 -0.32250431139E+02  0.18438126047E+02  0.78291516073E+02  0.86785403668E+02  0.47000000000E+01 0.  1.
         13    1    6    6    0    0  0.46304410558E+02  0.35948792529E+02  0.88547265102E+00  0.58627623039E+02  0.00000000000E+00 0. -1.
        -14    1    6    6    0    0 -0.24549384756E+02  0.11402783969E+02 -0.35019760742E+02  0.44261489091E+02  0.00000000000E+00 0.  1.
</event>
<event>
12    1  0.8488291E-002  0.3850957E+03  0.7818608E-02  0.1049070E+00
         21   -1    0    0  503  502  0.00000000000E+00  0.00000000000E+00  0.20757546410E+03  0.20757546410E+03  0.00000000000E+00 0. -1.
         21   -1    0    0  501  503 -0.00000000000E+00 -0.00000000000E+00 -0.96597998324E+03  0.96597998324E+03  0.00000000000E+00 0.  1.
          6    2    1    2  501    0 -0.23613445907E+03 -0.25127062905E+03 -0.67866466132E+03  0.78029074260E+03  0.17138117949E+03 0.  0.
         24    2    3    3    0    0 -0.23361524921E+03 -0.24303765900E+03 -0.68560179298E+03  0.76827650064E+03  0.80966502607E+02 0.  0.
         -6    2    1    2    0  502  0.23613445907E+03  0.25127062905E+03 -0.79739857825E+02  0.39326470474E+03  0.17147090506E+03 0.  0.
        -24    2    5    5    0    0  0.17134451460E+03  0.24513838554E+03 -0.99208643474E+02  0.32517311252E+03  0.80270962479E+02 0.  0.
          5    1    3    3  501    0 -0.25192098653E+01 -0.82329700429E+01  0.69371316639E+01  0.12014241957E+02  0.47000000000E+01 0. -1.
        -11    1    4    4    0    0 -0.10924552492E+03 -0.75014188357E+02 -0.20403157172E+03  0.24329117417E+03  0.00000000000E+00 0.  1.
         12    1    4    4    0    0 -0.12436972429E+03 -0.16802347065E+03 -0.48157022126E+03  0.52498532647E+03  0.00000000000E+00 0. -1.
         -5    1    5    5    0  502  0.64789944478E+02  0.61322435011E+01  0.19468785649E+02  0.68091592216E+02  0.47000000000E+01 0.  1.
         13    1    6    6    0    0  0.12477521190E+02  0.62049180403E+02 -0.10436879007E+00  0.63291391331E+02  0.00000000000E+00 0. -1.
        -14    1    6    6    0    0  0.15886699341E+03  0.18308920514E+03 -0.99104274684E+02  0.26188172119E+03  0.00000000000E+00 0.  1.
</event>
<event>
12    1  0.8488291E-002  0.2288453E+03  0.7818608E-02  0.1127963E+00
         21   -1    0    0  503  502  0.00000000000E+00  0.00000000000E+00  0.35573904065E+02  0.35573904065E+02  0.00000000000E+00 0. -1.
         21   -1    0    0  501  503 -0.00000000000E+00 -0.00000000000E+00 -0.18737604357E+04  0.18737604357E+04  0.00000000000E+00 0. -1.
          6    2    1    2  501    0 -0.15066842061E+03  0.96218654568E+01 -0.13665287694E+04  0.13850908783E+04  0.16817345260E+03 0.  0.
         24    2    3    3    0    0 -0.13531505982E+02  0.25048738096E+02 -0.39865401133E+03  0.40741600434E+03  0.79071100385E+02 0.  0.
         -6    2    1    2    0  502  0.15066842061E+03 -0.96218654568E+01 -0.47165776219E+03  0.52424346147E+03  0.17197851317E+03 0.  0.
        -24    2    5    5    0    0  0.50726832028E+02  0.52074639158E+02 -0.26703055532E+03  0.28825794580E+03  0.80637127398E+02 0.  0.
          5    1    3    3  501    0 -0.13713691463E+03 -0.15426872639E+02 -0.96787475811E+03  0.97767487394E+03  0.47000000000E+01 0. -1.
        -13    1    4    4    0    0  0.13498828467E+02  0.39978647594E+02 -0.32235709137E+03  0.32510706697E+03  0.00000000000E+00 0.  1.
         14    1    4    4    0    0 -0.27030334449E+02 -0.14929909498E+02 -0.76296919951E+02  0.82308937376E+02  0.00000000000E+00 0. -1.
         -5    1    5    5    0  502  0.99941588585E+02 -0.61696504614E+02 -0.20462720687E+03  0.23598551566E+03  0.47000000000E+01 0.  1.
         13    1    6    6    0    0  0.67817878423E+02  0.18044117652E+02 -0.16246037569E+03  0.17696956938E+03  0.00000000000E+00 0. -1.
        -14    1    6    6    0    0 -0.17091046395E+02  0.34030521505E+02 -0.10457017962E+03  0.11128837642E+03  0.00000000000E+00 0.  1.
</event>
<event>
12    1  0.8488291E-002  0.1746492E+03  0.7818608E-02  0.1173116E+00
         21   -1    0    0  503  502  0.00000000000E+00  0.00000000000E+00  0.50580087754E+03  0.50580087754E+03  0.00000000000E+00 0. -1.
         21   -1    0    0  501  503 -0.00000000000E+00 -0.00000000000E+00 -0.80788815626E+02  0.80788815626E+02  0.00000000000E+00 0. -1.
          6    2    1    2  501    0  0.22863640672E+02  0.18033575869E+02  0.64724064611E+02  0.18625668719E+03  0.17220450941E+03 0.  0.
         24    2    3    3    0    0  0.20058162007E+02 -0.53364936316E+02  0.49449249154E+02  0.11303764431E+03  0.84155418714E+02 0.  0.
         -6    2    1    2    0  502 -0.22863640672E+02 -0.18033575869E+02  0.36028799731E+03  0.40033300598E+03  0.17207881552E+03 0.  0.
        -24    2    5    5    0    0 -0.77359086678E+02 -0.16454352501E+02  0.20017814567E+03  0.23113045820E+03  0.84230782370E+02 0.  0.
          5    1    3    3  501    0  0.28054786644E+01  0.71398512184E+02  0.15274815457E+02  0.73219042878E+02  0.47000000000E+01 0. -1.
        -13    1    4    4    0    0 -0.15249105320E+02  0.64698838696E+01  0.39526739551E+02  0.42857411843E+02  0.00000000000E+00 0.  1.
         14    1    4    4    0    0  0.35307267328E+02 -0.59834820185E+02  0.99225096025E+01  0.70180232470E+02  0.00000000000E+00 0. -1.
         -5    1    5    5    0  502  0.54495446006E+02 -0.15792233680E+01  0.16010985164E+03  0.16920254778E+03  0.47000000000E+01 0.  1.
         13    1    6    6    0    0 -0.78829870612E+02 -0.41304247331E+02  0.13861581174E+03  0.16472562828E+03  0.00000000000E+00 0. -1.
        -14    1    6    6    0    0  0.14707839339E+01  0.24849894830E+02  0.61562333927E+02  0.66404829922E+02  0.00000000000E+00 0.  1.
</event>
<event>
12    1  0.8488291E-002  0.2332434E+03  0.7818608E-02  0.1124457E+00
         21   -1    0    0  503  502  0.00000000000E+00  0.00000000000E+00  0.14383456309E+03  0.14383456309E+03  0.00000000000E+00 0.  1.
         21   -1    0    0  501  503 -0.00000000000E+00 -0.00000000000E+00 -0.53322047369E+03  0.53322047369E+03  0.00000000000E+00 0.  1.
          6    2    1    2  501    0  0.12938029272E+02  0.15368820510E+03 -0.37777987937E+03  0.44398210021E+03  0.17497145786E+03 0.  0.
         24    2    3    3    0    0 -0.47078875909E+02  0.14522064180E+03 -0.27520462567E+03  0.32474493651E+03  0.80101388493E+02 0.  0.
         -6    2    1    2    0  502 -0.12938029272E+02 -0.15368820510E+03 -0.11606031233E+02  0.23307293657E+03  0.17435835745E+03 0.  0.
        -24    2    5    5    0    0 -0.73333293240E+02 -0.98233969765E+02  0.21732158574E+02  0.14443724948E+03  0.73226686450E+02 0.  0.
          5    1    3    3  501    0  0.60016905182E+02  0.84675632986E+01 -0.10257525370E+03  0.11923716370E+03  0.47000000000E+01 0. -1.
        -11    1    4    4    0    0 -0.23378065156E+01  0.11612832744E+03 -0.15935063822E+03  0.19718995835E+03  0.00000000000E+00 0.  1.
         12    1    4    4    0    0 -0.44741069394E+02  0.29092314355E+02 -0.11585398745E+03  0.12755497816E+03  0.00000000000E+00 0. -1.
         -5    1    5    5    0  502  0.60395263967E+02 -0.55454235331E+02 -0.33338189807E+02  0.88635687087E+02  0.47000000000E+01 0.  1.
         13    1    6    6    0    0 -0.65710912114E+02 -0.39825238473E+02 -0.10073583327E+02  0.77494842870E+02  0.00000000000E+00 0. -1.
        -14    1    6    6    0    0 -0.76223811252E+01 -0.58408731292E+02  0.31805741901E+02  0.66942406612E+02  0.00000000000E+00 0.  1.
</event>
<event>
12    1  0.8488291E-002  0.1817525E+03  0.7818608E-02  0.1167482E+00
         21   -1    0    0  501  502  0.00000000000E+00  0.00000000000E+00  0.26223078103E+03  0.26223078103E+03  0.00000000000E+00 0.  1.
         21   -1    0    0  502  503 -0.00000000000E+00 -0.00000000000E+00 -0.14394906340E+03  0.14394906340E+03  0.00000000000E+00 0.  1.
         -6    2    1    2    0  503 -0.34374696289E+02  0.14050292063E+02 -0.19168135466E+02  0.18276047558E+03  0.17791836208E+03 0.  0.
        -24    2    3    3    0    0  0.46785503391E+02 -0.24239994940E+01  0.13190379017E+02  0.93723720511E+02  0.80096133407E+02 0.  0.
          6    2    1    2  501    0  0.34374696289E+02 -0.14050292063E+02  0.13744985309E+03  0.22341936885E+03  0.17217642641E+03 0.  0.
         24    2    5    5    0    0  0.82579423311E+02  0.15853962644E+02  0.96597357568E+02  0.15335527999E+03  0.84356879545E+02 0.  0.
          5    1    5    5  501    0 -0.48204727021E+02 -0.29904254707E+02  0.40852495521E+02  0.70064088855E+02  0.47000000000E+01 0. -1.
        -11    1    6    6    0    0  0.24579691225E+01 -0.27771334769E+02  0.22543673633E+02  0.35853951915E+02  0.00000000000E+00 0.  1.
         12    1    6    6    0    0  0.80121454188E+02  0.43625297413E+02  0.74053683934E+02  0.11750132808E+03  0.00000000000E+00 0. -1.
         -5    1    3    3    0  503 -0.81160199681E+02  0.16474291557E+02 -0.32358514483E+02  0.89036755074E+02  0.47000000000E+01 0.  1.
         11    1    4    4    0    0  0.25308648446E+02  0.35819531233E+02  0.21874618319E+02  0.49010870534E+02  0.00000000000E+00 0. -1.
        -12    1    4    4    0    0  0.21476854945E+02 -0.38243530727E+02 -0.86842393022E+01  0.44712849977E+02  0.00000000000E+00 0.  1.
</event>
<event>
12    1  0.8488291E-002  0.2318995E+03  0.7818608E-02  0.1125342E+00
         21   -1    0    0  501  502  0.00000000000E+00  0.00000000000E+00  0.11888829704E+04  0.11888829704E+04  0.00000000000E+00 0. -1.
         21   -1    0    0  502  503 -0.00000000000E+00 -0.00000000000E+00 -0.45317439118E+02  0.45317439118E+02  0.00000000000E+00 0.  1.
         -6    2    1    2    0  503  0.14564449668E+03  0.55992145803E+02  0.54024269580E+03  0.58791115837E+03  0.17155150821E+03 0.  0.
        -24    2    3    3    0    0  0.28363796460E+02  0.58438449969E+02  0.34716777840E+03  0.36194487598E+03  0.79114281315E+02 0.  0.
          6    2    1    2  501    0 -0.14564449668E+03 -0.55992145803E+02  0.60332283545E+03  0.64628925111E+03  0.17130064952E+03 0.  0.
         24    2    5    5    0    0 -0.17374445504E+03 -0.29824526532E+02  0.50408556308E+03  0.53977879067E+03  0.78627284724E+02 0.  0.
          5    1    5    5  501    0  0.28099958360E+02 -0.26167619271E+02  0.99237272366E+02  0.10651046045E+03  0.47000000000E+01 0. -1.
        -13    1    6    6    0    0 -0.12882598194E+02  0.20712842654E+02  0.66307221365E+02  0.70651474098E+02  0.00000000000E+00 0.  1.
         14    1    6    6    0    0 -0.16086185684E+03 -0.50537369186E+02  0.43777834172E+03  0.46912731657E+03  0.00000000000E+00 0. -1.
         -5    1    3    3    0  503  0.11728070022E+03 -0.24463041659E+01  0.19307491740E+03  0.22596628239E+03  0.47000000000E+01 0.  1.
         11    1    4    4    0    0  0.38077354925E+01 -0.81674009973E+01  0.18131046501E+03  0.18153426677E+03  0.00000000000E+00 0. -1.
        -12    1    4    4    0    0  0.24556060968E+02  0.66605850966E+02  0.16585731339E+03  0.18041060922E+03  0.00000000000E+00 0.  1.
</event>
<event>
12    1  0.8488291E-002  0.1874481E+03  0.7818608E-02  0.1161003E+00
         21   -1    0    0  503  502  0.00000000000E+00  0.00000000000E+00  0.80723559905E+02  0.80723559905E+02  0.00000000000E+00 0.  1.
         21   -1    0    0  501  503 -0.00000000000E+00 -0.00000000000E+00 -0.49575094730E+03  0.49575094730E+03  0.00000000000E+00 0.  1.
          6    2    1    2  501    0  0.59462266954E+02 -0.39949560591E+02 -0.10547421162E+03  0.21508508500E+03  0.17321967523E+03 0.  0.
         24    2    3    3    0    0 -0.18494832375E+02 -0.60558541101E+02 -0.80707151729E+02  0.13060114174E+03  0.80830799559E+02 0.  0.
         -6    2    1    2    0  502 -0.59462266954E+02  0.39949560591E+02 -0.30955317577E+03  0.36138942221E+03  0.17218425384E+03 0.  0.
        -24    2    5    5    0    0  0.10579656805E+02  0.50560465106E+02 -0.25405080882E+03  0.27127246977E+03  0.79866448691E+02 0.  0.
          5    1    3    3  501    0  0.77957099328E+02  0.20608980510E+02 -0.24767059896E+02  0.84483943263E+02  0.47000000000E+01 0. -1.
        -13    1    4    4    0    0 -0.30074647891E+02 -0.60885442580E+02 -0.22931397110E+02  0.71675452823E+02  0.00000000000E+00 0.  1.
         14    1    4    4    0    0  0.11579815516E+02  0.32690147873E+00 -0.57775754619E+02  0.58925688912E+02  0.00000000000E+00 0. -1.
         -5    1    5    5    0  502 -0.70041923759E+02 -0.10610904515E+02 -0.55502366953E+02  0.90116952433E+02  0.47000000000E+01 0.  1.
         13    1    6    6    0    0 -0.10347091527E+02  0.14110067581E+02 -0.20872958373E+03  0.20946168011E+03  0.00000000000E+00 0. -1.
        -14    1    6    6    0    0  0.20926748333E+02  0.36450397526E+02 -0.45321225090E+02  0.61810789666E+02  0.00000000000E+00 0.  1.
</event>
<event>
12    1  0.8488291E-002  0.2101889E+03  0.7818608E-02  0.1141563E+00
         21   -1    0    0  503  502  0.00000000000E+00  0.00000000000E+00  0.18633958089E+03  0.18633958089E+03  0.00000000000E+00 0.  1.
         21   -1    0    0  501  503 -0.00000000000E+00 -0.00000000000E+00 -0.23638150255E+03  0.23638150255E+03  0.00000000000E+00 0. -1.
          6    2    1    2  501    0 -0.18529413514E+02  0.11755322706E+03 -0.20133659936E+02  0.21041494786E+03  0.17235714566E+03 0.  0.
         24    2    3    3    0    0 -0.23442944588E+02  0.19404052770E+02  0.33911471728E+02  0.98163580567E+02  0.86948327874E+02 0.  0.
         -6    2    1    2    0  502  0.18529413514E+02 -0.11755322706E+03 -0.29908261720E+02  0.21230613558E+03  0.17325498760E+03 0.  0.
        -24    2    5    5    0    0  0.39051961127E+02  0.91513616186E+00 -0.22228654033E+02  0.91736676683E+02  0.79972568088E+02 0.  0.
          5    1    3    3  501    0  0.49135310733E+01  0.98149174293E+02 -0.54045131664E+02  0.11225136729E+03  0.47000000000E+01 0. -1.
        -11    1    4    4    0    0 -0.30902996348E+02  0.92456909647E+01  0.60599265778E+02  0.68649464655E+02  0.00000000000E+00 0.  1.
         12    1    4    4    0    0  0.74600517600E+01  0.10158361805E+02 -0.26687794050E+02  0.29514115912E+02  0.00000000000E+00 0. -1.
         -5    1    5    5    0  502 -0.20522547612E+02 -0.11846836322E+03 -0.76796076871E+01  0.12056945890E+03  0.47000000000E+01 0.  1.
         11    1    6    6    0    0  0.32774703842E+02 -0.26110929907E+02 -0.40691023325E+02  0.58409941378E+02  0.00000000000E+00 0. -1.
        -12    1    6    6    0    0  0.62772572844E+01  0.27026066069E+02  0.18462369292E+02  0.33326735305E+02  0.00000000000E+00 0.  1.
</event>
<event>
12    1  0.8488291E-002  0.1964071E+03  0.7818608E-02  0.1152887E+00
         21   -1    0    0  503  502  0.00000000000E+00  0.00000000000E+00  0.16551639908E+02  0.16551639908E+02  0.00000000000E+00 0.  1.
         21   -1    0    0  501  503 -0.00000000000E+00 -0.00000000000E+00 -0.23261956381E+04  0.23261956381E+04  0.00000000000E+00 0.  1.
          6    2    1    2  501    0 -0.17608109174E+02  0.88959410811E+02 -0.11523311728E+04  0.11688866754E+04  0.17379616222E+03 0.  0.
         24    2    3    3    0    0 -0.41683381007E+02  0.60147403916E+02 -0.37922512775E+03  0.39485515327E+03  0.82119912942E+02 0.  0.
         -6    2    1    2    0  502  0.17608109174E+02 -0.88959410811E+02 -0.11573128254E+04  0.11738606026E+04  0.17421801313E+03 0.  0.
        -24    2    5    5    0    0  0.38582859310E+02 -0.64194088523E+02 -0.37264334791E+03  0.38850619832E+03  0.80402010919E+02 0.  0.
          5    1    3    3  501    0  0.24075271833E+02  0.28812006896E+02 -0.77310604503E+03  0.77403152218E+03  0.47000000000E+01 0. -1.
        -11    1    4    4    0    0  0.27384038728E+01  0.44232424705E+02 -0.29502063992E+03  0.29833066257E+03  0.00000000000E+00 0.  1.
         12    1    4    4    0    0 -0.44421784880E+02  0.15914979211E+02 -0.84204487830E+02  0.96524490705E+02  0.00000000000E+00 0. -1.
         -5    1    5    5    0  502 -0.20974750136E+02 -0.24765322289E+02 -0.78466947752E+03  0.78535440426E+03  0.47000000000E+01 0.  1.
         11    1    6    6    0    0 -0.12006718342E+02  0.12531474235E+02 -0.45445954219E+02  0.48647033689E+02  0.00000000000E+00 0. -1.
        -12    1    6    6    0    0  0.50589577652E+02 -0.76725562757E+02 -0.32719739369E+03  0.33985916463E+03  0.00000000000E+00 0.  1.
</event>
<event>
12    1  0.8488291E-002  0.4169429E+03  0.7818608E-02  0.1038196E+00
         21   -1    0    0  501  502  0.00000000000E+00  0.00000000000E+00  0.43038528628E+03  0.43038528628E+03  0.00000000000E+00 0. -1.
         21   -1    0    0  502  503 -0.00000000000E+00 -0.00000000000E+00 -0.40670466669E+03  0.40670466669E+03  0.00000000000E+00 0.  1.
         -6    2    1    2    0  503 -0.28244755608E+03 -0.25357199425E+03 -0.31229770410E+02  0.41811087823E+03  0.17252834469E+03 0.  0.
        -24    2    3    3    0    0 -0.19376635318E+03 -0.87583676355E+02  0.48206533664E+00  0.22720721678E+03  0.80041158046E+02 0.  0.
          6    2    1    2  501    0  0.28244755608E+03  0.25357199425E+03  0.54910390007E+02  0.41897907474E+03  0.16867998084E+03 0.  0.
         24    2    5    5    0    0  0.23282186516E+03  0.19782657705E+03 -0.15544061552E+02  0.31623580011E+03  0.80137930687E+02 0.  0.
          5    1    5    5  501    0  0.49625690924E+02  0.55745417202E+02  0.70454451560E+02  0.10274327464E+03  0.47000000000E+01 0. -1.
        -13    1    6    6    0    0  0.37407293126E+02  0.52681512562E+02 -0.32306125278E+02  0.72238030671E+02  0.00000000000E+00 0.  1.
         14    1    6    6    0    0  0.19541457203E+03  0.14514506449E+03  0.16762063725E+02  0.24399776943E+03  0.00000000000E+00 0. -1.
         -5    1    3    3    0  503 -0.88681202908E+02 -0.16598831790E+03 -0.31711835747E+02  0.19090366145E+03  0.47000000000E+01 0.  1.
         13    1    4    4    0    0 -0.19041802646E+03 -0.60592750132E+02 -0.25374223468E+01  0.19984229953E+03  0.00000000000E+00 0. -1.
        -14    1    4    4    0    0 -0.33483267192E+01 -0.26990926223E+02  0.30194876835E+01  0.27364917249E+02  0.00000000000E+00 0.  1.
</event>
<event>
12    1  0.8488291E-002  0.2588693E+03  0.7818608E-02  0.1107931E+00
         21   -1    0    0  501  502  0.00000000000E+00  0.00000000000E+00  0.10753297688E+03  0.10753297688E+03  0.00000000000E+00 0.  1.
         21   -1    0    0  502  503 -0.00000000000E+00 -0.00000000000E+00 -0.13199890418E+04  0.13199890418E+04  0.00000000000E+00 0.  1.
         -6    2    1    2    0  503 -0.12586271049E+01 -0.19246713577E+03 -0.11250568117E+04  0.11542968993E+04  0.17205615319E+03 0.  0.
        -24    2    3    3    0    0  0.73937877169E+01 -0.64143684306E+02 -0.25350675154E+03  0.27329555440E+03  0.79093025261E+02 0.  0.
          6    2    1    2  501    0  0.12586271049E+01  0.19246713577E+03 -0.87399253278E+02  0.27322511936E+03  0.17311312452E+03 0.  0.
         24    2    5    5    0    0  0.32813908127E+02  0.16701936009E+03 -0.13260093776E+02  0.18859634164E+03  0.80128214623E+02 0.  0.
          5    1    5    5  501    0 -0.31555281022E+02  0.25447775679E+02 -0.74139159502E+02  0.84628777724E+02  0.47000000000E+01 0. -1.
        -11    1    6    6    0    0  0.57266611508E+01 -0.85002961242E+01  0.16198369856E+01  0.10376586818E+02  0.00000000000E+00 0.  1.
         12    1    6    6    0    0  0.27087246977E+02  0.17551965622E+03 -0.14879930762E+02  0.17821975482E+03  0.00000000000E+00 0. -1.
         -5    1    3    3    0  503 -0.86524148218E+01 -0.12832345147E+03 -0.87155006011E+03  0.88100134492E+03  0.47000000000E+01 0.  1.
         13    1    4    4    0    0 -0.11371251937E+01 -0.75085786714E+02 -0.24663219706E+03  0.25781118875E+03  0.00000000000E+00 0. -1.
        -14    1    4    4    0    0  0.85309129106E+01  0.10942102408E+02 -0.68745544832E+01  0.15484365648E+02  0.00000000000E+00 0.  1.
</event>
<event>
12    1  0.8488291E-002  0.2514861E+03  0.7818608E-02  0.1112409E+00
         21   -1    0    0  503  502  0.00000000000E+00  0.00000000000E+00  0.73238986046E+03  0.73238986046E+03  0.00000000000E+00 0.  1.
         21   -1    0    0  501  503 -0.00000000000E+00 -0.00000000000E+00 -0.10893494011E+04  0.10893494011E+04  0.00000000000E+00 0.  1.
          6    2    1    2  501    0  0.15356887116E+03 -0.10168515263E+03 -0.10525454631E+04  0.10821724531E+04  0.17123667178E+03 0.  0.
         24    2    3    3    0    0  0.14827590212E+03 -0.69630792333E+02 -0.49769172310E+03  0.52634850579E+03  0.50114947023E+02 0.  0.
         -6    2    1    2    0  502 -0.15356887116E+03  0.10168515263E+03  0.69558592248E+03  0.73956680851E+03  0.17086842964E+03 0.  0.
        -24    2    5    5    0    0 -0.17328588031E+03  0.63711713554E+02  0.49107439537E+03  0.53057447075E+03  0.79170881370E+02 0.  0.
          5    1    3    3  501    0  0.52929690318E+01 -0.32054360299E+02 -0.55485374005E+03  0.55582394729E+03  0.47000000000E+01 0. -1.
        -13    1    4    4    0    0  0.30809010691E+02 -0.39294794554E+02 -0.15108842171E+03  0.15912569621E+03  0.00000000000E+00 0.  1.
         14    1    4    4    0    0  0.11746689143E+03 -0.30335997779E+02 -0.34660330139E+03  0.36722280959E+03  0.00000000000E+00 0. -1.
         -5    1    5    5    0  502  0.19717009155E+02  0.37973439077E+02  0.20451152711E+03  0.20899233777E+03  0.47000000000E+01 0.  1.
         11    1    6    6    0    0 -0.12060745914E+03  0.18356142121E+02  0.22937189523E+03  0.25979717758E+03  0.00000000000E+00 0. -1.
        -12    1    6    6    0    0 -0.52678421174E+02  0.45355571433E+02  0.26170250014E+03  0.27077729317E+03  0.00000000000E+00 0.  1.
</event>
<event>
12    1  0.8488291E-002  0.1944338E+03  0.7818608E-02  0.1154640E+00
         21   -1    0    0  503  502  0.00000000000E+00  0.00000000000E+00  0.64178167457E+02  0.64178167457E+02  0.00000000000E+00 0.  1.
         21   -1    0    0  501  503 -0.00000000000E+00 -0.00000000000E+00 -0.71673390034E+03  0.71673390034E+03  0.00000000000E+00 0. -1.
          6    2    1    2  501    0  0.49249195720E+02  0.76513618777E+02 -0.49249104645E+03  0.52948269902E+03  0.17182747335E+03 0.  0.
         24    2    3    3    0    0 -0.19178317882E+01 -0.45905928949E+01 -0.11364863366E+03  0.13866353166E+03  0.79289415797E+02 0.  0.
         -6    2    1    2    0  502 -0.49249195720E+02 -0.76513618777E+02 -0.16006468644E+03  0.25142936877E+03  0.17121976083E+03 0.  0.
        -24    2    5    5    0    0  0.26584932430E+02 -0.78338617416E+02 -0.72308826731E+02  0.13533748049E+03  0.79018792645E+02 0.  0.
          5    1    3    3  501    0  0.51167027508E+02  0.81104211672E+02 -0.37884241278E+03  0.39081916736E+03  0.47000000000E+01 0. -1.
        -13    1    4    4    0    0  0.65527843354E+01  0.35972099405E+02 -0.66533767684E+02  0.75918859056E+02  0.00000000000E+00 0.  1.
         14    1    4    4    0    0 -0.84706161236E+01 -0.40562692300E+02 -0.47114865979E+02  0.62744672605E+02  0.00000000000E+00 0. -1.
         -5    1    5    5    0  502 -0.75834128150E+02  0.18249986392E+01 -0.87755859704E+02  0.11609188828E+03  0.47000000000E+01 0.  1.
         11    1    6    6    0    0 -0.11269758038E+01 -0.15510286977E+02 -0.64358131772E+02  0.66210333043E+02  0.00000000000E+00 0. -1.
        -12    1    6    6    0    0  0.27711908234E+02 -0.62828330439E+02 -0.79506949596E+01  0.69127147446E+02  0.00000000000E+00 0.  1.
</event>
<event>
12    1  0.8488291E-002  0.1960076E+03  0.7818608E-02  0.1153323E+00
         21   -1    0    0  503  502  0.00000000000E+00  0.00000000000E+00  0.28233342522E+03  0.28233342522E+03  0.00000000000E+00 0.  1.
         21   -1    0    0  501  503 -0.00000000000E+00 -0.00000000000E+00 -0.17042440281E+03  0.17042440281E+03  0.00000000000E+00 0.  1.
          6    2    1    2  501    0  0.85901066389E+02 -0.36118662001E+02  0.15848204083E+03  0.25206257332E+03  0.17243964929E+03 0.  0.
         24    2    3    3    0    0  0.12343490793E+03 -0.49241840742E+02  0.13434193832E+03  0.20530958806E+03  0.80270387936E+02 0.  0.
         -6    2    1    2    0  502 -0.85901066389E+02  0.36118662001E+02 -0.46573018415E+02  0.20069525472E+03  0.17154004859E+03 0.  0.
        -24    2    5    5    0    0 -0.75668728631E+02 -0.30676270361E+02  0.67048388123E+01  0.11451588482E+03  0.80013392355E+02 0.  0.
          5    1    3    3  501    0 -0.37533841545E+02  0.13123178741E+02  0.24140102509E+02  0.46752985258E+02  0.47000000000E+01 0. -1.
        -13    1    4    4    0    0  0.98351928117E+02 -0.60594900391E+02  0.13511452964E+03  0.17776608180E+03  0.00000000000E+00 0.  1.
         14    1    4    4    0    0  0.25082979817E+02  0.11353059648E+02 -0.77259131367E+00  0.27543506262E+02  0.00000000000E+00 0. -1.
         -5    1    5    5    0  502 -0.10232337758E+02  0.66794932362E+02 -0.53277857227E+02  0.86179369898E+02  0.47000000000E+01 0.  1.
         13    1    6    6    0    0 -0.35458099868E+02 -0.40059032922E+02 -0.28176060135E+02  0.60463983739E+02  0.00000000000E+00 0. -1.
        -14    1    6    6    0    0 -0.40210628764E+02  0.93827625612E+01  0.34880898947E+02  0.54051901079E+02  0.00000000000E+00 0.  1.
</event>
<event>
12    1  0.8488291E-002  0.2291240E+03  0.7818608E-02  0.1127467E+00
         21   -1    0    0  501  502  0.00000000000E+00  0.00000000000E+00  0.66312161302E+02  0.66312161302E+02  0.00000000000E+00 0.  1.
         21   -1    0    0  502  503 -0.00000000000E+00 -0.00000000000E+00 -0.86689929959E+03  0.86689929959E+03  0.00000000000E+00 0. -1.
         -6    2    1    2    0  503  0.14855978123E+03  0.23530787644E+02 -0.54047201253E+03  0.58657374851E+03  0.17127480709E+03 0.  0.
        -24    2    3    3    0    0  0.68507465372E+02  0.67852524478E+02 -0.21262623048E+03  0.24616555759E+03  0.78040566178E+02 0.  0.
          6    2    1    2  501    0 -0.14855978123E+03 -0.23530787644E+02 -0.26011512576E+03  0.34663771238E+03  0.17284130997E+03 0.  0.
         24    2    5    5    0    0 -0.49147217479E+02 -0.71984441917E+02 -0.11441597012E+03  0.16365971262E+03  0.78078668359E+02 0.  0.
          5    1    5    5  501    0 -0.99412563751E+02  0.48453654273E+02 -0.14569915564E+03  0.18297799976E+03  0.47000000000E+01 0. -1.
        -11    1    6    6    0    0 -0.28502229752E+02 -0.38212881135E+01  0.15336878734E+00  0.28757657513E+02  0.00000000000E+00 0.  1.
         12    1    6    6    0    0 -0.20644987727E+02 -0.68163153804E+02 -0.11456933891E+03  0.13490205511E+03  0.00000000000E+00 0. -1.
         -5    1    3    3    0  503  0.80052315858E+02 -0.44321736834E+02 -0.32784578206E+03  0.34040819092E+03  0.47000000000E+01 0.  1.
         13    1    4    4    0    0  0.53622251978E+02  0.27463108796E+02 -0.18608787008E+03  0.19559719743E+03  0.00000000000E+00 0. -1.
        -14    1    4    4    0    0  0.14885213395E+02  0.40389415682E+02 -0.26538360392E+02  0.50568360159E+02  0.00000000000E+00 0.  1.
</event>
<event>
12    1  0.8488291E-002  0.2120773E+03  0.7818608E-02  0.1140647E+00
         21   -1    0    0  501  502  0.00000000000E+00  0.00000000000E+00  0.64136883690E+03  0.64136883690E+03  0.00000000000E+00 0.  1.
         21   -1    0    0  502  503 -0.00000000000E+00 -0.00000000000E+00 -0.93063032263E+02  0.93063032263E+02  0.00000000000E+00 0.  1.
         -6    2    1    2    0  503 -0.33577693214E+02 -0.11918823181E+03  0.88918035039E+02  0.22996343473E+03  0.17217278610E+03 0.  0.
        -24    2    3    3    0    0 -0.88461442472E+02 -0.77511530713E+02  0.71784107358E+02  0.15879578179E+03  0.78928309548E+02 0.  0.
          6    2    1    2  501    0  0.33577693214E+02  0.11918823181E+03  0.45938776960E+03  0.50446843444E+03  0.16768417457E+03 0.  0.
         24    2    5    5    0    0  0.80282232142E+02  0.81923880404E+02  0.37419121076E+03  0.40030275160E+03  0.84062308756E+02 0.  0.
          5    1    5    5  501    0 -0.46704538929E+02  0.37264351403E+02  0.85196558843E+02  0.10416568284E+03  0.47000000000E+01 0. -1.
        -13    1    6    6    0    0  0.40993216272E+02  0.89930324924E+02  0.30150839778E+03  0.31729358810E+03  0.00000000000E+00 0.  1.
         14    1    6    6    0    0  0.39289015870E+02 -0.80064445205E+01  0.72682812977E+02  0.83009163495E+02  0.00000000000E+00 0. -1.
         -5    1    3    3    0  503  0.54883749258E+02 -0.41676701093E+02  0.17133927681E+02  0.71167652936E+02  0.47000000000E+01 0.  1.
         13    1    4    4    0    0 -0.48251296373E+02 -0.49669834389E+02  0.83525530462E+02  0.10849789993E+03  0.00000000000E+00 0. -1.
        -14    1    4    4    0    0 -0.40210146099E+02 -0.27841696324E+02 -0.11741423103E+02  0.50297881864E+02  0.00000000000E+00 0.  1.
</event>
<event>
12    1  0.8488291E-002  0.2016927E+03  0.7818608E-02  0.1148378E+00
         21   -1    0    0  503  502  0.00000000000E+00  0.00000000000E+00  0.24698807190E+02  0.24698807190E+02  0.00000000000E+00 0. -1.
         21   -1    0    0  501  503 -0.00000000000E+00 -0.00000000000E+00 -0.17448084998E+04  0.17448084998E+04  0.00000000000E+00 0. -1.
          6    2    1    2  501    0 -0.96648198920E+02 -0.42198463739E+02 -0.10725324617E+04  0.10913321359E+04  0.17192546324E+03 0.  0.
         24    2    3    3    0    0 -0.60578391879E+02 -0.94752365941E+02 -0.65156966907E+03  0.66554497506E+03  0.75890234982E+02 0.  0.
         -6    2    1    2    0  502  0.96648198920E+02  0.42198463739E+02 -0.64757723093E+03  0.67817517104E+03  0.17159168947E+03 0.  0.
        -24    2    5    5    0    0  0.68316499479E+02  0.74624848490E+01 -0.61131909415E+03  0.62033041410E+03  0.79849577335E+02 0.  0.
          5    1    3    3  501    0 -0.36069807041E+02  0.52553902201E+02 -0.42096279259E+03  0.42578716087E+03  0.47000000000E+01 0. -1.
        -13    1    4    4    0    0  0.14060726087E+02 -0.25346870903E+01 -0.37706834788E+02  0.40322872497E+02  0.00000000000E+00 0.  1.
         14    1    4    4    0    0 -0.74639117966E+02 -0.92217678850E+02 -0.61386283428E+03  0.62522210256E+03  0.00000000000E+00 0. -1.
         -5    1    5    5    0  502  0.28331699441E+02  0.34735978890E+02 -0.36258136780E+02  0.57844756940E+02  0.47000000000E+01 0.  1.
         11    1    6    6    0    0  0.40141540442E+02 -0.89019085443E+01 -0.10207392557E+03  0.11004396179E+03  0.00000000000E+00 0. -1.
        -12    1    6    6    0    0  0.28174959037E+02  0.16364393393E+02 -0.50924516858E+03  0.51028645231E+03  0.00000000000E+00 0.  1.
</event>
<event>
12    1  0.8488291E-002  0.1890735E+03  0.7818608E-02  0.1159345E+00
         21   -1    0    0  501  502  0.00000000000E+00  0.00000000000E+00  0.59849456837E+02  0.59849456837E+02  0.00000000000E+00 0.  1.
         21   -1    0    0  502  503 -0.00000000000E+00 -0.00000000000E+00 -0.60864991391E+03  0.60864991391E+03  0.00000000000E+00 0. -1.
         -6    2    1    2    0  503 -0.39391634199E+02  0.68626597879E+02 -0.32112139435E+03  0.37254910923E+03  0.17150095654E+03 0.  0.
        -24    2    3    3    0    0 -0.46207093539E+02  0.79751265670E+02 -0.33290287743E+03  0.35435289911E+03  0.79033483014E+02 0.  0.
          6    2    1    2  501    0  0.39391634199E+02 -0.68626597879E+02 -0.22767906272E+03  0.29595026151E+03  0.17171922114E+03 0.  0.
         24    2    5    5    0    0  0.74267052247E+02 -0.74240712930E+02 -0.10675067186E+03  0.16988052372E+03  0.80227226623E+02 0.  0.
          5    1    5    5  501    0 -0.34875418048E+02  0.56141150513E+01 -0.12092839086E+03  0.12606973779E+03  0.47000000000E+01 0. -1.
        -13    1    6    6    0    0  0.13478173747E+02 -0.57735431665E+02 -0.84193228409E+02  0.10297349633E+03  0.00000000000E+00 0.  1.
         14    1    6    6    0    0  0.60788878500E+02 -0.16505281265E+02 -0.22557443451E+02  0.66907027389E+02  0.00000000000E+00 0. -1.
         -5    1    3    3    0  503  0.68154593401E+01 -0.11124667791E+02  0.11781483072E+02  0.18196210124E+02  0.47000000000E+01 0.  1.
         13    1    4    4    0    0 -0.47107005238E+02  0.19323316838E+02 -0.22489602822E+03  0.23058769270E+03  0.00000000000E+00 0. -1.
        -14    1    4    4    0    0  0.89991169924E+00  0.60427948832E+02 -0.10800684921E+03  0.12376520641E+03  0.00000000000E+00 0.  1.
</event>
<event>
12    1  0.8488291E-002  0.2063212E+03  0.7818608E-02  0.1144774E+00
         21   -1    0    0  503  502  0.00000000000E+00  0.00000000000E+00  0.15164585837E+03  0.15164585837E+03  0.00000000000E+00 0.  1.
         21   -1    0    0  501  503 -0.00000000000E+00 -0.00000000000E+00 -0.28472626771E+03  0.28472626771E+03  0.00000000000E+00 0.  1.
          6    2    1    2  501    0  0.24538625190E+02 -0.10981121391E+03 -0.35287894287E+02  0.20804816076E+03  0.17140056851E+03 0.  0.
         24    2    3    3    0    0  0.44490946426E+02 -0.27619242930E+01 -0.35345262955E+02  0.99053946133E+02  0.81088372111E+02 0.  0.
         -6    2    1    2    0  502 -0.24538625190E+02  0.10981121391E+03 -0.97792515045E+02  0.22832396532E+03  0.17293874729E+03 0.  0.
        -24    2    5    5    0    0  0.44660262095E+02  0.18400528693E+02 -0.66667847104E+02  0.10943227374E+03  0.72095091592E+02 0.  0.
          5    1    3    3  501    0 -0.19952321237E+02 -0.10704928962E+03  0.57368667401E-01  0.10899421462E+03  0.47000000000E+01 0. -1.
        -11    1    4    4    0    0 -0.23646310068E+01 -0.16983367606E+02 -0.45869253301E+02  0.48969527805E+02  0.00000000000E+00 0.  1.
         12    1    4    4    0    0  0.46855577433E+02  0.14221443313E+02  0.10523990346E+02  0.50084418329E+02  0.00000000000E+00 0. -1.
         -5    1    5    5    0  502 -0.69198887285E+02  0.91410685217E+02 -0.31124667942E+02  0.11889169158E+03  0.47000000000E+01 0.  1.
         13    1    6    6    0    0  0.38552308403E+02 -0.22633404090E+02 -0.40922398702E+02  0.60606882278E+02  0.00000000000E+00 0. -1.
        -14    1    6    6    0    0  0.61079536927E+01  0.41033932783E+02 -0.25745448401E+02  0.48825391461E+02  0.00000000000E+00 0.  1.
</event>
<event>
12    1  0.8488291E-002  0.2349952E+03  0.7818608E-02  0.1123858E+00
         21   -1    0    0  503  502  0.00000000000E+00  0.00000000000E+00  0.31385751428E+03  0.31385751428E+03  0.00000000000E+00 0.  1.
         21   -1    0    0  501  503 -0.00000000000E+00 -0.00000000000E+00 -0.19221822568E+03  0.19221822568E+03  0.00000000000E+00 0. -1.
          6    2    1    2  501    0  0.14971322085E+03 -0.40927977874E+02 -0.19679923379E+02  0.23186071167E+03  0.17112259453E+03 0.  0.
         24    2    3    3    0    0  0.17410158461E+03 -0.47338890813E+02  0.95085408389E+00  0.19894246337E+03  0.83814481221E+02 0.  0.
         -6    2    1    2    0  502 -0.14971322085E+03  0.40927977874E+02  0.14131921198E+03  0.27421502830E+03  0.17644719947E+03 0.  0.
        -24    2    5    5    0    0 -0.84471430243E+02  0.57240057823E+01  0.26569364258E+01  0.11690918748E+03  0.80576125726E+02 0.  0.
          5    1    3    3  501    0 -0.24388363764E+02  0.64109129389E+01 -0.20630777463E+02  0.32918248291E+02  0.47000000000E+01 0. -1.
        -11    1    4    4    0    0  0.88156744631E+02 -0.40843885933E+02  0.39043267750E+02  0.10471013035E+03  0.00000000000E+00 0.  1.
         12    1    4    4    0    0  0.85944839981E+02 -0.64950048803E+01 -0.38092413666E+02  0.94232333021E+02  0.00000000000E+00 0. -1.
         -5    1    5    5    0  502 -0.65241790605E+02  0.35203972092E+02  0.13866227556E+03  0.15730584082E+03  0.47000000000E+01 0.  1.
         13    1    6    6    0    0 -0.64017168170E+02  0.32863288322E+02 -0.21628280128E+02  0.75139710148E+02  0.00000000000E+00 0. -1.
        -14    1    6    6    0    0 -0.20454262073E+02 -0.27139282539E+02  0.24285216554E+02  0.41769477334E+02  0.00000000000E+00 0.  1.
</event>
<event>
12    1  0.8488291E-002  0.4722581E+03  0.7818608E-02  0.1021319E+00
         21   -1    0    0  503  502  0.00000000000E+00  0.00000000000E+00  0.26587530191E+03  0.26587530191E+03  0.00000000000E+00 0.  1.
         21   -1    0    0  501  503 -0.00000000000E+00 -0.00000000000E+00 -0.84369107165E+03  0.84369107165E+03  0.00000000000E+00 0. -1.
          6    2    1    2  501    0  0.63440281007E+02  0.43511509912E+03 -0.33473053323E+03  0.57885421053E+03  0.17227259922E+03 0.  0.
         24    2    3    3    0    0 -0.14166580156E+02  0.24909101383E+03 -0.13546406664E+03  0.29538110791E+03  0.81562616390E+02 0.  0.
         -6    2    1    2    0  502 -0.63440281007E+02 -0.43511509912E+03 -0.24308523650E+03  0.53071216303E+03  0.17092439572E+03 0.  0.
        -24    2    5    5    0    0  0.17572926565E+02 -0.31422126636E+03 -0.18454421755E+03  0.37378033229E+03  0.81310249017E+02 0.  0.
          5    1    3    3  501    0  0.77606861163E+02  0.18602408528E+03 -0.19926646659E+03  0.28347310263E+03  0.47000000000E+01 0. -1.
        -13    1    4    4    0    0 -0.47836280366E+02  0.15139791762E+03 -0.89775169606E+02  0.18239852043E+03  0.00000000000E+00 0.  1.
         14    1    4    4    0    0  0.33669700210E+02  0.97693096215E+02 -0.45688897037E+02  0.11298258748E+03  0.00000000000E+00 0. -1.
         -5    1    5    5    0  502 -0.81013207572E+02 -0.12089383276E+03 -0.58541018949E+02  0.15693183074E+03  0.47000000000E+01 0.  1.
         13    1    6    6    0    0 -0.15316598333E+02 -0.26741461984E+02 -0.39523303895E+02  0.50117816436E+02  0.00000000000E+00 0. -1.
        -14    1    6    6    0    0  0.32889524898E+02 -0.28747980438E+03 -0.14502091366E+03  0.32366251586E+03  0.00000000000E+00 0.  1.
</event>
<event>
12    1  0.8488291E-002  0.1927460E+03  0.7818608E-02  0.1157840E+00
         21   -1    0    0  501  502  0.00000000000E+00  0.00000000000E+00  0.17016546462E+03  0.17016546462E+03  0.00000000000E+00 0.  1.
         21   -1    0    0  502  503 -0.00000000000E+00 -0.00000000000E+00 -0.28328440432E+03  0.28328440432E+03  0.00000000000E+00 0. -1.
         -6    2    1    2    0  503 -0.60134209546E+02 -0.58906511551E+02 -0.17154570775E+03  0.25204304612E+03  0.16435226493E+03 0.  0.
        -24    2    3    3    0    0  0.15661330311E+02 -0.69079828930E+02 -0.99408760950E+02  0.14680859671E+03  0.81568145022E+02 0.  0.
          6    2    1    2  501    0  0.60134209546E+02  0.58906511551E+02  0.58426768052E+02  0.20140682282E+03  0.17339238966E+03 0.  0.
         24    2    5    5    0    0  0.46211430138E+02  0.63405499093E+02  0.10361138164E+03  0.15368026857E+03  0.82015565316E+02 0.  0.
          5    1    5    5  501    0  0.13922779408E+02 -0.44989875420E+01 -0.45184613584E+02  0.47726554245E+02  0.47000000000E+01 0. -1.
        -13    1    6    6    0    0 -0.17942976582E+02 -0.55211385645E+01  0.23285443544E+02  0.29910621202E+02  0.00000000000E+00 0.  1.
         14    1    6    6    0    0  0.64154406720E+02  0.68926637657E+02  0.80325938092E+02  0.12376964737E+03  0.00000000000E+00 0. -1.
         -5    1    3    3    0  503 -0.75795539857E+02  0.10173317379E+02 -0.72136946798E+02  0.10523444941E+03  0.47000000000E+01 0.  1.
         11    1    4    4    0    0  0.13301632739E+02  0.11883738669E+02 -0.47160968149E+02  0.50421360503E+02  0.00000000000E+00 0. -1.
        -12    1    4    4    0    0  0.23596975720E+01 -0.80963567599E+02 -0.52247792801E+02  0.96387236207E+02  0.00000000000E+00 0.  1.
</event>
<event>
12    1  0.8488291E-002  0.1964758E+03  0.7818608E-02  0.1154604E+00
         21   -1    0    0  503  502  0.00000000000E+00  0.00000000000E+00  0.15745230862E+03  0.15745230862E+03  0.00000000000E+00 0.  1.
         21   -1    0    0  501  503 -0.00000000000E+00 -0.00000000000E+00 -0.36755108988E+03  0.36755108988E+03  0.00000000000E+00 0.  1.
          6    2    1    2  501    0  0.13487929224E+01 -0.76374385770E+02 -0.26425121182E+03  0.32928930964E+03  0.18101900577E+03 0.  0.
         24    2    3    3    0    0 -0.25631712148E+01 -0.12222278404E+03 -0.22832789281E+03  0.27072350105E+03  0.78820102773E+02 0.  0.
         -6    2    1    2    0  502 -0.13487929224E+01  0.76374385770E+02  0.54152430554E+02  0.19571408886E+03  0.17186230767E+03 0.  0.
        -24    2    5    5    0    0  0.51662214023E+01  0.57605366283E+02 -0.35741839406E+02  0.10353062355E+03  0.78077159661E+02 0.  0.
          5    1    3    3  501    0  0.39119641372E+01  0.45848398268E+02 -0.35923319012E+02  0.58565808592E+02  0.47000000000E+01 0. -1.
        -11    1    4    4    0    0 -0.68592050117E+01 -0.59367493256E+02 -0.18460169747E+03  0.19403436463E+03  0.00000000000E+00 0.  1.
         12    1    4    4    0    0  0.42960337969E+01 -0.62855290782E+02 -0.43726195337E+02  0.76689136417E+02  0.00000000000E+00 0. -1.
         -5    1    5    5    0  502 -0.65150143248E+01  0.18769019487E+02  0.89894269961E+02  0.92183465307E+02  0.47000000000E+01 0.  1.
         11    1    6    6    0    0  0.18349561827E+02  0.45648872675E+01 -0.44340555875E+02  0.48204040394E+02  0.00000000000E+00 0. -1.
        -12    1    6    6    0    0 -0.13183340424E+02  0.53040479016E+02  0.85987164690E+01  0.55326583157E+02  0.00000000000E+00 0.  1.
</event>
<event>
12    1  0.8488291E-002  0.2180816E+03  0.7818608E-02  0.1135372E+00
         21   -1    0    0  501  502  0.00000000000E+00  0.00000000000E+00  0.51926138445E+03  0.51926138445E+03  0.00000000000E+00 0. -1.
         21   -1    0    0  502  503 -0.00000000000E+00 -0.00000000000E+00 -0.12622545245E+03  0.12622545245E+03  0.00000000000E+00 0.  1.
         -6    2    1    2    0  503  0.22301838613E+02  0.13180072043E+03  0.27272521197E+02  0.21978029581E+03  0.17231014509E+03 0.  0.
        -24    2    3    3    0    0  0.55877741568E+02  0.54313422166E+02  0.22808767612E+02  0.13508296558E+03  0.10795785233E+03 0.  0.
          6    2    1    2  501    0 -0.22301838613E+02 -0.13180072043E+03  0.36576341081E+03  0.42570654109E+03  0.17197204577E+03 0.  0.
         24    2    5    5    0    0  0.12809830492E+02 -0.36722832537E+02  0.62912758103E+02  0.10631142228E+03  0.76363899770E+02 0.  0.
          5    1    5    5  501    0 -0.35111669105E+02 -0.95077887896E+02  0.30285065271E+03  0.31939511881E+03  0.47000000000E+01 0. -1.
        -13    1    6    6    0    0 -0.28600971263E+02 -0.25383880943E+02  0.46837096584E+02  0.60465449517E+02  0.00000000000E+00 0.  1.
         14    1    6    6    0    0  0.41410801755E+02 -0.11338951594E+02  0.16075661519E+02  0.45845972762E+02  0.00000000000E+00 0. -1.
         -5    1    3    3    0  503 -0.33575902954E+02  0.77487298267E+02  0.44637535845E+01  0.84697330229E+02  0.47000000000E+01 0.  1.
         11    1    4    4    0    0  0.89995765969E+01  0.71842466569E+02  0.39307001990E+02  0.82385513212E+02  0.00000000000E+00 0. -1.
        -12    1    4    4    0    0  0.46878164971E+02 -0.17529044403E+02 -0.16498234378E+02  0.52697452370E+02  0.00000000000E+00 0.  1.
</event>
<event>
12    1  0.8488291E-002  0.2533994E+03  0.7818608E-02  0.1112485E+00
         21   -1    0    0  501  502  0.00000000000E+00  0.00000000000E+00  0.61064363954E+03  0.61064363954E+03  0.00000000000E+00 0.  1.
         21   -1    0    0  502  503 -0.00000000000E+00 -0.00000000000E+00 -0.25912426350E+03  0.25912426350E+03  0.00000000000E+00 0.  1.
         -6    2    1    2    0  503  0.16093984601E+03  0.80491758936E+02 -0.16199432256E+03  0.30075475798E+03  0.17841162131E+03 0.  0.
        -24    2    3    3    0    0  0.98700516753E+02  0.26587758603E+02 -0.17410414631E+03  0.21739941509E+03  0.80632195832E+02 0.  0.
          6    2    1    2  501    0 -0.16093984601E+03 -0.80491758936E+02  0.51351369861E+03  0.56901314505E+03  0.16643041577E+03 0.  0.
         24    2    5    5    0    0 -0.14782546529E+03 -0.10624600914E+03  0.49794929563E+03  0.53585279184E+03  0.77744008517E+02 0.  0.
          5    1    5    5  501    0 -0.13114380716E+02  0.25754250203E+02  0.15564402981E+02  0.33160353213E+02  0.47000000000E+01 0. -1.
        -13    1    6    6    0    0 -0.48861766990E+02 -0.22939028673E+02  0.25458290827E+03  0.26024244176E+03  0.00000000000E+00 0.  1.
         14    1    6    6    0    0 -0.98963698300E+02 -0.83306980466E+02  0.24336638735E+03  0.27561035008E+03  0.00000000000E+00 0. -1.
         -5    1    3    3    0  503  0.62239329253E+02  0.53904000333E+02  0.12109823745E+02  0.83355342894E+02  0.47000000000E+01 0.  1.
         13    1    4    4    0    0  0.70598385096E+02  0.71016659068E+01 -0.45415235810E+02  0.84244342721E+02  0.00000000000E+00 0. -1.
        -14    1    4    4    0    0  0.28102131657E+02  0.19486092696E+02 -0.12868891050E+03  0.13315507237E+03  0.00000000000E+00 0.  1.
</event>
