<event>
12    1  0.9962621E-001  0.1758114E+03  0.7818608E-02  0.1172344E+00
         21   -1    0    0  503  502  0.00000000000E+00  0.00000000000E+00  0.43732496117E+02  0.43732496117E+02  0.00000000000E+00 0. -1.
         21   -1    0    0  501  503 -0.00000000000E+00 -0.00000000000E+00 -0.87110691105E+03  0.87110691105E+03  0.00000000000E+00 0. -1.
          6    2    1    2  501    0  0.11458414816E+02 -0.33119036193E+02 -0.20934746639E+03  0.27229217078E+03  0.17055350701E+03 0.  0.
         24    2    3    3    0    0 -0.18919728053E+02  0.29186076304E+02 -0.17285805453E+03  0.19381716976E+03  0.80469901928E+02 0.  0.
         -6    2    1    2    0  502 -0.11458414816E+02  0.33119036193E+02 -0.61802694853E+03  0.64254723638E+03  0.17228312756E+03 0.  0.
        -24    2    5    5    0    0 -0.50261102421E+02  0.71183448579E+02 -0.37407164830E+03  0.39256558392E+03  0.81147260271E+02 0.  0.
          5    1    3    3  501    0  0.30378142870E+02 -0.62305112496E+02 -0.36489411864E+02  0.78475001023E+02  0.47000000000E+01 0. -1.
        -11    1    4    4    0    0 -0.16561104819E+02 -0.14143861305E+02 -0.77734876396E+01  0.23124578169E+02  0.00000000000E+00 0.  1.
         12    1    4    4    0    0 -0.23586232346E+01  0.43329937609E+02 -0.16508456689E+03  0.17069259159E+03  0.00000000000E+00 0. -1.
         -5    1    5    5    0  502  0.38802687604E+02 -0.38064412386E+02 -0.24395530024E+03  0.24998165246E+03  0.47000000000E+01 0.  1.
         11    1    6    6    0    0 -0.43988109228E+02 -0.34949329196E+01 -0.13710404109E+03  0.14403015793E+03  0.00000000000E+00 0. -1.
        -12    1    6    6    0    0 -0.62729931931E+01  0.74678381498E+02 -0.23696760721E+03  0.24853542599E+03  0.00000000000E+00 0.  1.
</event>
<event>
12    1  0.9962621E-001  0.1768125E+03  0.7818608E-02  0.1171379E+00
         21   -1    0    0  503  502  0.00000000000E+00  0.00000000000E+00  0.15481071265E+03  0.15481071265E+03  0.00000000000E+00 0.  1.
         21   -1    0    0  501  503 -0.00000000000E+00 -0.00000000000E+00 -0.21743561647E+03  0.21743561647E+03  0.00000000000E+00 0.  1.
          6    2    1    2  501    0  0.46294732106E+02 -0.22508477184E+02 -0.84374237787E+02  0.19591239396E+03  0.16915324513E+03 0.  0.
         24    2    3    3    0    0  0.13510831341E+02 -0.25352012599E+02 -0.11909445926E+03  0.14784521574E+03  0.82761406967E+02 0.  0.
         -6    2    1    2    0  502 -0.46294732106E+02  0.22508477184E+02  0.21749333973E+02  0.17633393516E+03  0.16724469916E+03 0.  0.
        -24    2    5    5    0    0 -0.72658962108E+02 -0.27328305369E+02 -0.11924521466E+02  0.11049476704E+03  0.77722186550E+02 0.  0.
          5    1    3    3  501    0  0.32783900766E+02  0.28435354152E+01  0.34720221475E+02  0.48067178223E+02  0.47000000000E+01 0. -1.
        -13    1    4    4    0    0 -0.27086186387E+02 -0.32815355874E+02 -0.38902617866E+02  0.57653471283E+02  0.00000000000E+00 0.  1.
         14    1    4    4    0    0  0.40597017728E+02  0.74633432746E+01 -0.80191841396E+02  0.90191744455E+02  0.00000000000E+00 0. -1.
         -5    1    5    5    0  502  0.26364230002E+02  0.49836782553E+02  0.33673855440E+02  0.65839168122E+02  0.47000000000E+01 0.  1.
         13    1    6    6    0    0 -0.63950972633E+02  0.37471686760E+01 -0.32889597702E+02  0.72010372938E+02  0.00000000000E+00 0. -1.
        -14    1    6    6    0    0 -0.87079894754E+01 -0.31075474045E+02  0.20965076235E+02  0.38484394102E+02  0.00000000000E+00 0.  1.
</event>
<event>
12    1  0.9962621E-001  0.1726053E+03  0.7818608E-02  0.1175757E+00
         21   -1    0    0  503  502  0.00000000000E+00  0.00000000000E+00  0.10821570145E+03  0.10821570145E+03  0.00000000000E+00 0.  1.
         21   -1    0    0  501  503 -0.00000000000E+00 -0.00000000000E+00 -0.27248868326E+03  0.27248868326E+03  0.00000000000E+00 0.  1.
          6    2    1    2  501    0 -0.16385117310E+02 -0.12248801937E+01 -0.92418050618E+02  0.19373991644E+03  0.16948181832E+03 0.  0.
         24    2    3    3    0    0 -0.19502021039E+02  0.64878740991E+02 -0.37157320776E+02  0.10739617268E+03  0.74590157277E+02 0.  0.
         -6    2    1    2    0  502  0.16385117310E+02  0.12248801937E+01 -0.71854931188E+02  0.18696446828E+03  0.17182144471E+03 0.  0.
        -24    2    5    5    0    0 -0.30334946618E+02  0.52439424044E+02 -0.29627815727E+02  0.10565694614E+03  0.81335604892E+02 0.  0.
          5    1    3    3  501    0  0.31169037289E+01 -0.66103621185E+02 -0.55260729841E+02  0.86343743753E+02  0.47000000000E+01 0. -1.
        -13    1    4    4    0    0  0.18158988906E+02  0.39187538636E+02 -0.43580061641E+02  0.61356611991E+02  0.00000000000E+00 0.  1.
         14    1    4    4    0    0 -0.37661009946E+02  0.25691202355E+02  0.64227408641E+01  0.46039560693E+02  0.00000000000E+00 0. -1.
         -5    1    5    5    0  502  0.46720063928E+02 -0.51214543850E+02 -0.42227115461E+02  0.81307522133E+02  0.47000000000E+01 0.  1.
         11    1    6    6    0    0 -0.29050363623E+02  0.66495695196E+02 -0.44524397311E+02  0.85135322059E+02  0.00000000000E+00 0. -1.
        -12    1    6    6    0    0 -0.12845829946E+01 -0.14056271152E+02  0.14896581584E+02  0.20521624084E+02  0.00000000000E+00 0.  1.
</event>
<event>
12    1  0.9962621E-001  0.3106359E+03  0.7818608E-02  0.1080246E+00
         21   -1    0    0  501  502  0.00000000000E+00  0.00000000000E+00  0.61306072728E+03  0.61306072728E+03  0.00000000000E+00 0.  1.
         21   -1    0    0  502  503 -0.00000000000E+00 -0.00000000000E+00 -0.19415817646E+03  0.19415817646E+03  0.00000000000E+00 0.  1.
         -6    2    1    2    0  503  0.22193228990E+03 -0.13337616842E+03  0.32247487946E+02  0.31230520963E+03  0.17161439298E+03 0.  0.
        -24    2    3    3    0    0  0.15302005463E+03 -0.14627330532E+03 -0.17206142471E+02  0.22638091812E+03  0.78366139250E+02 0.  0.
          6    2    1    2  501    0 -0.22193228990E+03  0.13337616842E+03  0.38665506287E+03  0.49491369410E+03  0.16850603360E+03 0.  0.
         24    2    5    5    0    0 -0.19198296300E+03  0.16430364138E+03  0.34294965065E+03  0.43338545812E+03  0.79720435101E+02 0.  0.
          5    1    5    5  501    0 -0.29949326904E+02 -0.30927472961E+02  0.43705412221E+02  0.61528235983E+02  0.47000000000E+01 0. -1.
        -11    1    6    6    0    0  0.54620456149E+01 -0.29287739603E+01  0.72080654769E+01  0.95062015090E+01  0.00000000000E+00 0.  1.
         12    1    6    6    0    0 -0.19744500862E+03  0.16723241534E+03  0.33574158518E+03  0.42387925661E+03  0.00000000000E+00 0. -1.
         -5    1    3    3    0  503  0.68912235272E+02  0.12897136901E+02  0.49453630418E+02  0.85924291512E+02  0.47000000000E+01 0.  1.
         11    1    4    4    0    0  0.13636768726E+03 -0.12766742420E+03  0.12924151159E+02  0.18724890123E+03  0.00000000000E+00 0. -1.
        -12    1    4    4    0    0  0.16652367377E+02 -0.18605881120E+02 -0.30130293630E+02  0.39132016888E+02  0.00000000000E+00 0.  1.
</event>
<event>
12    1  0.9962621E-001  0.3040576E+03  0.7818608E-02  0.1083260E+00
         21   -1    0    0  503  502  0.00000000000E+00  0.00000000000E+00  0.35568866126E+03  0.35568866126E+03  0.00000000000E+00 0.  1.
         21   -1    0    0  501  503 -0.00000000000E+00 -0.00000000000E+00 -0.27401330185E+03  0.27401330185E+03  0.00000000000E+00 0.  1.
          6    2    1    2  501    0 -0.23688831395E+03  0.82094923113E+02  0.11275823893E+03  0.32405974966E+03  0.17159443818E+03 0.  0.
         24    2    3    3    0    0 -0.19854073568E+03  0.73011427118E+02  0.24535826047E+02  0.22732128371E+03  0.79522745521E+02 0.  0.
         -6    2    1    2    0  502  0.23688831395E+03 -0.82094923113E+02 -0.31082879518E+02  0.30564221344E+03  0.17203304203E+03 0.  0.
        -24    2    5    5    0    0  0.82761989079E+02 -0.88155349034E+02 -0.43542422773E+02  0.15082301890E+03  0.78934960880E+02 0.  0.
          5    1    3    3  501    0 -0.38347578273E+02  0.90834959948E+01  0.88222412882E+02  0.96738465946E+02  0.47000000000E+01 0. -1.
        -13    1    4    4    0    0 -0.60997974066E+02  0.96467629188E+01 -0.26937920175E+02  0.67375547629E+02  0.00000000000E+00 0.  1.
         14    1    4    4    0    0 -0.13754276161E+03  0.63364664199E+02  0.51473746222E+02  0.15994573608E+03  0.00000000000E+00 0. -1.
         -5    1    5    5    0  502  0.15412632487E+03  0.60604259219E+01  0.12459543255E+02  0.15481919455E+03  0.47000000000E+01 0.  1.
         13    1    6    6    0    0  0.27924915532E+02  0.11852792204E+02 -0.84688917397E+01  0.31496217516E+02  0.00000000000E+00 0. -1.
        -14    1    6    6    0    0  0.54837073547E+02 -0.10000814124E+03 -0.35073531033E+02  0.11932680138E+03  0.00000000000E+00 0.  1.
</event>
<event>
12    1  0.9962621E-001  0.2351520E+03  0.7818608E-02  0.1123534E+00
         21   -1    0    0  501  502  0.00000000000E+00  0.00000000000E+00  0.76987525166E+03  0.76987525166E+03  0.00000000000E+00 0. -1.
         21   -1    0    0  502  503 -0.00000000000E+00 -0.00000000000E+00 -0.91767667189E+02  0.91767667189E+02  0.00000000000E+00 0. -1.
         -6    2    1    2    0  503  0.13571107535E+03  0.78926198132E+02  0.54249323976E+03  0.59018809066E+03  0.17139494289E+03 0.  0.
        -24    2    3    3    0    0  0.60684774629E+02  0.63702261571E+02  0.45973342855E+03  0.47735196880E+03  0.93645377835E+02 0.  0.
          6    2    1    2  501    0 -0.13571107535E+03 -0.78926198132E+02  0.13561434471E+03  0.27145482819E+03  0.17507036451E+03 0.  0.
         24    2    5    5    0    0 -0.55841984545E+02 -0.42424950607E+02 -0.66160760042E+01  0.10423343209E+03  0.76828589931E+02 0.  0.
          5    1    5    5  501    0 -0.79869090809E+02 -0.36501247524E+02  0.14223042071E+03  0.16722139610E+03  0.47000000000E+01 0. -1.
        -13    1    6    6    0    0  0.19141622220E+02 -0.32912944463E+01 -0.44979427201E+00  0.19427728514E+02  0.00000000000E+00 0.  1.
         14    1    6    6    0    0 -0.74983606765E+02 -0.39133656161E+02 -0.61662817322E+01  0.84805703572E+02  0.00000000000E+00 0. -1.
         -5    1    3    3    0  503  0.75026300724E+02  0.15223936561E+02  0.82759811203E+02  0.11283612185E+03  0.47000000000E+01 0.  1.
         11    1    4    4    0    0  0.68134880173E+02  0.53843881648E+02  0.45635123724E+03  0.46454060879E+03  0.00000000000E+00 0. -1.
        -12    1    4    4    0    0 -0.74501055438E+01  0.98583799230E+01  0.33821913179E+01  0.12811360015E+02  0.00000000000E+00 0.  1.
</event>
<event>
12    1  0.9962621E-001  0.3404455E+03  0.7818608E-02  0.1066647E+00
         21   -1    0    0  503  502  0.00000000000E+00  0.00000000000E+00  0.22929470371E+03  0.22929470371E+03  0.00000000000E+00 0. -1.
         21   -1    0    0  501  503 -0.00000000000E+00 -0.00000000000E+00 -0.63713672231E+03  0.63713672231E+03  0.00000000000E+00 0. -1.
          6    2    1    2  501    0 -0.77231476844E+02  0.28337939085E+03 -0.64714658755E+01  0.34012217357E+03  0.17138445937E+03 0.  0.
         24    2    3    3    0    0 -0.10400331104E+03  0.24793364650E+03 -0.41173974099E+02  0.28355817464E+03  0.80138383356E+02 0.  0.
         -6    2    1    2    0  502  0.77231476844E+02 -0.28337939085E+03 -0.40137055272E+03  0.52630925244E+03  0.17214682235E+03 0.  0.
        -24    2    5    5    0    0  0.36332379057E-01 -0.64339584935E+02 -0.82041742062E+02  0.13142888294E+03  0.80019499629E+02 0.  0.
          5    1    3    3  501    0  0.26771834197E+02  0.35445744349E+02  0.34702508223E+02  0.56563998937E+02  0.47000000000E+01 0. -1.
        -11    1    4    4    0    0 -0.23346866314E+02  0.13312539725E+03  0.66576572498E+01  0.13532099600E+03  0.00000000000E+00 0.  1.
         12    1    4    4    0    0 -0.80656444727E+02  0.11480824925E+03 -0.47831631349E+02  0.14823717863E+03  0.00000000000E+00 0. -1.
         -5    1    5    5    0  502  0.77195144465E+02 -0.21903980591E+03 -0.31932881066E+03  0.39488036950E+03  0.47000000000E+01 0.  1.
         11    1    6    6    0    0 -0.61499226576E+01 -0.82575735794E+02 -0.71903641509E+02  0.10966634558E+03  0.00000000000E+00 0. -1.
        -12    1    6    6    0    0  0.61862550367E+01  0.18236150859E+02 -0.10138100552E+02  0.21762537360E+02  0.00000000000E+00 0.  1.
</event>
<event>
12    1  0.9962621E-001  0.1916821E+03  0.7818608E-02  0.1157206E+00
         21   -1    0    0  503  502  0.00000000000E+00  0.00000000000E+00  0.94665455396E+02  0.94665455396E+02  0.00000000000E+00 0.  1.
         21   -1    0    0  501  503 -0.00000000000E+00 -0.00000000000E+00 -0.13921045580E+04  0.13921045580E+04  0.00000000000E+00 0.  1.
          6    2    1    2  501    0 -0.83411704147E+02  0.16509953981E+02 -0.12802117296E+04  0.12943153549E+04  0.17052880736E+03 0.  0.
         24    2    3    3    0    0 -0.90631009557E+01  0.23182192021E+00 -0.10469594801E+04  0.10489148775E+04  0.63372499485E+02 0.  0.
         -6    2    1    2    0  502  0.83411704147E+02 -0.16509953981E+02 -0.17227372923E+02  0.19245465850E+03  0.17179034382E+03 0.  0.
        -24    2    5    5    0    0  0.68414632415E+02  0.28541185972E+02  0.39654403053E+02  0.11821084522E+03  0.83103375513E+02 0.  0.
          5    1    3    3  501    0 -0.74348603191E+02  0.16278132060E+02 -0.23325224953E+03  0.24540047737E+03  0.47000000000E+01 0. -1.
        -11    1    4    4    0    0  0.76048371608E+01  0.18177044944E+02 -0.11808847856E+03  0.11972103942E+03  0.00000000000E+00 0.  1.
         12    1    4    4    0    0 -0.16667938117E+02 -0.17945223024E+02 -0.92887100155E+03  0.92919383807E+03  0.00000000000E+00 0. -1.
         -5    1    5    5    0  502  0.14997071732E+02 -0.45051139953E+02 -0.56881775976E+02  0.74243813276E+02  0.47000000000E+01 0.  1.
         11    1    6    6    0    0  0.80269549324E+02  0.21664502907E+02  0.77679135696E+01  0.83503842523E+02  0.00000000000E+00 0. -1.
        -12    1    6    6    0    0 -0.11854916909E+02  0.68766830650E+01  0.31886489483E+02  0.34707002700E+02  0.00000000000E+00 0.  1.
</event>
<event>
12    1  0.9962621E-001  0.1822792E+03  0.7818608E-02  0.1165848E+00
         21   -1    0    0  501  502  0.00000000000E+00  0.00000000000E+00  0.16860868770E+03  0.16860868770E+03  0.00000000000E+00 0. -1.
         21   -1    0    0  502  503 -0.00000000000E+00 -0.00000000000E+00 -0.19615085515E+03  0.19615085515E+03  0.00000000000E+00 0. -1.
         -6    2    1    2    0  503  0.55898762862E+02  0.20241188135E+02 -0.88167109630E+01  0.18249231253E+03  0.17231173017E+03 0.  0.
        -24    2    3    3    0    0  0.78100670149E+02 -0.26325033729E+02 -0.40185755946E+02  0.12193288148E+03  0.80374190671E+02 0.  0.
          6    2    1    2  501    0 -0.55898762862E+02 -0.20241188135E+02 -0.18725456484E+02  0.18226723032E+03  0.17127849585E+03 0.  0.
         24    2    5    5    0    0 -0.95247674176E+02  0.19420864639E+02 -0.92180443853E+01  0.12539987468E+03  0.78682061547E+02 0.  0.
          5    1    5    5  501    0  0.39348911313E+02 -0.39662052774E+02 -0.95074120986E+01  0.56867355632E+02  0.47000000000E+01 0. -1.
        -11    1    6    6    0    0 -0.43019186487E+02 -0.13080652551E+02 -0.36685218436E+02  0.58030674034E+02  0.00000000000E+00 0.  1.
         12    1    6    6    0    0 -0.52228487689E+02  0.32501517190E+02  0.27467174051E+02  0.67369200650E+02  0.00000000000E+00 0. -1.
         -5    1    3    3    0  503 -0.22201907287E+02  0.46566221865E+02  0.31369044983E+02  0.60559431050E+02  0.47000000000E+01 0.  1.
         13    1    4    4    0    0 -0.11087243780E+02  0.13060543872E+02 -0.10154626489E+02  0.19915351365E+02  0.00000000000E+00 0. -1.
        -14    1    4    4    0    0  0.89187913929E+02 -0.39385577601E+02 -0.30031129457E+02  0.10201753011E+03  0.00000000000E+00 0.  1.
</event>
<event>
12    1  0.9962621E-001  0.1806962E+03  0.7818608E-02  0.1167486E+00
         21   -1    0    0  501  502  0.00000000000E+00  0.00000000000E+00  0.33171668219E+03  0.33171668219E+03  0.00000000000E+00 0. -1.
         21   -1    0    0  502  503 -0.00000000000E+00 -0.00000000000E+00 -0.10335322452E+03  0.10335322452E+03  0.00000000000E+00 0. -1.
         -6    2    1    2    0  503  0.50447261955E+02 -0.56272541779E+01  0.62564785374E+02  0.18983467758E+03  0.17189025631E+03 0.  0.
        -24    2    3    3    0    0  0.69193831279E+02 -0.42599878776E+02  0.84474620877E+02  0.14271207448E+03  0.81413995546E+02 0.  0.
          6    2    1    2  501    0 -0.50447261955E+02  0.56272541779E+01  0.16579867229E+03  0.24523522913E+03  0.17342008432E+03 0.  0.
         24    2    5    5    0    0 -0.16843073115E+02 -0.23562374014E+01  0.53995641853E+01  0.81092177109E+02  0.79104645428E+02 0.  0.
          5    1    5    5  501    0 -0.33604188841E+02  0.79834915793E+01  0.16039910811E+03  0.16414305202E+03  0.47000000000E+01 0. -1.
        -13    1    6    6    0    0  0.70098111757E+01 -0.26194988839E+01  0.39096614297E+02  0.39806337141E+02  0.00000000000E+00 0.  1.
         14    1    6    6    0    0 -0.23852884290E+02  0.26326148249E+00 -0.33697050112E+02  0.41285839967E+02  0.00000000000E+00 0. -1.
         -5    1    3    3    0  503 -0.18746569323E+02  0.36972624598E+02 -0.21909835503E+02  0.47122603099E+02  0.47000000000E+01 0.  1.
         13    1    4    4    0    0  0.83244577698E+02 -0.28099496980E+02  0.45791041899E+02  0.99076036279E+02  0.00000000000E+00 0. -1.
        -14    1    4    4    0    0 -0.14050746419E+02 -0.14500381797E+02  0.38683578977E+02  0.43636038199E+02  0.00000000000E+00 0.  1.
</event>
<event>
12    1  0.9962621E-001  0.2916029E+03  0.7818608E-02  0.1089556E+00
         21   -1    0    0  501  502  0.00000000000E+00  0.00000000000E+00  0.32313047602E+03  0.32313047602E+03  0.00000000000E+00 0.  1.
         21   -1    0    0  502  503 -0.00000000000E+00 -0.00000000000E+00 -0.38463820515E+03  0.38463820515E+03  0.00000000000E+00 0.  1.
         -6    2    1    2    0  503  0.23314588193E+03  0.30910840998E+02 -0.22988296579E+03  0.37131986386E+03  0.17239426030E+03 0.  0.
        -24    2    3    3    0    0  0.12495439545E+03 -0.30023354928E+02 -0.80376388973E+02  0.17691646757E+03  0.91236340394E+02 0.  0.
          6    2    1    2  501    0 -0.23314588193E+03 -0.30910840998E+02  0.16837523666E+03  0.33644881731E+03  0.17185780166E+03 0.  0.
         24    2    5    5    0    0 -0.88892131733E+02 -0.20883668572E+02  0.93553746537E+01  0.12146254996E+03  0.79546774361E+02 0.  0.
          5    1    5    5  501    0 -0.14425375020E+03 -0.10027172426E+02  0.15901986201E+03  0.21498626734E+03  0.47000000000E+01 0. -1.
        -13    1    6    6    0    0 -0.35896561724E+02 -0.49280242074E+02  0.54770720415E+01  0.61213590980E+02  0.00000000000E+00 0.  1.
         14    1    6    6    0    0 -0.52995570009E+02  0.28396573503E+02  0.38783026122E+01  0.60248958982E+02  0.00000000000E+00 0. -1.
         -5    1    3    3    0  503  0.10819148648E+03  0.60934195925E+02 -0.14950657681E+03  0.19440339630E+03  0.47000000000E+01 0.  1.
         13    1    4    4    0    0  0.49219564861E+02  0.14502057853E+02  0.84273223217E+01  0.51998990457E+02  0.00000000000E+00 0. -1.
        -14    1    4    4    0    0  0.75734830590E+02 -0.44525412781E+02 -0.88803711294E+02  0.12491747711E+03  0.00000000000E+00 0.  1.
</event>
<event>
12    1  0.9962621E-001  0.2170188E+03  0.7818608E-02  0.1136331E+00
         21   -1    0    0  503  502  0.00000000000E+00  0.00000000000E+00  0.53691462085E+03  0.53691462085E+03  0.00000000000E+00 0. -1.
         21   -1    0    0  501  503 -0.00000000000E+00 -0.00000000000E+00 -0.93033364590E+02  0.93033364590E+02  0.00000000000E+00 0. -1.
          6    2    1    2  501    0  0.49003327971E+02  0.12111284305E+03  0.14310006365E+03  0.25904845225E+03  0.17192680271E+03 0.  0.
         24    2    3    3    0    0  0.78464764471E+02  0.14023505715E+03  0.13022592486E+03  0.22134608147E+03  0.78820719091E+02 0.  0.
         -6    2    1    2    0  502 -0.49003327971E+02 -0.12111284305E+03  0.30078119261E+03  0.37089953319E+03  0.17328442223E+03 0.  0.
        -24    2    5    5    0    0 -0.48630397855E+02 -0.12054234144E+02  0.77174868529E+02  0.12207068152E+03  0.80218893022E+02 0.  0.
          5    1    3    3  501    0 -0.29461436500E+02 -0.19122214100E+02  0.12874138783E+02  0.37702370776E+02  0.47000000000E+01 0. -1.
        -11    1    4    4    0    0  0.46067589549E+02  0.22688618943E+02  0.14786010032E+02  0.53438023251E+02  0.00000000000E+00 0.  1.
         12    1    4    4    0    0  0.32397174922E+02  0.11754643821E+03  0.11543991483E+03  0.16790805822E+03  0.00000000000E+00 0. -1.
         -5    1    5    5    0  502 -0.37293011560E+00 -0.10905860891E+03  0.22360632409E+03  0.24882885167E+03  0.47000000000E+01 0.  1.
         11    1    6    6    0    0 -0.32193925285E+02 -0.35611836524E+02  0.79904036298E+02  0.93216451030E+02  0.00000000000E+00 0. -1.
        -12    1    6    6    0    0 -0.16436472570E+02  0.23557602380E+02 -0.27291677684E+01  0.28854230490E+02  0.00000000000E+00 0.  1.
</event>
<event>
12    1  0.9962621E-001  0.1996412E+03  0.7818608E-02  0.1150199E+00
         21   -1    0    0  501  502  0.00000000000E+00  0.00000000000E+00  0.21464979953E+02  0.21464979953E+02  0.00000000000E+00 0.  1.
         21   -1    0    0  502  503 -0.00000000000E+00 -0.00000000000E+00 -0.18806074630E+04  0.18806074630E+04  0.00000000000E+00 0.  1.
         -6    2    1    2    0  503  0.33964007188E+02 -0.95864826378E+02 -0.10527714966E+04  0.10715336824E+04  0.17179345077E+03 0.  0.
        -24    2    3    3    0    0 -0.13239263567E+02  0.93030245108E+01 -0.51171061218E+03  0.51830913822E+03  0.80838034209E+02 0.  0.
          6    2    1    2  501    0 -0.33964007188E+02  0.95864826378E+02 -0.80637098652E+03  0.83053876063E+03  0.17092936053E+03 0.  0.
         24    2    5    5    0    0  0.29695532397E+02  0.56728819544E+02 -0.27942132080E+03  0.29829614282E+03  0.82488367025E+02 0.  0.
          5    1    5    5  501    0 -0.63659539585E+02  0.39136006834E+02 -0.52694966572E+03  0.53224261781E+03  0.47000000000E+01 0. -1.
        -13    1    6    6    0    0  0.16598438481E+02 -0.17381696945E+02 -0.34303871253E+02  0.41885404757E+02  0.00000000000E+00 0.  1.
         14    1    6    6    0    0  0.13097093916E+02  0.74110516489E+02 -0.24511744955E+03  0.25641073807E+03  0.00000000000E+00 0. -1.
         -5    1    3    3    0  503  0.47203270755E+02 -0.10516785089E+03 -0.54106088438E+03  0.55322454414E+03  0.47000000000E+01 0.  1.
         11    1    4    4    0    0 -0.13007800286E+02  0.33459614869E+02 -0.10667143295E+03  0.11255018127E+03  0.00000000000E+00 0. -1.
        -12    1    4    4    0    0 -0.23146328105E+00 -0.24156590358E+02 -0.40503917923E+03  0.40575895695E+03  0.00000000000E+00 0.  1.
</event>
<event>
12    1  0.9962621E-001  0.1969328E+03  0.7818608E-02  0.1152499E+00
         21   -1    0    0  503  502  0.00000000000E+00  0.00000000000E+00  0.11060458234E+03  0.11060458234E+03  0.00000000000E+00 0.  1.
         21   -1    0    0  501  503 -0.00000000000E+00 -0.00000000000E+00 -0.34945602355E+03  0.34945602355E+03  0.00000000000E+00 0.  1.
          6    2    1    2  501    0  0.14920874703E+02 -0.92443428175E+02 -0.12152080893E+03  0.23140841315E+03  0.17324585639E+03 0.  0.
         24    2    3    3    0    0  0.72665996732E+02 -0.52860736101E+02 -0.49409014230E+02  0.13079285985E+03  0.81184462794E+02 0.  0.
         -6    2    1    2    0  502 -0.14920874703E+02  0.92443428175E+02 -0.11733063228E+03  0.22865219274E+03  0.17247297777E+03 0.  0.
        -24    2    5    5    0    0  0.17285733998E+02 -0.26558546820E+01 -0.94469796562E+02  0.12557044337E+03  0.80855077898E+02 0.  0.
          5    1    3    3  501    0 -0.57745122029E+02 -0.39582692074E+02 -0.72111794697E+02  0.10061555329E+03  0.47000000000E+01 0. -1.
        -13    1    4    4    0    0 -0.17207921370E+02 -0.72570172089E+01 -0.28911051150E+00  0.18677806122E+02  0.00000000000E+00 0.  1.
         14    1    4    4    0    0  0.89873918102E+02 -0.45603718892E+02 -0.49119903718E+02  0.11211505373E+03  0.00000000000E+00 0. -1.
         -5    1    5    5    0  502 -0.32206608702E+02  0.95099282858E+02 -0.22860835714E+02  0.10308174937E+03  0.47000000000E+01 0.  1.
         13    1    6    6    0    0  0.36212178850E+02 -0.29685344615E+01 -0.81987911351E+01  0.37247204862E+02  0.00000000000E+00 0. -1.
        -14    1    6    6    0    0 -0.18926444852E+02  0.31267977947E+00 -0.86271005427E+02  0.88323238509E+02  0.00000000000E+00 0.  1.
</event>
<event>
12    1  0.9962621E-001  0.1770069E+03  0.7818608E-02  0.1170873E+00
         21   -1    0    0  501  502  0.00000000000E+00  0.00000000000E+00  0.62406690149E+03  0.62406690149E+03  0.00000000000E+00 0.  1.
         21   -1    0    0  502  503 -0.00000000000E+00 -0.00000000000E+00 -0.67389850815E+02  0.67389850815E+02  0.00000000000E+00 0.  1.
         -6    2    1    2    0  503 -0.36167677408E+02 -0.19179141040E+02  0.45340834393E+03  0.48652785230E+03  0.17162250543E+03 0.  0.
        -24    2    3    3    0    0 -0.24052425302E+02 -0.77358027844E+02  0.25245949923E+03  0.27692324740E+03  0.79924355283E+02 0.  0.
          6    2    1    2  501    0  0.36167677408E+02  0.19179141040E+02  0.10326870674E+03  0.20492890001E+03  0.17220768835E+03 0.  0.
         24    2    5    5    0    0  0.11466636234E+02  0.21354296463E+02  0.13857006714E+03  0.16153363780E+03  0.79397499399E+02 0.  0.
          5    1    5    5  501    0  0.24701041175E+02 -0.21751554235E+01 -0.35301360396E+02  0.43395262207E+02  0.47000000000E+01 0. -1.
        -13    1    6    6    0    0  0.22711823799E+02  0.32885702921E+02  0.25691180183E+02  0.47511400065E+02  0.00000000000E+00 0.  1.
         14    1    6    6    0    0 -0.11245187566E+02 -0.11531406458E+02  0.11287888696E+03  0.11402223774E+03  0.00000000000E+00 0. -1.
         -5    1    3    3    0  503 -0.12115252106E+02  0.58178886805E+02  0.20094884471E+03  0.20960460489E+03  0.47000000000E+01 0.  1.
         11    1    4    4    0    0  0.29495887174E+02 -0.31007280988E+02  0.87581981875E+02  0.97478522678E+02  0.00000000000E+00 0. -1.
        -12    1    4    4    0    0 -0.53548312476E+02 -0.46350746856E+02  0.16487751735E+03  0.17944472473E+03  0.00000000000E+00 0.  1.
</event>
<event>
12    1  0.9962621E-001  0.2603343E+03  0.7818608E-02  0.1107148E+00
         21   -1    0    0  503  502  0.00000000000E+00  0.00000000000E+00  0.88298864386E+02  0.88298864386E+02  0.00000000000E+00 0.  1.
         21   -1    0    0  501  503 -0.00000000000E+00 -0.00000000000E+00 -0.77363484383E+03  0.77363484383E+03  0.00000000000E+00 0.  1.
          6    2    1    2  501    0  0.64087396974E+02  0.18458552946E+03 -0.29253297312E+03  0.39069262763E+03  0.16995933862E+03 0.  0.
         24    2    3    3    0    0  0.21293583933E+02  0.66572255542E+02 -0.52025300250E+02  0.11935432594E+03  0.81569242544E+02 0.  0.
         -6    2    1    2    0  502 -0.64087396974E+02 -0.18458552946E+03 -0.39280300633E+03  0.47124108059E+03  0.17203180555E+03 0.  0.
        -24    2    5    5    0    0 -0.10675491931E+02 -0.13579906168E+03 -0.36125750661E+03  0.39218312975E+03  0.68885919433E+02 0.  0.
          5    1    3    3  501    0  0.42793813041E+02  0.11801327392E+03 -0.24050767287E+03  0.27133830169E+03  0.47000000000E+01 0. -1.
        -13    1    4    4    0    0 -0.26195108431E+02  0.32837092931E+02 -0.43520105080E+02  0.60485187642E+02  0.00000000000E+00 0.  1.
         14    1    4    4    0    0  0.47488692363E+02  0.33735162611E+02 -0.85051951696E+01  0.58869138295E+02  0.00000000000E+00 0. -1.
         -5    1    5    5    0  502 -0.53411905043E+02 -0.48786467781E+02 -0.31545499712E+02  0.79057950840E+02  0.47000000000E+01 0.  1.
         13    1    6    6    0    0  0.66932099862E+01 -0.39923686699E+01 -0.61636694014E+00  0.78177986493E+01  0.00000000000E+00 0. -1.
        -14    1    6    6    0    0 -0.17368701917E+02 -0.13180669301E+03 -0.36064113967E+03  0.38436533110E+03  0.00000000000E+00 0.  1.
</event>
<event>
12    1  0.9962621E-001  0.2384380E+03  0.7818608E-02  0.1121896E+00
         21   -1    0    0  503  502  0.00000000000E+00  0.00000000000E+00  0.58539833236E+03  0.58539833236E+03  0.00000000000E+00 0.  1.
         21   -1    0    0  501  503 -0.00000000000E+00 -0.00000000000E+00 -0.12163471380E+03  0.12163471380E+03  0.00000000000E+00 0.  1.
          6    2    1    2  501    0  0.88938730545E+02  0.12691011517E+03  0.39614113202E+03  0.45919140321E+03  0.17295280623E+03 0.  0.
         24    2    3    3    0    0 -0.11010047644E+02  0.85080184003E+02  0.15119709250E+03  0.19131237473E+03  0.79874934030E+02 0.  0.
         -6    2    1    2    0  502 -0.88938730545E+02 -0.12691011517E+03  0.67622486540E+02  0.24784164295E+03  0.18120817909E+03 0.  0.
        -24    2    5    5    0    0 -0.76698076628E+02 -0.27358653545E+02  0.89945098018E+02  0.14497903505E+03  0.79358106479E+02 0.  0.
          5    1    3    3  501    0  0.99948778189E+02  0.41829931171E+02  0.24494403953E+03  0.26787902849E+03  0.47000000000E+01 0. -1.
        -13    1    4    4    0    0 -0.25183957608E+01  0.96759673851E+02  0.14747201360E+03  0.17639946597E+03  0.00000000000E+00 0.  1.
         14    1    4    4    0    0 -0.84916518835E+01 -0.11679489848E+02  0.37250789001E+01  0.14912908758E+02  0.00000000000E+00 0. -1.
         -5    1    5    5    0  502 -0.12240653917E+02 -0.99551461629E+02 -0.22322611478E+02  0.10286260790E+03  0.47000000000E+01 0.  1.
         11    1    6    6    0    0 -0.35722792151E+02 -0.39346364811E+02  0.96119011457E+01  0.54005952881E+02  0.00000000000E+00 0. -1.
        -12    1    6    6    0    0 -0.40975284477E+02  0.11987711266E+02  0.80333196872E+02  0.90973082167E+02  0.00000000000E+00 0.  1.
</event>
<event>
12    1  0.9962621E-001  0.1761273E+03  0.7818608E-02  0.1172287E+00
         21   -1    0    0  501  502  0.00000000000E+00  0.00000000000E+00  0.49414980612E+02  0.49414980612E+02  0.00000000000E+00 0. -1.
         21   -1    0    0  502  503 -0.00000000000E+00 -0.00000000000E+00 -0.70239687251E+03  0.70239687251E+03  0.00000000000E+00 0. -1.
         -6    2    1    2    0  503  0.16265016661E+02  0.14488271249E+02 -0.19851463535E+03  0.26538439588E+03  0.17477515944E+03 0.  0.
        -24    2    3    3    0    0  0.70951082477E+02 -0.22695302232E+02 -0.12549521639E+03  0.16675828637E+03  0.80685462683E+02 0.  0.
          6    2    1    2  501    0 -0.16265016661E+02 -0.14488271249E+02 -0.45446725655E+03  0.48642745724E+03  0.17203698183E+03 0.  0.
         24    2    5    5    0    0 -0.35922754376E+02  0.29387477179E+02 -0.13878572404E+03  0.16707118610E+03  0.80605433630E+02 0.  0.
          5    1    5    5  501    0  0.19657737714E+02 -0.43875748428E+02 -0.31568153251E+03  0.31935627115E+03  0.47000000000E+01 0. -1.
        -13    1    6    6    0    0  0.13467919779E+02 -0.11308299426E+02 -0.42534434993E+01  0.18092934552E+02  0.00000000000E+00 0.  1.
         14    1    6    6    0    0 -0.49390674155E+02  0.40695776605E+02 -0.13453228054E+03  0.14897825155E+03  0.00000000000E+00 0. -1.
         -5    1    3    3    0  503 -0.54686065816E+02  0.37183573481E+02 -0.73019418964E+02  0.98626109510E+02  0.47000000000E+01 0.  1.
         11    1    4    4    0    0  0.64498148047E+01 -0.39163097849E+02 -0.68285771476E+02  0.78982877449E+02  0.00000000000E+00 0. -1.
        -12    1    4    4    0    0  0.64501267672E+02  0.16467795617E+02 -0.57209444913E+02  0.87775408920E+02  0.00000000000E+00 0.  1.
</event>
<event>
12    1  0.9962621E-001  0.2041218E+03  0.7818608E-02  0.1146383E+00
         21   -1    0    0  503  502  0.00000000000E+00  0.00000000000E+00  0.38262122011E+03  0.38262122011E+03  0.00000000000E+00 0.  1.
         21   -1    0    0  501  503 -0.00000000000E+00 -0.00000000000E+00 -0.11031199771E+03  0.11031199771E+03  0.00000000000E+00 0.  1.
          6    2    1    2  501    0 -0.40808348183E+01 -0.10861481952E+03  0.10622977252E+03  0.22978287868E+03  0.17234144752E+03 0.  0.
         24    2    3    3    0    0  0.15614231654E+02 -0.11902998610E+03  0.13116652126E+03  0.19601450922E+03  0.82492967613E+02 0.  0.
         -6    2    1    2    0  502  0.40808348183E+01  0.10861481952E+03  0.16607944988E+03  0.26315033913E+03  0.17277698076E+03 0.  0.
        -24    2    5    5    0    0  0.36383803499E+02  0.14720911467E+02  0.12921727590E+03  0.15712931468E+03  0.80324533911E+02 0.  0.
          5    1    3    3  501    0 -0.19695066473E+02  0.10415166573E+02 -0.24936748743E+02  0.33768369460E+02  0.47000000000E+01 0. -1.
        -13    1    4    4    0    0  0.46659969815E+02 -0.81908187270E+02  0.10459886871E+03  0.14080847723E+03  0.00000000000E+00 0.  1.
         14    1    4    4    0    0 -0.31045738161E+02 -0.37121798825E+02  0.26567652553E+02  0.55206031991E+02  0.00000000000E+00 0. -1.
         -5    1    5    5    0  502 -0.32302968680E+02  0.93893908056E+02  0.36862173980E+02  0.10602102445E+03  0.47000000000E+01 0.  1.
         13    1    6    6    0    0  0.97622236079E+01  0.42424192006E+02  0.36654342266E+02  0.56909172231E+02  0.00000000000E+00 0. -1.
        -14    1    6    6    0    0  0.26621579891E+02 -0.27703280539E+02  0.92562933638E+02  0.10022014245E+03  0.00000000000E+00 0.  1.
</event>
<event>
12    1  0.9962621E-001  0.3061734E+03  0.7818608E-02  0.1082909E+00
         21   -1    0    0  503  502  0.00000000000E+00  0.00000000000E+00  0.31593831568E+03  0.31593831568E+03  0.00000000000E+00 0. -1.
         21   -1    0    0  501  503 -0.00000000000E+00 -0.00000000000E+00 -0.29111635826E+03  0.29111635826E+03  0.00000000000E+00 0. -1.
          6    2    1    2  501    0  0.20041272779E+03 -0.14413858300E+03  0.14098101753E+02  0.30069348838E+03  0.17110413470E+03 0.  0.
         24    2    3    3    0    0  0.41793968732E+02 -0.88621771858E+01  0.32406412487E+00  0.91716382437E+02  0.81157351995E+02 0.  0.
         -6    2    1    2    0  502 -0.20041272779E+03  0.14413858300E+03  0.10723855674E+02  0.30636118556E+03  0.18111041485E+03 0.  0.
        -24    2    5    5    0    0 -0.16675508631E+03  0.96421930083E+02  0.73072812808E+02  0.22080887261E+03  0.79451084564E+02 0.  0.
          5    1    3    3  501    0  0.15861875906E+03 -0.13527640582E+03  0.13774037628E+02  0.20897710594E+03  0.47000000000E+01 0. -1.
        -13    1    4    4    0    0  0.50078468923E+02 -0.29095443479E+02  0.21017359545E+02  0.61612720141E+02  0.00000000000E+00 0.  1.
         14    1    4    4    0    0 -0.82845001903E+01  0.20233266293E+02 -0.20693295420E+02  0.30103662296E+02  0.00000000000E+00 0. -1.
         -5    1    5    5    0  502 -0.33657641477E+02  0.47716652921E+02 -0.62348957134E+02  0.85552312953E+02  0.47000000000E+01 0.  1.
         11    1    6    6    0    0 -0.11146140237E+03  0.26659589911E+02  0.64168574483E+02  0.13134680774E+03  0.00000000000E+00 0. -1.
        -12    1    6    6    0    0 -0.55293683947E+02  0.69762340173E+02  0.89042383256E+01  0.89462064871E+02  0.00000000000E+00 0.  1.
</event>
<event>
12    1  0.9962621E-001  0.1754848E+03  0.7818608E-02  0.1172309E+00
         21   -1    0    0  503  502  0.00000000000E+00  0.00000000000E+00  0.69663987559E+02  0.69663987559E+02  0.00000000000E+00 0. -1.
         21   -1    0    0  501  503 -0.00000000000E+00 -0.00000000000E+00 -0.47105379663E+03  0.47105379663E+03  0.00000000000E+00 0. -1.
          6    2    1    2  501    0 -0.24889642052E+02  0.13396729315E+02 -0.13300982017E+03  0.22019654766E+03  0.17319336217E+03 0.  0.
         24    2    3    3    0    0 -0.52792259199E+02  0.15730591532E+02 -0.12289805748E+02  0.96182778911E+02  0.77882048590E+02 0.  0.
         -6    2    1    2    0  502  0.24889642052E+02 -0.13396729315E+02 -0.26837998890E+03  0.32052123653E+03  0.17293662998E+03 0.  0.
        -24    2    5    5    0    0  0.21078170235E+02 -0.52546502574E+02 -0.26288708573E+03  0.28052756142E+03  0.79879087855E+02 0.  0.
          5    1    3    3  501    0  0.27902617147E+02 -0.23338622172E+01 -0.12072001442E+03  0.12401376875E+03  0.47000000000E+01 0. -1.
        -13    1    4    4    0    0 -0.36783472944E+01 -0.74523702120E+01  0.27582615185E+02  0.28807442112E+02  0.00000000000E+00 0.  1.
         14    1    4    4    0    0 -0.49113911904E+02  0.23182961744E+02 -0.39872420933E+02  0.67375336799E+02  0.00000000000E+00 0. -1.
         -5    1    5    5    0  502  0.38114718164E+01  0.39149773260E+02 -0.54929031639E+01  0.39993675111E+02  0.47000000000E+01 0.  1.
         11    1    6    6    0    0 -0.20188560868E+02 -0.19677824730E+02 -0.27799585227E+02  0.39593076602E+02  0.00000000000E+00 0. -1.
        -12    1    6    6    0    0  0.41266731104E+02 -0.32868677844E+02 -0.23508750051E+03  0.24093448482E+03  0.00000000000E+00 0.  1.
</event>
<event>
12    1  0.9962621E-001  0.2214671E+03  0.7818608E-02  0.1135216E+00
         21   -1    0    0  503  502  0.00000000000E+00  0.00000000000E+00  0.47957629731E+03  0.47957629731E+03  0.00000000000E+00 0.  1.
         21   -1    0    0  501  503 -0.00000000000E+00 -0.00000000000E+00 -0.13895979151E+03  0.13895979151E+03  0.00000000000E+00 0.  1.
          6    2    1    2  501    0 -0.12548854129E+03  0.69612453310E+02  0.34471467800E+03  0.40972658454E+03  0.16868431225E+03 0.  0.
         24    2    3    3    0    0 -0.12701679665E+03  0.12073825028E+02  0.17680798651E+03  0.23216595727E+03  0.79755399434E+02 0.  0.
         -6    2    1    2    0  502  0.12548854129E+03 -0.69612453310E+02 -0.40981722103E+01  0.20880950428E+03  0.15162897615E+03 0.  0.
        -24    2    5    5    0    0  0.72304663590E+02 -0.38816794168E+02 -0.56533103025E+02  0.12788726111E+03  0.80152678873E+02 0.  0.
          5    1    3    3  501    0  0.15282553600E+01  0.57538628282E+02  0.16790669150E+03  0.17756062728E+03  0.47000000000E+01 0. -1.
        -13    1    4    4    0    0 -0.46249267000E+02 -0.29625825954E+02  0.40131885978E+02  0.68023911485E+02  0.00000000000E+00 0.  1.
         14    1    4    4    0    0 -0.80767529652E+02  0.41699650983E+02  0.13667610053E+03  0.16414204578E+03  0.00000000000E+00 0. -1.
         -5    1    5    5    0  502  0.53183877703E+02 -0.30795659142E+02  0.52434930815E+02  0.80922243166E+02  0.47000000000E+01 0.  1.
         13    1    6    6    0    0  0.25181865707E+02  0.24739925615E+02 -0.13284943883E+02  0.37718430692E+02  0.00000000000E+00 0. -1.
        -14    1    6    6    0    0  0.47122797883E+02 -0.63556719783E+02 -0.43248159142E+02  0.90168830419E+02  0.00000000000E+00 0.  1.
</event>
<event>
12    1  0.9962621E-001  0.2062948E+03  0.7818608E-02  0.1144608E+00
         21   -1    0    0  501  502  0.00000000000E+00  0.00000000000E+00  0.22887419599E+03  0.22887419599E+03  0.00000000000E+00 0. -1.
         21   -1    0    0  502  503 -0.00000000000E+00 -0.00000000000E+00 -0.18654888258E+03  0.18654888258E+03  0.00000000000E+00 0. -1.
         -6    2    1    2    0  503  0.72392195439E+02 -0.87795658482E+02  0.64557262606E+01  0.20603311174E+03  0.17163699811E+03 0.  0.
        -24    2    3    3    0    0  0.96758656302E+02 -0.10420976258E+03 -0.22176487267E+02  0.16474097108E+03  0.80161579193E+02 0.  0.
          6    2    1    2  501    0 -0.72392195439E+02  0.87795658482E+02  0.35869587153E+02  0.20938996683E+03  0.17207214568E+03 0.  0.
         24    2    5    5    0    0 -0.79551764353E+02  0.12248043762E+03  0.12853062045E+02  0.16689121674E+03  0.79734159623E+02 0.  0.
          5    1    5    5  501    0  0.71595689147E+01 -0.34684779140E+02  0.23016525107E+02  0.42498750088E+02  0.47000000000E+01 0. -1.
        -13    1    6    6    0    0 -0.86357375005E+02  0.73532191949E+02  0.24680958764E+02  0.11607639379E+03  0.00000000000E+00 0.  1.
         14    1    6    6    0    0  0.68056106513E+01  0.48948245673E+02 -0.11827896719E+02  0.50814822951E+02  0.00000000000E+00 0. -1.
         -5    1    3    3    0  503 -0.24366460863E+02  0.16414104098E+02  0.28632213528E+02  0.41292140655E+02  0.47000000000E+01 0.  1.
         13    1    4    4    0    0  0.37496060549E+02  0.61299507638E+01 -0.52947795111E+01  0.38360989861E+02  0.00000000000E+00 0. -1.
        -14    1    4    4    0    0  0.59262595753E+02 -0.11033971334E+03 -0.16881707756E+02  0.12637998122E+03  0.00000000000E+00 0.  1.
</event>
<event>
12    1  0.9962621E-001  0.2907821E+03  0.7818608E-02  0.1090130E+00
         21   -1    0    0  501  502  0.00000000000E+00  0.00000000000E+00  0.95988820002E+03  0.95988820002E+03  0.00000000000E+00 0. -1.
         21   -1    0    0  502  503 -0.00000000000E+00 -0.00000000000E+00 -0.88469203312E+02  0.88469203312E+02  0.00000000000E+00 0.  1.
         -6    2    1    2    0  503 -0.18165330413E+03 -0.14875139404E+03  0.38636129733E+03  0.48355898119E+03  0.17154980642E+03 0.  0.
        -24    2    3    3    0    0 -0.92713735436E+02 -0.15191603837E+03  0.31003847334E+03  0.36622388279E+03  0.79509483248E+02 0.  0.
          6    2    1    2  501    0  0.18165330413E+03  0.14875139404E+03  0.48505769938E+03  0.56479842214E+03  0.16908987493E+03 0.  0.
         24    2    5    5    0    0  0.14496732073E+03  0.40465988363E+02  0.33606627869E+03  0.37693644117E+03  0.80545122200E+02 0.  0.
          5    1    5    5  501    0  0.36685983393E+02  0.10828540567E+03  0.14899142068E+03  0.18786198098E+03  0.47000000000E+01 0. -1.
        -13    1    6    6    0    0  0.38758796319E+02  0.37617799094E+02  0.57957960340E+02  0.79224164669E+02  0.00000000000E+00 0.  1.
         14    1    6    6    0    0  0.10620852442E+03  0.28481892698E+01  0.27810831835E+03  0.29771227650E+03  0.00000000000E+00 0. -1.
         -5    1    3    3    0  503 -0.88939568691E+02  0.31646443342E+01  0.76322823996E+02  0.11733509840E+03  0.47000000000E+01 0.  1.
         11    1    4    4    0    0 -0.59738278048E+02 -0.14158126600E+03  0.20881103790E+03  0.25926042177E+03  0.00000000000E+00 0. -1.
        -12    1    4    4    0    0 -0.32975457388E+02 -0.10334772375E+02  0.10122743543E+03  0.10696346103E+03  0.00000000000E+00 0.  1.
</event>
<event>
12    1  0.9962621E-001  0.1830321E+03  0.7818608E-02  0.1165123E+00
         21   -1    0    0  501  502  0.00000000000E+00  0.00000000000E+00  0.72923632655E+02  0.72923632655E+02  0.00000000000E+00 0. -1.
         21   -1    0    0  502  503 -0.00000000000E+00 -0.00000000000E+00 -0.51071666591E+03  0.51071666591E+03  0.00000000000E+00 0. -1.
         -6    2    1    2    0  503 -0.21276141861E+02 -0.53257377603E+02 -0.12379396158E+03  0.22018991434E+03  0.17282832803E+03 0.  0.
        -24    2    3    3    0    0  0.29936981765E+02 -0.22305751455E+02 -0.60010987162E+01  0.87985391969E+02  0.79445872070E+02 0.  0.
          6    2    1    2  501    0  0.21276141861E+02  0.53257377603E+02 -0.31399907168E+03  0.36345038423E+03  0.17381525336E+03 0.  0.
         24    2    5    5    0    0 -0.37244370709E+02  0.45519021261E+02 -0.78204977671E+02  0.12033420353E+03  0.70036972809E+02 0.  0.
          5    1    5    5  501    0  0.58520512570E+02  0.77383563416E+01 -0.23579409401E+03  0.24311618070E+03  0.47000000000E+01 0. -1.
        -13    1    6    6    0    0 -0.14381258624E+02  0.34474741835E+01  0.11443800590E+02  0.18699364957E+02  0.00000000000E+00 0.  1.
         14    1    6    6    0    0 -0.22863112085E+02  0.42071547078E+02 -0.89648778261E+02  0.10163483857E+03  0.00000000000E+00 0. -1.
         -5    1    3    3    0  503 -0.51213123626E+02 -0.30951626148E+02 -0.11779286286E+03  0.13220452237E+03  0.47000000000E+01 0.  1.
         11    1    4    4    0    0 -0.14780682457E+02  0.18874213822E+02  0.85952595778E+01  0.25467292917E+02  0.00000000000E+00 0. -1.
        -12    1    4    4    0    0  0.44717664222E+02 -0.41179965277E+02 -0.14596358294E+02  0.62518099053E+02  0.00000000000E+00 0.  1.
</event>
<event>
12    1  0.9962621E-001  0.1880045E+03  0.7818608E-02  0.1161422E+00
         21   -1    0    0  501  502  0.00000000000E+00  0.00000000000E+00  0.40097027347E+03  0.40097027347E+03  0.00000000000E+00 0. -1.
         21   -1    0    0  502  503 -0.00000000000E+00 -0.00000000000E+00 -0.94716162946E+02  0.94716162946E+02  0.00000000000E+00 0. -1.
         -6    2    1    2    0  503 -0.44653069017E+02 -0.44633432283E+02  0.22712205687E+03  0.29170712637E+03  0.17182135783E+03 0.  0.
        -24    2    3    3    0    0  0.23269843005E+02  0.22558458844E+02  0.93266740297E+02  0.12718476319E+03  0.80168007851E+02 0.  0.
          6    2    1    2  501    0  0.44653069017E+02  0.44633432283E+02  0.79132053649E+02  0.20397931004E+03  0.17708652451E+03 0.  0.
         24    2    5    5    0    0  0.70623436757E+02  0.60852806802E+02  0.10644556220E+03  0.16267984444E+03  0.80270418955E+02 0.  0.
          5    1    5    5  501    0 -0.25970367740E+02 -0.16219374520E+02 -0.27313508548E+02  0.41299465609E+02  0.47000000000E+01 0. -1.
        -11    1    6    6    0    0  0.20399083019E+02  0.24142528453E+02  0.94086780009E+02  0.99253747741E+02  0.00000000000E+00 0.  1.
         12    1    6    6    0    0  0.50224353737E+02  0.36710278349E+02  0.12358782188E+02  0.63426096695E+02  0.00000000000E+00 0. -1.
         -5    1    3    3    0  503 -0.67922912022E+02 -0.67191891126E+02  0.13385531657E+03  0.16452236318E+03  0.47000000000E+01 0.  1.
         11    1    4    4    0    0  0.34938977154E+02 -0.21366454744E+02  0.41685769680E+02  0.58437666849E+02  0.00000000000E+00 0. -1.
        -12    1    4    4    0    0 -0.11669134149E+02  0.43924913587E+02  0.51580970616E+02  0.68747096340E+02  0.00000000000E+00 0.  1.
</event>
<event>
12    1  0.9962621E-001  0.7139730E+03  0.7818608E-02  0.9693642E-01
         21   -1    0    0  501  502  0.00000000000E+00  0.00000000000E+00  0.12829866010E+04  0.12829866010E+04  0.00000000000E+00 0. -1.
         21   -1    0    0  502  503 -0.00000000000E+00 -0.00000000000E+00 -0.39827237275E+03  0.39827237275E+03  0.00000000000E+00 0. -1.
         -6    2    1    2    0  503 -0.49810068445E+03  0.48161093244E+03  0.40091649974E+03  0.81881031127E+03  0.17222921931E+03 0.  0.
        -24    2    3    3    0    0 -0.44638598783E+03  0.39612898820E+03  0.38955118365E+03  0.71814833708E+03  0.88364494851E+02 0.  0.
          6    2    1    2  501    0  0.49810068445E+03 -0.48161093244E+03  0.48379772852E+03  0.86244866250E+03  0.17234869079E+03 0.  0.
         24    2    5    5    0    0  0.35950617429E+03 -0.41590093331E+03  0.41865102712E+03  0.69573806015E+03  0.81021541239E+02 0.  0.
          5    1    5    5  501    0  0.13859451016E+03 -0.65709999128E+02  0.65146701406E+02  0.16671060235E+03  0.47000000000E+01 0. -1.
        -11    1    6    6    0    0  0.19189225338E+03 -0.23095837188E+03  0.17824257843E+03  0.34919167117E+03  0.00000000000E+00 0.  1.
         12    1    6    6    0    0  0.16761392092E+03 -0.18494256143E+03  0.24040844868E+03  0.34654638898E+03  0.00000000000E+00 0. -1.
         -5    1    3    3    0  503 -0.51714696623E+02  0.85481944239E+02  0.11365316092E+02  0.10066197419E+03  0.47000000000E+01 0.  1.
         11    1    4    4    0    0 -0.49434328559E+02  0.11944424571E+02  0.30681669654E+02  0.59395176329E+02  0.00000000000E+00 0. -1.
        -12    1    4    4    0    0 -0.39695165927E+03  0.38418456363E+03  0.35886951400E+03  0.65875316076E+03  0.00000000000E+00 0.  1.
</event>
<event>
12    1  0.9962621E-001  0.2320661E+03  0.7818608E-02  0.1125304E+00
         21   -1    0    0  501  502  0.00000000000E+00  0.00000000000E+00  0.18791442356E+03  0.18791442356E+03  0.00000000000E+00 0.  1.
         21   -1    0    0  502  503 -0.00000000000E+00 -0.00000000000E+00 -0.29669202665E+03  0.29669202665E+03  0.00000000000E+00 0. -1.
         -6    2    1    2    0  503  0.13880455381E+03  0.71492457478E+02 -0.10085385653E+03  0.25303396722E+03  0.17168812584E+03 0.  0.
        -24    2    3    3    0    0  0.12246864807E+03 -0.15010468636E+01 -0.29800158371E+02  0.14975942285E+03  0.80864160110E+02 0.  0.
          6    2    1    2  501    0 -0.13880455381E+03 -0.71492457478E+02 -0.79237465600E+01  0.23157248299E+03  0.17083662805E+03 0.  0.
         24    2    5    5    0    0 -0.77954919138E+02 -0.48004404549E+02  0.61551345972E+02  0.13616155514E+03  0.79812333847E+02 0.  0.
          5    1    5    5  501    0 -0.60849634675E+02 -0.23488052929E+02 -0.69475092532E+02  0.95410927848E+02  0.47000000000E+01 0. -1.
        -11    1    6    6    0    0 -0.26792814547E+02  0.22009513873E+02  0.19630225268E+02  0.39844941415E+02  0.00000000000E+00 0.  1.
         12    1    6    6    0    0 -0.51162104591E+02 -0.70013918422E+02  0.41921120704E+02  0.96316613728E+02  0.00000000000E+00 0. -1.
         -5    1    3    3    0  503  0.16335905741E+02  0.72993504341E+02 -0.71053698164E+02  0.10327454437E+03  0.47000000000E+01 0.  1.
         13    1    4    4    0    0  0.11428365541E+03 -0.56595443964E+01  0.42407026301E+01  0.11450226153E+03  0.00000000000E+00 0. -1.
        -14    1    4    4    0    0  0.81849926647E+01  0.41584975329E+01 -0.34040861001E+02  0.35257161320E+02  0.00000000000E+00 0.  1.
</event>
<event>
12    1  0.9962621E-001  0.2660003E+03  0.7818608E-02  0.1104523E+00
         21   -1    0    0  501  502  0.00000000000E+00  0.00000000000E+00  0.35173720594E+03  0.35173720594E+03  0.00000000000E+00 0. -1.
         21   -1    0    0  502  503 -0.00000000000E+00 -0.00000000000E+00 -0.45044613156E+03  0.45044613156E+03  0.00000000000E+00 0.  1.
         -6    2    1    2    0  503 -0.12327523616E+02  0.20114908880E+03  0.25210072580E+03  0.36192937423E+03  0.16378391929E+03 0.  0.
        -24    2    3    3    0    0  0.35918851298E+02  0.16784393449E+03  0.22934513815E+03  0.29886708150E+03  0.85209094490E+02 0.  0.
          6    2    1    2  501    0  0.12327523616E+02 -0.20114908880E+03 -0.35080965142E+03  0.44025396327E+03  0.17361802002E+03 0.  0.
         24    2    5    5    0    0 -0.14377548096E+02 -0.40546818299E+02 -0.19199413372E+03  0.21276614204E+03  0.80974844553E+02 0.  0.
          5    1    5    5  501    0  0.26705071712E+02 -0.16060227050E+03 -0.15881551770E+03  0.22748782123E+03  0.47000000000E+01 0. -1.
        -13    1    6    6    0    0 -0.39923461744E+02 -0.49058253364E+02 -0.11570422890E+03  0.13186380704E+03  0.00000000000E+00 0.  1.
         14    1    6    6    0    0  0.25545913648E+02  0.85114350643E+01 -0.76289904817E+02  0.80902334997E+02  0.00000000000E+00 0. -1.
         -5    1    3    3    0  503 -0.48246374914E+02  0.33305154308E+02  0.22755587648E+02  0.63062292735E+02  0.47000000000E+01 0.  1.
         13    1    4    4    0    0  0.27779391288E+02  0.16587705128E+03  0.23483801902E+03  0.28885253313E+03  0.00000000000E+00 0. -1.
        -14    1    4    4    0    0  0.81394600096E+01  0.19668832172E+01 -0.54928808626E+01  0.10014548368E+02  0.00000000000E+00 0.  1.
</event>
<event>
12    1  0.9962621E-001  0.2139372E+03  0.7818608E-02  0.1138510E+00
         21   -1    0    0  501  502  0.00000000000E+00  0.00000000000E+00  0.13793458856E+03  0.13793458856E+03  0.00000000000E+00 0.  1.
         21   -1    0    0  502  503 -0.00000000000E+00 -0.00000000000E+00 -0.35731539372E+03  0.35731539372E+03  0.00000000000E+00 0.  1.
         -6    2    1    2    0  503  0.12224265869E+03 -0.36635572603E+02 -0.17611739754E+03  0.27710372621E+03  0.17170819601E+03 0.  0.
        -24    2    3    3    0    0  0.22632952415E+01  0.47736075398E+00 -0.39660285299E+02  0.91590786073E+02  0.82526259365E+02 0.  0.
          6    2    1    2  501    0 -0.12224265869E+03  0.36635572603E+02 -0.43263407608E+02  0.21814625607E+03  0.17155358877E+03 0.  0.
         24    2    5    5    0    0 -0.12035614618E+03 -0.29099968954E+01  0.16448988904E+02  0.14634743092E+03  0.81565503090E+02 0.  0.
          5    1    5    5  501    0 -0.18865125034E+01  0.39545569498E+02 -0.59712396513E+02  0.71798825155E+02  0.47000000000E+01 0. -1.
        -11    1    6    6    0    0 -0.19721455057E+02  0.20892549978E+02 -0.21825523437E+02  0.36080298051E+02  0.00000000000E+00 0.  1.
         12    1    6    6    0    0 -0.10063469113E+03 -0.23802546874E+02  0.38274512341E+02  0.11026713287E+03  0.00000000000E+00 0. -1.
         -5    1    3    3    0  503  0.11997936344E+03 -0.37112933357E+02 -0.13645711224E+03  0.18551294013E+03  0.47000000000E+01 0.  1.
         11    1    4    4    0    0  0.10264542644E+02  0.39933576137E+02 -0.27401338052E+02  0.49506410350E+02  0.00000000000E+00 0. -1.
        -12    1    4    4    0    0 -0.80012474023E+01 -0.39456215383E+02 -0.12258947248E+02  0.42084375722E+02  0.00000000000E+00 0.  1.
</event>
<event>
12    1  0.9962621E-001  0.3700012E+03  0.7818608E-02  0.1054693E+00
         21   -1    0    0  503  502  0.00000000000E+00  0.00000000000E+00  0.47822595959E+03  0.47822595959E+03  0.00000000000E+00 0.  1.
         21   -1    0    0  501  503 -0.00000000000E+00 -0.00000000000E+00 -0.37417663712E+03  0.37417663712E+03  0.00000000000E+00 0. -1.
          6    2    1    2  501    0  0.32073024258E+03 -0.66969940352E+02  0.25860984452E+03  0.45141988427E+03  0.17189531353E+03 0.  0.
         24    2    3    3    0    0  0.32736684486E+03 -0.65314405058E+02  0.21175289342E+03  0.40383365566E+03  0.82506429742E+02 0.  0.
         -6    2    1    2    0  502 -0.32073024258E+03  0.66969940352E+02 -0.15456052206E+03  0.40098271245E+03  0.17188751929E+03 0.  0.
        -24    2    5    5    0    0 -0.30670953535E+03  0.85340020430E+02 -0.10251476564E+03  0.34384348920E+03  0.79783517878E+02 0.  0.
          5    1    3    3  501    0 -0.66366022804E+01 -0.16555352941E+01  0.46856951099E+02  0.47586228609E+02  0.47000000000E+01 0. -1.
        -11    1    4    4    0    0  0.13177747347E+03 -0.18819692243E+02  0.38847617430E+02  0.13866730224E+03  0.00000000000E+00 0.  1.
         12    1    4    4    0    0  0.19558937139E+03 -0.46494712815E+02  0.17290527599E+03  0.26516635342E+03  0.00000000000E+00 0. -1.
         -5    1    5    5    0  502 -0.14020707225E+02 -0.18370080078E+02 -0.52045756413E+02  0.57139223251E+02  0.47000000000E+01 0.  1.
         11    1    6    6    0    0 -0.85082301164E+02  0.44731286108E+01  0.33373722852E+01  0.85265144724E+02  0.00000000000E+00 0. -1.
        -12    1    6    6    0    0 -0.22162723419E+03  0.80866891819E+02 -0.10585213793E+03  0.25857834447E+03  0.00000000000E+00 0.  1.
</event>
<event>
12    1  0.9962621E-001  0.1734439E+03  0.7818608E-02  0.1174334E+00
         21   -1    0    0  503  502  0.00000000000E+00  0.00000000000E+00  0.23354332647E+03  0.23354332647E+03  0.00000000000E+00 0.  1.
         21   -1    0    0  501  503 -0.00000000000E+00 -0.00000000000E+00 -0.19537026174E+03  0.19537026174E+03  0.00000000000E+00 0.  1.
          6    2    1    2  501    0 -0.15122699524E+02  0.13563036560E+02  0.14434216735E+03  0.22555509410E+03  0.17212724130E+03 0.  0.
         24    2    3    3    0    0 -0.59947200838E+01 -0.48721476424E+02  0.13123111482E+03  0.16108284996E+03  0.79475531574E+02 0.  0.
         -6    2    1    2    0  502  0.15122699524E+02 -0.13563036560E+02 -0.10616910261E+03  0.20335849411E+03  0.17225024463E+03 0.  0.
        -24    2    5    5    0    0 -0.52632599611E+02  0.14273487527E+02 -0.94505867290E+02  0.12903639987E+03  0.68884762837E+02 0.  0.
          5    1    3    3  501    0 -0.91279794403E+01  0.62284512984E+02  0.13111052528E+02  0.64472244142E+02  0.47000000000E+01 0. -1.
        -13    1    4    4    0    0 -0.34476256996E+02 -0.51639252572E+02  0.70517126120E+02  0.93956850622E+02  0.00000000000E+00 0.  1.
         14    1    4    4    0    0  0.28481536913E+02  0.29177761477E+01  0.60713988701E+02  0.67125999333E+02  0.00000000000E+00 0. -1.
         -5    1    5    5    0  502  0.67755299136E+02 -0.27836524087E+02 -0.11663235323E+02  0.74322094241E+02  0.47000000000E+01 0.  1.
         11    1    6    6    0    0 -0.44074657565E+02 -0.22900626273E+02 -0.51457580558E+02  0.71518506137E+02  0.00000000000E+00 0. -1.
        -12    1    6    6    0    0 -0.85579420462E+01  0.37174113800E+02 -0.43048286732E+02  0.57517893733E+02  0.00000000000E+00 0.  1.
</event>
<event>
12    1  0.9962621E-001  0.2303355E+03  0.7818608E-02  0.1126414E+00
         21   -1    0    0  503  502  0.00000000000E+00  0.00000000000E+00  0.41309383953E+03  0.41309383953E+03  0.00000000000E+00 0.  1.
         21   -1    0    0  501  503 -0.00000000000E+00 -0.00000000000E+00 -0.27192111378E+03  0.27192111378E+03  0.00000000000E+00 0.  1.
          6    2    1    2  501    0  0.14952800297E+03  0.31156720479E+02  0.31942285084E+03  0.39380881488E+03  0.17240957088E+03 0.  0.
         24    2    3    3    0    0  0.10470318903E+03  0.16749791572E+02  0.88443775782E+02  0.15803297502E+03  0.76868760933E+02 0.  0.
         -6    2    1    2    0  502 -0.14952800297E+03 -0.31156720479E+02 -0.17825012510E+03  0.29120613843E+03  0.17233265232E+03 0.  0.
        -24    2    5    5    0    0 -0.10074553738E+03 -0.48877221060E+02 -0.19313266225E+03  0.23700904439E+03  0.79589043551E+02 0.  0.
          5    1    3    3  501    0  0.44824813944E+02  0.14406928907E+02  0.23097907506E+03  0.23577583986E+03  0.47000000000E+01 0. -1.
        -11    1    4    4    0    0  0.23470633829E+01  0.23395224563E+02  0.35561165691E+02  0.42631464251E+02  0.00000000000E+00 0.  1.
         12    1    4    4    0    0  0.10235612565E+03 -0.66454329905E+01  0.52882610091E+02  0.11540151077E+03  0.00000000000E+00 0. -1.
         -5    1    5    5    0  502 -0.48782465589E+02  0.17720500581E+02  0.14882537155E+02  0.54197094036E+02  0.47000000000E+01 0.  1.
         11    1    6    6    0    0  0.74598547672E+00  0.15750810857E+02 -0.34269816531E+02  0.37723531941E+02  0.00000000000E+00 0. -1.
        -12    1    6    6    0    0 -0.10149152286E+03 -0.64628031917E+02 -0.15886284572E+03  0.19928551245E+03  0.00000000000E+00 0.  1.
</event>
<event>
12    1  0.9962621E-001  0.2610596E+03  0.7818608E-02  0.1106573E+00
         21   -1    0    0  501  502  0.00000000000E+00  0.00000000000E+00  0.36537724705E+02  0.36537724705E+02  0.00000000000E+00 0.  1.
         21   -1    0    0  502  503 -0.00000000000E+00 -0.00000000000E+00 -0.18791028050E+04  0.18791028050E+04  0.00000000000E+00 0.  1.
         -6    2    1    2    0  503 -0.84635633932E+02 -0.17567256177E+03 -0.83110850278E+03  0.87114490082E+03  0.17357435107E+03 0.  0.
        -24    2    3    3    0    0  0.14995361216E+01 -0.10166731651E+03 -0.27904203106E+03  0.30750004541E+03  0.79707784876E+02 0.  0.
          6    2    1    2  501    0  0.84635633932E+02  0.17567256177E+03 -0.10114565775E+04  0.10444956289E+04  0.17292388806E+03 0.  0.
         24    2    5    5    0    0  0.45448361817E+02  0.17133135580E+03 -0.61998962576E+03  0.65102014975E+03  0.89555079433E+02 0.  0.
          5    1    5    5  501    0  0.39187272115E+02  0.43412059715E+01 -0.39146695175E+03  0.39347547913E+03  0.47000000000E+01 0. -1.
        -11    1    6    6    0    0  0.27914168195E+02  0.61374512672E+02 -0.11002076372E+03  0.12903720410E+03  0.00000000000E+00 0.  1.
         12    1    6    6    0    0  0.17534193622E+02  0.10995684312E+03 -0.50996886204E+03  0.52198294565E+03  0.00000000000E+00 0. -1.
         -5    1    3    3    0  503 -0.86135170054E+02 -0.74005245258E+02 -0.55206647171E+03  0.56364485542E+03  0.47000000000E+01 0.  1.
         11    1    4    4    0    0 -0.33245976988E+02 -0.25648016725E+02 -0.13009812284E+03  0.13670639090E+03  0.00000000000E+00 0. -1.
        -12    1    4    4    0    0  0.34745513109E+02 -0.76019299785E+02 -0.14894390823E+03  0.17079365450E+03  0.00000000000E+00 0.  1.
</event>
<event>
12    1  0.9962621E-001  0.1826096E+03  0.7818608E-02  0.1165665E+00
         21   -1    0    0  503  502  0.00000000000E+00  0.00000000000E+00  0.11284766777E+03  0.11284766777E+03  0.00000000000E+00 0.  1.
         21   -1    0    0  501  503 -0.00000000000E+00 -0.00000000000E+00 -0.34505937326E+03  0.34505937326E+03  0.00000000000E+00 0.  1.
          6    2    1    2  501    0 -0.22985193869E+02 -0.53970287997E+02 -0.27617091016E+02  0.18468611359E+03  0.17293104323E+03 0.  0.
         24    2    3    3    0    0 -0.26107787849E+02 -0.10005103146E+03 -0.38785767127E+02  0.13693661268E+03  0.80965885893E+02 0.  0.
         -6    2    1    2    0  502  0.22985193869E+02  0.53970287997E+02 -0.20459461447E+03  0.27322092744E+03  0.17131727233E+03 0.  0.
        -24    2    5    5    0    0  0.34860267900E+02  0.80198118565E+02 -0.74690353006E+02  0.14008143809E+03  0.79982397844E+02 0.  0.
          5    1    3    3  501    0  0.31225939800E+01  0.46080743460E+02  0.11168676111E+02  0.47749500909E+02  0.47000000000E+01 0. -1.
        -11    1    4    4    0    0 -0.44177788410E+02 -0.36800723752E+02 -0.41801194528E+02  0.71086638135E+02  0.00000000000E+00 0.  1.
         12    1    4    4    0    0  0.18070000560E+02 -0.63250307705E+02  0.30154274003E+01  0.65849974544E+02  0.00000000000E+00 0. -1.
         -5    1    5    5    0  502 -0.11875074030E+02 -0.26227830568E+02 -0.12990426146E+03  0.13313948935E+03  0.47000000000E+01 0.  1.
         11    1    6    6    0    0  0.40685272010E+02  0.88425824538E+02 -0.82287435326E+02  0.12745838464E+03  0.00000000000E+00 0. -1.
        -12    1    6    6    0    0 -0.58250041098E+01 -0.82277059726E+01  0.75970823195E+01  0.12623053443E+02  0.00000000000E+00 0.  1.
</event>
<event>
12    1  0.9962621E-001  0.3075193E+03  0.7818608E-02  0.1081587E+00
         21   -1    0    0  501  502  0.00000000000E+00  0.00000000000E+00  0.22431985989E+03  0.22431985989E+03  0.00000000000E+00 0.  1.
         21   -1    0    0  502  503 -0.00000000000E+00 -0.00000000000E+00 -0.46554166070E+03  0.46554166070E+03  0.00000000000E+00 0.  1.
         -6    2    1    2    0  503 -0.24108630422E+03  0.82157958322E+02 -0.22717296085E+03  0.38202153099E+03  0.17164020451E+03 0.  0.
        -24    2    3    3    0    0 -0.10336613805E+03  0.10030753244E+03 -0.11345941361E+03  0.20244115335E+03  0.85809221370E+02 0.  0.
          6    2    1    2  501    0  0.24108630422E+03 -0.82157958322E+02 -0.14048839965E+02  0.30783998960E+03  0.17232397713E+03 0.  0.
         24    2    5    5    0    0  0.98955692346E+02 -0.97796779867E+02  0.15121559967E+02  0.16183079193E+03  0.81265641211E+02 0.  0.
          5    1    5    5  501    0  0.14213061187E+03  0.15638821545E+02 -0.29170399932E+02  0.14600919766E+03  0.47000000000E+01 0. -1.
        -13    1    6    6    0    0 -0.42819985926E+01 -0.75281706547E+01  0.22890679564E+02  0.24474314623E+02  0.00000000000E+00 0.  1.
         14    1    6    6    0    0  0.10323769094E+03 -0.90268609212E+02 -0.77691195965E+01  0.13735647731E+03  0.00000000000E+00 0. -1.
         -5    1    3    3    0  503 -0.13772016616E+03 -0.18149574118E+02 -0.11371354723E+03  0.17958037764E+03  0.47000000000E+01 0.  1.
         13    1    4    4    0    0  0.22584734614E+01  0.38429122505E+02 -0.48669801363E+01  0.38801876946E+02  0.00000000000E+00 0. -1.
        -14    1    4    4    0    0 -0.10562461151E+03  0.61878409936E+02 -0.10859243348E+03  0.16363927641E+03  0.00000000000E+00 0.  1.
</event>
<event>
12    1  0.9962621E-001  0.2258125E+03  0.7818608E-02  0.1129692E+00
         21   -1    0    0  503  502  0.00000000000E+00  0.00000000000E+00  0.30396464889E+02  0.30396464889E+02  0.00000000000E+00 0.  1.
         21   -1    0    0  501  503 -0.00000000000E+00 -0.00000000000E+00 -0.23658546897E+04  0.23658546897E+04  0.00000000000E+00 0. -1.
          6    2    1    2  501    0 -0.12513580555E+03 -0.75313516726E+02 -0.51941155546E+03  0.56621924046E+03  0.17171129459E+03 0.  0.
         24    2    3    3    0    0 -0.42987263474E+01 -0.64443687185E+00 -0.14027428376E+03  0.16131896633E+03  0.79548977786E+02 0.  0.
         -6    2    1    2    0  502  0.12513580555E+03  0.75313516726E+02 -0.18160466694E+04  0.18300319142E+04  0.17222138610E+03 0.  0.
        -24    2    5    5    0    0  0.11212992328E+03  0.59989053655E+02 -0.81799428764E+03  0.83176609843E+03  0.80922071407E+02 0.  0.
          5    1    3    3  501    0 -0.12083707921E+03 -0.74669079854E+02 -0.37913727170E+03  0.40490027413E+03  0.47000000000E+01 0. -1.
        -11    1    4    4    0    0 -0.82954177134E+00  0.66400289879E+01  0.93386546046E+01  0.11488628914E+02  0.00000000000E+00 0.  1.
         12    1    4    4    0    0 -0.34691845761E+01 -0.72844658597E+01 -0.14961293836E+03  0.14983033742E+03  0.00000000000E+00 0. -1.
         -5    1    5    5    0  502  0.13005882279E+02  0.15324463071E+02 -0.99805238174E+03  0.99826581573E+03  0.47000000000E+01 0.  1.
         13    1    6    6    0    0  0.78262233448E+02  0.86560220847E+01 -0.60398153746E+03  0.60909244084E+03  0.00000000000E+00 0. -1.
        -14    1    6    6    0    0  0.33867689828E+02  0.51333031570E+02 -0.21401275018E+03  0.22267365759E+03  0.00000000000E+00 0.  1.
</event>
<event>
12    1  0.9962621E-001  0.2562139E+03  0.7818608E-02  0.1109696E+00
         21   -1    0    0  503  502  0.00000000000E+00  0.00000000000E+00  0.69533318961E+03  0.69533318961E+03  0.00000000000E+00 0.  1.
         21   -1    0    0  501  503 -0.00000000000E+00 -0.00000000000E+00 -0.10776992183E+03  0.10776992183E+03  0.00000000000E+00 0.  1.
          6    2    1    2  501    0  0.12668012791E+03 -0.13991313528E+03  0.14833713584E+03  0.29461006111E+03  0.17078536825E+03 0.  0.
         24    2    3    3    0    0  0.49048609282E+02 -0.13998087688E+03  0.13415648416E+03  0.21555414321E+03  0.80406557245E+02 0.  0.
         -6    2    1    2    0  502 -0.12668012791E+03  0.13991313528E+03  0.43922613194E+03  0.50849305033E+03  0.17326871336E+03 0.  0.
        -24    2    5    5    0    0 -0.21268992558E+02  0.12156486113E+03  0.22462842929E+03  0.26865470769E+03  0.80542133145E+02 0.  0.
          5    1    3    3  501    0  0.77631518626E+02  0.67741597222E-01  0.14180651677E+02  0.79055917901E+02  0.47000000000E+01 0. -1.
        -11    1    4    4    0    0 -0.10143813406E+02 -0.89794153765E+02  0.62021743269E+02  0.10960193264E+03  0.00000000000E+00 0.  1.
         12    1    4    4    0    0  0.59192422688E+02 -0.50186723115E+02  0.72134740893E+02  0.10595221057E+03  0.00000000000E+00 0. -1.
         -5    1    5    5    0  502 -0.10541113535E+03  0.18348274148E+02  0.21459770265E+03  0.23983834264E+03  0.47000000000E+01 0.  1.
         13    1    6    6    0    0 -0.31549008315E+02  0.96156845304E+02  0.21816484131E+03  0.24049402656E+03  0.00000000000E+00 0. -1.
        -14    1    6    6    0    0  0.10280015757E+02  0.25408015830E+02  0.64635879790E+01  0.28160681134E+02  0.00000000000E+00 0.  1.
</event>
<event>
12    1  0.9962621E-001  0.3861694E+03  0.7818608E-02  0.1048728E+00
         21   -1    0    0  503  502  0.00000000000E+00  0.00000000000E+00  0.81977824255E+03  0.81977824255E+03  0.00000000000E+00 0.  1.
         21   -1    0    0  501  503 -0.00000000000E+00 -0.00000000000E+00 -0.30302276372E+03  0.30302276372E+03  0.00000000000E+00 0. -1.
          6    2    1    2  501    0  0.34022450244E+03  0.56703923438E+02 -0.97042291378E+02  0.39762895944E+03  0.17240515097E+03 0.  0.
         24    2    3    3    0    0  0.34129353284E+03  0.78983165304E+02 -0.81101752976E+02  0.36981352832E+03  0.86399857818E+02 0.  0.
         -6    2    1    2    0  502 -0.34022450244E+03 -0.56703923438E+02  0.61379777021E+03  0.72517204683E+03  0.17366274151E+03 0.  0.
        -24    2    5    5    0    0 -0.26070434930E+03 -0.51848233725E+02  0.33477148623E+03  0.43495697205E+03  0.80377997315E+02 0.  0.
          5    1    3    3  501    0 -0.10690304026E+01 -0.22279241866E+02 -0.15940538401E+02  0.27815431125E+02  0.47000000000E+01 0. -1.
        -13    1    4    4    0    0  0.99491639457E+02  0.55214733323E+01 -0.59779150790E+02  0.11620077392E+03  0.00000000000E+00 0.  1.
         14    1    4    4    0    0  0.24180189338E+03  0.73461691972E+02 -0.21322602186E+02  0.25361275440E+03  0.00000000000E+00 0. -1.
         -5    1    5    5    0  502 -0.79520153136E+02 -0.48556897130E+01  0.27902628398E+03  0.29021507478E+03  0.47000000000E+01 0.  1.
         11    1    6    6    0    0 -0.15048470610E+02  0.11652389767E+02  0.50247651567E+02  0.53731379500E+02  0.00000000000E+00 0. -1.
        -12    1    6    6    0    0 -0.24565587869E+03 -0.63500623491E+02  0.28452383466E+03  0.38122559255E+03  0.00000000000E+00 0.  1.
</event>
<event>
12    1  0.9962621E-001  0.1816638E+03  0.7818608E-02  0.1166307E+00
         21   -1    0    0  501  502  0.00000000000E+00  0.00000000000E+00  0.17768908510E+03  0.17768908510E+03  0.00000000000E+00 0.  1.
         21   -1    0    0  502  503 -0.00000000000E+00 -0.00000000000E+00 -0.30844547507E+03  0.30844547507E+03  0.00000000000E+00 0.  1.
         -6    2    1    2    0  503  0.26919969224E+02 -0.52414245299E+02 -0.21892771019E+03  0.28420409348E+03  0.17137878110E+03 0.  0.
        -24    2    3    3    0    0  0.63810673726E+02 -0.99403257442E+01 -0.19926974167E+03  0.22442547149E+03  0.80546571320E+02 0.  0.
          6    2    1    2  501    0 -0.26919969224E+02  0.52414245299E+02  0.88171320219E+02  0.20193046670E+03  0.17184235164E+03 0.  0.
         24    2    5    5    0    0 -0.53139696375E+02  0.68720260562E+02  0.11067674936E+03  0.16343443357E+03  0.83157499275E+02 0.  0.
          5    1    5    5  501    0  0.26219727151E+02 -0.16306015264E+02 -0.22505429138E+02  0.38496033125E+02  0.47000000000E+01 0. -1.
        -11    1    6    6    0    0 -0.27366094910E+02  0.55889075764E+02  0.15685280635E+02  0.64175696092E+02  0.00000000000E+00 0.  1.
         12    1    6    6    0    0 -0.25773601465E+02  0.12831184799E+02  0.94991468722E+02  0.99258737478E+02  0.00000000000E+00 0. -1.
         -5    1    3    3    0  503 -0.36890704502E+02 -0.42473919554E+02 -0.19657968517E+02  0.59778621991E+02  0.47000000000E+01 0.  1.
         11    1    4    4    0    0  0.10352795620E+02  0.31009941621E+02 -0.41094091334E+02  0.52512105262E+02  0.00000000000E+00 0. -1.
        -12    1    4    4    0    0  0.53457878105E+02 -0.40950267365E+02 -0.15817565034E+03  0.17191336623E+03  0.00000000000E+00 0.  1.
</event>
<event>
12    1  0.9962621E-001  0.2006824E+03  0.7818608E-02  0.1149864E+00
         21   -1    0    0  501  502  0.00000000000E+00  0.00000000000E+00  0.12256477232E+04  0.12256477232E+04  0.00000000000E+00 0.  1.
         21   -1    0    0  502  503 -0.00000000000E+00 -0.00000000000E+00 -0.36533318091E+02  0.36533318091E+02  0.00000000000E+00 0. -1.
         -6    2    1    2    0  503  0.99111133036E+02 -0.55040342744E+00  0.38462268179E+03  0.43382948994E+03  0.17449956836E+03 0.  0.
        -24    2    3    3    0    0 -0.23965158030E+02  0.30530070253E+00  0.12719807365E+03  0.14845600742E+03  0.72700854114E+02 0.  0.
          6    2    1    2  501    0 -0.99111133036E+02  0.55040342744E+00  0.80449172329E+03  0.82835155133E+03  0.17069282382E+03 0.  0.
         24    2    5    5    0    0 -0.35323563248E+02 -0.26494554031E+02  0.67703231821E+03  0.68320240828E+03  0.80268644347E+02 0.  0.
          5    1    5    5  501    0 -0.63787569787E+02  0.27044957458E+02  0.12745940508E+03  0.14514914305E+03  0.47000000000E+01 0. -1.
        -13    1    6    6    0    0 -0.61435595316E+02 -0.17016693455E+02  0.45782125846E+03  0.46223825559E+03  0.00000000000E+00 0.  1.
         14    1    6    6    0    0  0.26112032068E+02 -0.94778605756E+01  0.21921105975E+03  0.22096415269E+03  0.00000000000E+00 0. -1.
         -5    1    3    3    0  503  0.12307629107E+03 -0.85570412997E+00  0.25742460814E+03  0.28537348252E+03  0.47000000000E+01 0.  1.
         11    1    4    4    0    0 -0.40919907699E+01  0.26044307639E+02  0.10694443964E+03  0.11014610079E+03  0.00000000000E+00 0. -1.
        -12    1    4    4    0    0 -0.19873167260E+02 -0.25739006936E+02  0.20253634011E+02  0.38309906626E+02  0.00000000000E+00 0.  1.
</event>
<event>
12    1  0.9962621E-001  0.2798759E+03  0.7818608E-02  0.1095849E+00
         21   -1    0    0  503  502  0.00000000000E+00  0.00000000000E+00  0.15577702566E+03  0.15577702566E+03  0.00000000000E+00 0.  1.
         21   -1    0    0  501  503 -0.00000000000E+00 -0.00000000000E+00 -0.73322704637E+03  0.73322704637E+03  0.00000000000E+00 0.  1.
          6    2    1    2  501    0 -0.20776118416E+03 -0.71823132577E+02 -0.39145049252E+02  0.28260014519E+03  0.17322596562E+03 0.  0.
         24    2    3    3    0    0 -0.12578881051E+03 -0.61754025211E+02  0.40988448906E+02  0.16742929605E+03  0.81952008839E+02 0.  0.
         -6    2    1    2    0  502  0.20776118416E+03  0.71823132577E+02 -0.53830497146E+03  0.60640392683E+03  0.17213427366E+03 0.  0.
        -24    2    5    5    0    0  0.21673748605E+03  0.97221442168E+02 -0.50046435147E+03  0.55971719803E+03  0.79947657863E+02 0.  0.
          5    1    3    3  501    0 -0.81972373644E+02 -0.10069107366E+02 -0.80133498158E+02  0.11517084914E+03  0.47000000000E+01 0. -1.
        -13    1    4    4    0    0 -0.54438882472E+02  0.45478425483E+01  0.43753189883E+02  0.69990116599E+02  0.00000000000E+00 0.  1.
         14    1    4    4    0    0 -0.71349928040E+02 -0.66301867759E+02 -0.27647409764E+01  0.97439179452E+02  0.00000000000E+00 0. -1.
         -5    1    5    5    0  502 -0.89763018930E+01 -0.25398309591E+02 -0.37840619984E+02  0.46686728805E+02  0.47000000000E+01 0.  1.
         13    1    6    6    0    0  0.10462956382E+03  0.21987161071E+02 -0.29582753381E+03  0.31455478162E+03  0.00000000000E+00 0. -1.
        -14    1    6    6    0    0  0.11210792222E+03  0.75234281096E+02 -0.20463681766E+03  0.24516241641E+03  0.00000000000E+00 0.  1.
</event>
<event>
12    1  0.9962621E-001  0.5530704E+03  0.7818608E-02  0.1000787E+00
         21   -1    0    0  503  502  0.00000000000E+00  0.00000000000E+00  0.38931963464E+03  0.38931963464E+03  0.00000000000E+00 0.  1.
         21   -1    0    0  501  503 -0.00000000000E+00 -0.00000000000E+00 -0.87922073919E+03  0.87922073919E+03  0.00000000000E+00 0. -1.
          6    2    1    2  501    0  0.39168654280E+03  0.35070920873E+03 -0.45185732985E+03  0.71418617507E+03  0.17167279695E+03 0.  0.
         24    2    3    3    0    0  0.11662266323E+03  0.16842610064E+03 -0.21826730520E+03  0.30986741597E+03  0.80056242754E+02 0.  0.
         -6    2    1    2    0  502 -0.39168654280E+03 -0.35070920873E+03 -0.38043774696E+02  0.55435419877E+03  0.17159822841E+03 0.  0.
        -24    2    5    5    0    0 -0.38928419712E+03 -0.31135610352E+03 -0.61741533838E+02  0.50811447620E+03  0.76703941214E+02 0.  0.
          5    1    3    3  501    0  0.27506387958E+03  0.18228310809E+03 -0.23359002465E+03  0.40431875910E+03  0.47000000000E+01 0. -1.
        -11    1    4    4    0    0  0.50845213712E+02  0.13174748857E+03 -0.11537229849E+03  0.18235515831E+03  0.00000000000E+00 0.  1.
         12    1    4    4    0    0  0.65777449515E+02  0.36678612072E+02 -0.10289500671E+03  0.12751225766E+03  0.00000000000E+00 0. -1.
         -5    1    5    5    0  502 -0.24023456831E+01 -0.39353105214E+02  0.23697759142E+02  0.46239722567E+02  0.47000000000E+01 0.  1.
         11    1    6    6    0    0 -0.15241207882E+03 -0.16740979199E+03 -0.41750057480E+02  0.23021413407E+03  0.00000000000E+00 0. -1.
        -12    1    6    6    0    0 -0.23687211830E+03 -0.14394631153E+03 -0.19991476358E+02  0.27790034213E+03  0.00000000000E+00 0.  1.
</event>
<event>
12    1  0.9962621E-001  0.1945749E+03  0.7818608E-02  0.1154617E+00
         21   -1    0    0  503  502  0.00000000000E+00  0.00000000000E+00  0.90429782154E+03  0.90429782154E+03  0.00000000000E+00 0.  1.
         21   -1    0    0  501  503 -0.00000000000E+00 -0.00000000000E+00 -0.59086825107E+02  0.59086825107E+02  0.00000000000E+00 0.  1.
          6    2    1    2  501    0 -0.81950964613E+02  0.37011861423E+02  0.16171287319E+03  0.25300283094E+03  0.17255011046E+03 0.  0.
         24    2    3    3    0    0 -0.13912180934E+02  0.64956597263E+02  0.14437547613E+03  0.17728718076E+03  0.78571992761E+02 0.  0.
         -6    2    1    2    0  502  0.81950964613E+02 -0.37011861423E+02  0.68349812324E+03  0.71038181571E+03  0.17142578897E+03 0.  0.
        -24    2    5    5    0    0  0.71447716439E+02  0.39518729385E+02  0.43841660123E+03  0.45337152023E+03  0.81670759515E+02 0.  0.
          5    1    3    3  501    0 -0.68038783679E+02 -0.27944735840E+02  0.17337397058E+02  0.75715650182E+02  0.47000000000E+01 0. -1.
        -11    1    4    4    0    0  0.52351812511E+01  0.51229410699E+02  0.14484088082E+03  0.15372293388E+03  0.00000000000E+00 0.  1.
         12    1    4    4    0    0 -0.19147362185E+02  0.13727186564E+02 -0.46540468538E+00  0.23564246882E+02  0.00000000000E+00 0. -1.
         -5    1    5    5    0  502  0.10503248175E+02 -0.76530590808E+02  0.24508152201E+03  0.25701029548E+03  0.47000000000E+01 0.  1.
         11    1    6    6    0    0  0.73752114274E+02 -0.20720989121E+01  0.27385812417E+03  0.28362288364E+03  0.00000000000E+00 0. -1.
        -12    1    6    6    0    0 -0.23043978353E+01  0.41590828297E+02  0.16455847707E+03  0.16974863658E+03  0.00000000000E+00 0.  1.
</event>
<event>
12    1  0.9962621E-001  0.2015643E+03  0.7818608E-02  0.1148941E+00
         21   -1    0    0  501  502  0.00000000000E+00  0.00000000000E+00  0.50723740158E+03  0.50723740158E+03  0.00000000000E+00 0.  1.
         21   -1    0    0  502  503 -0.00000000000E+00 -0.00000000000E+00 -0.87558004126E+02  0.87558004126E+02  0.00000000000E+00 0.  1.
         -6    2    1    2    0  503 -0.41709931260E+02  0.93830074494E+02  0.30329450819E+03  0.36416444051E+03  0.17344849319E+03 0.  0.
        -24    2    3    3    0    0 -0.66248940888E+02  0.10533060132E+03  0.30220118939E+03  0.33663789956E+03  0.80722108550E+02 0.  0.
          6    2    1    2  501    0  0.41709931260E+02 -0.93830074494E+02  0.11638488927E+03  0.23063096520E+03  0.17059131987E+03 0.  0.
         24    2    5    5    0    0 -0.31732809752E+02 -0.62405803337E+02  0.10497703395E+03  0.14980058608E+03  0.80737738562E+02 0.  0.
          5    1    5    5  501    0  0.73442741013E+02 -0.31424271157E+02  0.11407855314E+02  0.80830379116E+02  0.47000000000E+01 0. -1.
        -13    1    6    6    0    0  0.13098537666E+02  0.11639314690E+02  0.32424348411E+02  0.36856257343E+02  0.00000000000E+00 0.  1.
         14    1    6    6    0    0 -0.44831347418E+02 -0.74045118028E+02  0.72552685543E+02  0.11294432874E+03  0.00000000000E+00 0. -1.
         -5    1    3    3    0  503  0.24539009628E+02 -0.11500526825E+02  0.10933188011E+01  0.27526540952E+02  0.47000000000E+01 0.  1.
         11    1    4    4    0    0 -0.15836895688E+02  0.79236172903E+02  0.23590424116E+03  0.24935915736E+03  0.00000000000E+00 0. -1.
        -12    1    4    4    0    0 -0.50412045201E+02  0.26094428416E+02  0.66296948228E+02  0.87278742200E+02  0.00000000000E+00 0.  1.
</event>
<event>
12    1  0.9962621E-001  0.2532039E+03  0.7818608E-02  0.1111613E+00
         21   -1    0    0  501  502  0.00000000000E+00  0.00000000000E+00  0.82835966675E+03  0.82835966675E+03  0.00000000000E+00 0.  1.
         21   -1    0    0  502  503 -0.00000000000E+00 -0.00000000000E+00 -0.12359549491E+03  0.12359549491E+03  0.00000000000E+00 0. -1.
         -6    2    1    2    0  503 -0.83764011010E+02 -0.16334145722E+03  0.58561460857E+02  0.25791613061E+03  0.17144808119E+03 0.  0.
        -24    2    3    3    0    0 -0.52836829102E+02 -0.18611694878E+03  0.33556909868E+02  0.21184519437E+03  0.79505163637E+02 0.  0.
          6    2    1    2  501    0  0.83764011010E+02  0.16334145722E+03  0.64620271099E+03  0.69403903105E+03  0.17440009100E+03 0.  0.
         24    2    5    5    0    0  0.59276680223E+02  0.18339249459E+03  0.61417536973E+03  0.64876747202E+03  0.80878403061E+02 0.  0.
          5    1    5    5  501    0  0.24487330787E+02 -0.20051037366E+02  0.32027341259E+02  0.45271559026E+02  0.47000000000E+01 0. -1.
        -13    1    6    6    0    0  0.80694637861E+01  0.44013622050E+01  0.12540168930E+03  0.12573810844E+03  0.00000000000E+00 0.  1.
         14    1    6    6    0    0  0.51207216437E+02  0.17899113238E+03  0.48877368043E+03  0.52302936358E+03  0.00000000000E+00 0. -1.
         -5    1    3    3    0  503 -0.30927181908E+02  0.22775491553E+02  0.25004550989E+02  0.46070936244E+02  0.47000000000E+01 0.  1.
         13    1    4    4    0    0 -0.24557490033E+01 -0.35318017304E+02 -0.23982209574E+02  0.42761424503E+02  0.00000000000E+00 0. -1.
        -14    1    4    4    0    0 -0.50381080099E+02 -0.15079893147E+03  0.57539119443E+02  0.16908376986E+03  0.00000000000E+00 0.  1.
</event>
<event>
12    1  0.9962621E-001  0.3507105E+03  0.7818608E-02  0.1062439E+00
         21   -1    0    0  501  502  0.00000000000E+00  0.00000000000E+00  0.14097624172E+03  0.14097624172E+03  0.00000000000E+00 0.  1.
         21   -1    0    0  502  503 -0.00000000000E+00 -0.00000000000E+00 -0.11801339398E+04  0.11801339398E+04  0.00000000000E+00 0.  1.
         -6    2    1    2    0  503 -0.21214426228E+03 -0.21925440644E+03 -0.18015647464E+03  0.39327348315E+03  0.17067511368E+03 0.  0.
        -24    2    3    3    0    0 -0.10644013768E+03 -0.19594120271E+03 -0.15275016185E+03  0.28151453091E+03  0.78710617679E+02 0.  0.
          6    2    1    2  501    0  0.21214426228E+03  0.21925440644E+03 -0.85900122346E+03  0.92783669840E+03  0.17297443231E+03 0.  0.
         24    2    5    5    0    0  0.21402226404E+03  0.14749108931E+03 -0.59520890583E+03  0.65441033279E+03  0.80125471244E+02 0.  0.
          5    1    5    5  501    0 -0.18780017591E+01  0.71763317122E+02 -0.26379231762E+03  0.27342636561E+03  0.47000000000E+01 0. -1.
        -13    1    6    6    0    0  0.15442346888E+03  0.13168007016E+03 -0.38327469200E+03  0.43368852665E+03  0.00000000000E+00 0.  1.
         14    1    6    6    0    0  0.59598795153E+02  0.15811019150E+02 -0.21193421383E+03  0.22072180613E+03  0.00000000000E+00 0. -1.
         -5    1    3    3    0  503 -0.10570412460E+03 -0.23313203723E+02 -0.27406312791E+02  0.11175895224E+03  0.47000000000E+01 0.  1.
         11    1    4    4    0    0 -0.61576584032E+02 -0.68142480752E+02 -0.24662223356E+02  0.95096259889E+02  0.00000000000E+00 0. -1.
        -12    1    4    4    0    0 -0.44863553649E+02 -0.12779872196E+03 -0.12808793850E+03  0.18641827102E+03  0.00000000000E+00 0.  1.
</event>
<event>
12    1  0.9962621E-001  0.1979713E+03  0.7818608E-02  0.1151584E+00
         21   -1    0    0  503  502  0.00000000000E+00  0.00000000000E+00  0.36213561708E+02  0.36213561708E+02  0.00000000000E+00 0.  1.
         21   -1    0    0  501  503 -0.00000000000E+00 -0.00000000000E+00 -0.12275899065E+04  0.12275899065E+04  0.00000000000E+00 0.  1.
          6    2    1    2  501    0 -0.18680200611E+02  0.96429647433E+02 -0.81616835456E+03  0.83983535053E+03  0.17188660864E+03 0.  0.
         24    2    3    3    0    0 -0.44121667184E+01  0.12052346621E+03 -0.78138533755E+03  0.79493504801E+03  0.82542787042E+02 0.  0.
         -6    2    1    2    0  502  0.18680200611E+02 -0.96429647433E+02 -0.37520799026E+03  0.42396811770E+03  0.17123172040E+03 0.  0.
        -24    2    5    5    0    0  0.44135475945E+01 -0.13287734618E+03 -0.26937328486E+03  0.31102987351E+03  0.80633411766E+02 0.  0.
          5    1    3    3  501    0 -0.14268033893E+02 -0.24093818781E+02 -0.34783017002E+02  0.44900302520E+02  0.47000000000E+01 0. -1.
        -13    1    4    4    0    0  0.36324304064E+02  0.31254195274E+02 -0.24263812508E+03  0.24732476530E+03  0.00000000000E+00 0.  1.
         14    1    4    4    0    0 -0.40736470783E+02  0.89269270940E+02 -0.53874721248E+03  0.54761028272E+03  0.00000000000E+00 0. -1.
         -5    1    5    5    0  502  0.14266653017E+02  0.36447698743E+02 -0.10583470540E+03  0.11293824419E+03  0.47000000000E+01 0.  1.
         13    1    6    6    0    0  0.19009399816E+02 -0.97526169125E+02 -0.24811973864E+03  0.26727535549E+03  0.00000000000E+00 0. -1.
        -14    1    6    6    0    0 -0.14595852221E+02 -0.35351177052E+02 -0.21253546212E+02  0.43754518025E+02  0.00000000000E+00 0.  1.
</event>
<event>
12    1  0.9962621E-001  0.3631368E+03  0.7818608E-02  0.1057397E+00
         21   -1    0    0  501  502  0.00000000000E+00  0.00000000000E+00  0.14731050449E+04  0.14731050449E+04  0.00000000000E+00 0. -1.
         21   -1    0    0  502  503 -0.00000000000E+00 -0.00000000000E+00 -0.93276224990E+02  0.93276224990E+02  0.00000000000E+00 0. -1.
         -6    2    1    2    0  503  0.31880398047E+03 -0.29934180131E+02  0.84920603974E+03  0.92339692339E+03  0.17023203900E+03 0.  0.
        -24    2    3    3    0    0  0.28122519217E+03 -0.11737487314E+02  0.56675908428E+03  0.63784192412E+03  0.80006769956E+02 0.  0.
          6    2    1    2  501    0 -0.31880398047E+03  0.29934180131E+02  0.53062278018E+03  0.64298434651E+03  0.17127843385E+03 0.  0.
         24    2    5    5    0    0 -0.29639837787E+03 -0.11006491881E+02  0.50053219194E+03  0.58725569002E+03  0.79772357560E+02 0.  0.
          5    1    5    5  501    0 -0.22405602598E+02  0.40940672012E+02  0.30090588241E+02  0.55728656482E+02  0.47000000000E+01 0. -1.
        -11    1    6    6    0    0 -0.15837382918E+03  0.16516029217E+02  0.32793401267E+03  0.36454871507E+03  0.00000000000E+00 0.  1.
         12    1    6    6    0    0 -0.13802454868E+03 -0.27522521098E+02  0.17259817927E+03  0.22270697496E+03  0.00000000000E+00 0. -1.
         -5    1    3    3    0  503  0.37578788297E+02 -0.18196692817E+02  0.28244695546E+03  0.28555499927E+03  0.47000000000E+01 0.  1.
         13    1    4    4    0    0  0.80774303590E+02  0.16858510614E+02  0.10425828422E+03  0.13296047281E+03  0.00000000000E+00 0. -1.
        -14    1    4    4    0    0  0.20045088858E+03 -0.28595997928E+02  0.46250080005E+03  0.50488145131E+03  0.00000000000E+00 0.  1.
</event>
<event>
12    1  0.9962621E-001  0.1836864E+03  0.7818608E-02  0.1164676E+00
         21   -1    0    0  503  502  0.00000000000E+00  0.00000000000E+00  0.30815562753E+03  0.30815562753E+03  0.00000000000E+00 0.  1.
         21   -1    0    0  501  503 -0.00000000000E+00 -0.00000000000E+00 -0.11497704259E+03  0.11497704259E+03  0.00000000000E+00 0.  1.
          6    2    1    2  501    0 -0.56208262676E+02  0.21341655337E+02  0.14720868661E+03  0.23539557286E+03  0.17356797879E+03 0.  0.
         24    2    3    3    0    0  0.36008218565E+02  0.14759743532E+02  0.60531489027E+02  0.10857985003E+03  0.81308553275E+02 0.  0.
         -6    2    1    2    0  502  0.56208262676E+02 -0.21341655337E+02  0.45969898338E+02  0.18773709726E+03  0.17180556187E+03 0.  0.
        -24    2    5    5    0    0 -0.19018474065E+02 -0.22144442252E+02  0.70352393579E+02  0.10851397903E+03  0.77290010249E+02 0.  0.
          5    1    3    3  501    0 -0.92216481241E+02  0.65819118053E+01  0.86677197580E+02  0.12681572283E+03  0.47000000000E+01 0. -1.
        -11    1    4    4    0    0 -0.12901534622E+02 -0.24283328727E+02  0.20344265166E+02  0.34205537195E+02  0.00000000000E+00 0.  1.
         12    1    4    4    0    0  0.48909753187E+02  0.39043072259E+02  0.40187223861E+02  0.74374312836E+02  0.00000000000E+00 0. -1.
         -5    1    5    5    0  502  0.75226736742E+02  0.80278691475E+00 -0.24382495241E+02  0.79223118228E+02  0.47000000000E+01 0.  1.
         11    1    6    6    0    0  0.69090012246E+01 -0.45375907069E+02  0.28302608709E+02  0.53923509715E+02  0.00000000000E+00 0. -1.
        -12    1    6    6    0    0 -0.25927475290E+02  0.23231464817E+02  0.42049784871E+02  0.54590469316E+02  0.00000000000E+00 0.  1.
</event>
<event>
12    1  0.9962621E-001  0.2029022E+03  0.7818608E-02  0.1148277E+00
         21   -1    0    0  503  502  0.00000000000E+00  0.00000000000E+00  0.46634445632E+02  0.46634445632E+02  0.00000000000E+00 0.  1.
         21   -1    0    0  501  503 -0.00000000000E+00 -0.00000000000E+00 -0.10912045799E+04  0.10912045799E+04  0.00000000000E+00 0.  1.
          6    2    1    2  501    0 -0.80142400918E+02  0.56825486440E+02 -0.26681208448E+03  0.33519843301E+03  0.17753129507E+03 0.  0.
         24    2    3    3    0    0  0.27523382606E+02  0.88040886809E+01 -0.95234096347E+02  0.12697002092E+03  0.78846715461E+02 0.  0.
         -6    2    1    2    0  502  0.80142400918E+02 -0.56825486440E+02 -0.77775804975E+03  0.80264059250E+03  0.17225677470E+03 0.  0.
        -24    2    5    5    0    0  0.92238548738E+02  0.90417632122E+00 -0.65599609990E+03  0.66726299764E+03  0.80001609590E+02 0.  0.
          5    1    3    3  501    0 -0.10766578352E+03  0.48021397760E+02 -0.17157798814E+03  0.20822841208E+03  0.47000000000E+01 0. -1.
        -13    1    4    4    0    0 -0.19484202373E+02 -0.19252912325E+02 -0.19952604339E+02  0.33888275185E+02  0.00000000000E+00 0.  1.
         14    1    4    4    0    0  0.47007584979E+02  0.28057001006E+02 -0.75281492008E+02  0.93081745740E+02  0.00000000000E+00 0. -1.
         -5    1    5    5    0  502 -0.12096147820E+02 -0.57729662762E+02 -0.12176194986E+03  0.13537759485E+03  0.47000000000E+01 0.  1.
         13    1    6    6    0    0  0.82723863727E+02 -0.17923474861E+02 -0.33336200181E+03  0.34393998435E+03  0.00000000000E+00 0. -1.
        -14    1    6    6    0    0  0.95146850107E+01  0.18827651182E+02 -0.32263409809E+03  0.32332301330E+03  0.00000000000E+00 0.  1.
</event>
<event>
12    1  0.9962621E-001  0.2568654E+03  0.7818608E-02  0.1109217E+00
         21   -1    0    0  503  502  0.00000000000E+00  0.00000000000E+00  0.10452661665E+03  0.10452661665E+03  0.00000000000E+00 0.  1.
         21   -1    0    0  501  503 -0.00000000000E+00 -0.00000000000E+00 -0.75576973063E+03  0.75576973063E+03  0.00000000000E+00 0. -1.
          6    2    1    2  501    0  0.16009356377E+03  0.10447667021E+03 -0.50159421330E+03  0.56301760890E+03  0.16984330817E+03 0.  0.
         24    2    3    3    0    0  0.33909078927E+02  0.94963789826E+02 -0.23733311819E+03  0.26998342062E+03  0.79975567576E+02 0.  0.
         -6    2    1    2    0  502 -0.16009356377E+03 -0.10447667021E+03 -0.14964890067E+03  0.29727873838E+03  0.17156494701E+03 0.  0.
        -24    2    5    5    0    0 -0.18722533225E+03 -0.83780614539E+02 -0.14189922759E+03  0.26197141599E+03  0.80131863811E+02 0.  0.
          5    1    3    3  501    0  0.12618448485E+03  0.95128803839E+01 -0.26426109511E+03  0.29303418828E+03  0.47000000000E+01 0. -1.
        -13    1    4    4    0    0 -0.23095681101E+02  0.97736920983E+01 -0.33707170965E+02  0.42013199321E+02  0.00000000000E+00 0.  1.
         14    1    4    4    0    0  0.57004760027E+02  0.85190097727E+02 -0.20362594723E+03  0.22797022130E+03  0.00000000000E+00 0. -1.
         -5    1    5    5    0  502  0.27131768482E+02 -0.20696055670E+02 -0.77496730834E+01  0.35307322388E+02  0.47000000000E+01 0.  1.
         13    1    6    6    0    0 -0.91751653457E+02 -0.78691992512E+02 -0.10279478202E+03  0.15867439241E+03  0.00000000000E+00 0. -1.
        -14    1    6    6    0    0 -0.95473678798E+02 -0.50886220274E+01 -0.39104445567E+02  0.10329702358E+03  0.00000000000E+00 0.  1.
</event>
<event>
12    1  0.9962621E-001  0.2089520E+03  0.7818608E-02  0.1142603E+00
         21   -1    0    0  501  502  0.00000000000E+00  0.00000000000E+00  0.18259209096E+03  0.18259209096E+03  0.00000000000E+00 0. -1.
         21   -1    0    0  502  503 -0.00000000000E+00 -0.00000000000E+00 -0.23859143693E+03  0.23859143693E+03  0.00000000000E+00 0. -1.
         -6    2    1    2    0  503  0.35635127790E+01 -0.11855024845E+03 -0.38884458944E+02  0.21153176251E+03  0.17078297741E+03 0.  0.
        -24    2    3    3    0    0  0.50908573748E+02 -0.12336018217E+03 -0.10605696093E+02  0.15597576653E+03  0.80040874119E+02 0.  0.
          6    2    1    2  501    0 -0.35635127790E+01  0.11855024845E+03 -0.17114887029E+02  0.20965176539E+03  0.17202930954E+03 0.  0.
         24    2    5    5    0    0  0.36745349443E+02  0.50714059663E+01 -0.17033110911E+02  0.89134759315E+02  0.79239753827E+02 0.  0.
          5    1    5    5  501    0 -0.40308862222E+02  0.11347884248E+03 -0.81776117319E-01  0.12051700607E+03  0.47000000000E+01 0. -1.
        -11    1    6    6    0    0  0.50056785959E+02  0.29008385066E+02 -0.20815797078E+02  0.61485491238E+02  0.00000000000E+00 0.  1.
         12    1    6    6    0    0 -0.13311436516E+02 -0.23936979100E+02  0.37826861667E+01  0.27649268077E+02  0.00000000000E+00 0. -1.
         -5    1    3    3    0  503 -0.47345060968E+02  0.48099337232E+01 -0.28278762852E+02  0.55555995977E+02  0.47000000000E+01 0.  1.
         11    1    4    4    0    0  0.10726793788E+02  0.94550101231E+01  0.73175146261E+01  0.16062606940E+02  0.00000000000E+00 0. -1.
        -12    1    4    4    0    0  0.40181779959E+02 -0.13281519230E+03 -0.17923210719E+02  0.13991315959E+03  0.00000000000E+00 0.  1.
</event>
<event>
12    1  0.9962621E-001  0.2672347E+03  0.7818608E-02  0.1103117E+00
         21   -1    0    0  501  502  0.00000000000E+00  0.00000000000E+00  0.11238732314E+03  0.11238732314E+03  0.00000000000E+00 0. -1.
         21   -1    0    0  502  503 -0.00000000000E+00 -0.00000000000E+00 -0.66457949964E+03  0.66457949964E+03  0.00000000000E+00 0. -1.
         -6    2    1    2    0  503 -0.20040062360E+03 -0.39886161115E+02 -0.36200806508E+03  0.44896620862E+03  0.16961574666E+03 0.  0.
        -24    2    3    3    0    0 -0.21680839333E+03 -0.15391260156E+02 -0.29166913092E+03  0.37255370481E+03  0.80514661587E+02 0.  0.
          6    2    1    2  501    0  0.20040062360E+03  0.39886161115E+02 -0.19018411142E+03  0.32800061416E+03  0.17222976184E+03 0.  0.
         24    2    5    5    0    0  0.10138872177E+03  0.82948827750E+02 -0.78983423958E+02  0.17293471573E+03  0.80671269470E+02 0.  0.
          5    1    5    5  501    0  0.99011901829E+02 -0.43062666635E+02 -0.11120068746E+03  0.15506589842E+03  0.47000000000E+01 0. -1.
        -13    1    6    6    0    0  0.76162491767E+02  0.28658787718E+02 -0.78500689000E+02  0.11306816280E+03  0.00000000000E+00 0.  1.
         14    1    6    6    0    0  0.25226230006E+02  0.54290040032E+02 -0.48273495769E+00  0.59866552933E+02  0.00000000000E+00 0. -1.
         -5    1    3    3    0  503  0.16407769724E+02 -0.24494900959E+02 -0.70338934158E+02  0.76412503812E+02  0.47000000000E+01 0.  1.
         11    1    4    4    0    0 -0.26046434613E+02 -0.22157112146E+02 -0.17316561734E+02  0.38330375487E+02  0.00000000000E+00 0. -1.
        -12    1    4    4    0    0 -0.19076195871E+03  0.67658519896E+01 -0.27435256918E+03  0.33422332932E+03  0.00000000000E+00 0.  1.
</event>
<event>
12    1  0.9962621E-001  0.1764481E+03  0.7818608E-02  0.1171587E+00
         21   -1    0    0  501  502  0.00000000000E+00  0.00000000000E+00  0.29348774208E+03  0.29348774208E+03  0.00000000000E+00 0.  1.
         21   -1    0    0  502  503 -0.00000000000E+00 -0.00000000000E+00 -0.10563879027E+03  0.10563879027E+03  0.00000000000E+00 0.  1.
         -6    2    1    2    0  503  0.59690870748E+01  0.33115032842E+02  0.10456663258E+03  0.20510515787E+03  0.17321001626E+03 0.  0.
        -24    2    3    3    0    0  0.10763502294E+02  0.49775993033E+02 -0.58297668799E+01  0.93256916819E+02  0.77906122280E+02 0.  0.
          6    2    1    2  501    0 -0.59690870748E+01 -0.33115032842E+02  0.83282319225E+02  0.19402137449E+03  0.17197707307E+03 0.  0.
         24    2    5    5    0    0 -0.70072191319E+02 -0.87486397031E+01  0.43182183370E+02  0.11444097499E+03  0.79027748945E+02 0.  0.
          5    1    5    5  501    0  0.64103104245E+02 -0.24366393139E+02  0.40100135856E+02  0.79580399497E+02  0.47000000000E+01 0. -1.
        -11    1    6    6    0    0 -0.28692203795E+02 -0.27331693300E+02 -0.13481600244E+02  0.41857108863E+02  0.00000000000E+00 0.  1.
         12    1    6    6    0    0 -0.41379987525E+02  0.18583053597E+02  0.56663783614E+02  0.72583866127E+02  0.00000000000E+00 0. -1.
         -5    1    3    3    0  503 -0.47944152187E+01 -0.16660960191E+02  0.11039639946E+03  0.11184824105E+03  0.47000000000E+01 0.  1.
         13    1    4    4    0    0  0.38247450272E+02  0.29778054969E+02 -0.24676073814E+02  0.54392174335E+02  0.00000000000E+00 0. -1.
        -14    1    4    4    0    0 -0.27483947978E+02  0.19997938064E+02  0.18846306934E+02  0.38864742484E+02  0.00000000000E+00 0.  1.
</event>
<event>
12    1  0.9962621E-001  0.2084223E+03  0.7818608E-02  0.1143090E+00
         21   -1    0    0  501  502  0.00000000000E+00  0.00000000000E+00  0.17824617942E+03  0.17824617942E+03  0.00000000000E+00 0. -1.
         21   -1    0    0  502  503 -0.00000000000E+00 -0.00000000000E+00 -0.24268338143E+03  0.24268338143E+03  0.00000000000E+00 0. -1.
         -6    2    1    2    0  503 -0.51207964835E+02 -0.10419126705E+03 -0.42041557571E+02  0.21130745424E+03  0.17147965437E+03 0.  0.
        -24    2    3    3    0    0  0.49500893169E+01 -0.45267824351E+01  0.19417610975E+02  0.81361096315E+02  0.78724768874E+02 0.  0.
          6    2    1    2  501    0  0.51207964835E+02  0.10419126705E+03 -0.22395644438E+02  0.20962210660E+03  0.17309473387E+03 0.  0.
         24    2    5    5    0    0  0.64760380727E+02  0.29670983877E+02  0.37425792838E+02  0.11299066794E+03  0.79321667121E+02 0.  0.
          5    1    5    5  501    0 -0.13552415892E+02  0.74520283174E+02 -0.59821437276E+02  0.96631438666E+02  0.47000000000E+01 0. -1.
        -13    1    6    6    0    0  0.25895711459E+02  0.42595927723E+01 -0.24288359056E+02  0.35758305164E+02  0.00000000000E+00 0.  1.
         14    1    6    6    0    0  0.38864669268E+02  0.25411391104E+02  0.61714151894E+02  0.77232362771E+02  0.00000000000E+00 0. -1.
         -5    1    3    3    0  503 -0.56158054152E+02 -0.99664484616E+02 -0.61459168546E+02  0.12994635793E+03  0.47000000000E+01 0.  1.
         13    1    4    4    0    0 -0.66386683710E+00  0.35454603014E+02  0.20524654288E+02  0.40972320263E+02  0.00000000000E+00 0. -1.
        -14    1    4    4    0    0  0.56139561540E+01 -0.39981385449E+02 -0.11070433132E+01  0.40388776053E+02  0.00000000000E+00 0.  1.
</event>
<event>
12    1  0.9962621E-001  0.2388702E+03  0.7818608E-02  0.1120629E+00
         21   -1    0    0  501  502  0.00000000000E+00  0.00000000000E+00  0.23751198491E+03  0.23751198491E+03  0.00000000000E+00 0.  1.
         21   -1    0    0  502  503 -0.00000000000E+00 -0.00000000000E+00 -0.29235370208E+03  0.29235370208E+03  0.00000000000E+00 0.  1.
         -6    2    1    2    0  503 -0.16259480839E+03  0.25539507865E+02 -0.13982784753E+03  0.27678658414E+03  0.17311744002E+03 0.  0.
        -24    2    3    3    0    0 -0.55936367710E+02  0.59150866371E+02 -0.11714344706E+03  0.16258317608E+03  0.77993587749E+02 0.  0.
          6    2    1    2  501    0  0.16259480839E+03 -0.25539507865E+02  0.84986130356E+02  0.25307910285E+03  0.17244434398E+03 0.  0.
         24    2    5    5    0    0  0.13453379632E+03 -0.21023110482E+02 -0.57576066950E+01  0.15787230657E+03  0.79681877628E+02 0.  0.
          5    1    5    5  501    0  0.28061012069E+02 -0.45163973834E+01  0.90743737051E+02  0.95206796278E+02  0.47000000000E+01 0. -1.
        -11    1    6    6    0    0 -0.87148844426E+01 -0.21975816945E+01  0.89020423456E+01  0.12650096208E+02  0.00000000000E+00 0.  1.
         12    1    6    6    0    0  0.14324868076E+03 -0.18825528787E+02 -0.14659649041E+02  0.14522221036E+03  0.00000000000E+00 0. -1.
         -5    1    3    3    0  503 -0.10665844067E+03 -0.33611358506E+02 -0.22684400472E+02  0.11420340806E+03  0.47000000000E+01 0.  1.
         13    1    4    4    0    0 -0.52266565836E+02 -0.37944166054E+00 -0.44940559844E+02  0.68931790919E+02  0.00000000000E+00 0. -1.
        -14    1    4    4    0    0 -0.36698018745E+01  0.59530308032E+02 -0.72202887213E+02  0.93651385158E+02  0.00000000000E+00 0.  1.
</event>
<event>
12    1  0.9962621E-001  0.2456056E+03  0.7818608E-02  0.1116409E+00
         21   -1    0    0  503  502  0.00000000000E+00  0.00000000000E+00  0.29259227420E+03  0.29259227420E+03  0.00000000000E+00 0. -1.
         21   -1    0    0  501  503 -0.00000000000E+00 -0.00000000000E+00 -0.41558486784E+03  0.41558486784E+03  0.00000000000E+00 0. -1.
          6    2    1    2  501    0 -0.17124149830E+03 -0.15516619118E+02  0.19088503334E+03  0.30962817726E+03  0.17282388722E+03 0.  0.
         24    2    3    3    0    0 -0.32564094830E+02  0.26284945883E+02  0.37786233509E+02  0.98819909920E+02  0.81155754581E+02 0.  0.
         -6    2    1    2    0  502  0.17124149830E+03  0.15516619118E+02 -0.31387762699E+03  0.39854896477E+03  0.17537872274E+03 0.  0.
        -24    2    5    5    0    0  0.17426901444E+03 -0.26472808327E+02 -0.20282058749E+03  0.27968755853E+03  0.77578609915E+02 0.  0.
          5    1    3    3  501    0 -0.13867740347E+03 -0.41801565002E+02  0.15309879984E+03  0.21080826734E+03  0.47000000000E+01 0. -1.
        -11    1    4    4    0    0 -0.48329628631E+02 -0.10828946066E+02  0.29519061429E+02  0.57657558604E+02  0.00000000000E+00 0.  1.
         12    1    4    4    0    0  0.15765533801E+02  0.37113891950E+02  0.82671720801E+01  0.41162351316E+02  0.00000000000E+00 0. -1.
         -5    1    5    5    0  502 -0.30275161382E+01  0.41989427446E+02 -0.11105703950E+03  0.11886140624E+03  0.47000000000E+01 0.  1.
         11    1    6    6    0    0  0.20055700432E+02  0.10087084549E+02 -0.20628582699E+00  0.22450455415E+02  0.00000000000E+00 0. -1.
        -12    1    6    6    0    0  0.15421331400E+03 -0.36559892876E+02 -0.20261430166E+03  0.25723710312E+03  0.00000000000E+00 0.  1.
</event>
<event>
12    1  0.9962621E-001  0.2453031E+03  0.7818608E-02  0.1117140E+00
         21   -1    0    0  503  502  0.00000000000E+00  0.00000000000E+00  0.22916410698E+03  0.22916410698E+03  0.00000000000E+00 0.  1.
         21   -1    0    0  501  503 -0.00000000000E+00 -0.00000000000E+00 -0.29773786596E+03  0.29773786596E+03  0.00000000000E+00 0. -1.
          6    2    1    2  501    0  0.16682049823E+03  0.11149756276E+02 -0.13120697700E+03  0.27372901702E+03  0.17250770491E+03 0.  0.
         24    2    3    3    0    0  0.18981064027E+03  0.32178198462E+02 -0.11999334983E+03  0.24028387618E+03  0.79211246250E+02 0.  0.
         -6    2    1    2    0  502 -0.16682049823E+03 -0.11149756276E+02  0.62633218016E+02  0.25317295592E+03  0.17949994406E+03 0.  0.
        -24    2    5    5    0    0 -0.11628247910E+03  0.33069815136E+02  0.10147078156E+03  0.17545610951E+03  0.76637453218E+02 0.  0.
          5    1    3    3  501    0 -0.22990142040E+02 -0.21028442186E+02 -0.11213627170E+02  0.33445140845E+02  0.47000000000E+01 0. -1.
        -13    1    4    4    0    0  0.11364129648E+03  0.54178519259E+02 -0.53432298924E+02  0.13676500570E+03  0.00000000000E+00 0.  1.
         14    1    4    4    0    0  0.76169343789E+02 -0.22000320797E+02 -0.66561050901E+02  0.10351887048E+03  0.00000000000E+00 0. -1.
         -5    1    5    5    0  502 -0.50538019127E+02 -0.44219571412E+02 -0.38837563547E+02  0.77716846407E+02  0.47000000000E+01 0.  1.
         11    1    6    6    0    0 -0.24193661783E+02  0.29478991369E+02 -0.32909699624E+00  0.38137285003E+02  0.00000000000E+00 0. -1.
        -12    1    6    6    0    0 -0.92088817320E+02  0.35908237677E+01  0.10179987856E+03  0.13731882451E+03  0.00000000000E+00 0.  1.
</event>
<event>
12    1  0.9962621E-001  0.1838143E+03  0.7818608E-02  0.1164672E+00
         21   -1    0    0  501  502  0.00000000000E+00  0.00000000000E+00  0.13187172366E+03  0.13187172366E+03  0.00000000000E+00 0.  1.
         21   -1    0    0  502  503 -0.00000000000E+00 -0.00000000000E+00 -0.37508870175E+03  0.37508870175E+03  0.00000000000E+00 0.  1.
         -6    2    1    2    0  503  0.20589834145E+02 -0.62121398277E+02  0.22388945419E+02  0.18517281111E+03  0.17176930955E+03 0.  0.
        -24    2    3    3    0    0  0.52378726441E+02 -0.97925285065E+02  0.17461586980E+02  0.13681145418E+03  0.77971626481E+02 0.  0.
          6    2    1    2  501    0 -0.20589834145E+02  0.62121398277E+02 -0.26560592350E+03  0.32178761430E+03  0.16946313087E+03 0.  0.
         24    2    5    5    0    0 -0.56410811431E+02  0.77073692656E+02 -0.25056999780E+03  0.27989629560E+03  0.80212709395E+02 0.  0.
          5    1    5    5  501    0  0.35820977286E+02 -0.14952294379E+02 -0.15035925705E+02  0.41891318704E+02  0.47000000000E+01 0. -1.
        -13    1    6    6    0    0 -0.35808960633E+01  0.56285318961E+02 -0.66117880526E+02  0.86904741369E+02  0.00000000000E+00 0.  1.
         14    1    6    6    0    0 -0.52829915368E+02  0.20788373695E+02 -0.18445211727E+03  0.19299155423E+03  0.00000000000E+00 0. -1.
         -5    1    3    3    0  503 -0.31788892297E+02  0.35803886788E+02  0.49273584391E+01  0.48361356926E+02  0.47000000000E+01 0.  1.
         13    1    4    4    0    0  0.53417190039E+02 -0.69602704109E+02  0.43851238088E+02  0.98086001513E+02  0.00000000000E+00 0. -1.
        -14    1    4    4    0    0 -0.10384635973E+01 -0.28322580956E+02 -0.26389651108E+02  0.38725452667E+02  0.00000000000E+00 0.  1.
</event>
<event>
12    1  0.9962621E-001  0.1793217E+03  0.7818608E-02  0.1168876E+00
         21   -1    0    0  503  502  0.00000000000E+00  0.00000000000E+00  0.51015858184E+02  0.51015858184E+02  0.00000000000E+00 0.  1.
         21   -1    0    0  501  503 -0.00000000000E+00 -0.00000000000E+00 -0.64517534527E+03  0.64517534527E+03  0.00000000000E+00 0.  1.
          6    2    1    2  501    0 -0.12028879107E+02 -0.49070086846E+02 -0.36096213404E+03  0.40305077829E+03  0.17205725883E+03 0.  0.
         24    2    3    3    0    0 -0.73704099940E+02 -0.38273024911E+02 -0.21034020233E+03  0.23986540602E+03  0.79970578995E+02 0.  0.
         -6    2    1    2    0  502  0.12028879107E+02  0.49070086846E+02 -0.23319735305E+03  0.29314042517E+03  0.17028721632E+03 0.  0.
        -24    2    5    5    0    0 -0.27994327426E+02  0.30741716387E+02 -0.46109113868E+02  0.10088568409E+03  0.79518144965E+02 0.  0.
          5    1    3    3  501    0  0.61675220834E+02 -0.10797061935E+02 -0.15062193171E+03  0.16318537227E+03  0.47000000000E+01 0. -1.
        -13    1    4    4    0    0 -0.30120277075E+02  0.23549981950E+02 -0.53732970337E+02  0.65947439997E+02  0.00000000000E+00 0.  1.
         14    1    4    4    0    0 -0.43583822865E+02 -0.61823006861E+02 -0.15660723199E+03  0.17391796602E+03  0.00000000000E+00 0. -1.
         -5    1    5    5    0  502  0.40023206533E+02  0.18328370458E+02 -0.18708823918E+03  0.19225474107E+03  0.47000000000E+01 0.  1.
         13    1    6    6    0    0 -0.48962430727E+02  0.33923670573E+02 -0.12064731695E+02  0.60775758314E+02  0.00000000000E+00 0. -1.
        -14    1    6    6    0    0  0.20968103300E+02 -0.31819541853E+01 -0.34044382173E+02  0.40109925779E+02  0.00000000000E+00 0.  1.
</event>
<event>
12    1  0.9962621E-001  0.3907387E+03  0.7818608E-02  0.1047039E+00
         21   -1    0    0  501  502  0.00000000000E+00  0.00000000000E+00  0.50902773750E+03  0.50902773750E+03  0.00000000000E+00 0.  1.
         21   -1    0    0  502  503 -0.00000000000E+00 -0.00000000000E+00 -0.43429018492E+03  0.43429018492E+03  0.00000000000E+00 0.  1.
         -6    2    1    2    0  503 -0.41082865254E+01 -0.35063778187E+03  0.29973952930E+03  0.49242702972E+03  0.17226973640E+03 0.  0.
        -24    2    3    3    0    0 -0.30668413966E+02 -0.76365216162E+02  0.93345746415E+02  0.14811414253E+03  0.80325419325E+02 0.  0.
          6    2    1    2  501    0  0.41082865254E+01  0.35063778187E+03 -0.22500197673E+03  0.45089089270E+03  0.17237452101E+03 0.  0.
         24    2    5    5    0    0  0.50650514715E+02  0.31020028261E+03 -0.21167803875E+03  0.38763753173E+03  0.81642966260E+02 0.  0.
          5    1    5    5  501    0 -0.46542228189E+02  0.40437499259E+02 -0.13323937973E+02  0.63253360972E+02  0.47000000000E+01 0. -1.
        -13    1    6    6    0    0  0.62131643435E+01  0.45849622991E+02 -0.71429332172E+02  0.85105468885E+02  0.00000000000E+00 0.  1.
         14    1    6    6    0    0  0.44437350371E+02  0.26435065962E+03 -0.14024870658E+03  0.30253206284E+03  0.00000000000E+00 0. -1.
         -5    1    3    3    0  503  0.26560127441E+02 -0.27427256571E+03  0.20639378289E+03  0.34431288719E+03  0.47000000000E+01 0.  1.
         13    1    4    4    0    0 -0.25479672033E+02 -0.73216429524E+02  0.10760184178E+03  0.13261981599E+03  0.00000000000E+00 0. -1.
        -14    1    4    4    0    0 -0.51887419334E+01 -0.31487866380E+01 -0.14256095361E+02  0.15494326545E+02  0.00000000000E+00 0.  1.
</event>
<event>
12    1  0.9962621E-001  0.1864899E+03  0.7818608E-02  0.1161981E+00
         21   -1    0    0  501  502  0.00000000000E+00  0.00000000000E+00  0.15241959322E+03  0.15241959322E+03  0.00000000000E+00 0. -1.
         21   -1    0    0  502  503 -0.00000000000E+00 -0.00000000000E+00 -0.23481982355E+03  0.23481982355E+03  0.00000000000E+00 0. -1.
         -6    2    1    2    0  503  0.69915565580E+02  0.12229241962E+02 -0.46467477905E+01  0.18518971928E+03  0.17098508470E+03 0.  0.
        -24    2    3    3    0    0 -0.11972170088E+02  0.39064023332E+02 -0.31136922239E+02  0.94914993654E+02  0.79812388251E+02 0.  0.
          6    2    1    2  501    0 -0.69915565580E+02 -0.12229241962E+02 -0.77753482532E+02  0.20204969749E+03  0.17245502469E+03 0.  0.
         24    2    5    5    0    0 -0.47369312043E+02 -0.71420850519E+02 -0.69250743784E+02  0.13796875931E+03  0.83035675578E+02 0.  0.
          5    1    5    5  501    0 -0.22546253537E+02  0.59191608557E+02 -0.85027387485E+01  0.64080938183E+02  0.47000000000E+01 0. -1.
        -11    1    6    6    0    0 -0.40436577792E+01  0.17019454561E+02  0.14244174991E+00  0.17493807231E+02  0.00000000000E+00 0.  1.
         12    1    6    6    0    0 -0.43325654264E+02 -0.88440305080E+02 -0.69393185533E+02  0.12047495208E+03  0.00000000000E+00 0. -1.
         -5    1    3    3    0  503  0.81887735667E+02 -0.26834781370E+02  0.26490174448E+02  0.90274725622E+02  0.47000000000E+01 0.  1.
         13    1    4    4    0    0  0.29599579310E+02  0.30711894004E+02 -0.30624929305E+02  0.52509445089E+02  0.00000000000E+00 0. -1.
        -14    1    4    4    0    0 -0.41571749398E+02  0.83521293285E+01 -0.51199293360E+00  0.42405548565E+02  0.00000000000E+00 0.  1.
</event>
<event>
12    1  0.9962621E-001  0.2049569E+03  0.7818608E-02  0.1146806E+00
         21   -1    0    0  503  502  0.00000000000E+00  0.00000000000E+00  0.31543504036E+03  0.31543504036E+03  0.00000000000E+00 0. -1.
         21   -1    0    0  501  503 -0.00000000000E+00 -0.00000000000E+00 -0.16720417872E+03  0.16720417872E+03  0.00000000000E+00 0.  1.
          6    2    1    2  501    0 -0.48605324098E+02  0.99433599691E+02 -0.39672740276E+02  0.20876123781E+03  0.17250452113E+03 0.  0.
         24    2    3    3    0    0 -0.37734382462E+02  0.50499783381E+02 -0.90953931409E+02  0.13689645982E+03  0.80584808318E+02 0.  0.
         -6    2    1    2    0  502  0.48605324098E+02 -0.99433599691E+02  0.18790360191E+03  0.27387798128E+03  0.16568604872E+03 0.  0.
        -24    2    5    5    0    0  0.49972352646E+02 -0.12028118872E+03  0.19806754407E+03  0.25017383700E+03  0.79946208908E+02 0.  0.
          5    1    3    3  501    0 -0.10870941636E+02  0.48933816309E+02  0.51281191133E+02  0.71864777984E+02  0.47000000000E+01 0. -1.
        -13    1    4    4    0    0 -0.28118034063E+02 -0.17832960575E+02 -0.28662826185E+02  0.43933995122E+02  0.00000000000E+00 0.  1.
         14    1    4    4    0    0 -0.96163483984E+01  0.68332743956E+02 -0.62291105223E+02  0.92962464700E+02  0.00000000000E+00 0. -1.
         -5    1    5    5    0  502 -0.13670285479E+01  0.20847589032E+02 -0.10163942159E+02  0.23704144273E+02  0.47000000000E+01 0.  1.
         13    1    6    6    0    0  0.66003870742E+02 -0.84277109229E+02  0.10899386975E+03  0.15277043476E+03  0.00000000000E+00 0. -1.
        -14    1    6    6    0    0 -0.16031518096E+02 -0.36004079494E+02  0.89073674319E+02  0.97403402247E+02  0.00000000000E+00 0.  1.
</event>
<event>
12    1  0.9962621E-001  0.2912537E+03  0.7818608E-02  0.1090191E+00
         21   -1    0    0  503  502  0.00000000000E+00  0.00000000000E+00  0.25537297050E+03  0.25537297050E+03  0.00000000000E+00 0. -1.
         21   -1    0    0  501  503 -0.00000000000E+00 -0.00000000000E+00 -0.33083713814E+03  0.33083713814E+03  0.00000000000E+00 0.  1.
          6    2    1    2  501    0  0.20719388841E+03  0.10632924085E+03 -0.97600673432E+01  0.28763727068E+03  0.16853701587E+03 0.  0.
         24    2    3    3    0    0  0.91267885763E+02  0.27719302812E+01 -0.43916593120E+02  0.12841505831E+03  0.78893912816E+02 0.  0.
         -6    2    1    2    0  502 -0.20719388841E+03 -0.10632924085E+03 -0.65704100299E+02  0.29857283795E+03  0.17490996517E+03 0.  0.
        -24    2    5    5    0    0 -0.18212420544E+03 -0.10918738139E+03  0.11434771674E+01  0.22696734526E+03  0.80135870936E+02 0.  0.
          5    1    3    3  501    0  0.11592600264E+03  0.10355731057E+03  0.34156525776E+02  0.15922221238E+03  0.47000000000E+01 0. -1.
        -11    1    4    4    0    0  0.12238231778E+02  0.31709300287E+02 -0.24896135669E+02  0.42131598747E+02  0.00000000000E+00 0.  1.
         12    1    4    4    0    0  0.79029653986E+02 -0.28937370005E+02 -0.19020457450E+02  0.86283459560E+02  0.00000000000E+00 0. -1.
         -5    1    5    5    0  502 -0.25069682963E+02  0.28581405359E+01 -0.66847577466E+02  0.71605492696E+02  0.47000000000E+01 0.  1.
         13    1    6    6    0    0 -0.78327409909E+02 -0.47196155342E+01 -0.10839398418E+02  0.79214584970E+02  0.00000000000E+00 0. -1.
        -14    1    6    6    0    0 -0.10379679553E+03 -0.10446776585E+03  0.11982875585E+02  0.14775276029E+03  0.00000000000E+00 0.  1.
</event>
<event>
12    1  0.9962621E-001  0.3926124E+03  0.7818608E-02  0.1046377E+00
         21   -1    0    0  501  502  0.00000000000E+00  0.00000000000E+00  0.29118234341E+03  0.29118234341E+03  0.00000000000E+00 0. -1.
         21   -1    0    0  502  503 -0.00000000000E+00 -0.00000000000E+00 -0.55480306837E+03  0.55480306837E+03  0.00000000000E+00 0.  1.
         -6    2    1    2    0  503  0.15570581296E+03  0.31666359676E+03 -0.22257930273E+03  0.45123369064E+03  0.17190161101E+03 0.  0.
        -24    2    3    3    0    0  0.22739700272E+02  0.14157586269E+03 -0.50810618460E+02  0.17219557024E+03  0.80676989261E+02 0.  0.
          6    2    1    2  501    0 -0.15570581296E+03 -0.31666359676E+03 -0.41041422227E+02  0.39475172114E+03  0.17211737073E+03 0.  0.
         24    2    5    5    0    0 -0.14452638759E+03 -0.14836305118E+03 -0.52334397843E-01  0.22110769299E+03  0.77389517996E+02 0.  0.
          5    1    5    5  501    0 -0.11179425373E+02 -0.16830054558E+03 -0.40989087829E+02  0.17364402816E+03  0.47000000000E+01 0. -1.
        -11    1    6    6    0    0 -0.90392353334E+02 -0.48322921502E+02 -0.23051195211E+02  0.10505826900E+03  0.00000000000E+00 0.  1.
         12    1    6    6    0    0 -0.54134034251E+02 -0.10004012967E+03  0.22998860814E+02  0.11604942399E+03  0.00000000000E+00 0. -1.
         -5    1    3    3    0  503  0.13296611269E+03  0.17508773406E+03 -0.17176868427E+03  0.27903812040E+03  0.47000000000E+01 0.  1.
         13    1    4    4    0    0  0.22161797305E+02  0.24888378917E+02  0.16814791461E+02  0.37327119857E+02  0.00000000000E+00 0. -1.
        -14    1    4    4    0    0  0.57790296637E+00  0.11668748378E+03 -0.67625409920E+02  0.13486845038E+03  0.00000000000E+00 0.  1.
</event>
<event>
12    1  0.9962621E-001  0.1824483E+03  0.7818608E-02  0.1166721E+00
         21   -1    0    0  501  502  0.00000000000E+00  0.00000000000E+00  0.47852022372E+03  0.47852022372E+03  0.00000000000E+00 0.  1.
         21   -1    0    0  502  503 -0.00000000000E+00 -0.00000000000E+00 -0.67869708440E+02  0.67869708440E+02  0.00000000000E+00 0.  1.
         -6    2    1    2    0  503 -0.12688100912E+02 -0.53338844385E+02  0.19037967362E+03  0.26368884009E+03  0.17401541321E+03 0.  0.
        -24    2    3    3    0    0  0.75642501349E+01 -0.85985867507E+02  0.19226767472E+03  0.22493783507E+03  0.78609055552E+02 0.  0.
          6    2    1    2  501    0  0.12688100912E+02  0.53338844385E+02  0.22027084166E+03  0.28270109207E+03  0.16850710237E+03 0.  0.
         24    2    5    5    0    0  0.10113264637E+02 -0.16623216448E+02  0.47854685929E+02  0.96553998366E+02  0.81572018415E+02 0.  0.
          5    1    5    5  501    0  0.25748362754E+01  0.69962060833E+02  0.17241615573E+03  0.18614709371E+03  0.47000000000E+01 0. -1.
        -13    1    6    6    0    0  0.18236197421E+02 -0.37616094879E+02  0.58300309231E+02  0.71738800845E+02  0.00000000000E+00 0.  1.
         14    1    6    6    0    0 -0.81229327840E+01  0.20992878431E+02 -0.10445623302E+02  0.24815197521E+02  0.00000000000E+00 0. -1.
         -5    1    3    3    0  503 -0.20252351047E+02  0.32647023122E+02 -0.18880010985E+01  0.38751005017E+02  0.47000000000E+01 0.  1.
         11    1    4    4    0    0 -0.32378586067E+02 -0.46502355976E+02  0.67632286867E+02  0.88232466665E+02  0.00000000000E+00 0. -1.
        -12    1    4    4    0    0  0.39942836202E+02 -0.39483511531E+02  0.12463538785E+03  0.13670536841E+03  0.00000000000E+00 0.  1.
</event>
<event>
12    1  0.9962621E-001  0.1858107E+03  0.7818608E-02  0.1162539E+00
         21   -1    0    0  503  502  0.00000000000E+00  0.00000000000E+00  0.23856780600E+03  0.23856780600E+03  0.00000000000E+00 0.  1.
         21   -1    0    0  501  503 -0.00000000000E+00 -0.00000000000E+00 -0.22276974257E+03  0.22276974257E+03  0.00000000000E+00 0.  1.
          6    2    1    2  501    0  0.33275871205E+02  0.61175383229E+02  0.14516023820E+03  0.23579036008E+03  0.17226690928E+03 0.  0.
         24    2    3    3    0    0  0.18424304999E+02  0.79995661201E+02  0.30870556840E+02  0.11891866484E+03  0.80311249161E+02 0.  0.
         -6    2    1    2    0  502 -0.33275871205E+02 -0.61175383229E+02 -0.12936217478E+03  0.22554718849E+03  0.17113518298E+03 0.  0.
        -24    2    5    5    0    0 -0.29851138726E+00 -0.10240317737E+02  0.39006835628E+00  0.82230679476E+02  0.81589087980E+02 0.  0.
          5    1    3    3  501    0  0.14851566206E+02 -0.18820277971E+02  0.11428968136E+03  0.11687169524E+03  0.47000000000E+01 0. -1.
        -13    1    4    4    0    0 -0.78886518262E+01  0.79184189845E+02  0.42413720942E+02  0.90173668403E+02  0.00000000000E+00 0.  1.
         14    1    4    4    0    0  0.26312956825E+02  0.81147135602E+00 -0.11543164102E+02  0.28744996437E+02  0.00000000000E+00 0. -1.
         -5    1    5    5    0  502 -0.32977359818E+02 -0.50935065492E+02 -0.12975224314E+03  0.14331650902E+03  0.47000000000E+01 0.  1.
         13    1    6    6    0    0 -0.28464131508E+01 -0.17352391049E+02 -0.38652256061E+02  0.42464154784E+02  0.00000000000E+00 0. -1.
        -14    1    6    6    0    0  0.25479017635E+01  0.71120733123E+01  0.39042324417E+02  0.39766524692E+02  0.00000000000E+00 0.  1.
</event>
<event>
12    1  0.9962621E-001  0.1757837E+03  0.7818608E-02  0.1172041E+00
         21   -1    0    0  503  502  0.00000000000E+00  0.00000000000E+00  0.42404396179E+02  0.42404396179E+02  0.00000000000E+00 0. -1.
         21   -1    0    0  501  503 -0.00000000000E+00 -0.00000000000E+00 -0.13097957668E+04  0.13097957668E+04  0.00000000000E+00 0. -1.
          6    2    1    2  501    0 -0.10820039954E+02  0.38111336877E+02 -0.18313480097E+03  0.25384690539E+03  0.17126105450E+03 0.  0.
         24    2    3    3    0    0 -0.48721445362E+02  0.39042209292E+02 -0.18907860889E+03  0.21518423725E+03  0.81581016635E+02 0.  0.
         -6    2    1    2    0  502  0.10820039954E+02 -0.38111336877E+02 -0.10842565696E+04  0.10983532575E+04  0.17087428815E+03 0.  0.
        -24    2    5    5    0    0  0.51814799720E+02  0.27140696641E+02 -0.53589696440E+03  0.54458548597E+03  0.77242502506E+02 0.  0.
          5    1    3    3  501    0  0.37901405408E+02 -0.93087241492E+00  0.59438079239E+01  0.38662668144E+02  0.47000000000E+01 0. -1.
        -11    1    4    4    0    0 -0.24386472419E+02 -0.21222237402E+02 -0.98730277002E+02  0.10388816581E+03  0.00000000000E+00 0.  1.
         12    1    4    4    0    0 -0.24334972944E+02  0.60264446694E+02 -0.90348331889E+02  0.11129607144E+03  0.00000000000E+00 0. -1.
         -5    1    5    5    0  502 -0.40994759766E+02 -0.65252033518E+02 -0.54835960521E+03  0.55376777157E+03  0.47000000000E+01 0.  1.
         11    1    6    6    0    0 -0.10430088587E+02  0.32411641074E+02 -0.16679553721E+03  0.17023528559E+03  0.00000000000E+00 0. -1.
        -12    1    6    6    0    0  0.62244888307E+02 -0.52709444331E+01 -0.36910142718E+03  0.37435020038E+03  0.00000000000E+00 0.  1.
</event>
<event>
12    1  0.9962621E-001  0.2543012E+03  0.7818608E-02  0.1110744E+00
         21   -1    0    0  501  502  0.00000000000E+00  0.00000000000E+00  0.24480805321E+03  0.24480805321E+03  0.00000000000E+00 0.  1.
         21   -1    0    0  502  503 -0.00000000000E+00 -0.00000000000E+00 -0.27345752424E+03  0.27345752424E+03  0.00000000000E+00 0. -1.
         -6    2    1    2    0  503 -0.13739721048E+03  0.12615808149E+03  0.35617708622E+02  0.25596922476E+03  0.17163265389E+03 0.  0.
        -24    2    3    3    0    0 -0.11616340716E+03  0.31620079210E+02 -0.16342545967E+02  0.14592256949E+03  0.80824197533E+02 0.  0.
          6    2    1    2  501    0  0.13739721048E+03 -0.12615808149E+03 -0.64267179651E+02  0.26229635269E+03  0.17284458708E+03 0.  0.
         24    2    5    5    0    0  0.11219546909E+02 -0.43192838247E+02  0.14045281210E+02  0.92123011958E+02  0.79359182828E+02 0.  0.
          5    1    5    5  501    0  0.12617766358E+03 -0.82965243241E+02 -0.78312460861E+02  0.17017334074E+03  0.47000000000E+01 0. -1.
        -11    1    6    6    0    0  0.67900646517E+01 -0.66730137823E+02  0.94798956607E+01  0.67741307144E+02  0.00000000000E+00 0.  1.
         12    1    6    6    0    0  0.44294822576E+01  0.23537299576E+02  0.45653855498E+01  0.24381704814E+02  0.00000000000E+00 0. -1.
         -5    1    3    3    0  503 -0.21233803328E+02  0.94538002278E+02  0.51960254588E+02  0.11004665527E+03  0.47000000000E+01 0.  1.
         13    1    4    4    0    0 -0.95390399254E+00 -0.12222378595E+02  0.14365614206E+02  0.18885638535E+02  0.00000000000E+00 0. -1.
        -14    1    4    4    0    0 -0.11520950316E+03  0.43842457805E+02 -0.30708160173E+02  0.12703693096E+03  0.00000000000E+00 0.  1.
</event>
<event>
12    1  0.9962621E-001  0.1872544E+03  0.7818608E-02  0.1161074E+00
         21   -1    0    0  503  502  0.00000000000E+00  0.00000000000E+00  0.58659546603E+03  0.58659546603E+03  0.00000000000E+00 0. -1.
         21   -1    0    0  501  503 -0.00000000000E+00 -0.00000000000E+00 -0.59751644084E+02  0.59751644084E+02  0.00000000000E+00 0. -1.
          6    2    1    2  501    0  0.22284322275E+02 -0.67310604801E+02  0.27827138876E+03  0.33513581664E+03  0.17278235227E+03 0.  0.
         24    2    3    3    0    0  0.72525137336E+02 -0.79752624904E+01  0.14642591902E+03  0.18200143044E+03  0.79752558361E+02 0.  0.
         -6    2    1    2    0  502 -0.22284322275E+02  0.67310604801E+02  0.24857243319E+03  0.31121129348E+03  0.17331158677E+03 0.  0.
        -24    2    5    5    0    0 -0.77030518357E+02  0.20814408685E+02  0.17699267858E+03  0.20969876465E+03  0.79247859639E+02 0.  0.
          5    1    3    3  501    0 -0.50240815061E+02 -0.59335342311E+02  0.13184546973E+03  0.15313438619E+03  0.47000000000E+01 0. -1.
        -13    1    4    4    0    0  0.34392299850E+02 -0.39891219064E+02  0.10424057144E+03  0.11679142255E+03  0.00000000000E+00 0.  1.
         14    1    4    4    0    0  0.38132837486E+02  0.31915956573E+02  0.42185347577E+02  0.65210007890E+02  0.00000000000E+00 0. -1.
         -5    1    5    5    0  502  0.54746196082E+02  0.46496196116E+02  0.71579754609E+02  0.10151252883E+03  0.47000000000E+01 0.  1.
         11    1    6    6    0    0 -0.11701413684E+01 -0.20885805944E+02  0.64162639818E+02  0.67486520647E+02  0.00000000000E+00 0. -1.
        -12    1    6    6    0    0 -0.75860376989E+02  0.41700214629E+02  0.11283003876E+03  0.14221224400E+03  0.00000000000E+00 0.  1.
</event>
<event>
12    1  0.9962621E-001  0.2253888E+03  0.7818608E-02  0.1131257E+00
         21   -1    0    0  501  502  0.00000000000E+00  0.00000000000E+00  0.62741045753E+03  0.62741045753E+03  0.00000000000E+00 0.  1.
         21   -1    0    0  502  503 -0.00000000000E+00 -0.00000000000E+00 -0.81535277854E+02  0.81535277854E+02  0.00000000000E+00 0.  1.
         -6    2    1    2    0  503 -0.12380953102E+03  0.52741844305E+02  0.34681443829E+03  0.41361861138E+03  0.18080265198E+03 0.  0.
        -24    2    3    3    0    0 -0.30406898992E+02  0.38123705897E+02  0.59166945110E+02  0.11079702699E+03  0.79982856531E+02 0.  0.
          6    2    1    2  501    0  0.12380953102E+03 -0.52741844305E+02  0.19906074139E+03  0.29532712400E+03  0.17170448247E+03 0.  0.
         24    2    5    5    0    0  0.82841545027E+02 -0.92162717191E+02  0.86056677634E+02  0.16873964627E+03  0.75568700095E+02 0.  0.
          5    1    5    5  501    0  0.40967985991E+02  0.39420872886E+02  0.11300406375E+03  0.12658747774E+03  0.47000000000E+01 0. -1.
        -11    1    6    6    0    0  0.42480174241E+02  0.21738771332E+01  0.25616314347E+02  0.49653665585E+02  0.00000000000E+00 0.  1.
         12    1    6    6    0    0  0.40361370786E+02 -0.94336594324E+02  0.60440363286E+02  0.11908598068E+03  0.00000000000E+00 0. -1.
         -5    1    3    3    0  503 -0.93402632025E+02  0.14618138409E+02  0.28764749318E+03  0.30282158439E+03  0.47000000000E+01 0.  1.
         13    1    4    4    0    0 -0.13754391500E+02  0.60943143869E+02  0.27210563068E+02  0.68144440805E+02  0.00000000000E+00 0. -1.
        -14    1    4    4    0    0 -0.16652507493E+02 -0.22819437973E+02  0.31956382042E+02  0.42652586186E+02  0.00000000000E+00 0.  1.
</event>
<event>
12    1  0.9962621E-001  0.1887484E+03  0.7818608E-02  0.1161148E+00
         21   -1    0    0  501  502  0.00000000000E+00  0.00000000000E+00  0.20183454356E+03  0.20183454356E+03  0.00000000000E+00 0.  1.
         21   -1    0    0  502  503 -0.00000000000E+00 -0.00000000000E+00 -0.17065398651E+03  0.17065398651E+03  0.00000000000E+00 0.  1.
         -6    2    1    2    0  503  0.61350436394E+02 -0.10481682164E+02  0.68506994571E+01  0.18217850989E+03  0.17107991020E+03 0.  0.
        -24    2    3    3    0    0  0.36460068774E+02  0.53295055466E+01  0.69466253233E+02  0.11280761086E+03  0.80884216541E+02 0.  0.
          6    2    1    2  501    0 -0.61350436394E+02  0.10481682164E+02  0.24329857593E+02  0.19031002018E+03  0.17819152646E+03 0.  0.
         24    2    5    5    0    0  0.24904888969E+02  0.14449554646E+02 -0.27283243132E+02  0.89603876713E+02  0.80345729458E+02 0.  0.
          5    1    5    5  501    0 -0.86255325362E+02 -0.39678724820E+01  0.51613100725E+02  0.10070614347E+03  0.47000000000E+01 0. -1.
        -11    1    6    6    0    0  0.34819849880E+01  0.46232817514E+02 -0.93950457138E+01  0.47306072747E+02  0.00000000000E+00 0.  1.
         12    1    6    6    0    0  0.21422903981E+02 -0.31783262868E+02 -0.17888197418E+02  0.42297803966E+02  0.00000000000E+00 0. -1.
         -5    1    3    3    0  503  0.24890367620E+02 -0.15811187711E+02 -0.62615553776E+02  0.69370899026E+02  0.47000000000E+01 0.  1.
         11    1    4    4    0    0 -0.20549886710E+02 -0.17088959374E+02  0.14015528319E+02  0.30178890145E+02  0.00000000000E+00 0. -1.
        -12    1    4    4    0    0  0.57009955484E+02  0.22418464920E+02  0.55450724913E+02  0.82628720716E+02  0.00000000000E+00 0.  1.
</event>
<event>
12    1  0.9962621E-001  0.2684011E+03  0.7818608E-02  0.1102236E+00
         21   -1    0    0  501  502  0.00000000000E+00  0.00000000000E+00  0.39094301290E+03  0.39094301290E+03  0.00000000000E+00 0.  1.
         21   -1    0    0  502  503 -0.00000000000E+00 -0.00000000000E+00 -0.19404773230E+03  0.19404773230E+03  0.00000000000E+00 0.  1.
         -6    2    1    2    0  503  0.11859619492E+03  0.16758072235E+03  0.16465615787E+03  0.31466037080E+03  0.17248519553E+03 0.  0.
        -24    2    3    3    0    0  0.48449581859E+02  0.54331436276E+02  0.58892486993E+01  0.10735631979E+03  0.78685635270E+02 0.  0.
          6    2    1    2  501    0 -0.11859619492E+03 -0.16758072235E+03  0.32239122737E+02  0.27033037440E+03  0.17288954374E+03 0.  0.
         24    2    5    5    0    0 -0.14203617840E+03 -0.85927637503E+02  0.31441161433E+02  0.18524579393E+03  0.75958032340E+02 0.  0.
          5    1    5    5  501    0  0.23439983480E+02 -0.81653084849E+02  0.79796130384E+00  0.85084580467E+02  0.47000000000E+01 0. -1.
        -11    1    6    6    0    0 -0.13288102229E+03 -0.96531770788E+02  0.16991129692E+02  0.16511949414E+03  0.00000000000E+00 0.  1.
         12    1    6    6    0    0 -0.91551561064E+01  0.10604133285E+02  0.14450031742E+02  0.20126299794E+02  0.00000000000E+00 0. -1.
         -5    1    3    3    0  503  0.70146613059E+02  0.11324928608E+03  0.15876690917E+03  0.20730405101E+03  0.47000000000E+01 0.  1.
         11    1    4    4    0    0  0.30949780264E+02  0.28202541454E+02  0.42112747923E+02  0.59386494933E+02  0.00000000000E+00 0. -1.
        -12    1    4    4    0    0  0.17499801595E+02  0.26128894822E+02 -0.36223499224E+02  0.47969824854E+02  0.00000000000E+00 0.  1.
</event>
<event>
12    1  0.9962621E-001  0.3567267E+03  0.7818608E-02  0.1059948E+00
         21   -1    0    0  501  502  0.00000000000E+00  0.00000000000E+00  0.27588103410E+03  0.27588103410E+03  0.00000000000E+00 0. -1.
         21   -1    0    0  502  503 -0.00000000000E+00 -0.00000000000E+00 -0.47730067939E+03  0.47730067939E+03  0.00000000000E+00 0. -1.
         -6    2    1    2    0  503  0.25586832922E+03  0.17799363654E+03 -0.17130761031E+03  0.39518636172E+03  0.17226615047E+03 0.  0.
        -24    2    3    3    0    0  0.18426426991E+03  0.60179471216E+02 -0.14475257409E+03  0.25470654535E+03  0.79669483576E+02 0.  0.
          6    2    1    2  501    0 -0.25586832922E+03 -0.17799363654E+03 -0.30112034984E+02  0.35799535177E+03  0.17350389244E+03 0.  0.
         24    2    5    5    0    0 -0.20979599904E+03 -0.65163236697E+02 -0.11741367847E+02  0.23465464418E+03  0.81635370313E+02 0.  0.
          5    1    5    5  501    0 -0.46072330173E+02 -0.11283039985E+03 -0.18370667137E+02  0.12334070759E+03  0.47000000000E+01 0. -1.
        -13    1    6    6    0    0  0.14208297060E+01 -0.19196789814E+01 -0.13958690566E+02  0.14161531230E+02  0.00000000000E+00 0.  1.
         14    1    6    6    0    0 -0.21121682875E+03 -0.63243557716E+02  0.22173227196E+01  0.22049311295E+03  0.00000000000E+00 0. -1.
         -5    1    3    3    0  503  0.71604059304E+02  0.11781416533E+03 -0.26555036213E+02  0.14047981638E+03  0.47000000000E+01 0.  1.
         11    1    4    4    0    0  0.26996900910E+02  0.19851111091E+02 -0.66523415845E+02  0.74486670793E+02  0.00000000000E+00 0. -1.
        -12    1    4    4    0    0  0.15726736900E+03  0.40328360125E+02 -0.78229158250E+02  0.18021987455E+03  0.00000000000E+00 0.  1.
</event>
<event>
12    1  0.9962621E-001  0.3057593E+03  0.7818608E-02  0.1082573E+00
         21   -1    0    0  501  502  0.00000000000E+00  0.00000000000E+00  0.51404983625E+03  0.51404983625E+03  0.00000000000E+00 0.  1.
         21   -1    0    0  502  503 -0.00000000000E+00 -0.00000000000E+00 -0.19548710704E+03  0.19548710704E+03  0.00000000000E+00 0.  1.
         -6    2    1    2    0  503 -0.10964897920E+03 -0.22709781085E+03  0.25547850903E+03  0.39733771028E+03  0.17032813362E+03 0.  0.
        -24    2    3    3    0    0 -0.10156144018E+03 -0.24764135540E+03  0.24877493689E+03  0.37379045164E+03  0.78672520472E+02 0.  0.
          6    2    1    2  501    0  0.10964897920E+03  0.22709781085E+03  0.63084220184E+02  0.31219923301E+03  0.17289426806E+03 0.  0.
         24    2    5    5    0    0  0.16597349798E+02  0.91471509582E+02  0.80376445946E+02  0.14674769811E+03  0.80199780255E+02 0.  0.
          5    1    5    5  501    0  0.93051629398E+02  0.13562630127E+03 -0.17292225762E+02  0.16545153490E+03  0.47000000000E+01 0. -1.
        -13    1    6    6    0    0  0.10365648889E+02  0.84002357876E+02  0.21844493961E+02  0.87412955115E+02  0.00000000000E+00 0.  1.
         14    1    6    6    0    0  0.62317009093E+01  0.74691517063E+01  0.58531951985E+02  0.59334742998E+02  0.00000000000E+00 0. -1.
         -5    1    3    3    0  503 -0.80875390160E+01  0.20543544547E+02  0.67035721335E+01  0.23547258635E+02  0.47000000000E+01 0.  1.
         11    1    4    4    0    0 -0.23514891951E+02 -0.15820847998E+03  0.13369769959E+03  0.20846570020E+03  0.00000000000E+00 0. -1.
        -12    1    4    4    0    0 -0.78046548229E+02 -0.89432875413E+02  0.11507723730E+03  0.16532475144E+03  0.00000000000E+00 0.  1.
</event>
<event>
12    1  0.9962621E-001  0.2703154E+03  0.7818608E-02  0.1101151E+00
         21   -1    0    0  501  502  0.00000000000E+00  0.00000000000E+00  0.24026479308E+03  0.24026479308E+03  0.00000000000E+00 0.  1.
         21   -1    0    0  502  503 -0.00000000000E+00 -0.00000000000E+00 -0.31370346648E+03  0.31370346648E+03  0.00000000000E+00 0.  1.
         -6    2    1    2    0  503  0.27235747611E+01 -0.20805489696E+03 -0.86111858996E+02  0.28335589485E+03  0.17199143258E+03 0.  0.
        -24    2    3    3    0    0  0.11145412010E+02 -0.22103400873E+03 -0.10582667504E+03  0.25785788205E+03  0.79442740151E+02 0.  0.
          6    2    1    2  501    0 -0.27235747611E+01  0.20805489696E+03  0.12673185594E+02  0.27061236470E+03  0.17255777088E+03 0.  0.
         24    2    5    5    0    0 -0.95935111618E+01  0.16385818859E+03 -0.53251757150E+02  0.19080802188E+03  0.81427330501E+02 0.  0.
          5    1    5    5  501    0  0.68699364008E+01  0.44196708370E+02  0.65924942744E+02  0.79804342818E+02  0.47000000000E+01 0. -1.
        -11    1    6    6    0    0 -0.21135169260E+02  0.27195270297E+02  0.15056155894E+02  0.37589439162E+02  0.00000000000E+00 0.  1.
         12    1    6    6    0    0  0.11541658098E+02  0.13666291829E+03 -0.68307913044E+02  0.15321858272E+03  0.00000000000E+00 0. -1.
         -5    1    3    3    0  503 -0.84218372490E+01  0.12979111772E+02  0.19714816047E+02  0.25498012801E+02  0.47000000000E+01 0.  1.
         11    1    4    4    0    0 -0.16841826100E+01 -0.60027280250E+02  0.75455062749E+01  0.60523098981E+02  0.00000000000E+00 0. -1.
        -12    1    4    4    0    0  0.12829594620E+02 -0.16100672848E+03 -0.11337218132E+03  0.19733478307E+03  0.00000000000E+00 0.  1.
</event>
<event>
12    1  0.9962621E-001  0.1764099E+03  0.7818608E-02  0.1171787E+00
         21   -1    0    0  501  502  0.00000000000E+00  0.00000000000E+00  0.33312452371E+02  0.33312452371E+02  0.00000000000E+00 0. -1.
         21   -1    0    0  502  503 -0.00000000000E+00 -0.00000000000E+00 -0.15152256750E+04  0.15152256750E+04  0.00000000000E+00 0. -1.
         -6    2    1    2    0  503  0.19986531158E+02 -0.17366894220E+02 -0.12268336166E+04  0.12394519604E+04  0.17441149347E+03 0.  0.
        -24    2    3    3    0    0  0.15102744470E+02 -0.27592784950E+02 -0.28342655274E+03  0.29596513049E+03  0.79216746933E+02 0.  0.
          6    2    1    2  501    0 -0.19986531158E+02  0.17366894220E+02 -0.25507960608E+03  0.30908616695E+03  0.17253284533E+03 0.  0.
         24    2    5    5    0    0 -0.79384212724E+02 -0.21883716483E+02 -0.18148263385E+03  0.20658104836E+03  0.54396993245E+02 0.  0.
          5    1    5    5  501    0  0.59397681566E+02  0.39250610703E+02 -0.73596972226E+02  0.10250511859E+03  0.47000000000E+01 0. -1.
        -11    1    6    6    0    0 -0.30529055504E+02 -0.14117467380E+02 -0.23491839835E+02  0.41026730969E+02  0.00000000000E+00 0.  1.
         12    1    6    6    0    0 -0.48855157221E+02 -0.77662491031E+01 -0.15799079402E+03  0.16555431739E+03  0.00000000000E+00 0. -1.
         -5    1    3    3    0  503  0.48837866876E+01  0.10225890730E+02 -0.94340706383E+03  0.94348682995E+03  0.47000000000E+01 0.  1.
         13    1    4    4    0    0  0.17714074617E+02 -0.53097738089E+02 -0.22988749705E+03  0.23660392966E+03  0.00000000000E+00 0. -1.
        -14    1    4    4    0    0 -0.26113301470E+01  0.25504953139E+02 -0.53539055687E+02  0.59361200827E+02  0.00000000000E+00 0.  1.
</event>
<event>
12    1  0.9962621E-001  0.1756505E+03  0.7818608E-02  0.1172250E+00
         21   -1    0    0  501  502  0.00000000000E+00  0.00000000000E+00  0.70612460471E+03  0.70612460471E+03  0.00000000000E+00 0. -1.
         21   -1    0    0  502  503 -0.00000000000E+00 -0.00000000000E+00 -0.43894075242E+02  0.43894075242E+02  0.00000000000E+00 0. -1.
         -6    2    1    2    0  503 -0.24062226796E+02  0.26385244900E+02  0.29736422712E+03  0.34536729353E+03  0.17198230131E+03 0.  0.
        -24    2    3    3    0    0 -0.60055399975E+02 -0.12495614963E+02  0.26345517448E+03  0.28228683990E+03  0.80712078161E+02 0.  0.
          6    2    1    2  501    0  0.24062226796E+02 -0.26385244900E+02  0.36486630235E+03  0.40465138642E+03  0.17128967873E+03 0.  0.
         24    2    5    5    0    0 -0.46727046243E+02 -0.32595427964E+02  0.25777791606E+03  0.27604462133E+03  0.80655441104E+02 0.  0.
          5    1    5    5  501    0  0.70789273038E+02  0.62101830636E+01  0.10708838628E+03  0.12860676509E+03  0.47000000000E+01 0. -1.
        -11    1    6    6    0    0 -0.60534523809E+02 -0.67240987763E+01  0.21968219687E+03  0.22796909812E+03  0.00000000000E+00 0.  1.
         12    1    6    6    0    0  0.13807477566E+02 -0.25871329187E+02  0.38095719192E+02  0.48075523205E+02  0.00000000000E+00 0. -1.
         -5    1    3    3    0  503  0.35993173179E+02  0.38880859863E+02  0.33909052640E+02  0.63080453629E+02  0.47000000000E+01 0.  1.
         11    1    4    4    0    0 -0.39832179477E+02 -0.40171136959E+02  0.96588019783E+02  0.11193555437E+03  0.00000000000E+00 0. -1.
        -12    1    4    4    0    0 -0.20223220498E+02  0.27675521997E+02  0.16686715470E+03  0.17035128553E+03  0.00000000000E+00 0.  1.
</event>
<event>
12    1  0.9962621E-001  0.3663964E+03  0.7818608E-02  0.1056121E+00
         21   -1    0    0  501  502  0.00000000000E+00  0.00000000000E+00  0.82750742139E+02  0.82750742139E+02  0.00000000000E+00 0. -1.
         21   -1    0    0  502  503 -0.00000000000E+00 -0.00000000000E+00 -0.16204927630E+04  0.16204927630E+04  0.00000000000E+00 0. -1.
         -6    2    1    2    0  503  0.31794927515E+03  0.59943087732E+02 -0.76275252439E+03  0.84600663636E+03  0.17102894483E+03 0.  0.
        -24    2    3    3    0    0  0.20523723765E+03 -0.24331382259E+02 -0.40980265741E+03  0.46600415177E+03  0.80667909174E+02 0.  0.
          6    2    1    2  501    0 -0.31794927515E+03 -0.59943087732E+02 -0.77498949648E+03  0.85723686879E+03  0.17193433113E+03 0.  0.
         24    2    5    5    0    0 -0.91166384982E+02 -0.66650741595E+02 -0.28961827815E+03  0.32143580359E+03  0.81783847311E+02 0.  0.
          5    1    5    5  501    0 -0.22678289016E+03  0.67076538621E+01 -0.48537121833E+03  0.53580106521E+03  0.47000000000E+01 0. -1.
        -13    1    6    6    0    0 -0.86174461824E+02 -0.17420674948E+02 -0.21044239855E+03  0.22806911429E+03  0.00000000000E+00 0.  1.
         14    1    6    6    0    0 -0.49919231576E+01 -0.49230066647E+02 -0.79175879603E+02  0.93366689294E+02  0.00000000000E+00 0. -1.
         -5    1    3    3    0  503  0.11271203749E+03  0.84274469991E+02 -0.35294986699E+03  0.38000248459E+03  0.47000000000E+01 0.  1.
         11    1    4    4    0    0 -0.31125331465E+01 -0.42983771643E+01 -0.45849000240E+02  0.46155115988E+02  0.00000000000E+00 0. -1.
        -12    1    4    4    0    0  0.20834977080E+03 -0.20033005094E+02 -0.36395365717E+03  0.41984903578E+03  0.00000000000E+00 0.  1.
</event>
<event>
12    1  0.9962621E-001  0.2704953E+03  0.7818608E-02  0.1101153E+00
         21   -1    0    0  503  502  0.00000000000E+00  0.00000000000E+00  0.32449817152E+03  0.32449817152E+03  0.00000000000E+00 0. -1.
         21   -1    0    0  501  503 -0.00000000000E+00 -0.00000000000E+00 -0.25487773626E+03  0.25487773626E+03  0.00000000000E+00 0. -1.
          6    2    1    2  501    0 -0.18339004166E+03  0.99752275258E+02  0.13464654526E+03  0.30117431805E+03  0.17027581714E+03 0.  0.
         24    2    3    3    0    0 -0.20161970940E+03  0.60472577921E+02  0.12234554338E+03  0.25591263386E+03  0.78837835366E+02 0.  0.
         -6    2    1    2    0  502  0.18339004166E+03 -0.99752275258E+02 -0.65026110002E+02  0.27820158974E+03  0.17200379575E+03 0.  0.
        -24    2    5    5    0    0  0.17232746892E+03 -0.39745614816E+02 -0.76940740631E+01  0.19434318433E+03  0.80209750509E+02 0.  0.
          5    1    3    3  501    0  0.18229667736E+02  0.39279697336E+02  0.12301001883E+02  0.45261684193E+02  0.47000000000E+01 0. -1.
        -11    1    4    4    0    0 -0.11356471974E+03  0.41366491451E+02  0.25293825605E+02  0.12348242708E+03  0.00000000000E+00 0.  1.
         12    1    4    4    0    0 -0.88054989660E+02  0.19106086471E+02  0.97051717771E+02  0.13243020678E+03  0.00000000000E+00 0. -1.
         -5    1    5    5    0  502  0.11062572738E+02 -0.60006660442E+02 -0.57332035939E+02  0.83858405410E+02  0.47000000000E+01 0.  1.
         13    1    6    6    0    0  0.80245891373E+02 -0.47934922468E+02 -0.31926715667E+02  0.98774870526E+02  0.00000000000E+00 0. -1.
        -14    1    6    6    0    0  0.92081577550E+02  0.81893076514E+01  0.24232641604E+02  0.95568313802E+02  0.00000000000E+00 0.  1.
</event>
<event>
12    1  0.9962621E-001  0.3009625E+03  0.7818608E-02  0.1084894E+00
         21   -1    0    0  501  502  0.00000000000E+00  0.00000000000E+00  0.30261744716E+03  0.30261744716E+03  0.00000000000E+00 0.  1.
         21   -1    0    0  502  503 -0.00000000000E+00 -0.00000000000E+00 -0.29851290289E+03  0.29851290289E+03  0.00000000000E+00 0.  1.
         -6    2    1    2    0  503  0.47630193754E+02 -0.24153770540E+03 -0.68016888494E+01  0.29997030270E+03  0.17125075486E+03 0.  0.
        -24    2    3    3    0    0  0.89913826013E+02 -0.19592832980E+03  0.22913865600E+02  0.23088177343E+03  0.79428845761E+02 0.  0.
          6    2    1    2  501    0 -0.47630193754E+02  0.24153770540E+03  0.10906233123E+02  0.30116004736E+03  0.17311652063E+03 0.  0.
         24    2    5    5    0    0  0.19983407223E+01  0.59774731358E+02  0.47394711195E+02  0.10918538965E+03  0.78090836788E+02 0.  0.
          5    1    5    5  501    0 -0.49628534476E+02  0.18176297405E+03 -0.36488478072E+02  0.19197465770E+03  0.47000000000E+01 0. -1.
        -13    1    6    6    0    0 -0.35019031109E+02  0.32559159231E+02  0.40624812521E+02  0.62743978054E+02  0.00000000000E+00 0.  1.
         14    1    6    6    0    0  0.37017371831E+02  0.27215572126E+02  0.67698986745E+01  0.46441411601E+02  0.00000000000E+00 0. -1.
         -5    1    3    3    0  503 -0.42283632259E+02 -0.45609375605E+02 -0.29715554450E+02  0.69088529268E+02  0.47000000000E+01 0.  1.
         13    1    4    4    0    0  0.59889460697E+00 -0.94869587668E+02  0.95227121394E+01  0.95348200746E+02  0.00000000000E+00 0. -1.
        -14    1    4    4    0    0  0.89314931406E+02 -0.10105874213E+03  0.13391153461E+02  0.13553357268E+03  0.00000000000E+00 0.  1.
</event>
<event>
12    1  0.9962621E-001  0.1863722E+03  0.7818608E-02  0.1161927E+00
         21   -1    0    0  503  502  0.00000000000E+00  0.00000000000E+00  0.14158191207E+03  0.14158191207E+03  0.00000000000E+00 0. -1.
         21   -1    0    0  501  503 -0.00000000000E+00 -0.00000000000E+00 -0.26599693250E+03  0.26599693250E+03  0.00000000000E+00 0. -1.
          6    2    1    2  501    0  0.57016867751E+02 -0.42389051524E+02 -0.12028699059E+03  0.22181877031E+03  0.17229872854E+03 0.  0.
         24    2    3    3    0    0  0.67694306014E+02  0.27084451953E+00 -0.15551309105E+02  0.10812828084E+03  0.82869110529E+02 0.  0.
         -6    2    1    2    0  502 -0.57016867751E+02  0.42389051524E+02 -0.41280298363E+01  0.18576007427E+03  0.17158674093E+03 0.  0.
        -24    2    5    5    0    0 -0.63341301424E+00  0.83637455582E+02 -0.96955690461E+01  0.11552039675E+03  0.79090662008E+02 0.  0.
          5    1    3    3  501    0 -0.10677438264E+02 -0.42659896043E+02 -0.10473568148E+03  0.11369048946E+03  0.47000000000E+01 0. -1.
        -13    1    4    4    0    0  0.13921916275E+02 -0.34791400267E+02 -0.22257793080E+02  0.43585211231E+02  0.00000000000E+00 0.  1.
         14    1    4    4    0    0  0.53772389739E+02  0.35062244786E+02  0.67064839754E+01  0.64543069613E+02  0.00000000000E+00 0. -1.
         -5    1    5    5    0  502 -0.56383454737E+02 -0.41248404058E+02  0.55675392098E+01  0.70239677521E+02  0.47000000000E+01 0.  1.
         13    1    6    6    0    0 -0.64363885813E+01 -0.39262159902E+01  0.21187571162E+02  0.22489007131E+02  0.00000000000E+00 0. -1.
        -14    1    6    6    0    0  0.58029755671E+01  0.87563671572E+02 -0.30883140208E+02  0.93031389615E+02  0.00000000000E+00 0.  1.
</event>
<event>
12    1  0.9962621E-001  0.3626650E+03  0.7818608E-02  0.1057538E+00
         21   -1    0    0  501  502  0.00000000000E+00  0.00000000000E+00  0.30297200892E+03  0.30297200892E+03  0.00000000000E+00 0. -1.
         21   -1    0    0  502  503 -0.00000000000E+00 -0.00000000000E+00 -0.43594181831E+03  0.43594181831E+03  0.00000000000E+00 0. -1.
         -6    2    1    2    0  503  0.30765655929E+03  0.84611361808E+02 -0.42273981021E+02  0.36512047836E+03  0.17237816922E+03 0.  0.
        -24    2    3    3    0    0  0.16011626572E+03 -0.17968066977E+02 -0.43882355564E+02  0.18535575906E+03  0.80442689574E+02 0.  0.
          6    2    1    2  501    0 -0.30765655929E+03 -0.84611361808E+02 -0.90695828368E+02  0.37379334888E+03  0.17229072338E+03 0.  0.
         24    2    5    5    0    0 -0.13508177411E+03  0.17893842823E+02 -0.62278208208E+02  0.17101508429E+03  0.82463983216E+02 0.  0.
          5    1    5    5  501    0 -0.17257478518E+03 -0.10250520463E+03 -0.28417620160E+02  0.20277826459E+03  0.47000000000E+01 0. -1.
        -13    1    6    6    0    0 -0.14634954011E+03  0.14073156857E+02 -0.60496592365E+02  0.15898452542E+03  0.00000000000E+00 0.  1.
         14    1    6    6    0    0  0.11267765995E+02  0.38206859653E+01 -0.17816158423E+01  0.12030558872E+02  0.00000000000E+00 0. -1.
         -5    1    3    3    0  503  0.14754029357E+03  0.10257942878E+03  0.16083745438E+01  0.17976471930E+03  0.47000000000E+01 0.  1.
         11    1    4    4    0    0  0.14509302256E+03 -0.33410196943E+02 -0.15459493968E+02  0.14969042190E+03  0.00000000000E+00 0. -1.
        -12    1    4    4    0    0  0.15023243161E+02  0.15442129966E+02 -0.28422861596E+02  0.35665337154E+02  0.00000000000E+00 0.  1.
</event>
<event>
12    1  0.9962621E-001  0.4146413E+03  0.7818608E-02  0.1038889E+00
         21   -1    0    0  501  502  0.00000000000E+00  0.00000000000E+00  0.12925320161E+04  0.12925320161E+04  0.00000000000E+00 0. -1.
         21   -1    0    0  502  503 -0.00000000000E+00 -0.00000000000E+00 -0.18603237518E+03  0.18603237518E+03  0.00000000000E+00 0. -1.
         -6    2    1    2    0  503  0.37517848025E+03  0.39504638144E+02  0.94920142229E+03  0.10358140507E+04  0.17206946002E+03 0.  0.
        -24    2    3    3    0    0  0.15703086657E+03  0.77344355811E+02  0.47968551975E+03  0.51669219764E+03  0.78941667147E+02 0.  0.
          6    2    1    2  501    0 -0.37517848025E+03 -0.39504638144E+02  0.15729821863E+03  0.44275034057E+03  0.17019290824E+03 0.  0.
         24    2    5    5    0    0 -0.34995017547E+03  0.68849748421E+01  0.14972121997E+03  0.38919696100E+03  0.80903044148E+02 0.  0.
          5    1    5    5  501    0 -0.25228304786E+02 -0.46389612986E+02  0.75769986563E+01  0.53553379576E+02  0.47000000000E+01 0. -1.
        -11    1    6    6    0    0 -0.98146431319E+02  0.35758362501E+02  0.28677100331E+02  0.10832247483E+03  0.00000000000E+00 0.  1.
         12    1    6    6    0    0 -0.25180374415E+03 -0.28873387659E+02  0.12104411964E+03  0.28087448617E+03  0.00000000000E+00 0. -1.
         -5    1    3    3    0  503  0.21814761368E+03 -0.37839717667E+02  0.46951590253E+03  0.51912185305E+03  0.47000000000E+01 0.  1.
         13    1    4    4    0    0  0.17844870173E+02  0.13961817736E+02  0.14232696746E+02  0.26757081355E+02  0.00000000000E+00 0. -1.
        -14    1    4    4    0    0  0.13918599640E+03  0.63382538074E+02  0.46545282301E+03  0.48993511629E+03  0.00000000000E+00 0.  1.
</event>
<event>
12    1  0.9962621E-001  0.2767992E+03  0.7818608E-02  0.1097965E+00
         21   -1    0    0  501  502  0.00000000000E+00  0.00000000000E+00  0.88955822872E+02  0.88955822872E+02  0.00000000000E+00 0.  1.
         21   -1    0    0  502  503 -0.00000000000E+00 -0.00000000000E+00 -0.90997445761E+03  0.90997445761E+03  0.00000000000E+00 0.  1.
         -6    2    1    2    0  503  0.20957438562E+03  0.35044440255E+02 -0.27955899097E+03  0.39082143327E+03  0.17157688471E+03 0.  0.
        -24    2    3    3    0    0  0.13547596369E+03  0.80815577776E+02 -0.13271652601E+03  0.22002807076E+03  0.76901113747E+02 0.  0.
          6    2    1    2  501    0 -0.20957438562E+03 -0.35044440255E+02 -0.54145964377E+03  0.60810884721E+03  0.17739303348E+03 0.  0.
         24    2    5    5    0    0 -0.32685286381E+02 -0.42288029418E+02 -0.14578028138E+03  0.17460397892E+03  0.79862717445E+02 0.  0.
          5    1    5    5  501    0 -0.17688909924E+03  0.72435891621E+01 -0.39567936239E+03  0.43350486829E+03  0.47000000000E+01 0. -1.
        -11    1    6    6    0    0  0.41600712613E+01 -0.11863297523E+02 -0.11932609460E+03  0.11998650288E+03  0.00000000000E+00 0.  1.
         12    1    6    6    0    0 -0.36845357643E+02 -0.30424731895E+02 -0.26454186778E+02  0.54617476038E+02  0.00000000000E+00 0. -1.
         -5    1    3    3    0  503  0.74098421926E+02 -0.45771137521E+02 -0.14684246496E+03  0.17079336251E+03  0.47000000000E+01 0.  1.
         13    1    4    4    0    0  0.39767996287E+02  0.11257161899E+02  0.11803775274E+01  0.41347436605E+02  0.00000000000E+00 0. -1.
        -14    1    4    4    0    0  0.95707967408E+02  0.69558415877E+02 -0.13389690354E+03  0.17868063416E+03  0.00000000000E+00 0.  1.
</event>
<event>
12    1  0.9962621E-001  0.2244168E+03  0.7818608E-02  0.1130941E+00
         21   -1    0    0  501  502  0.00000000000E+00  0.00000000000E+00  0.31309198351E+03  0.31309198351E+03  0.00000000000E+00 0.  1.
         21   -1    0    0  502  503 -0.00000000000E+00 -0.00000000000E+00 -0.32896662449E+03  0.32896662449E+03  0.00000000000E+00 0.  1.
         -6    2    1    2    0  503  0.13832605380E+03 -0.31379104376E+02  0.22236411518E+03  0.31592515818E+03  0.17390848312E+03 0.  0.
        -24    2    3    3    0    0  0.52901568908E+02  0.23684951605E+02  0.18136381469E+03  0.20623237118E+03  0.79242695040E+02 0.  0.
          6    2    1    2  501    0 -0.13832605380E+03  0.31379104376E+02 -0.23823875616E+03  0.32613344982E+03  0.17171655949E+03 0.  0.
         24    2    5    5    0    0 -0.69734826051E+02 -0.40902506740E+02 -0.90425177858E+02  0.14780697461E+03  0.84464358939E+02 0.  0.
          5    1    5    5  501    0 -0.68591227752E+02  0.72281611116E+02 -0.14781357830E+03  0.17832647521E+03  0.47000000000E+01 0. -1.
        -13    1    6    6    0    0  0.17420094336E+02 -0.47720480591E+01 -0.14453109299E+01  0.18119631702E+02  0.00000000000E+00 0.  1.
         14    1    6    6    0    0 -0.87154920386E+02 -0.36130458681E+02 -0.88979866928E+02  0.12968734291E+03  0.00000000000E+00 0. -1.
         -5    1    3    3    0  503  0.85424484895E+02 -0.55064055980E+02  0.41000300488E+02  0.10969278700E+03  0.47000000000E+01 0.  1.
         13    1    4    4    0    0  0.91609441326E+01 -0.22657980190E+02  0.99674693343E+02  0.10262724520E+03  0.00000000000E+00 0. -1.
        -14    1    4    4    0    0  0.43740624775E+02  0.46342931795E+02  0.81689121349E+02  0.10360512598E+03  0.00000000000E+00 0.  1.
</event>
<event>
12    1  0.9962621E-001  0.3459911E+03  0.7818608E-02  0.1064296E+00
         21   -1    0    0  501  502  0.00000000000E+00  0.00000000000E+00  0.12343615734E+03  0.12343615734E+03  0.00000000000E+00 0. -1.
         21   -1    0    0  502  503 -0.00000000000E+00 -0.00000000000E+00 -0.10599744481E+04  0.10599744481E+04  0.00000000000E+00 0. -1.
         -6    2    1    2    0  503 -0.51124456449E+02 -0.29518146683E+03 -0.64130625462E+03  0.72857898601E+03  0.17264940842E+03 0.  0.
        -24    2    3    3    0    0 -0.74423196893E+02 -0.24867477557E+03 -0.60977864382E+03  0.66757256109E+03  0.80281838662E+02 0.  0.
          6    2    1    2  501    0  0.51124456449E+02  0.29518146683E+03 -0.29523203616E+03  0.45483161945E+03  0.17310123763E+03 0.  0.
         24    2    5    5    0    0  0.26491134071E+02  0.13457351086E+03 -0.59788486882E+02  0.16872417287E+03  0.77983160605E+02 0.  0.
          5    1    5    5  501    0  0.24633322378E+02  0.16060795597E+03 -0.23544354928E+03  0.28610744658E+03  0.47000000000E+01 0. -1.
        -11    1    6    6    0    0  0.22703550604E+02  0.12842656142E+03 -0.76021914563E+02  0.15095749197E+03  0.00000000000E+00 0.  1.
         12    1    6    6    0    0  0.37875834669E+01  0.61469494390E+01  0.16233427681E+02  0.17766680900E+02  0.00000000000E+00 0. -1.
         -5    1    3    3    0  503  0.23298740444E+02 -0.46506691262E+02 -0.31527610797E+02  0.61006424916E+02  0.47000000000E+01 0.  1.
         11    1    4    4    0    0 -0.55438685924E+02 -0.98892211152E+02 -0.18745032087E+03  0.21906788929E+03  0.00000000000E+00 0. -1.
        -12    1    4    4    0    0 -0.18984510969E+02 -0.14978256442E+03 -0.42232832295E+03  0.44850467180E+03  0.00000000000E+00 0.  1.
</event>
<event>
12    1  0.9962621E-001  0.2211766E+03  0.7818608E-02  0.1133221E+00
         21   -1    0    0  501  502  0.00000000000E+00  0.00000000000E+00  0.15366843817E+04  0.15366843817E+04  0.00000000000E+00 0.  1.
         21   -1    0    0  502  503 -0.00000000000E+00 -0.00000000000E+00 -0.31671771674E+02  0.31671771674E+02  0.00000000000E+00 0.  1.
         -6    2    1    2    0  503  0.11353565929E+02 -0.13853669398E+03  0.74401611742E+03  0.77586972810E+03  0.17056533343E+03 0.  0.
        -24    2    3    3    0    0 -0.44740594020E+02 -0.27831322591E+02  0.28377685839E+03  0.29916803984E+03  0.78714086654E+02 0.  0.
          6    2    1    2  501    0 -0.11353565929E+02  0.13853669398E+03  0.76099649256E+03  0.79248642523E+03  0.17203997629E+03 0.  0.
         24    2    5    5    0    0 -0.73139421132E+02  0.85845606763E+02  0.44796316494E+03  0.46905823107E+03  0.81398918086E+02 0.  0.
          5    1    5    5  501    0  0.61785855203E+02  0.52691087212E+02  0.31303332763E+03  0.32342819416E+03  0.47000000000E+01 0. -1.
        -13    1    6    6    0    0 -0.21315005820E+02 -0.57954361243E+01  0.25792584784E+02  0.33958415494E+02  0.00000000000E+00 0.  1.
         14    1    6    6    0    0 -0.51824415312E+02  0.91641042888E+02  0.42217058015E+03  0.43509981557E+03  0.00000000000E+00 0. -1.
         -5    1    3    3    0  503  0.56094159950E+02 -0.11070537138E+03  0.46023925903E+03  0.47670168826E+03  0.47000000000E+01 0.  1.
         11    1    4    4    0    0  0.11577490257E+02 -0.33420826771E+02  0.14593931505E+03  0.15016415558E+03  0.00000000000E+00 0. -1.
        -12    1    4    4    0    0 -0.56318084278E+02  0.55895041801E+01  0.13783754334E+03  0.14900388427E+03  0.00000000000E+00 0.  1.
</event>
<event>
12    1  0.9962621E-001  0.2664191E+03  0.7818608E-02  0.1104018E+00
         21   -1    0    0  501  502  0.00000000000E+00  0.00000000000E+00  0.17293266907E+03  0.17293266907E+03  0.00000000000E+00 0.  1.
         21   -1    0    0  502  503 -0.00000000000E+00 -0.00000000000E+00 -0.57870149627E+03  0.57870149627E+03  0.00000000000E+00 0.  1.
         -6    2    1    2    0  503  0.19480649235E+03 -0.46659262820E+02  0.51580553627E+01  0.26189949677E+03  0.16863595288E+03 0.  0.
        -24    2    3    3    0    0  0.79900726498E+02 -0.32846191016E+02 -0.57034441543E+02  0.13043036484E+03  0.79348309313E+02 0.  0.
          6    2    1    2  501    0 -0.19480649235E+03  0.46659262820E+02 -0.41092688256E+03  0.48973466857E+03  0.17564875895E+03 0.  0.
         24    2    5    5    0    0 -0.18990219331E+03 -0.13640549462E+02 -0.32943220694E+03  0.38812959161E+03  0.76616534105E+02 0.  0.
          5    1    5    5  501    0 -0.49042990429E+01  0.60299812282E+02 -0.81494675622E+02  0.10160507697E+03  0.47000000000E+01 0. -1.
        -11    1    6    6    0    0 -0.11540528192E+03  0.29518310164E+02 -0.18907826054E+03  0.22347326090E+03  0.00000000000E+00 0.  1.
         12    1    6    6    0    0 -0.74496911392E+02 -0.43158859626E+02 -0.14035394640E+03  0.16465633071E+03  0.00000000000E+00 0. -1.
         -5    1    3    3    0  503  0.11490576586E+03 -0.13813071804E+02  0.62192496905E+02  0.13146913193E+03  0.47000000000E+01 0.  1.
         11    1    4    4    0    0  0.84904899950E+02 -0.12825261792E+01 -0.46305220155E+02  0.96719492981E+02  0.00000000000E+00 0. -1.
        -12    1    4    4    0    0 -0.50041734522E+01 -0.31563664836E+02 -0.10729221388E+02  0.33710871858E+02  0.00000000000E+00 0.  1.
</event>
<event>
12    1  0.9962621E-001  0.1738737E+03  0.7818608E-02  0.1174733E+00
         21   -1    0    0  503  502  0.00000000000E+00  0.00000000000E+00  0.75976570399E+02  0.75976570399E+02  0.00000000000E+00 0. -1.
         21   -1    0    0  501  503 -0.00000000000E+00 -0.00000000000E+00 -0.42761043782E+03  0.42761043782E+03  0.00000000000E+00 0. -1.
          6    2    1    2  501    0  0.28036533674E+02  0.12517038939E+02 -0.24870834105E+03  0.30153321879E+03  0.16770128097E+03 0.  0.
         24    2    3    3    0    0  0.47532489624E+02 -0.31933214381E+02 -0.83577128025E+02  0.12935213726E+03  0.80422455416E+02 0.  0.
         -6    2    1    2    0  502 -0.28036533674E+02 -0.12517038939E+02 -0.10292552637E+03  0.20205378943E+03  0.17114130524E+03 0.  0.
        -24    2    5    5    0    0 -0.43569937858E+02  0.31024375771E+02 -0.11937932346E+03  0.15275917634E+03  0.78886574964E+02 0.  0.
          5    1    3    3  501    0 -0.19495955950E+02  0.44450253321E+02 -0.16513121303E+03  0.17218108152E+03  0.47000000000E+01 0. -1.
        -11    1    4    4    0    0  0.42471843175E+02 -0.52915179180E+02 -0.83726143515E+02  0.10776799506E+03  0.00000000000E+00 0.  1.
         12    1    4    4    0    0  0.50606464492E+01  0.20981964798E+02  0.14901548962E+00  0.21584142209E+02  0.00000000000E+00 0. -1.
         -5    1    5    5    0  502  0.15533404184E+02 -0.43541414710E+02  0.16453797096E+02  0.49294613087E+02  0.47000000000E+01 0.  1.
         13    1    6    6    0    0 -0.13686047544E+02 -0.13598402011E+02 -0.88979348365E+02  0.91046959698E+02  0.00000000000E+00 0. -1.
        -14    1    6    6    0    0 -0.29883890314E+02  0.44622777782E+02 -0.30399975097E+02  0.61712216645E+02  0.00000000000E+00 0.  1.
</event>
<event>
12    1  0.9962621E-001  0.1737611E+03  0.7818608E-02  0.1174369E+00
         21   -1    0    0  503  502  0.00000000000E+00  0.00000000000E+00  0.99445729691E+03  0.99445729691E+03  0.00000000000E+00 0. -1.
         21   -1    0    0  501  503 -0.00000000000E+00 -0.00000000000E+00 -0.46247159663E+02  0.46247159663E+02  0.00000000000E+00 0. -1.
          6    2    1    2  501    0  0.92447093049E+01 -0.12556484729E+02  0.78297192903E+03  0.80202117240E+03  0.17306007443E+03 0.  0.
         24    2    3    3    0    0  0.21182518633E+02 -0.22497347221E+01  0.78108009354E+03  0.78545586441E+03  0.80006512279E+02 0.  0.
         -6    2    1    2    0  502 -0.92447093049E+01  0.12556484729E+02  0.16523820821E+03  0.23868328417E+03  0.17153108969E+03 0.  0.
        -24    2    5    5    0    0  0.17318329502E+02 -0.22816384278E+02  0.20410712748E+02  0.87177745216E+02  0.79767475438E+02 0.  0.
          5    1    3    3  501    0 -0.11937809328E+02 -0.10306750007E+02  0.18918354927E+01  0.16565307990E+02  0.47000000000E+01 0. -1.
        -13    1    4    4    0    0  0.47403163992E+02 -0.71666579464E+01  0.31649603513E+03  0.32010648415E+03  0.00000000000E+00 0.  1.
         14    1    4    4    0    0 -0.26220645359E+02  0.49169232242E+01  0.46458405841E+03  0.46534938026E+03  0.00000000000E+00 0. -1.
         -5    1    5    5    0  502 -0.26563038807E+02  0.35372869007E+02  0.14482749546E+03  0.15150553896E+03  0.47000000000E+01 0.  1.
         13    1    6    6    0    0  0.53433205573E+01 -0.33710884472E+02  0.45767696007E+02  0.57093404210E+02  0.00000000000E+00 0. -1.
        -14    1    6    6    0    0  0.11975008945E+02  0.10894500195E+02 -0.25356983259E+02  0.30084341005E+02  0.00000000000E+00 0.  1.
</event>
<event>
12    1  0.9962621E-001  0.1831633E+03  0.7818608E-02  0.1165161E+00
         21   -1    0    0  503  502  0.00000000000E+00  0.00000000000E+00  0.94537206660E+02  0.94537206660E+02  0.00000000000E+00 0. -1.
         21   -1    0    0  501  503 -0.00000000000E+00 -0.00000000000E+00 -0.37813732134E+03  0.37813732134E+03  0.00000000000E+00 0. -1.
          6    2    1    2  501    0 -0.48110284522E+02 -0.26051670757E+02 -0.20365086528E+03  0.27282284728E+03  0.17310500294E+03 0.  0.
         24    2    3    3    0    0 -0.76165840925E+02 -0.67829068057E+02 -0.12787093436E+03  0.18173413722E+03  0.79210497913E+02 0.  0.
         -6    2    1    2    0  502  0.48110284522E+02  0.26051670757E+02 -0.79949249398E+02  0.19985168072E+03  0.17480138094E+03 0.  0.
        -24    2    5    5    0    0  0.16234957816E+02  0.77683660682E+02 -0.82842951058E+02  0.13892252230E+03  0.78346586843E+02 0.  0.
          5    1    3    3  501    0  0.28055556403E+02  0.41777397300E+02 -0.75779930924E+02  0.91088710064E+02  0.47000000000E+01 0. -1.
        -11    1    4    4    0    0 -0.13851078975E+02  0.17881112311E+02 -0.29242467110E+02  0.36969020124E+02  0.00000000000E+00 0.  1.
         12    1    4    4    0    0 -0.62314761949E+02 -0.85710180369E+02 -0.98628467251E+02  0.14476511710E+03  0.00000000000E+00 0. -1.
         -5    1    5    5    0  502  0.31875326706E+02 -0.51631989924E+02  0.28937016600E+01  0.60929158418E+02  0.47000000000E+01 0.  1.
         11    1    6    6    0    0  0.28648057526E+02  0.40989931764E+01 -0.21602154212E+01  0.29020328664E+02  0.00000000000E+00 0. -1.
        -12    1    6    6    0    0 -0.12413099710E+02  0.73584667505E+02 -0.80682735636E+02  0.10990219364E+03  0.00000000000E+00 0.  1.
</event>
<event>
12    1  0.9962621E-001  0.1761528E+03  0.7818608E-02  0.1171875E+00
         21   -1    0    0  501  502  0.00000000000E+00  0.00000000000E+00  0.13039879125E+03  0.13039879125E+03  0.00000000000E+00 0.  1.
         21   -1    0    0  502  503 -0.00000000000E+00 -0.00000000000E+00 -0.33267290807E+03  0.33267290807E+03  0.00000000000E+00 0.  1.
         -6    2    1    2    0  503  0.29978363770E+02 -0.86337358176E+01 -0.22547205586E+03  0.28539799042E+03  0.17216597013E+03 0.  0.
        -24    2    3    3    0    0  0.57604522819E+02 -0.60937040767E+02 -0.13945444697E+03  0.18089938080E+03  0.79028091259E+02 0.  0.
          6    2    1    2  501    0 -0.29978363770E+02  0.86337358176E+01  0.23197939038E+02  0.17767370891E+03  0.17336827499E+03 0.  0.
         24    2    5    5    0    0  0.12177582391E+02 -0.51551082997E+02 -0.96673711714E+01  0.97041489369E+02  0.80732799546E+02 0.  0.
          5    1    5    5  501    0 -0.42155946161E+02  0.60184818815E+02  0.32865310210E+02  0.80632219538E+02  0.47000000000E+01 0. -1.
        -11    1    6    6    0    0 -0.25187868849E+00 -0.69793200650E+02  0.58812439212E+01  0.70041011771E+02  0.00000000000E+00 0.  1.
         12    1    6    6    0    0  0.12429461079E+02  0.18242117653E+02 -0.15548615093E+02  0.27000477598E+02  0.00000000000E+00 0. -1.
         -5    1    3    3    0  503 -0.27626159049E+02  0.52303304949E+02 -0.86017608885E+02  0.10449860961E+03  0.47000000000E+01 0.  1.
         13    1    4    4    0    0  0.35576104928E+02 -0.13327758919E+02 -0.72617827508E+01  0.38678442166E+02  0.00000000000E+00 0. -1.
        -14    1    4    4    0    0  0.22028417891E+02 -0.47609281847E+02 -0.13219266422E+03  0.14222093864E+03  0.00000000000E+00 0.  1.
</event>
<event>
12    1  0.9962621E-001  0.2515842E+03  0.7818608E-02  0.1112437E+00
         21   -1    0    0  503  502  0.00000000000E+00  0.00000000000E+00  0.40226804613E+02  0.40226804613E+02  0.00000000000E+00 0.  1.
         21   -1    0    0  501  503 -0.00000000000E+00 -0.00000000000E+00 -0.15987620241E+04  0.15987620241E+04  0.00000000000E+00 0.  1.
          6    2    1    2  501    0  0.14247221008E+03  0.11581837704E+03 -0.66736725270E+03  0.71321360558E+03  0.17199526187E+03 0.  0.
         24    2    3    3    0    0  0.16789159559E+02  0.73263677192E+02 -0.39754293358E+03  0.41249050229E+03  0.80365341797E+02 0.  0.
         -6    2    1    2    0  502 -0.14247221008E+03 -0.11581837704E+03 -0.89116796683E+03  0.92577522318E+03  0.17078404970E+03 0.  0.
        -24    2    5    5    0    0 -0.42049574355E+02 -0.10023789772E+03 -0.65328264426E+03  0.66704955031E+03  0.79756419444E+02 0.  0.
          5    1    3    3  501    0  0.12568305052E+03  0.42554699847E+02 -0.26982431911E+03  0.30072310329E+03  0.47000000000E+01 0. -1.
        -13    1    4    4    0    0 -0.12964772622E+02  0.76741020427E+02 -0.24610379706E+03  0.25811692791E+03  0.00000000000E+00 0.  1.
         14    1    4    4    0    0  0.29753932181E+02 -0.34773432352E+01 -0.15143913653E+03  0.15437357438E+03  0.00000000000E+00 0. -1.
         -5    1    5    5    0  502 -0.10042263572E+03 -0.15580479320E+02 -0.23788532258E+03  0.25872567287E+03  0.47000000000E+01 0.  1.
         13    1    6    6    0    0 -0.55153914171E+02 -0.10351013768E+03 -0.51891568448E+03  0.53200544212E+03  0.00000000000E+00 0. -1.
        -14    1    6    6    0    0  0.13104339816E+02  0.32722399650E+01 -0.13436695978E+03  0.13504410819E+03  0.00000000000E+00 0.  1.
</event>
<event>
12    1  0.9962621E-001  0.2580164E+03  0.7818608E-02  0.1108495E+00
         21   -1    0    0  503  502  0.00000000000E+00  0.00000000000E+00  0.14340636426E+04  0.14340636426E+04  0.00000000000E+00 0.  1.
         21   -1    0    0  501  503 -0.00000000000E+00 -0.00000000000E+00 -0.49004087968E+02  0.49004087968E+02  0.00000000000E+00 0.  1.
          6    2    1    2  501    0  0.87570049750E+02  0.17069355338E+03  0.51513126007E+03  0.57568262802E+03  0.17101307060E+03 0.  0.
         24    2    3    3    0    0  0.11777577506E+03  0.18144790905E+03  0.42584714766E+03  0.48069955196E+03  0.54145998870E+02 0.  0.
         -6    2    1    2    0  502 -0.87570049750E+02 -0.17069355338E+03  0.86992829452E+03  0.90738510251E+03  0.17253313850E+03 0.  0.
        -24    2    5    5    0    0 -0.94884210009E+02 -0.15697688595E+03  0.53057876157E+03  0.56764720440E+03  0.84052188527E+02 0.  0.
          5    1    3    3  501    0 -0.30205725308E+02 -0.10754355679E+02  0.89284112418E+02  0.94983076059E+02  0.47000000000E+01 0. -1.
        -13    1    4    4    0    0  0.62029697997E+02  0.12721385140E+03  0.23108069303E+03  0.27097847537E+03  0.00000000000E+00 0.  1.
         14    1    4    4    0    0  0.55746077061E+02  0.54234057650E+02  0.19476645463E+03  0.20972107659E+03  0.00000000000E+00 0. -1.
         -5    1    5    5    0  502  0.73141602592E+01 -0.13716667426E+02  0.33934953294E+03  0.33973789811E+03  0.47000000000E+01 0.  1.
         11    1    6    6    0    0 -0.34240529730E+02 -0.70126299454E+02  0.34729481915E+03  0.35595477684E+03  0.00000000000E+00 0. -1.
        -12    1    6    6    0    0 -0.60643680280E+02 -0.86850586495E+02  0.18328394243E+03  0.21169242756E+03  0.00000000000E+00 0.  1.
</event>
<event>
12    1  0.9962621E-001  0.2272249E+03  0.7818608E-02  0.1129061E+00
         21   -1    0    0  501  502  0.00000000000E+00  0.00000000000E+00  0.36510411990E+03  0.36510411990E+03  0.00000000000E+00 0.  1.
         21   -1    0    0  502  503 -0.00000000000E+00 -0.00000000000E+00 -0.14223376093E+03  0.14223376093E+03  0.00000000000E+00 0.  1.
         -6    2    1    2    0  503 -0.14805415278E+03 -0.33773113492E+01  0.14365073472E+03  0.26669932559E+03  0.16900165176E+03 0.  0.
        -24    2    3    3    0    0 -0.14737386679E+03 -0.41290519205E+02  0.14980202045E+03  0.22799787297E+03  0.78220337222E+02 0.  0.
          6    2    1    2  501    0  0.14805415278E+03  0.33773113492E+01  0.79219624252E+02  0.24063855524E+03  0.17233608738E+03 0.  0.
         24    2    5    5    0    0  0.92732771796E+01 -0.18652948103E+02 -0.10746812113E+00  0.79206398135E+02  0.76418033301E+02 0.  0.
          5    1    5    5  501    0  0.13878087560E+03  0.22030259452E+02  0.79327092373E+02  0.16143215711E+03  0.47000000000E+01 0. -1.
        -13    1    6    6    0    0  0.86442385637E+00  0.17348355902E+02  0.27872406620E+02  0.32841798549E+02  0.00000000000E+00 0.  1.
         14    1    6    6    0    0  0.84088533233E+01 -0.36001304004E+02 -0.27979874742E+02  0.46364599586E+02  0.00000000000E+00 0. -1.
         -5    1    3    3    0  503 -0.68028598559E+00  0.37913207856E+02 -0.61512857338E+01  0.38701452623E+02  0.47000000000E+01 0.  1.
         13    1    4    4    0    0 -0.75111565734E+02  0.12397169219E+02  0.39958516086E+02  0.85977439595E+02  0.00000000000E+00 0. -1.
        -14    1    4    4    0    0 -0.72262301059E+02 -0.53687688425E+02  0.10984350437E+03  0.14202043337E+03  0.00000000000E+00 0.  1.
</event>
<event>
12    1  0.9962621E-001  0.2422855E+03  0.7818608E-02  0.1119612E+00
         21   -1    0    0  501  502  0.00000000000E+00  0.00000000000E+00  0.83929330830E+03  0.83929330830E+03  0.00000000000E+00 0.  1.
         21   -1    0    0  502  503 -0.00000000000E+00 -0.00000000000E+00 -0.87475801453E+02  0.87475801453E+02  0.00000000000E+00 0. -1.
         -6    2    1    2    0  503 -0.10142024991E+03  0.12533202264E+03  0.59155406510E+03  0.63627534247E+03  0.17004680679E+03 0.  0.
        -24    2    3    3    0    0 -0.79113217119E+02  0.98757459423E+02  0.23579536375E+03  0.27879785407E+03  0.78210312321E+02 0.  0.
          6    2    1    2  501    0  0.10142024991E+03 -0.12533202264E+03  0.16026344175E+03  0.29049376729E+03  0.18085373948E+03 0.  0.
         24    2    5    5    0    0 -0.13799598928E+02 -0.71239624411E+02  0.11016793211E+03  0.15362429956E+03  0.78726991130E+02 0.  0.
          5    1    5    5  501    0  0.11521984883E+03 -0.54092398225E+02  0.50095509633E+02  0.13686946773E+03  0.47000000000E+01 0. -1.
        -11    1    6    6    0    0  0.62088517504E+01  0.15690628917E+02  0.10532757594E+02  0.19891823908E+02  0.00000000000E+00 0.  1.
         12    1    6    6    0    0 -0.20008450679E+02 -0.86930253329E+02  0.99635174519E+02  0.13373247565E+03  0.00000000000E+00 0. -1.
         -5    1    3    3    0  503 -0.22307032787E+02  0.26574563214E+02  0.35575870135E+03  0.35747748839E+03  0.47000000000E+01 0.  1.
         11    1    4    4    0    0  0.68028773822E+00 -0.11961013026E+02  0.14573110844E+02  0.18865422966E+02  0.00000000000E+00 0. -1.
        -12    1    4    4    0    0 -0.79793504857E+02  0.11071847245E+03  0.22122225291E+03  0.25993243111E+03  0.00000000000E+00 0.  1.
</event>
<event>
12    1  0.9962621E-001  0.2037100E+03  0.7818608E-02  0.1146731E+00
         21   -1    0    0  501  502  0.00000000000E+00  0.00000000000E+00  0.87186764995E+02  0.87186764995E+02  0.00000000000E+00 0.  1.
         21   -1    0    0  502  503 -0.00000000000E+00 -0.00000000000E+00 -0.14538918494E+04  0.14538918494E+04  0.00000000000E+00 0.  1.
         -6    2    1    2    0  503 -0.84945892192E+02  0.68029265479E+02 -0.51318895397E+02  0.21007475637E+03  0.17220333527E+03 0.  0.
        -24    2    3    3    0    0 -0.36747472226E+02  0.99909294167E+01  0.34721212575E+02  0.95547352143E+02  0.80458302948E+02 0.  0.
          6    2    1    2  501    0  0.84945892192E+02 -0.68029265479E+02 -0.13153861890E+04  0.13310038580E+04  0.17171679671E+03 0.  0.
         24    2    5    5    0    0  0.69545925880E+02 -0.19708319891E+01 -0.42087336880E+03  0.43391069055E+03  0.79395055436E+02 0.  0.
          5    1    5    5  501    0  0.15399966312E+02 -0.66058433489E+02 -0.89451282022E+03  0.89709316748E+03  0.47000000000E+01 0. -1.
        -11    1    6    6    0    0  0.24946724186E+02  0.37281570493E+02 -0.21533435949E+03  0.21995713429E+03  0.00000000000E+00 0.  1.
         12    1    6    6    0    0  0.44599201695E+02 -0.39252402482E+02 -0.20553900931E+03  0.21395355627E+03  0.00000000000E+00 0. -1.
         -5    1    3    3    0  503 -0.48198419966E+02  0.58038336062E+02 -0.86040107972E+02  0.11452740423E+03  0.47000000000E+01 0.  1.
         11    1    4    4    0    0 -0.80171125730E+01  0.33711917288E+02 -0.11196149935E+02  0.36415947532E+02  0.00000000000E+00 0. -1.
        -12    1    4    4    0    0 -0.28730359653E+02 -0.23720987872E+02  0.45917362510E+02  0.59131404612E+02  0.00000000000E+00 0.  1.
</event>
<event>
12    1  0.9962621E-001  0.2196730E+03  0.7818608E-02  0.1136726E+00
         21   -1    0    0  501  502  0.00000000000E+00  0.00000000000E+00  0.22872671715E+03  0.22872671715E+03  0.00000000000E+00 0.  1.
         21   -1    0    0  502  503 -0.00000000000E+00 -0.00000000000E+00 -0.20823555932E+03  0.20823555932E+03  0.00000000000E+00 0.  1.
         -6    2    1    2    0  503  0.92827141466E+02 -0.66511946439E+02 -0.37874979039E+02  0.20966767138E+03  0.17171284510E+03 0.  0.
        -24    2    3    3    0    0  0.60707349977E+01 -0.20928458416E+02 -0.19735574846E+02  0.10988963558E+03  0.10588382737E+03 0.  0.
          6    2    1    2  501    0 -0.92827141466E+02  0.66511946439E+02  0.58366136864E+02  0.22729460509E+03  0.18765797174E+03 0.  0.
         24    2    5    5    0    0 -0.12247078857E+03  0.98494094521E+02  0.48065489104E+02  0.18224133713E+03  0.78749177817E+02 0.  0.
          5    1    5    5  501    0  0.29643647103E+02 -0.31982148083E+02  0.10300647760E+02  0.45053267960E+02  0.47000000000E+01 0. -1.
        -11    1    6    6    0    0 -0.78354712031E+02  0.13364599250E+02  0.28069922022E+02  0.84297057676E+02  0.00000000000E+00 0.  1.
         12    1    6    6    0    0 -0.44116076539E+02  0.85129495271E+02  0.19995567082E+02  0.97944279451E+02  0.00000000000E+00 0. -1.
         -5    1    3    3    0  503  0.86756406468E+02 -0.45583488023E+02 -0.18139404193E+02  0.99778035800E+02  0.47000000000E+01 0.  1.
         13    1    4    4    0    0  0.14183516255E+02 -0.46595808120E+02 -0.49714966966E+02  0.69598271588E+02  0.00000000000E+00 0. -1.
        -14    1    4    4    0    0 -0.81127812573E+01  0.25667349704E+02  0.29979392119E+02  0.40291363993E+02  0.00000000000E+00 0.  1.
</event>
<event>
12    1  0.9962621E-001  0.2065225E+03  0.7818608E-02  0.1144652E+00
         21   -1    0    0  501  502  0.00000000000E+00  0.00000000000E+00  0.23062635935E+03  0.23062635935E+03  0.00000000000E+00 0.  1.
         21   -1    0    0  502  503 -0.00000000000E+00 -0.00000000000E+00 -0.18502878414E+03  0.18502878414E+03  0.00000000000E+00 0.  1.
         -6    2    1    2    0  503 -0.16274486948E+01  0.11247986487E+03  0.40922702403E+02  0.20907972375E+03  0.17142139516E+03 0.  0.
        -24    2    3    3    0    0 -0.51138780733E+02  0.64319342581E+02 -0.21063732167E+02  0.11615386094E+03  0.79346618536E+02 0.  0.
          6    2    1    2  501    0  0.16274486948E+01 -0.11247986487E+03  0.46748728011E+01  0.20657541974E+03  0.17319694285E+03 0.  0.
         24    2    5    5    0    0  0.15002381903E+02 -0.20590913949E+01 -0.36984633199E+02  0.87708937947E+02  0.78074857558E+02 0.  0.
          5    1    5    5  501    0 -0.13374933209E+02 -0.11042077348E+03  0.41659506001E+02  0.11886648179E+03  0.47000000000E+01 0. -1.
        -11    1    6    6    0    0 -0.24650074893E+01 -0.18672166679E+02 -0.54662106156E+02  0.57815844886E+02  0.00000000000E+00 0.  1.
         12    1    6    6    0    0  0.17467389393E+02  0.16613075285E+02  0.17677472957E+02  0.29893093061E+02  0.00000000000E+00 0. -1.
         -5    1    3    3    0  503  0.49511332039E+02  0.48160522292E+02  0.61986434570E+02  0.92925862807E+02  0.47000000000E+01 0.  1.
         13    1    4    4    0    0  0.14191932542E+02  0.75647190409E+01  0.15380507523E+02  0.22252998340E+02  0.00000000000E+00 0. -1.
        -14    1    4    4    0    0 -0.65330713275E+02  0.56754623540E+02 -0.36444239690E+02  0.93900862599E+02  0.00000000000E+00 0.  1.
</event>
<event>
12    1  0.9962621E-001  0.4926335E+03  0.7818608E-02  0.1015742E+00
         21   -1    0    0  501  502  0.00000000000E+00  0.00000000000E+00  0.24671452970E+03  0.24671452970E+03  0.00000000000E+00 0. -1.
         21   -1    0    0  502  503 -0.00000000000E+00 -0.00000000000E+00 -0.10750847827E+04  0.10750847827E+04  0.00000000000E+00 0. -1.
         -6    2    1    2    0  503  0.28084553591E+03  0.36640998150E+03 -0.60772357050E+03  0.78231432606E+03  0.17192229940E+03 0.  0.
        -24    2    3    3    0    0  0.11470454187E+03  0.21850474907E+03 -0.41011679757E+03  0.48474195774E+03  0.76664989714E+02 0.  0.
          6    2    1    2  501    0 -0.28084553591E+03 -0.36640998150E+03 -0.22064668248E+03  0.53948498633E+03  0.17096374585E+03 0.  0.
         24    2    5    5    0    0 -0.28142093090E+03 -0.31854707377E+03 -0.23088111359E+03  0.49031159316E+03  0.80183484680E+02 0.  0.
          5    1    5    5  501    0  0.57539498590E+00 -0.47862907726E+02  0.10234431109E+02  0.49173393167E+02  0.47000000000E+01 0. -1.
        -13    1    6    6    0    0 -0.12997663878E+03 -0.20668601430E+03 -0.13595387696E+03  0.27945749551E+03  0.00000000000E+00 0.  1.
         14    1    6    6    0    0 -0.15144429212E+03 -0.11186105948E+03 -0.94927236628E+02  0.21085409765E+03  0.00000000000E+00 0. -1.
         -5    1    3    3    0  503  0.16614099404E+03  0.14790523243E+03 -0.19760677293E+03  0.29757236832E+03  0.47000000000E+01 0.  1.
         13    1    4    4    0    0  0.27045299174E+02  0.44177633638E+02 -0.15585584535E+03  0.16423810779E+03  0.00000000000E+00 0. -1.
        -14    1    4    4    0    0  0.87659242694E+02  0.17432711543E+03 -0.25426095223E+03  0.32050384995E+03  0.00000000000E+00 0.  1.
</event>
<event>
12    1  0.9962621E-001  0.2153257E+03  0.7818608E-02  0.1137469E+00
         21   -1    0    0  501  502  0.00000000000E+00  0.00000000000E+00  0.37708730408E+03  0.37708730408E+03  0.00000000000E+00 0.  1.
         21   -1    0    0  502  503 -0.00000000000E+00 -0.00000000000E+00 -0.22240113829E+03  0.22240113829E+03  0.00000000000E+00 0. -1.
         -6    2    1    2    0  503  0.11989431928E+03 -0.40766060366E+02 -0.12327524434E+03  0.24788112574E+03  0.17381526733E+03 0.  0.
        -24    2    3    3    0    0  0.36363288917E+02 -0.14046794703E+01 -0.12853410907E+03  0.15527174717E+03  0.79145665514E+02 0.  0.
          6    2    1    2  501    0 -0.11989431928E+03  0.40766060366E+02  0.27796141013E+03  0.35160731663E+03  0.17415119900E+03 0.  0.
         24    2    5    5    0    0 -0.40433573724E+02  0.54266027666E+02  0.64760054621E+02  0.12363107403E+03  0.80691400705E+02 0.  0.
          5    1    5    5  501    0 -0.79460745555E+02 -0.13499967300E+02  0.21320135551E+03  0.22797624261E+03  0.47000000000E+01 0. -1.
        -11    1    6    6    0    0  0.21903398009E+02  0.45164031509E+01  0.27935566762E+02  0.35784810075E+02  0.00000000000E+00 0.  1.
         12    1    6    6    0    0 -0.62336971733E+02  0.49749624515E+02  0.36824487859E+02  0.87846263952E+02  0.00000000000E+00 0. -1.
         -5    1    3    3    0  503  0.83531030362E+02 -0.39361380896E+02  0.52588647390E+01  0.92609378562E+02  0.47000000000E+01 0.  1.
         11    1    4    4    0    0  0.35638524308E+02 -0.25664948335E+02 -0.28546040129E+02  0.52380057226E+02  0.00000000000E+00 0. -1.
        -12    1    4    4    0    0  0.72476460865E+00  0.24260268865E+02 -0.99988068945E+02  0.10289168995E+03  0.00000000000E+00 0.  1.
</event>
<event>
12    1  0.9962621E-001  0.1899241E+03  0.7818608E-02  0.1158817E+00
         21   -1    0    0  503  502  0.00000000000E+00  0.00000000000E+00  0.83601171871E+03  0.83601171871E+03  0.00000000000E+00 0. -1.
         21   -1    0    0  501  503 -0.00000000000E+00 -0.00000000000E+00 -0.44063283889E+02  0.44063283889E+02  0.00000000000E+00 0. -1.
          6    2    1    2  501    0 -0.78185342658E+02  0.38945642014E+01  0.46742453853E+03  0.50406048193E+03  0.17164834631E+03 0.  0.
         24    2    3    3    0    0 -0.98776247437E+01  0.49334047218E+02  0.15781983704E+03  0.18373587762E+03  0.79500667143E+02 0.  0.
         -6    2    1    2    0  502  0.78185342658E+02 -0.38945642014E+01  0.32452389630E+03  0.37601452067E+03  0.17304058787E+03 0.  0.
        -24    2    5    5    0    0 -0.23694635669E+02  0.17672445967E+02  0.16378859660E+03  0.18443531387E+03  0.79472822514E+02 0.  0.
          5    1    3    3  501    0 -0.68307717914E+02 -0.45439483017E+02  0.30960470149E+03  0.32032460431E+03  0.47000000000E+01 0. -1.
        -11    1    4    4    0    0  0.16029794207E+02 -0.15721352427E+02  0.25105281595E+02  0.33680712409E+02  0.00000000000E+00 0.  1.
         12    1    4    4    0    0 -0.25907418951E+02  0.65055399645E+02  0.13271455544E+03  0.15005516521E+03  0.00000000000E+00 0. -1.
         -5    1    5    5    0  502  0.10187997833E+03 -0.21567010168E+02  0.16073529970E+03  0.19157920680E+03  0.47000000000E+01 0.  1.
         13    1    6    6    0    0 -0.50110779835E+02 -0.30126457782E+01  0.11189339055E+03  0.12263888918E+03  0.00000000000E+00 0. -1.
        -14    1    6    6    0    0  0.26416144165E+02  0.20685091745E+02  0.51895206052E+02  0.61796424688E+02  0.00000000000E+00 0.  1.
</event>
<event>
12    1  0.9962621E-001  0.9978087E+03  0.7818608E-02  0.9311164E-01
         21   -1    0    0  503  502  0.00000000000E+00  0.00000000000E+00  0.85938133471E+03  0.85938133471E+03  0.00000000000E+00 0. -1.
         21   -1    0    0  501  503 -0.00000000000E+00 -0.00000000000E+00 -0.12955908143E+04  0.12955908143E+04  0.00000000000E+00 0. -1.
          6    2    1    2  501    0  0.34014055821E+03  0.92152368044E+03 -0.56962665010E+03  0.11482833939E+04  0.17081785396E+03 0.  0.
         24    2    3    3    0    0  0.10428508342E+03  0.40764374661E+03 -0.29961342998E+03  0.52168174976E+03  0.73039974264E+02 0.  0.
         -6    2    1    2    0  502 -0.34014055821E+03 -0.92152368044E+03  0.13341717051E+03  0.10066887551E+04  0.17527297381E+03 0.  0.
        -24    2    5    5    0    0 -0.17109332488E+03 -0.43156633097E+03  0.34432725747E+01  0.47231952365E+03  0.86899093497E+02 0.  0.
          5    1    3    3  501    0  0.23585547479E+03  0.51387993383E+03 -0.27001322012E+03  0.62660164413E+03  0.47000000000E+01 0. -1.
        -13    1    4    4    0    0  0.93218663035E+02  0.21824290398E+03 -0.16384448700E+03  0.28838290552E+03  0.00000000000E+00 0.  1.
         14    1    4    4    0    0  0.11066420387E+02  0.18940084262E+03 -0.13576894297E+03  0.23329884424E+03  0.00000000000E+00 0. -1.
         -5    1    5    5    0  502 -0.16904723333E+03 -0.48995734947E+03  0.12997389794E+03  0.53436923147E+03  0.47000000000E+01 0.  1.
         13    1    6    6    0    0 -0.17474670481E+03 -0.40219654579E+03  0.18909238416E+02  0.43892599785E+03  0.00000000000E+00 0. -1.
        -14    1    6    6    0    0  0.36533799258E+01 -0.29369785175E+02 -0.15465965842E+02  0.33393525802E+02  0.00000000000E+00 0.  1.
</event>
<event>
12    1  0.9962621E-001  0.1976779E+03  0.7818608E-02  0.1152122E+00
         21   -1    0    0  503  502  0.00000000000E+00  0.00000000000E+00  0.68719700065E+03  0.68719700065E+03  0.00000000000E+00 0.  1.
         21   -1    0    0  501  503 -0.00000000000E+00 -0.00000000000E+00 -0.82442575494E+02  0.82442575494E+02  0.00000000000E+00 0.  1.
          6    2    1    2  501    0  0.94925846084E+02  0.58665365405E+01  0.84762629957E+02  0.21334109148E+03  0.17112681079E+03 0.  0.
         24    2    3    3    0    0  0.61246509816E+02 -0.97756636869E+01 -0.20255709735E+02  0.10185155031E+03  0.78209628297E+02 0.  0.
         -6    2    1    2    0  502 -0.94925846084E+02 -0.58665365405E+01  0.51999179520E+03  0.55629848466E+03  0.17329513686E+03 0.  0.
        -24    2    5    5    0    0 -0.12239487428E+03 -0.20771356338E+02  0.49334457711E+03  0.51496005949E+03  0.79893908514E+02 0.  0.
          5    1    3    3  501    0  0.33679336267E+02  0.15642200227E+02  0.10501833969E+03  0.11148954117E+03  0.47000000000E+01 0. -1.
        -11    1    4    4    0    0 -0.16049913490E+02 -0.12637265133E+02  0.39435335692E+01  0.20805087121E+02  0.00000000000E+00 0.  1.
         12    1    4    4    0    0  0.77296423307E+02  0.28616014464E+01 -0.24199243304E+02  0.81046463188E+02  0.00000000000E+00 0. -1.
         -5    1    5    5    0  502  0.27469028198E+02  0.14904819797E+02  0.26647218087E+02  0.41338425165E+02  0.47000000000E+01 0.  1.
         11    1    6    6    0    0 -0.38198460192E+02 -0.20283375792E+02  0.62750958379E+02  0.76211681992E+02  0.00000000000E+00 0. -1.
        -12    1    6    6    0    0 -0.84196414090E+02 -0.48798054568E+00  0.43059361873E+03  0.43874837750E+03  0.00000000000E+00 0.  1.
</event>
<event>
12    1  0.9962621E-001  0.4185006E+03  0.7818608E-02  0.1037584E+00
         21   -1    0    0  501  502  0.00000000000E+00  0.00000000000E+00  0.94704373587E+03  0.94704373587E+03  0.00000000000E+00 0. -1.
         21   -1    0    0  502  503 -0.00000000000E+00 -0.00000000000E+00 -0.18497463434E+03  0.18497463434E+03  0.00000000000E+00 0. -1.
         -6    2    1    2    0  503 -0.36486276248E+03 -0.11086223514E+03  0.39946908314E+03  0.57854842474E+03  0.17241653274E+03 0.  0.
        -24    2    3    3    0    0 -0.24117340795E+03 -0.12795835863E+03  0.33692422683E+03  0.43881552627E+03  0.67105716808E+02 0.  0.
          6    2    1    2  501    0  0.36486276248E+03  0.11086223514E+03  0.36260001838E+03  0.55346994547E+03  0.17156612890E+03 0.  0.
         24    2    5    5    0    0  0.10307887492E+03  0.42970724009E+02  0.60438339142E+02  0.14792854010E+03  0.75883611940E+02 0.  0.
          5    1    5    5  501    0  0.26178388756E+03  0.67891511126E+02  0.30216167924E+03  0.40554140537E+03  0.47000000000E+01 0. -1.
        -11    1    6    6    0    0  0.10995964644E+03  0.23774436795E+02  0.40950187288E+02  0.11972161680E+03  0.00000000000E+00 0.  1.
         12    1    6    6    0    0 -0.68807715175E+01  0.19196287214E+02  0.19488151853E+02  0.28206923302E+02  0.00000000000E+00 0. -1.
         -5    1    3    3    0  503 -0.12368935453E+03  0.17096123500E+02  0.62544856316E+02  0.13973289847E+03  0.47000000000E+01 0.  1.
         13    1    4    4    0    0  0.29419874216E+00 -0.27819171419E+01 -0.25759286592E+01  0.38027653545E+01  0.00000000000E+00 0. -1.
        -14    1    4    4    0    0 -0.24146760669E+03 -0.12517644149E+03  0.33950015549E+03  0.43501276092E+03  0.00000000000E+00 0.  1.
</event>
<event>
12    1  0.9962621E-001  0.1738998E+03  0.7818608E-02  0.1173859E+00
         21   -1    0    0  503  502  0.00000000000E+00  0.00000000000E+00  0.52708369233E+03  0.52708369233E+03  0.00000000000E+00 0. -1.
         21   -1    0    0  501  503 -0.00000000000E+00 -0.00000000000E+00 -0.75523584188E+02  0.75523584188E+02  0.00000000000E+00 0. -1.
          6    2    1    2  501    0 -0.22652484606E+02 -0.89919734938E+01  0.37361162132E+03  0.41210045548E+03  0.17218348114E+03 0.  0.
         24    2    3    3    0    0  0.32003876807E+01  0.11670636300E+02  0.37004028971E+03  0.37848262006E+03  0.78567368836E+02 0.  0.
         -6    2    1    2    0  502  0.22652484606E+02  0.89919734938E+01  0.77948486821E+02  0.19050682104E+03  0.17211301989E+03 0.  0.
        -24    2    5    5    0    0 -0.37732366122E+02 -0.33732680275E+02  0.68194953238E+02  0.11574755636E+03  0.78646805305E+02 0.  0.
          5    1    3    3  501    0 -0.25852872287E+02 -0.20662609793E+02  0.35713316091E+01  0.33617835421E+02  0.47000000000E+01 0. -1.
        -13    1    4    4    0    0 -0.30362363912E+02  0.11828699699E+02  0.28807118080E+03  0.28990825529E+03  0.00000000000E+00 0.  1.
         14    1    4    4    0    0  0.33562751593E+02 -0.15806339937E+00  0.81969108908E+02  0.88574364766E+02  0.00000000000E+00 0. -1.
         -5    1    5    5    0  502  0.60384850729E+02  0.42724653769E+02  0.97535335830E+01  0.74759264674E+02  0.47000000000E+01 0.  1.
         13    1    6    6    0    0 -0.61795424133E+02 -0.31242747371E+02  0.48292846458E+02  0.84421458919E+02  0.00000000000E+00 0. -1.
        -14    1    6    6    0    0  0.24063058010E+02 -0.24899329045E+01  0.19902106780E+02  0.31326097442E+02  0.00000000000E+00 0.  1.
</event>
<event>
12    1  0.9962621E-001  0.1887648E+03  0.7818608E-02  0.1159800E+00
         21   -1    0    0  501  502  0.00000000000E+00  0.00000000000E+00  0.42318748521E+03  0.42318748521E+03  0.00000000000E+00 0.  1.
         21   -1    0    0  502  503 -0.00000000000E+00 -0.00000000000E+00 -0.89267819518E+02  0.89267819518E+02  0.00000000000E+00 0.  1.
         -6    2    1    2    0  503 -0.26973382415E+01 -0.77876636895E+02  0.10297202643E+03  0.21417867581E+03  0.17087194251E+03 0.  0.
        -24    2    3    3    0    0 -0.25342635131E+02 -0.11604124912E+03  0.81754956338E+02  0.16476611505E+03  0.79725649144E+02 0.  0.
          6    2    1    2  501    0  0.26973382415E+01  0.77876636895E+02  0.23094763926E+03  0.29827662892E+03  0.17193047743E+03 0.  0.
         24    2    5    5    0    0 -0.13713918869E+02  0.79733923972E+02  0.51732623589E+02  0.11824082493E+03  0.68985927068E+02 0.  0.
          5    1    5    5  501    0  0.16411257111E+02 -0.18572870777E+01  0.17921501568E+03  0.18003580399E+03  0.47000000000E+01 0. -1.
        -11    1    6    6    0    0 -0.25347522836E+02  0.44700739672E+02 -0.38340381532E+01  0.51530116337E+02  0.00000000000E+00 0.  1.
         12    1    6    6    0    0  0.11633603966E+02  0.35033184300E+02  0.55566661743E+02  0.66710708590E+02  0.00000000000E+00 0. -1.
         -5    1    3    3    0  503  0.22645296889E+02  0.38164612223E+02  0.21217070090E+02  0.49412560757E+02  0.47000000000E+01 0.  1.
         13    1    4    4    0    0 -0.22854845105E+02 -0.79371197841E+01 -0.66538904094E+01  0.25092151618E+02  0.00000000000E+00 0. -1.
        -14    1    4    4    0    0 -0.24877900255E+01 -0.10810412933E+03  0.88408846747E+02  0.13967396343E+03  0.00000000000E+00 0.  1.
</event>
<event>
12    1  0.9962621E-001  0.2019315E+03  0.7818608E-02  0.1148877E+00
         21   -1    0    0  501  502  0.00000000000E+00  0.00000000000E+00  0.42777632933E+02  0.42777632933E+02  0.00000000000E+00 0.  1.
         21   -1    0    0  502  503 -0.00000000000E+00 -0.00000000000E+00 -0.10755404529E+04  0.10755404529E+04  0.00000000000E+00 0.  1.
         -6    2    1    2    0  503 -0.76232013561E+02  0.73272957435E+02 -0.31115322866E+03  0.36898723143E+03  0.16779451443E+03 0.  0.
        -24    2    3    3    0    0 -0.93336065280E+02  0.92065352726E+02 -0.18334248273E+03  0.23859022425E+03  0.78250743646E+02 0.  0.
          6    2    1    2  501    0  0.76232013561E+02 -0.73272957435E+02 -0.72160959133E+03  0.74933085443E+03  0.17203511534E+03 0.  0.
         24    2    5    5    0    0 -0.16766629267E+02 -0.64407166492E+02 -0.29823931482E+03  0.31575060712E+03  0.79513231869E+02 0.  0.
          5    1    5    5  501    0  0.92998642828E+02 -0.88657909432E+01 -0.42337027651E+03  0.43358024730E+03  0.47000000000E+01 0. -1.
        -11    1    6    6    0    0  0.25491267696E+02 -0.16315359520E+01 -0.48740379738E+02  0.55028095145E+02  0.00000000000E+00 0.  1.
         12    1    6    6    0    0 -0.42257896963E+02 -0.62775630540E+02 -0.24949893508E+03  0.26072251198E+03  0.00000000000E+00 0. -1.
         -5    1    3    3    0  503  0.17104051719E+02 -0.18792395291E+02 -0.12781074593E+03  0.13039700718E+03  0.47000000000E+01 0.  1.
         11    1    4    4    0    0  0.56506293855E+00  0.41920571890E+02 -0.28532609131E+02  0.50712556902E+02  0.00000000000E+00 0. -1.
        -12    1    4    4    0    0 -0.93901128219E+02  0.50144780836E+02 -0.15480987360E+03  0.18787766735E+03  0.00000000000E+00 0.  1.
</event>
<event>
12    1  0.9962621E-001  0.2529366E+03  0.7818608E-02  0.1111925E+00
         21   -1    0    0  501  502  0.00000000000E+00  0.00000000000E+00  0.10443147388E+04  0.10443147388E+04  0.00000000000E+00 0.  1.
         21   -1    0    0  502  503 -0.00000000000E+00 -0.00000000000E+00 -0.12704811110E+03  0.12704811110E+03  0.00000000000E+00 0.  1.
         -6    2    1    2    0  503 -0.55762786388E+01  0.18148971941E+03  0.88363977368E+03  0.91912795083E+03  0.17608897532E+03 0.  0.
        -24    2    3    3    0    0 -0.57164768606E+02  0.16404833144E+03  0.60850400787E+03  0.63861528812E+03  0.85864386154E+02 0.  0.
          6    2    1    2  501    0  0.55762786388E+01 -0.18148971941E+03  0.33626854031E+02  0.25223489909E+03  0.17181986460E+03 0.  0.
         24    2    5    5    0    0 -0.18255441255E+02 -0.22154824430E+02 -0.11923897420E+02  0.84746032025E+02  0.78839160532E+02 0.  0.
          5    1    5    5  501    0  0.23831719894E+02 -0.15933489498E+03  0.45550751451E+02  0.16748886706E+03  0.47000000000E+01 0. -1.
        -11    1    6    6    0    0 -0.38173174902E+02  0.12367813779E+02  0.68199920314E+01  0.40702166909E+02  0.00000000000E+00 0.  1.
         12    1    6    6    0    0  0.19917733647E+02 -0.34522638210E+02 -0.18743889452E+02  0.44043865116E+02  0.00000000000E+00 0. -1.
         -5    1    3    3    0  503  0.51588489967E+02  0.17441387973E+02  0.27513576581E+03  0.28051266271E+03  0.47000000000E+01 0.  1.
         13    1    4    4    0    0 -0.10697517613E+02  0.91472417297E+02  0.18768298668E+03  0.20906109992E+03  0.00000000000E+00 0. -1.
        -14    1    4    4    0    0 -0.46467250993E+02  0.72575914143E+02  0.42082102119E+03  0.42955418820E+03  0.00000000000E+00 0.  1.
</event>
<event>
12    1  0.9962621E-001  0.2428298E+03  0.7818608E-02  0.1118068E+00
         21   -1    0    0  503  502  0.00000000000E+00  0.00000000000E+00  0.53664325705E+03  0.53664325705E+03  0.00000000000E+00 0.  1.
         21   -1    0    0  501  503 -0.00000000000E+00 -0.00000000000E+00 -0.11555910158E+03  0.11555910158E+03  0.00000000000E+00 0.  1.
          6    2    1    2  501    0 -0.16943529315E+03  0.18370851458E+01  0.28571675022E+03  0.37496716808E+03  0.17393855908E+03 0.  0.
         24    2    3    3    0    0 -0.17319829826E+03 -0.28437092035E+02  0.28570453683E+03  0.34410009564E+03  0.77275317735E+02 0.  0.
         -6    2    1    2    0  502  0.16943529315E+03 -0.18370851458E+01  0.13536740526E+03  0.27723519055E+03  0.17269430513E+03 0.  0.
        -24    2    5    5    0    0  0.12344726426E+03  0.20596392924E+02  0.15739547065E+03  0.22132914969E+03  0.92465235981E+02 0.  0.
          5    1    3    3  501    0  0.37630051060E+01  0.30274177181E+02  0.12213380363E-01  0.30867072433E+02  0.47000000000E+01 0. -1.
        -11    1    4    4    0    0 -0.49703358386E+02 -0.34613501780E+02  0.52552333936E+02  0.80188940275E+02  0.00000000000E+00 0.  1.
         12    1    4    4    0    0 -0.12349493987E+03  0.61764097454E+01  0.23315220290E+03  0.26391115537E+03  0.00000000000E+00 0. -1.
         -5    1    5    5    0  502  0.45988028896E+02 -0.22433478069E+02 -0.22028065395E+02  0.55906040864E+02  0.47000000000E+01 0.  1.
         13    1    6    6    0    0  0.12932588071E+03 -0.37366630775E+01  0.12091955707E+03  0.17708948403E+03  0.00000000000E+00 0. -1.
        -14    1    6    6    0    0 -0.58786164516E+01  0.24333056001E+02  0.36475913580E+02  0.44239665654E+02  0.00000000000E+00 0.  1.
</event>
<event>
12    1  0.9962621E-001  0.1893066E+03  0.7818608E-02  0.1159143E+00
         21   -1    0    0  503  502  0.00000000000E+00  0.00000000000E+00  0.25780017310E+03  0.25780017310E+03  0.00000000000E+00 0. -1.
         21   -1    0    0  501  503 -0.00000000000E+00 -0.00000000000E+00 -0.19156041952E+03  0.19156041952E+03  0.00000000000E+00 0. -1.
          6    2    1    2  501    0  0.78218368639E+02  0.12282915259E+02 -0.84742612812E+02  0.20740854160E+03  0.17195350972E+03 0.  0.
         24    2    3    3    0    0  0.69547183281E+01  0.39014522603E+02  0.57120811731E+01  0.89098658878E+02  0.79595490208E+02 0.  0.
         -6    2    1    2    0  502 -0.78218368639E+02 -0.12282915259E+02  0.15098236639E+03  0.24195205102E+03  0.17168615795E+03 0.  0.
        -24    2    5    5    0    0  0.75596832591E+00  0.29006669367E+02  0.12077675077E+03  0.14773822553E+03  0.79985007353E+02 0.  0.
          5    1    3    3  501    0  0.71263650311E+02 -0.26731607344E+02 -0.90454693985E+02  0.11830988273E+03  0.47000000000E+01 0. -1.
        -13    1    4    4    0    0  0.14029822893E+02  0.61145426067E+02 -0.61071156146E+01  0.63030912419E+02  0.00000000000E+00 0.  1.
         14    1    4    4    0    0 -0.70751045645E+01 -0.22130903464E+02  0.11819196788E+02  0.26067746459E+02  0.00000000000E+00 0. -1.
         -5    1    5    5    0  502 -0.78974336965E+02 -0.41289584626E+02  0.30205615620E+02  0.94213825486E+02  0.47000000000E+01 0.  1.
         13    1    6    6    0    0  0.14184191047E+01  0.51954908123E+02  0.45628193622E+02  0.69161090536E+02  0.00000000000E+00 0. -1.
        -14    1    6    6    0    0 -0.66245077882E+00 -0.22948238756E+02  0.75148557148E+02  0.78577134998E+02  0.00000000000E+00 0.  1.
</event>
<event>
12    1  0.9962621E-001  0.2756086E+03  0.7818608E-02  0.1098307E+00
         21   -1    0    0  503  502  0.00000000000E+00  0.00000000000E+00  0.45751034079E+03  0.45751034079E+03  0.00000000000E+00 0. -1.
         21   -1    0    0  501  503 -0.00000000000E+00 -0.00000000000E+00 -0.54579848339E+03  0.54579848339E+03  0.00000000000E+00 0. -1.
          6    2    1    2  501    0 -0.14482973894E+03 -0.16079558748E+03  0.37480638812E+03  0.46440564047E+03  0.16840990495E+03 0.  0.
         24    2    3    3    0    0 -0.73525296792E+02 -0.15966019428E+03  0.21089472597E+03  0.28559083242E+03  0.78665057134E+02 0.  0.
         -6    2    1    2    0  502  0.14482973894E+03  0.16079558748E+03 -0.46309453072E+03  0.53890318372E+03  0.17067285315E+03 0.  0.
        -24    2    5    5    0    0  0.17519732621E+03  0.13604601679E+03 -0.38574860759E+03  0.45207453964E+03  0.79792100767E+02 0.  0.
          5    1    3    3  501    0 -0.71304442145E+02 -0.11353931990E+01  0.16391166216E+03  0.17881480805E+03  0.47000000000E+01 0. -1.
        -11    1    4    4    0    0 -0.90512979776E+02 -0.13133772166E+03  0.17697696299E+03  0.23824995713E+03  0.00000000000E+00 0.  1.
         12    1    4    4    0    0  0.16987682984E+02 -0.28322472613E+02  0.33917762976E+02  0.47340875291E+02  0.00000000000E+00 0. -1.
         -5    1    5    5    0  502 -0.30367587269E+02  0.24749570689E+02 -0.77345923134E+02  0.86828644071E+02  0.47000000000E+01 0.  1.
         13    1    6    6    0    0  0.73063548609E+02  0.11599401383E+02 -0.10503836035E+03  0.12847523260E+03  0.00000000000E+00 0. -1.
        -14    1    6    6    0    0  0.10213377760E+03  0.12444661540E+03 -0.28071024724E+03  0.32359930704E+03  0.00000000000E+00 0.  1.
</event>
<event>
12    1  0.9962621E-001  0.1785472E+03  0.7818608E-02  0.1169234E+00
         21   -1    0    0  501  502  0.00000000000E+00  0.00000000000E+00  0.10584118656E+03  0.10584118656E+03  0.00000000000E+00 0. -1.
         21   -1    0    0  502  503 -0.00000000000E+00 -0.00000000000E+00 -0.34823605460E+03  0.34823605460E+03  0.00000000000E+00 0. -1.
         -6    2    1    2    0  503  0.61367248188E+01 -0.49269837107E+02 -0.37669502821E+02  0.18247768523E+03  0.17150492099E+03 0.  0.
        -24    2    3    3    0    0  0.47915265536E+02 -0.66004408360E+02 -0.65065935956E+02  0.12958017217E+03  0.76843935376E+02 0.  0.
          6    2    1    2  501    0 -0.61367248188E+01  0.49269837107E+02 -0.20472536522E+03  0.27159955592E+03  0.17143123220E+03 0.  0.
         24    2    5    5    0    0 -0.39032320844E+02 -0.27312608707E+02 -0.80027594915E+02  0.12153751821E+03  0.78086181357E+02 0.  0.
          5    1    5    5  501    0  0.32895596025E+02  0.76582445814E+02 -0.12469777030E+03  0.15006203772E+03  0.47000000000E+01 0. -1.
        -11    1    6    6    0    0  0.14461373208E+02  0.15262028045E+02 -0.30794082662E+02  0.37287214191E+02  0.00000000000E+00 0.  1.
         12    1    6    6    0    0 -0.53493694051E+02 -0.42574636752E+02 -0.49233512253E+02  0.84250304015E+02  0.00000000000E+00 0. -1.
         -5    1    3    3    0  503 -0.41778540717E+02  0.16734571252E+02  0.27396433135E+02  0.52897513060E+02  0.47000000000E+01 0.  1.
         13    1    4    4    0    0  0.16069319514E+02  0.16676193622E+02 -0.97397179394E+01  0.25123307285E+02  0.00000000000E+00 0. -1.
        -14    1    4    4    0    0  0.31845946022E+02 -0.82680601982E+02 -0.55326218016E+02  0.10445686489E+03  0.00000000000E+00 0.  1.
</event>
<event>
12    1  0.9962621E-001  0.1922107E+03  0.7818608E-02  0.1157825E+00
         21   -1    0    0  501  502  0.00000000000E+00  0.00000000000E+00  0.13986961412E+03  0.13986961412E+03  0.00000000000E+00 0. -1.
         21   -1    0    0  502  503 -0.00000000000E+00 -0.00000000000E+00 -0.94104515049E+03  0.94104515049E+03  0.00000000000E+00 0. -1.
         -6    2    1    2    0  503 -0.23403299404E+02  0.67253945528E+02  0.58796053328E+02  0.20100229922E+03  0.17853330443E+03 0.  0.
        -24    2    3    3    0    0  0.45768447518E+02  0.44976454646E+02 -0.26902183240E+00  0.10723775221E+03  0.85919909597E+02 0.  0.
          6    2    1    2  501    0  0.23403299404E+02 -0.67253945528E+02 -0.85997158970E+03  0.87991246540E+03  0.17211625158E+03 0.  0.
         24    2    5    5    0    0 -0.25555697357E+02 -0.41141467624E+02 -0.76068896290E+03  0.76607936454E+03  0.76708412003E+02 0.  0.
          5    1    5    5  501    0  0.48958996760E+02 -0.26112477903E+02 -0.99282626802E+02  0.11383310086E+03  0.47000000000E+01 0. -1.
        -13    1    6    6    0    0 -0.23083798432E+02 -0.57411640184E+02 -0.37755516320E+03  0.38259228878E+03  0.00000000000E+00 0.  1.
         14    1    6    6    0    0 -0.24718989250E+01  0.16270172560E+02 -0.38313379970E+03  0.38348707576E+03  0.00000000000E+00 0. -1.
         -5    1    3    3    0  503 -0.69171746921E+02  0.22277490881E+02  0.59065075160E+02  0.93764547009E+02  0.47000000000E+01 0.  1.
         13    1    4    4    0    0  0.33938712829E+02 -0.37727023165E+01 -0.32880997863E+02  0.47404952607E+02  0.00000000000E+00 0. -1.
        -14    1    4    4    0    0  0.11829734689E+02  0.48749156963E+02  0.32611976031E+02  0.59832799601E+02  0.00000000000E+00 0.  1.
</event>
<event>
12    1  0.9962621E-001  0.1716447E+03  0.7818608E-02  0.1176224E+00
         21   -1    0    0  501  502  0.00000000000E+00  0.00000000000E+00  0.68289398244E+02  0.68289398244E+02  0.00000000000E+00 0.  1.
         21   -1    0    0  502  503 -0.00000000000E+00 -0.00000000000E+00 -0.46218946778E+03  0.46218946778E+03  0.00000000000E+00 0.  1.
         -6    2    1    2    0  503  0.28183424228E+01 -0.80905796561E+01 -0.12782333849E+03  0.21401101744E+03  0.17143077083E+03 0.  0.
        -24    2    3    3    0    0 -0.38006431468E+02  0.48917658909E+02 -0.76196439445E+02  0.12680993870E+03  0.80233639974E+02 0.  0.
          6    2    1    2  501    0 -0.28183424228E+01  0.80905796561E+01 -0.26607673105E+03  0.31646784859E+03  0.17111888222E+03 0.  0.
         24    2    5    5    0    0  0.23153055410E+02 -0.13744894408E+02 -0.26966098940E+03  0.28202603765E+03  0.78081051548E+02 0.  0.
          5    1    5    5  501    0 -0.25971397833E+02  0.21835474064E+02  0.35842583502E+01  0.34441810941E+02  0.47000000000E+01 0. -1.
        -11    1    6    6    0    0 -0.87573781199E+01 -0.40198573264E+02 -0.13534028126E+03  0.14145532403E+03  0.00000000000E+00 0.  1.
         12    1    6    6    0    0  0.31910433530E+02  0.26453678856E+02 -0.13432070813E+03  0.14057071362E+03  0.00000000000E+00 0. -1.
         -5    1    3    3    0  503  0.40824773891E+02 -0.57008238565E+02 -0.51626899048E+02  0.87201078737E+02  0.47000000000E+01 0.  1.
         13    1    4    4    0    0 -0.38413776131E+02  0.25146382456E+02 -0.88751356704E+02  0.99923781274E+02  0.00000000000E+00 0. -1.
        -14    1    4    4    0    0  0.40734466336E+00  0.23771276453E+02  0.12554917259E+02  0.26886157428E+02  0.00000000000E+00 0.  1.
</event>
<event>
12    1  0.9962621E-001  0.5947477E+03  0.7818608E-02  0.9916686E-01
         21   -1    0    0  501  502  0.00000000000E+00  0.00000000000E+00  0.10236662641E+04  0.10236662641E+04  0.00000000000E+00 0. -1.
         21   -1    0    0  502  503 -0.00000000000E+00 -0.00000000000E+00 -0.34527113527E+03  0.34527113527E+03  0.00000000000E+00 0.  1.
         -6    2    1    2    0  503  0.53157420044E+03  0.20249328501E+03  0.32887028854E+03  0.67961786980E+03  0.17363790260E+03 0.  0.
        -24    2    3    3    0    0  0.21852869320E+03  0.12489964081E+03  0.20424894592E+03  0.33382771340E+03  0.79803510578E+02 0.  0.
          6    2    1    2  501    0 -0.53157420044E+03 -0.20249328501E+03  0.34952484034E+03  0.68931952960E+03  0.17152008287E+03 0.  0.
         24    2    5    5    0    0 -0.21797596190E+03 -0.95962225995E+02  0.83919415837E+02  0.26474791812E+03  0.79540700339E+02 0.  0.
          5    1    5    5  501    0 -0.31359823855E+03 -0.10653105902E+03  0.26560542450E+03  0.42457161149E+03  0.47000000000E+01 0. -1.
        -13    1    6    6    0    0  0.23341614451E+01 -0.16768662393E+02  0.42999531670E+01  0.17467854629E+02  0.00000000000E+00 0.  1.
         14    1    6    6    0    0 -0.22031012334E+03 -0.79193563601E+02  0.79619462670E+02  0.24728006349E+03  0.00000000000E+00 0. -1.
         -5    1    3    3    0  503  0.31304550724E+03  0.77593644200E+02  0.12462134262E+03  0.34579015640E+03  0.47000000000E+01 0.  1.
         11    1    4    4    0    0  0.12352614576E+03  0.67259277156E+02  0.16300889950E+03  0.21530076722E+03  0.00000000000E+00 0. -1.
        -12    1    4    4    0    0  0.95002547442E+02  0.57640363656E+02  0.41240046418E+02  0.11852694618E+03  0.00000000000E+00 0.  1.
</event>
<event>
12    1  0.9962621E-001  0.2560998E+03  0.7818608E-02  0.1109522E+00
         21   -1    0    0  501  502  0.00000000000E+00  0.00000000000E+00  0.11435050278E+04  0.11435050278E+04  0.00000000000E+00 0.  1.
         21   -1    0    0  502  503 -0.00000000000E+00 -0.00000000000E+00 -0.70041504106E+02  0.70041504106E+02  0.00000000000E+00 0.  1.
         -6    2    1    2    0  503  0.17549465062E+03 -0.72897659016E+02  0.27839339004E+03  0.37827239576E+03  0.17168192884E+03 0.  0.
        -24    2    3    3    0    0  0.13802618086E+03 -0.13758649044E+02  0.10565682213E+03  0.19182851515E+03  0.79964292867E+02 0.  0.
          6    2    1    2  501    0 -0.17549465062E+03  0.72897659016E+02  0.79507013368E+03  0.83527413617E+03  0.17156317786E+03 0.  0.
         24    2    5    5    0    0 -0.63952623670E+02  0.98410040002E+02  0.44137795744E+03  0.46350438096E+03  0.79040089841E+02 0.  0.
          5    1    5    5  501    0 -0.11154202695E+03 -0.25512380986E+02  0.35369217624E+03  0.37176975521E+03  0.47000000000E+01 0. -1.
        -11    1    6    6    0    0  0.14530531043E+02  0.15872153929E+02  0.13373395776E+03  0.13545417329E+03  0.00000000000E+00 0.  1.
         12    1    6    6    0    0 -0.78483154713E+02  0.82537886074E+02  0.30764399968E+03  0.32805020767E+03  0.00000000000E+00 0. -1.
         -5    1    3    3    0  503  0.37468469763E+02 -0.59139009972E+02  0.17273656790E+03  0.18644388061E+03  0.47000000000E+01 0.  1.
         13    1    4    4    0    0  0.49355775275E+01 -0.67097018027E+01  0.44352887487E+02  0.45128246722E+02  0.00000000000E+00 0. -1.
        -14    1    4    4    0    0  0.13309060333E+03 -0.70489472412E+01  0.61303934648E+02  0.14670026843E+03  0.00000000000E+00 0.  1.
</event>
<event>
12    1  0.9962621E-001  0.3251312E+03  0.7818608E-02  0.1073382E+00
         21   -1    0    0  501  502  0.00000000000E+00  0.00000000000E+00  0.42462005306E+03  0.42462005306E+03  0.00000000000E+00 0. -1.
         21   -1    0    0  502  503 -0.00000000000E+00 -0.00000000000E+00 -0.24848675818E+03  0.24848675818E+03  0.00000000000E+00 0. -1.
         -6    2    1    2    0  503 -0.26574697652E+03 -0.74597899484E+02  0.85447905356E+02  0.33556549379E+03  0.17063573470E+03 0.  0.
        -24    2    3    3    0    0 -0.25903038276E+03 -0.94493168855E+02  0.45632712354E+02  0.29030763294E+03  0.78552397515E+02 0.  0.
          6    2    1    2  501    0  0.26574697652E+03  0.74597899484E+02  0.90685389529E+02  0.33754131744E+03  0.17182548987E+03 0.  0.
         24    2    5    5    0    0  0.17690039833E+03  0.93884124860E+02  0.11595936815E+03  0.24306096530E+03  0.74324141189E+02 0.  0.
          5    1    5    5  501    0  0.88846578192E+02 -0.19286225376E+02 -0.25273978617E+02  0.94480352142E+02  0.47000000000E+01 0. -1.
        -13    1    6    6    0    0  0.18327331619E+03  0.83450394172E+02  0.10870281596E+03  0.22884356865E+03  0.00000000000E+00 0.  1.
         14    1    6    6    0    0 -0.63729178563E+01  0.10433730687E+02  0.72565521855E+01  0.14217396656E+02  0.00000000000E+00 0. -1.
         -5    1    3    3    0  503 -0.67165937641E+01  0.19895269371E+02  0.39815193003E+02  0.45257860853E+02  0.47000000000E+01 0.  1.
         11    1    4    4    0    0 -0.16615716615E+03 -0.29172608649E+02  0.52154221786E+02  0.17657663438E+03  0.00000000000E+00 0. -1.
        -12    1    4    4    0    0 -0.92873216607E+02 -0.65320560206E+02 -0.65215094326E+01  0.11373099856E+03  0.00000000000E+00 0.  1.
</event>
<event>
12    1  0.9962621E-001  0.2548786E+03  0.7818608E-02  0.1110418E+00
         21   -1    0    0  503  502  0.00000000000E+00  0.00000000000E+00  0.53828808377E+02  0.53828808377E+02  0.00000000000E+00 0.  1.
         21   -1    0    0  501  503 -0.00000000000E+00 -0.00000000000E+00 -0.16273352206E+04  0.16273352206E+04  0.00000000000E+00 0.  1.
          6    2    1    2  501    0 -0.12895028258E+03  0.13535120489E+03 -0.35584164485E+03  0.43710993987E+03  0.17173729729E+03 0.  0.
         24    2    3    3    0    0 -0.48340624995E+01  0.65788828738E+02 -0.99439140415E+02  0.14383857314E+03  0.80310985114E+02 0.  0.
         -6    2    1    2    0  502  0.12895028258E+03 -0.13535120489E+03 -0.12176647673E+04  0.12440540891E+04  0.17324828101E+03 0.  0.
        -24    2    5    5    0    0  0.45364040895E+00 -0.24059126506E+02 -0.50739483764E+03  0.51370980259E+03  0.76610656279E+02 0.  0.
          5    1    3    3  501    0 -0.12411622008E+03  0.69562376155E+02 -0.25640250444E+03  0.29327136673E+03  0.47000000000E+01 0. -1.
        -13    1    4    4    0    0 -0.18217329813E+02  0.44502769129E+02 -0.76795805662E+01  0.48696442614E+02  0.00000000000E+00 0.  1.
         14    1    4    4    0    0  0.13383267313E+02  0.21286059609E+02 -0.91759559849E+02  0.95142130528E+02  0.00000000000E+00 0. -1.
         -5    1    5    5    0  502  0.12849664217E+03 -0.11129207839E+03 -0.71026992969E+03  0.73034428647E+03  0.47000000000E+01 0.  1.
         11    1    6    6    0    0 -0.24756430568E+02 -0.30674210943E+02 -0.14149953390E+03  0.14688739281E+03  0.00000000000E+00 0. -1.
        -12    1    6    6    0    0  0.25210070976E+02  0.66150844379E+01 -0.36589530374E+03  0.36682240978E+03  0.00000000000E+00 0.  1.
</event>
<event>
12    1  0.9962621E-001  0.3331536E+03  0.7818608E-02  0.1069761E+00
         21   -1    0    0  503  502  0.00000000000E+00  0.00000000000E+00  0.13743181912E+03  0.13743181912E+03  0.00000000000E+00 0. -1.
         21   -1    0    0  501  503 -0.00000000000E+00 -0.00000000000E+00 -0.81109236405E+03  0.81109236405E+03  0.00000000000E+00 0.  1.
          6    2    1    2  501    0 -0.24864654819E+03  0.14010224443E+03 -0.36889950866E+03  0.49700386937E+03  0.17167484923E+03 0.  0.
         24    2    3    3    0    0 -0.81158986341E+02  0.11603010731E+03 -0.16026533597E+03  0.22833705122E+03  0.80019148845E+02 0.  0.
         -6    2    1    2    0  502  0.24864654819E+03 -0.14010224443E+03 -0.30476103626E+03  0.45152031380E+03  0.17186494619E+03 0.  0.
        -24    2    5    5    0    0  0.60798180722E+02 -0.89218292444E+02 -0.92014340264E+02  0.16314654178E+03  0.80584321025E+02 0.  0.
          5    1    3    3  501    0 -0.16748756185E+03  0.24072137121E+02 -0.20863417270E+03  0.26866681815E+03  0.47000000000E+01 0. -1.
        -11    1    4    4    0    0 -0.90327552849E+02  0.66231062997E+02 -0.11037175748E+03  0.15724994550E+03  0.00000000000E+00 0.  1.
         12    1    4    4    0    0  0.91685665080E+01  0.49799044310E+02 -0.49893578484E+02  0.71087105722E+02  0.00000000000E+00 0. -1.
         -5    1    5    5    0  502  0.18784836747E+03 -0.50883951983E+02 -0.21274669600E+03  0.28837377202E+03  0.47000000000E+01 0.  1.
         13    1    6    6    0    0  0.30388252062E+02 -0.19118791552E+02  0.84910230283E+01  0.36892702881E+02  0.00000000000E+00 0. -1.
        -14    1    6    6    0    0  0.30409928660E+02 -0.70099500892E+02 -0.10050536329E+03  0.12625383890E+03  0.00000000000E+00 0.  1.
</event>
<event>
12    1  0.9962621E-001  0.1879688E+03  0.7818608E-02  0.1161226E+00
         21   -1    0    0  503  502  0.00000000000E+00  0.00000000000E+00  0.35409003890E+02  0.35409003890E+02  0.00000000000E+00 0. -1.
         21   -1    0    0  501  503 -0.00000000000E+00 -0.00000000000E+00 -0.11185249408E+04  0.11185249408E+04  0.00000000000E+00 0. -1.
          6    2    1    2  501    0  0.53415998674E+02  0.43131614950E+02 -0.33115454099E+03  0.37883509366E+03  0.17070176639E+03 0.  0.
         24    2    3    3    0    0  0.27804418466E+02 -0.21339031485E+02 -0.27885939909E+03  0.29183343184E+03  0.78585924513E+02 0.  0.
         -6    2    1    2    0  502 -0.53415998674E+02 -0.43131614950E+02 -0.75196139597E+03  0.77509885108E+03  0.17498194989E+03 0.  0.
        -24    2    5    5    0    0  0.20117486413E+01 -0.89091972242E+02 -0.46974236695E+03  0.48380130567E+03  0.73921481421E+02 0.  0.
          5    1    3    3  501    0  0.25611580208E+02  0.64470646435E+02 -0.52295141900E+02  0.87001661817E+02  0.47000000000E+01 0. -1.
        -11    1    4    4    0    0  0.35227316515E+02 -0.37756185242E+02 -0.26239072092E+03  0.26742360363E+03  0.00000000000E+00 0.  1.
         12    1    4    4    0    0 -0.74228980490E+01  0.16417153757E+02 -0.16468678168E+02  0.24409828216E+02  0.00000000000E+00 0. -1.
         -5    1    5    5    0  502 -0.55427747316E+02  0.45960357292E+02 -0.28221902903E+03  0.29129754540E+03  0.47000000000E+01 0.  1.
         13    1    6    6    0    0 -0.13302533112E+02 -0.94627449294E+02 -0.43581831796E+03  0.44617139959E+03  0.00000000000E+00 0. -1.
        -14    1    6    6    0    0  0.15314281753E+02  0.55354770515E+01 -0.33924048989E+02  0.37629906081E+02  0.00000000000E+00 0.  1.
</event>
<event>
12    1  0.9962621E-001  0.2888737E+03  0.7818608E-02  0.1090953E+00
         21   -1    0    0  503  502  0.00000000000E+00  0.00000000000E+00  0.15771024970E+03  0.15771024970E+03  0.00000000000E+00 0.  1.
         21   -1    0    0  501  503 -0.00000000000E+00 -0.00000000000E+00 -0.52989848633E+03  0.52989848633E+03  0.00000000000E+00 0.  1.
          6    2    1    2  501    0  0.12842713136E+03 -0.19354732026E+03 -0.17133135512E+03  0.33586078378E+03  0.17173799692E+03 0.  0.
         24    2    3    3    0    0  0.29637840139E+01 -0.34694415184E+02 -0.34011770635E+02  0.91209899332E+02  0.77135975614E+02 0.  0.
         -6    2    1    2    0  502 -0.12842713136E+03  0.19354732026E+03 -0.20085688151E+03  0.35174795225E+03  0.17154894874E+03 0.  0.
        -24    2    5    5    0    0 -0.73016177963E+02  0.20378849521E+03 -0.18277224779E+03  0.29238130001E+03  0.72249685175E+02 0.  0.
          5    1    3    3  501    0  0.12546334735E+03 -0.15885290507E+03 -0.13731958449E+03  0.24465088445E+03  0.47000000000E+01 0. -1.
        -13    1    4    4    0    0 -0.14673844278E+02  0.64056207072E+01  0.17010382017E+02  0.23360367696E+02  0.00000000000E+00 0.  1.
         14    1    4    4    0    0  0.17637628292E+02 -0.41100035891E+02 -0.51022152652E+02  0.67849531636E+02  0.00000000000E+00 0. -1.
         -5    1    5    5    0  502 -0.55410953399E+02 -0.10241174958E+02 -0.18084633715E+02  0.59366652236E+02  0.47000000000E+01 0.  1.
         13    1    6    6    0    0 -0.35139074189E+02  0.51736578420E+02 -0.92138219245E+02  0.11135923638E+03  0.00000000000E+00 0. -1.
        -14    1    6    6    0    0 -0.37877103774E+02  0.15205191679E+03 -0.90634028549E+02  0.18102206363E+03  0.00000000000E+00 0.  1.
</event>
<event>
12    1  0.9962621E-001  0.1788063E+03  0.7818608E-02  0.1169612E+00
         21   -1    0    0  503  502  0.00000000000E+00  0.00000000000E+00  0.94135953627E+02  0.94135953627E+02  0.00000000000E+00 0. -1.
         21   -1    0    0  501  503 -0.00000000000E+00 -0.00000000000E+00 -0.33560800790E+03  0.33560800790E+03  0.00000000000E+00 0. -1.
          6    2    1    2  501    0  0.13536264237E+02 -0.39026258417E+02 -0.11011501534E+03  0.20999291138E+03  0.17396961496E+03 0.  0.
         24    2    3    3    0    0  0.57721694184E+02 -0.72059000208E+02 -0.89143218474E+02  0.15078631957E+03  0.79156220721E+02 0.  0.
         -6    2    1    2    0  502 -0.13536264237E+02  0.39026258417E+02 -0.13135703894E+03  0.21975105015E+03  0.17125878976E+03 0.  0.
        -24    2    5    5    0    0  0.40033712306E+02  0.33582949304E+02 -0.13738257662E+03  0.16536567431E+03  0.75771507019E+02 0.  0.
          5    1    3    3  501    0 -0.44185429947E+02  0.33032741791E+02 -0.20971796866E+02  0.59206591809E+02  0.47000000000E+01 0. -1.
        -13    1    4    4    0    0 -0.10583676760E+02 -0.47935822099E+02 -0.38767200316E+02  0.62552002961E+02  0.00000000000E+00 0.  1.
         14    1    4    4    0    0  0.68305370943E+02 -0.24123178109E+02 -0.50376018158E+02  0.88234316608E+02  0.00000000000E+00 0. -1.
         -5    1    5    5    0  502 -0.53569976543E+02  0.54433091136E+01  0.60255376874E+01  0.54385375841E+02  0.47000000000E+01 0.  1.
         13    1    6    6    0    0  0.30498289039E+02 -0.87127290384E+01 -0.14155994819E+02  0.34733981502E+02  0.00000000000E+00 0. -1.
        -14    1    6    6    0    0  0.95354232662E+01  0.42295678342E+02 -0.12322658180E+03  0.13063169281E+03  0.00000000000E+00 0.  1.
</event>
<event>
12    1  0.9962621E-001  0.2127949E+03  0.7818608E-02  0.1139797E+00
         21   -1    0    0  503  502  0.00000000000E+00  0.00000000000E+00  0.34298925401E+02  0.34298925401E+02  0.00000000000E+00 0. -1.
         21   -1    0    0  501  503 -0.00000000000E+00 -0.00000000000E+00 -0.13433086711E+04  0.13433086711E+04  0.00000000000E+00 0.  1.
          6    2    1    2  501    0  0.10553808581E+03 -0.67587350867E+02 -0.54415778434E+03  0.58428533618E+03  0.17197477218E+03 0.  0.
         24    2    3    3    0    0  0.13728879536E+03 -0.78262117231E+02 -0.48657726457E+03  0.51750461704E+03  0.77977060281E+02 0.  0.
         -6    2    1    2    0  502 -0.10553808581E+03  0.67587350867E+02 -0.76485196133E+03  0.79332226029E+03  0.16927890702E+03 0.  0.
        -24    2    5    5    0    0 -0.11967091006E+03  0.32710803587E+02 -0.71792282985E+03  0.73298534246E+03  0.80394025003E+02 0.  0.
          5    1    3    3  501    0 -0.31750709542E+02  0.10674766364E+02 -0.57580519766E+02  0.66780719148E+02  0.47000000000E+01 0. -1.
        -11    1    4    4    0    0  0.10736414436E+03 -0.84013339441E+02 -0.31489008678E+03  0.34313418287E+03  0.00000000000E+00 0.  1.
         12    1    4    4    0    0  0.29924650993E+02  0.57512222103E+01 -0.17168717779E+03  0.17437043417E+03  0.00000000000E+00 0. -1.
         -5    1    5    5    0  502  0.14132824244E+02  0.34876547279E+02 -0.46929131477E+02  0.60336917823E+02  0.47000000000E+01 0.  1.
         13    1    6    6    0    0  0.41524053124E+01  0.23177374313E+02 -0.12440845067E+03  0.12661712265E+03  0.00000000000E+00 0. -1.
        -14    1    6    6    0    0 -0.12382331537E+03  0.95334292747E+01 -0.59351437919E+03  0.60636821982E+03  0.00000000000E+00 0.  1.
</event>
<event>
12    1  0.9962621E-001  0.2413426E+03  0.7818608E-02  0.1119016E+00
         21   -1    0    0  503  502  0.00000000000E+00  0.00000000000E+00  0.29671116514E+03  0.29671116514E+03  0.00000000000E+00 0. -1.
         21   -1    0    0  501  503 -0.00000000000E+00 -0.00000000000E+00 -0.20075243711E+03  0.20075243711E+03  0.00000000000E+00 0. -1.
          6    2    1    2  501    0 -0.16702900914E+03  0.17437526080E+02  0.87187642033E+02  0.25596162844E+03  0.17237143935E+03 0.  0.
         24    2    3    3    0    0 -0.38900671439E+02  0.32213707913E+02 -0.86581633689E+01  0.95201823503E+02  0.80233647489E+02 0.  0.
         -6    2    1    2    0  502  0.16702900914E+03 -0.17437526080E+02  0.87710859995E+01  0.24150197381E+03  0.17333064991E+03 0.  0.
        -24    2    5    5    0    0  0.11800506467E+03 -0.68279971637E+02  0.41934187624E+02  0.16333431611E+03  0.79575579881E+02 0.  0.
          5    1    3    3  501    0 -0.12812833770E+03 -0.14776181832E+02  0.95845805402E+02  0.16075980494E+03  0.47000000000E+01 0. -1.
        -11    1    4    4    0    0  0.11874090671E+02  0.19767722170E+01 -0.30035631452E+02  0.32358010050E+02  0.00000000000E+00 0.  1.
         12    1    4    4    0    0 -0.50774762110E+02  0.30236935696E+02  0.21377468083E+02  0.62843813453E+02  0.00000000000E+00 0. -1.
         -5    1    5    5    0  502  0.49023944463E+02  0.50842445557E+02 -0.33163101624E+02  0.78167657700E+02  0.47000000000E+01 0.  1.
         11    1    6    6    0    0  0.89987882956E+02 -0.61222125588E+02 -0.41767522121E+01  0.10891929581E+03  0.00000000000E+00 0. -1.
        -12    1    6    6    0    0  0.28017181717E+02 -0.70578460492E+01  0.46110939836E+02  0.54415020304E+02  0.00000000000E+00 0.  1.
</event>
<event>
12    1  0.9962621E-001  0.3515744E+03  0.7818608E-02  0.1062185E+00
         21   -1    0    0  501  502  0.00000000000E+00  0.00000000000E+00  0.11982825574E+04  0.11982825574E+04  0.00000000000E+00 0. -1.
         21   -1    0    0  502  503 -0.00000000000E+00 -0.00000000000E+00 -0.10506188591E+03  0.10506188591E+03  0.00000000000E+00 0. -1.
         -6    2    1    2    0  503 -0.58741748027E+02 -0.30092076579E+03  0.44398312093E+03  0.56502612518E+03  0.16771884279E+03 0.  0.
        -24    2    3    3    0    0  0.26719603135E+01 -0.74711528170E+02  0.14398593099E+03  0.18428649404E+03  0.87410592881E+02 0.  0.
          6    2    1    2  501    0  0.58741748027E+02  0.30092076579E+03  0.64923755057E+03  0.73831831814E+03  0.17204836987E+03 0.  0.
         24    2    5    5    0    0  0.27746177718E+02  0.22502867234E+03  0.32848116525E+03  0.40721850849E+03  0.80742083036E+02 0.  0.
          5    1    5    5  501    0  0.30995570309E+02  0.75892093448E+02  0.32075638532E+03  0.33109980965E+03  0.47000000000E+01 0. -1.
        -11    1    6    6    0    0  0.20686949006E+01  0.20986708822E+03  0.27440839508E+03  0.34546843779E+03  0.00000000000E+00 0.  1.
         12    1    6    6    0    0  0.25677482818E+02  0.15161584119E+02  0.54072770175E+02  0.61750070699E+02  0.00000000000E+00 0. -1.
         -5    1    3    3    0  503 -0.61413708341E+02 -0.22620923762E+03  0.29999718993E+03  0.38073963115E+03  0.47000000000E+01 0.  1.
         11    1    4    4    0    0  0.30571107248E+02 -0.43096740620E+02  0.25793433970E+02  0.58798153767E+02  0.00000000000E+00 0. -1.
        -12    1    4    4    0    0 -0.27899146935E+02 -0.31614787549E+02  0.11819249702E+03  0.12548834027E+03  0.00000000000E+00 0.  1.
</event>
<event>
12    1  0.9962621E-001  0.4696034E+03  0.7818608E-02  0.1022036E+00
         21   -1    0    0  501  502  0.00000000000E+00  0.00000000000E+00  0.21020698152E+04  0.21020698152E+04  0.00000000000E+00 0.  1.
         21   -1    0    0  502  503 -0.00000000000E+00 -0.00000000000E+00 -0.10661168153E+03  0.10661168153E+03  0.00000000000E+00 0.  1.
         -6    2    1    2    0  503 -0.29585985133E+03  0.32168546845E+03  0.11376743447E+04  0.12307651374E+04  0.17165464373E+03 0.  0.
        -24    2    3    3    0    0 -0.82541090595E+02  0.78695107246E+02  0.44614863684E+03  0.46736543614E+03  0.79849190365E+02 0.  0.
          6    2    1    2  501    0  0.29585985133E+03 -0.32168546845E+03  0.85778378893E+03  0.97791635926E+03  0.17179285467E+03 0.  0.
         24    2    5    5    0    0  0.18464141457E+03 -0.28314904339E+03  0.57901251620E+03  0.67527778070E+03  0.80490710296E+02 0.  0.
          5    1    5    5  501    0  0.11121843675E+03 -0.38536425053E+02  0.27877127274E+03  0.30263857856E+03  0.47000000000E+01 0. -1.
        -11    1    6    6    0    0  0.12735561829E+02 -0.22124073297E+02  0.12862846334E+02  0.28585345374E+02  0.00000000000E+00 0.  1.
         12    1    6    6    0    0  0.17190585275E+03 -0.26102497010E+03  0.56614966986E+03  0.64669243533E+03  0.00000000000E+00 0. -1.
         -5    1    3    3    0  503 -0.21331876073E+03  0.24299036120E+03  0.69152570787E+03  0.76339970131E+03  0.47000000000E+01 0.  1.
         13    1    4    4    0    0 -0.91436794049E+02  0.48306085762E+02  0.28613434194E+03  0.30424829805E+03  0.00000000000E+00 0. -1.
        -14    1    4    4    0    0  0.88957034537E+01  0.30389021484E+02  0.16001429489E+03  0.16311713809E+03  0.00000000000E+00 0.  1.
</event>
<event>
12    1  0.9962621E-001  0.7828786E+03  0.7818608E-02  0.9586258E-01
         21   -1    0    0  503  502  0.00000000000E+00  0.00000000000E+00  0.34735038183E+03  0.34735038183E+03  0.00000000000E+00 0.  1.
         21   -1    0    0  501  503 -0.00000000000E+00 -0.00000000000E+00 -0.18655448794E+04  0.18655448794E+04  0.00000000000E+00 0.  1.
          6    2    1    2  501    0 -0.59042145154E+03  0.47967864436E+03 -0.49170643271E+03  0.92193567370E+03  0.17175877907E+03 0.  0.
         24    2    3    3    0    0 -0.31228160604E+03  0.20975767381E+03 -0.18151141318E+03  0.42548613534E+03  0.81080053415E+02 0.  0.
         -6    2    1    2    0  502  0.59042145154E+03 -0.47967864436E+03 -0.10264880649E+04  0.12909595875E+04  0.18495896049E+03 0.  0.
        -24    2    5    5    0    0  0.12920223935E+03 -0.95014992631E+02 -0.18807311878E+03  0.25962501599E+03  0.79451768036E+02 0.  0.
          5    1    3    3  501    0 -0.27813984550E+03  0.26992097055E+03 -0.31019501953E+03  0.49644953836E+03  0.47000000000E+01 0. -1.
        -13    1    4    4    0    0 -0.31343427272E+02  0.13372551652E+02 -0.45194121264E+02  0.56601626899E+02  0.00000000000E+00 0.  1.
         14    1    4    4    0    0 -0.28093817877E+03  0.19638512216E+03 -0.13631729191E+03  0.36888450844E+03  0.00000000000E+00 0. -1.
         -5    1    5    5    0  502  0.46121921219E+03 -0.38466365173E+03 -0.83841494610E+03  0.10313345716E+04  0.47000000000E+01 0.  1.
         11    1    6    6    0    0  0.11592154698E+03 -0.10720732888E+03 -0.15136915719E+03  0.21873234367E+03  0.00000000000E+00 0. -1.
        -12    1    6    6    0    0  0.13280692371E+02  0.12192336252E+02 -0.36703961586E+02  0.40892672317E+02  0.00000000000E+00 0.  1.
</event>
<event>
12    1  0.9962621E-001  0.2071690E+03  0.7818608E-02  0.1143897E+00
         21   -1    0    0  501  502  0.00000000000E+00  0.00000000000E+00  0.51496278797E+03  0.51496278797E+03  0.00000000000E+00 0. -1.
         21   -1    0    0  502  503 -0.00000000000E+00 -0.00000000000E+00 -0.97620396099E+02  0.97620396099E+02  0.00000000000E+00 0. -1.
         -6    2    1    2    0  503  0.40625570455E+02  0.10805657362E+03  0.32621972132E+03  0.38625970461E+03  0.17161175004E+03 0.  0.
        -24    2    3    3    0    0  0.17621923151E+02 -0.95629967273E+01  0.17737931174E+03  0.19510770059E+03  0.78750311204E+02 0.  0.
          6    2    1    2  501    0 -0.40625570455E+02 -0.10805657362E+03  0.91122670547E+02  0.22632347945E+03  0.17202417326E+03 0.  0.
         24    2    5    5    0    0 -0.41820658253E+02 -0.23224547945E+02 -0.10776026525E+02  0.93645918124E+02  0.79781502553E+02 0.  0.
          5    1    5    5  501    0  0.11950877979E+01 -0.84832025675E+02  0.10189869707E+03  0.13267756133E+03  0.47000000000E+01 0. -1.
        -11    1    6    6    0    0 -0.43185103707E+02  0.19200818290E+02  0.67154311166E+01  0.47735957309E+02  0.00000000000E+00 0.  1.
         12    1    6    6    0    0  0.13644454541E+01 -0.42425366235E+02 -0.17491457642E+02  0.45909960814E+02  0.00000000000E+00 0. -1.
         -5    1    3    3    0  503  0.23003647304E+02  0.11761957035E+03  0.14884040958E+03  0.19115200402E+03  0.47000000000E+01 0.  1.
         11    1    4    4    0    0 -0.10812452365E+02 -0.10641732224E+02 -0.29055328604E+00  0.15173661789E+02  0.00000000000E+00 0. -1.
        -12    1    4    4    0    0  0.28434375516E+02  0.10787354971E+01  0.17766986503E+03  0.17993403880E+03  0.00000000000E+00 0.  1.
</event>
<event>
12    1  0.9962621E-001  0.2698397E+03  0.7818608E-02  0.1101602E+00
         21   -1    0    0  501  502  0.00000000000E+00  0.00000000000E+00  0.74440225502E+02  0.74440225502E+02  0.00000000000E+00 0.  1.
         21   -1    0    0  502  503 -0.00000000000E+00 -0.00000000000E+00 -0.10223973161E+04  0.10223973161E+04  0.00000000000E+00 0.  1.
         -6    2    1    2    0  503  0.54225502131E+02  0.20065858979E+03 -0.35396276819E+03  0.44508774458E+03  0.17207319483E+03 0.  0.
        -24    2    3    3    0    0  0.67521764265E+02  0.17407593490E+03 -0.36041341784E+03  0.41431228344E+03  0.83037441465E+02 0.  0.
          6    2    1    2  501    0 -0.54225502131E+02 -0.20065858979E+03 -0.59399432238E+03  0.65174979699E+03  0.16954134634E+03 0.  0.
         24    2    5    5    0    0 -0.48605118206E+02 -0.20675786005E+03 -0.41448741540E+03  0.47198993087E+03  0.76572887550E+02 0.  0.
          5    1    5    5  501    0 -0.56203839257E+01  0.60992702653E+01 -0.17950690698E+03  0.17975986612E+03  0.47000000000E+01 0. -1.
        -13    1    6    6    0    0  0.10459758072E+02 -0.30896628546E+02 -0.26853708409E+02  0.42250797031E+02  0.00000000000E+00 0.  1.
         14    1    6    6    0    0 -0.59064876277E+02 -0.17586123151E+03 -0.38763370699E+03  0.42973913384E+03  0.00000000000E+00 0. -1.
         -5    1    3    3    0  503 -0.13296262134E+02  0.26582654892E+02  0.64506496574E+01  0.30775461147E+02  0.47000000000E+01 0.  1.
         11    1    4    4    0    0  0.42204752173E+02  0.67778274098E+02 -0.78533934558E+02  0.11199426067E+03  0.00000000000E+00 0. -1.
        -12    1    4    4    0    0  0.25317012091E+02  0.10629766080E+03 -0.28187948328E+03  0.30231802277E+03  0.00000000000E+00 0.  1.
</event>
<event>
12    1  0.9962621E-001  0.2616225E+03  0.7818608E-02  0.1106730E+00
         21   -1    0    0  503  502  0.00000000000E+00  0.00000000000E+00  0.17158629735E+03  0.17158629735E+03  0.00000000000E+00 0. -1.
         21   -1    0    0  501  503 -0.00000000000E+00 -0.00000000000E+00 -0.39360759081E+03  0.39360759081E+03  0.00000000000E+00 0. -1.
          6    2    1    2  501    0  0.18615025574E+03  0.51856858744E+02 -0.12025938610E+03  0.28793864409E+03  0.17636692237E+03 0.  0.
         24    2    3    3    0    0  0.16252476668E+03 -0.22497413297E+02 -0.72248950959E+02  0.19621180295E+03  0.79741628481E+02 0.  0.
         -6    2    1    2    0  502 -0.18615025574E+03 -0.51856858744E+02 -0.10176190736E+03  0.27725524406E+03  0.17080378527E+03 0.  0.
        -24    2    5    5    0    0 -0.16496729932E+03 -0.35137160053E+02 -0.13796984717E+03  0.23185292174E+03  0.79191342499E+02 0.  0.
          5    1    3    3  501    0  0.23625489059E+02  0.74354272042E+02 -0.48010435143E+02  0.91726841147E+02  0.47000000000E+01 0. -1.
        -13    1    4    4    0    0  0.13113443673E+03 -0.19821401180E+02 -0.89783339831E+02  0.16015672497E+03  0.00000000000E+00 0.  1.
         14    1    4    4    0    0  0.31390329943E+02 -0.26760121169E+01  0.17534388872E+02  0.36055077977E+02  0.00000000000E+00 0. -1.
         -5    1    5    5    0  502 -0.21182956412E+02 -0.16719698691E+02  0.36207939818E+02  0.45402322326E+02  0.47000000000E+01 0.  1.
         11    1    6    6    0    0 -0.53878253790E+02 -0.39912530706E+02 -0.86179559647E+02  0.10919154198E+03  0.00000000000E+00 0. -1.
        -12    1    6    6    0    0 -0.11108904553E+03  0.47753706528E+01 -0.51790287528E+02  0.12266137976E+03  0.00000000000E+00 0.  1.
</event>
<event>
12    1  0.1253728E+000  0.1983526E+03  0.7818608E-02  0.1151319E+00
         21   -1    0    0  501  502  0.00000000000E+00  0.00000000000E+00  0.33537831755E+03  0.33537831755E+03  0.00000000000E+00 0.  1.
         21   -1    0    0  502  503 -0.00000000000E+00 -0.00000000000E+00 -0.24968735335E+03  0.24968735335E+03  0.00000000000E+00 0.  1.
         -6    2    1    2    0  503  0.98236209613E+01  0.96520982155E+02  0.25629412472E+03  0.32408399300E+03  0.17300564334E+03 0.  0.
        -24    2    3    3    0    0  0.19181346007E+02  0.64673830357E+02  0.26871679284E+03  0.28833177937E+03  0.79849056835E+02 0.  0.
          6    2    1    2  501    0 -0.98236209613E+01 -0.96520982155E+02 -0.17060316052E+03  0.26098167791E+03  0.17202672555E+03 0.  0.
         24    2    5    5    0    0 -0.36925947782E+02  0.57453329000E+01 -0.56807367330E+02  0.10553230396E+03  0.80705983217E+02 0.  0.
          5    1    5    5  501    0  0.27102326820E+02 -0.10226631506E+03 -0.11379579319E+03  0.15544937395E+03  0.47000000000E+01 0. -1.
        -13    1    6    6    0    0  0.15447812866E+02  0.13361261039E+02  0.79340460016E+01  0.21911351050E+02  0.00000000000E+00 0.  1.
         14    1    6    6    0    0 -0.52373760648E+02 -0.76159281391E+01 -0.64741413332E+02  0.83620952913E+02  0.00000000000E+00 0. -1.
         -5    1    3    3    0  503 -0.93577250453E+01  0.31847151798E+02 -0.12422668119E+02  0.35752213622E+02  0.47000000000E+01 0.  1.
         11    1    4    4    0    0  0.68682418915E+01  0.74150814230E+02  0.13903134084E+03  0.15771883126E+03  0.00000000000E+00 0. -1.
        -12    1    4    4    0    0  0.12313104115E+02 -0.94769838726E+01  0.12968545200E+03  0.13061294812E+03  0.00000000000E+00 0.  1.
</event>
<event>
12    1  0.9962621E-001  0.2074430E+03  0.7818608E-02  0.1144201E+00
         21   -1    0    0  501  502  0.00000000000E+00  0.00000000000E+00  0.13604897435E+03  0.13604897435E+03  0.00000000000E+00 0.  1.
         21   -1    0    0  502  503 -0.00000000000E+00 -0.00000000000E+00 -0.38339515015E+03  0.38339515015E+03  0.00000000000E+00 0.  1.
         -6    2    1    2    0  503  0.10982452425E+03  0.28318246404E+02 -0.10761485809E+02  0.20479364149E+03  0.17018013048E+03 0.  0.
        -24    2    3    3    0    0  0.13714790007E+03  0.39754902561E+02  0.16478797275E+02  0.16427837285E+03  0.79535113340E+02 0.  0.
          6    2    1    2  501    0 -0.10982452425E+03 -0.28318246404E+02 -0.23658469000E+03  0.31465048301E+03  0.17369300998E+03 0.  0.
         24    2    5    5    0    0 -0.37710959206E+02  0.44389678161E+02 -0.14302399065E+03  0.17586106332E+03  0.84134961333E+02 0.  0.
          5    1    5    5  501    0 -0.72113565041E+02 -0.72707924565E+02 -0.93560699344E+02  0.13878941969E+03  0.47000000000E+01 0. -1.
        -13    1    6    6    0    0 -0.30733322906E+02 -0.20499925663E+02 -0.55876655052E+02  0.66984958527E+02  0.00000000000E+00 0.  1.
         14    1    6    6    0    0 -0.69776362999E+01  0.64889603824E+02 -0.87147335600E+02  0.10887610479E+03  0.00000000000E+00 0. -1.
         -5    1    3    3    0  503 -0.27323375824E+02 -0.11436656158E+02 -0.27240283085E+02  0.40515268641E+02  0.47000000000E+01 0.  1.
         13    1    4    4    0    0  0.56865709038E+02  0.57561847652E+02  0.31783710023E+01  0.80976399103E+02  0.00000000000E+00 0. -1.
        -14    1    4    4    0    0  0.80282191033E+02 -0.17806945091E+02  0.13300426273E+02  0.83301973743E+02  0.00000000000E+00 0.  1.
</event>
<event>
12    1  0.9962621E-001  0.2201593E+03  0.7818608E-02  0.1133832E+00
         21   -1    0    0  501  502  0.00000000000E+00  0.00000000000E+00  0.45648330771E+02  0.45648330771E+02  0.00000000000E+00 0. -1.
         21   -1    0    0  502  503 -0.00000000000E+00 -0.00000000000E+00 -0.11170436863E+04  0.11170436863E+04  0.00000000000E+00 0. -1.
         -6    2    1    2    0  503  0.13623453166E+03 -0.16106155691E+02 -0.40398842156E+03  0.45991030614E+03  0.17173115346E+03 0.  0.
        -24    2    3    3    0    0  0.98639500705E+02 -0.52054465242E+01 -0.12623757459E+03  0.17937539779E+03  0.80515590533E+02 0.  0.
          6    2    1    2  501    0 -0.13623453166E+03  0.16106155691E+02 -0.66740693394E+03  0.70278171090E+03  0.17219425613E+03 0.  0.
         24    2    5    5    0    0 -0.15815289640E+03 -0.48708215390E+01 -0.45681552900E+03  0.48996423484E+03  0.79677225980E+02 0.  0.
          5    1    5    5  501    0  0.21918364738E+02  0.20976977230E+02 -0.21059140494E+03  0.21281747607E+03  0.47000000000E+01 0. -1.
        -13    1    6    6    0    0  0.47735214182E+01 -0.62837435392E+01 -0.42507444625E+01  0.89633011821E+01  0.00000000000E+00 0.  1.
         14    1    6    6    0    0 -0.16292641781E+03  0.14129220003E+01 -0.45256478454E+03  0.48100093365E+03  0.00000000000E+00 0. -1.
         -5    1    3    3    0  503  0.37595030953E+02 -0.10900709167E+02 -0.27775084697E+03  0.28053490835E+03  0.47000000000E+01 0.  1.
         11    1    4    4    0    0  0.58086120688E+02  0.27716648295E+02 -0.32579876327E+02  0.72136387148E+02  0.00000000000E+00 0. -1.
        -12    1    4    4    0    0  0.40553380017E+02 -0.32922094820E+02 -0.93657698265E+02  0.10723901064E+03  0.00000000000E+00 0.  1.
</event>
<event>
12    1  0.9962621E-001  0.1798227E+03  0.7818608E-02  0.1169530E+00
         21   -1    0    0  501  502  0.00000000000E+00  0.00000000000E+00  0.44807097212E+03  0.44807097212E+03  0.00000000000E+00 0.  1.
         21   -1    0    0  502  503 -0.00000000000E+00 -0.00000000000E+00 -0.97555492682E+02  0.97555492682E+02  0.00000000000E+00 0.  1.
         -6    2    1    2    0  503  0.27820609004E+02 -0.44553762512E+02  0.32334832345E+03  0.36998697067E+03  0.17198022023E+03 0.  0.
        -24    2    3    3    0    0 -0.98819089056E+00 -0.91518382467E+02  0.25079790601E+03  0.27876594486E+03  0.80213910921E+02 0.  0.
          6    2    1    2  501    0 -0.27820609004E+02  0.44553762512E+02  0.27167155994E+02  0.17563949414E+03  0.16538486477E+03 0.  0.
         24    2    5    5    0    0  0.52735742081E+01  0.42227997583E+02  0.63891697109E+02  0.12592615523E+03  0.99821006040E+02 0.  0.
          5    1    5    5  501    0 -0.33094183212E+02  0.23257649296E+01 -0.36724541116E+02  0.49713338906E+02  0.47000000000E+01 0. -1.
        -13    1    6    6    0    0 -0.20796132752E+02 -0.27065233131E+02  0.15559978978E+02  0.37511583913E+02  0.00000000000E+00 0.  1.
         14    1    6    6    0    0  0.26069706960E+02  0.69293230714E+02  0.48331718131E+02  0.88414571317E+02  0.00000000000E+00 0. -1.
         -5    1    3    3    0  503  0.28808799895E+02  0.46964619955E+02  0.72550417440E+02  0.91221025809E+02  0.47000000000E+01 0.  1.
         11    1    4    4    0    0  0.36472682630E+02 -0.53603067937E+02  0.17027531961E+03  0.18220107008E+03  0.00000000000E+00 0. -1.
        -12    1    4    4    0    0 -0.37460873520E+02 -0.37915314530E+02  0.80522586395E+02  0.96564874776E+02  0.00000000000E+00 0.  1.
</event>
<event>
12    1  0.9962621E-001  0.2780720E+03  0.7818608E-02  0.1098905E+00
         21   -1    0    0  503  502  0.00000000000E+00  0.00000000000E+00  0.10766087627E+04  0.10766087627E+04  0.00000000000E+00 0. -1.
         21   -1    0    0  501  503 -0.00000000000E+00 -0.00000000000E+00 -0.12104913739E+03  0.12104913739E+03  0.00000000000E+00 0. -1.
          6    2    1    2  501    0 -0.12477619988E+03  0.15493968064E+03  0.88184485187E+03  0.92464824151E+03  0.19429004882E+03 0.  0.
         24    2    3    3    0    0 -0.11025963306E+03  0.92516009209E+02  0.32601172179E+03  0.36511271631E+03  0.79418223504E+02 0.  0.
         -6    2    1    2    0  502  0.12477619988E+03 -0.15493968064E+03  0.73714773420E+02  0.27300965857E+03  0.17182840614E+03 0.  0.
        -24    2    5    5    0    0  0.13586392167E+02 -0.21513205842E+02  0.45474224852E+02  0.96982910317E+02  0.81794692309E+02 0.  0.
          5    1    3    3  501    0 -0.14516566817E+02  0.62423671427E+02  0.55583313008E+03  0.55953552520E+03  0.47000000000E+01 0. -1.
        -13    1    4    4    0    0 -0.29624097605E+02  0.75205092387E+02  0.18234077278E+03  0.19945312857E+03  0.00000000000E+00 0.  1.
         14    1    4    4    0    0 -0.80635535459E+02  0.17310916821E+02  0.14367094901E+03  0.16565958774E+03  0.00000000000E+00 0. -1.
         -5    1    5    5    0  502  0.11118980771E+03 -0.13342647479E+03  0.28240548568E+02  0.17602674825E+03  0.47000000000E+01 0.  1.
         11    1    6    6    0    0  0.41949679615E+02 -0.29325222735E+01  0.23402884227E+01  0.42117125455E+02  0.00000000000E+00 0. -1.
        -12    1    6    6    0    0 -0.28363287447E+02 -0.18580683568E+02  0.43133936429E+02  0.54865784862E+02  0.00000000000E+00 0.  1.
</event>
<event>
12    1  0.9962621E-001  0.2204133E+03  0.7818608E-02  0.1133683E+00
         21   -1    0    0  501  502  0.00000000000E+00  0.00000000000E+00  0.18974456582E+04  0.18974456582E+04  0.00000000000E+00 0. -1.
         21   -1    0    0  502  503 -0.00000000000E+00 -0.00000000000E+00 -0.29602328890E+02  0.29602328890E+02  0.00000000000E+00 0. -1.
         -6    2    1    2    0  503 -0.13529717388E+03  0.22324069611E+02  0.12920464255E+04  0.13107120124E+04  0.17256397211E+03 0.  0.
        -24    2    3    3    0    0 -0.77115696603E+02 -0.50285944837E+02  0.87199684339E+03  0.88045506600E+03  0.79668823626E+02 0.  0.
          6    2    1    2  501    0  0.13529717388E+03 -0.22324069611E+02  0.57579690373E+03  0.61633597460E+03  0.17182627827E+03 0.  0.
         24    2    5    5    0    0  0.11837584143E+03  0.84444714154E+00  0.56958487585E+03  0.58660735286E+03  0.75284146501E+02 0.  0.
          5    1    5    5  501    0  0.16921332446E+02 -0.23168516753E+02  0.62120278834E+01  0.29728621742E+02  0.47000000000E+01 0. -1.
        -13    1    6    6    0    0  0.18145776413E+02  0.29838728121E+02  0.17569639346E+03  0.17913358583E+03  0.00000000000E+00 0.  1.
         14    1    6    6    0    0  0.10023006502E+03 -0.28994280979E+02  0.39388848238E+03  0.40747376703E+03  0.00000000000E+00 0. -1.
         -5    1    3    3    0  503 -0.58181477278E+02  0.72610014448E+02  0.42004958216E+03  0.43025694645E+03  0.47000000000E+01 0.  1.
         11    1    4    4    0    0 -0.27838697592E+02  0.20386447860E+02  0.30584341181E+03  0.30778367872E+03  0.00000000000E+00 0. -1.
        -12    1    4    4    0    0 -0.49276999010E+02 -0.70672392697E+02  0.56615343157E+03  0.57267138728E+03  0.00000000000E+00 0.  1.
</event>
<event>
12    1  0.9962621E-001  0.2131501E+03  0.7818608E-02  0.1139180E+00
         21   -1    0    0  503  502  0.00000000000E+00  0.00000000000E+00  0.58433468089E+02  0.58433468089E+02  0.00000000000E+00 0.  1.
         21   -1    0    0  501  503 -0.00000000000E+00 -0.00000000000E+00 -0.78792406451E+03  0.78792406451E+03  0.00000000000E+00 0.  1.
          6    2    1    2  501    0 -0.42794303665E+02  0.11743549160E+03 -0.31291177726E+03  0.37861161451E+03  0.17265725347E+03 0.  0.
         24    2    3    3    0    0 -0.24333854632E+01  0.75733233403E+02 -0.73106013371E+02  0.13183848701E+03  0.79343893658E+02 0.  0.
         -6    2    1    2    0  502  0.42794303665E+02 -0.11743549160E+03 -0.41657881916E+03  0.46774591809E+03  0.17212171335E+03 0.  0.
        -24    2    5    5    0    0  0.88848648937E+02 -0.10230706833E+03 -0.36252758720E+03  0.39498949167E+03  0.78927995052E+02 0.  0.
          5    1    3    3  501    0 -0.40360918202E+02  0.41702258201E+02 -0.23980576389E+03  0.24677312750E+03  0.47000000000E+01 0. -1.
        -13    1    4    4    0    0  0.16364400407E+02 -0.10398489082E+02 -0.24246001246E+02  0.31044979502E+02  0.00000000000E+00 0.  1.
         14    1    4    4    0    0 -0.18797785870E+02  0.86131722484E+02 -0.48860012125E+02  0.10079350751E+03  0.00000000000E+00 0. -1.
         -5    1    5    5    0  502 -0.46054345272E+02 -0.15128423269E+02 -0.54051231960E+02  0.72756426420E+02  0.47000000000E+01 0.  1.
         11    1    6    6    0    0  0.87238222340E+02 -0.11451697236E+03 -0.34178837414E+03  0.37086916439E+03  0.00000000000E+00 0. -1.
        -12    1    6    6    0    0  0.16104265971E+01  0.12209904025E+02 -0.20739213059E+02  0.24120327287E+02  0.00000000000E+00 0.  1.
</event>
<event>
12    1  0.9962621E-001  0.1920191E+03  0.7818608E-02  0.1156778E+00
         21   -1    0    0  503  502  0.00000000000E+00  0.00000000000E+00  0.11853316691E+03  0.11853316691E+03  0.00000000000E+00 0. -1.
         21   -1    0    0  501  503 -0.00000000000E+00 -0.00000000000E+00 -0.97281248351E+03  0.97281248351E+03  0.00000000000E+00 0. -1.
          6    2    1    2  501    0  0.82666000916E+02 -0.21532208144E+02  0.23024114362E+02  0.19339452774E+03  0.17197101448E+03 0.  0.
         24    2    3    3    0    0  0.57678083397E+02  0.59381106900E+02  0.35514882015E+02  0.10766547869E+03  0.58971783905E+02 0.  0.
         -6    2    1    2    0  502 -0.82666000916E+02  0.21532208144E+02 -0.87730343096E+03  0.89795112268E+03  0.17134061119E+03 0.  0.
        -24    2    5    5    0    0  0.10865995582E+02 -0.24354415795E+02 -0.45763050111E+03  0.46551468263E+03  0.81037255463E+02 0.  0.
          5    1    3    3  501    0  0.24987917518E+02 -0.80913315045E+02 -0.12490767653E+02  0.85729049044E+02  0.47000000000E+01 0. -1.
        -11    1    4    4    0    0  0.33277819856E+02  0.20697843805E+02  0.46316396915E+02  0.60671431957E+02  0.00000000000E+00 0.  1.
         12    1    4    4    0    0  0.24400263542E+02  0.38683263096E+02 -0.10801514901E+02  0.46994046738E+02  0.00000000000E+00 0. -1.
         -5    1    5    5    0  502 -0.93531996498E+02  0.45886623939E+02 -0.41967292986E+03  0.43243644005E+03  0.47000000000E+01 0.  1.
         11    1    6    6    0    0 -0.19952101776E+02 -0.23562917557E+02 -0.68171965514E+02  0.74837920409E+02  0.00000000000E+00 0. -1.
        -12    1    6    6    0    0  0.30818097358E+02 -0.79149823833E+00 -0.38945853559E+03  0.39067676222E+03  0.00000000000E+00 0.  1.
</event>
<event>
12    1  0.9962621E-001  0.2827637E+03  0.7818608E-02  0.1094243E+00
         21   -1    0    0  501  502  0.00000000000E+00  0.00000000000E+00  0.57943844847E+03  0.57943844847E+03  0.00000000000E+00 0. -1.
         21   -1    0    0  502  503 -0.00000000000E+00 -0.00000000000E+00 -0.17020726163E+03  0.17020726163E+03  0.00000000000E+00 0. -1.
         -6    2    1    2    0  503 -0.17850838524E+03  0.13626928664E+03  0.40925590221E+02  0.28531357600E+03  0.17115598333E+03 0.  0.
        -24    2    3    3    0    0 -0.10903456768E+03  0.11641890527E+03  0.88259233898E+02  0.19880801091E+03  0.79328647924E+02 0.  0.
          6    2    1    2  501    0  0.17850838524E+03 -0.13626928664E+03  0.36830559661E+03  0.46433213410E+03  0.17181605333E+03 0.  0.
         24    2    5    5    0    0  0.43812512446E+02 -0.11430225399E+03  0.20340885618E+03  0.25023273271E+03  0.79099407289E+02 0.  0.
          5    1    5    5  501    0  0.13469587279E+03 -0.21967032652E+02  0.16489674044E+03  0.21409940140E+03  0.47000000000E+01 0. -1.
        -11    1    6    6    0    0  0.23052493228E+02 -0.12442461344E+02  0.10087326229E+03  0.10421922727E+03  0.00000000000E+00 0.  1.
         12    1    6    6    0    0  0.20760019218E+02 -0.10185979265E+03  0.10253559389E+03  0.14601350543E+03  0.00000000000E+00 0. -1.
         -5    1    3    3    0  503 -0.69473817559E+02  0.19850381372E+02 -0.47333643677E+02  0.86505565085E+02  0.47000000000E+01 0.  1.
         11    1    4    4    0    0 -0.43361242005E+02  0.74601222405E+02  0.74719250794E+01  0.86610446003E+02  0.00000000000E+00 0. -1.
        -12    1    4    4    0    0 -0.65673325676E+02  0.41817682864E+02  0.80787308819E+02  0.11219756491E+03  0.00000000000E+00 0.  1.
</event>
<event>
12    1  0.9962621E-001  0.3162726E+03  0.7818608E-02  0.1077543E+00
         21   -1    0    0  503  502  0.00000000000E+00  0.00000000000E+00  0.54009124274E+02  0.54009124274E+02  0.00000000000E+00 0. -1.
         21   -1    0    0  501  503 -0.00000000000E+00 -0.00000000000E+00 -0.18438540162E+04  0.18438540162E+04  0.00000000000E+00 0. -1.
          6    2    1    2  501    0 -0.11234535123E+03  0.23911363381E+03 -0.89794028626E+03  0.95154281367E+03  0.17128969830E+03 0.  0.
         24    2    3    3    0    0 -0.14562078127E+03  0.22011149537E+03 -0.76759376211E+03  0.81559928912E+03  0.79671415484E+02 0.  0.
         -6    2    1    2    0  502  0.11234535123E+03 -0.23911363381E+03 -0.89190460566E+03  0.94632032680E+03  0.17387215849E+03 0.  0.
        -24    2    5    5    0    0  0.10990374150E+03 -0.93209753118E+02 -0.38434566038E+03  0.41818012117E+03  0.79913306919E+02 0.  0.
          5    1    3    3  501    0  0.33275430045E+02  0.19002138436E+02 -0.13034652415E+03  0.13594352455E+03  0.47000000000E+01 0. -1.
        -11    1    4    4    0    0 -0.85813693369E+01  0.31772877511E+02 -0.40939382626E+02  0.52527980114E+02  0.00000000000E+00 0.  1.
         12    1    4    4    0    0 -0.13703941193E+03  0.18833861786E+03 -0.72665437948E+03  0.76307130900E+03  0.00000000000E+00 0. -1.
         -5    1    5    5    0  502  0.24416097279E+01 -0.14590388069E+03 -0.50755894529E+03  0.52814020563E+03  0.47000000000E+01 0.  1.
         11    1    6    6    0    0  0.85818082430E+02 -0.30472358953E+02 -0.27649221931E+03  0.29110351298E+03  0.00000000000E+00 0. -1.
        -12    1    6    6    0    0  0.24085659068E+02 -0.62737394165E+02 -0.10785344107E+03  0.12707660819E+03  0.00000000000E+00 0.  1.
</event>
<event>
12    1  0.9962621E-001  0.1976542E+03  0.7818608E-02  0.1151972E+00
         21   -1    0    0  501  502  0.00000000000E+00  0.00000000000E+00  0.14430437236E+03  0.14430437236E+03  0.00000000000E+00 0.  1.
         21   -1    0    0  502  503 -0.00000000000E+00 -0.00000000000E+00 -0.28003232061E+03  0.28003232061E+03  0.00000000000E+00 0.  1.
         -6    2    1    2    0  503 -0.11162922356E+02 -0.97163714806E+02 -0.26338578908E+02  0.19940141132E+03  0.17176089132E+03 0.  0.
        -24    2    3    3    0    0 -0.53480745171E+02 -0.78259866784E+02  0.28863850416E+02  0.12716878849E+03  0.79711868947E+02 0.  0.
          6    2    1    2  501    0  0.11162922356E+02  0.97163714806E+02 -0.10938936934E+03  0.22493528166E+03  0.17048298595E+03 0.  0.
         24    2    5    5    0    0  0.27559759663E+02  0.61397764389E+02  0.67053599452E+01  0.10226443895E+03  0.76706113163E+02 0.  0.
          5    1    5    5  501    0 -0.16396837308E+02  0.35765950416E+02 -0.11609472929E+03  0.12267084271E+03  0.47000000000E+01 0. -1.
        -11    1    6    6    0    0  0.19550066166E+02 -0.78979129950E+01  0.22400992905E+02  0.30763397080E+02  0.00000000000E+00 0.  1.
         12    1    6    6    0    0  0.80096934972E+01  0.69295677384E+02 -0.15695632960E+02  0.71501041867E+02  0.00000000000E+00 0. -1.
         -5    1    3    3    0  503  0.42317822816E+02 -0.18903848022E+02 -0.55202429324E+02  0.72232622832E+02  0.47000000000E+01 0.  1.
         11    1    4    4    0    0 -0.11657309866E+02  0.14863086943E+02  0.15056001055E+02  0.24155483736E+02  0.00000000000E+00 0. -1.
        -12    1    4    4    0    0 -0.41823435305E+02 -0.93122953727E+02  0.13807849362E+02  0.10301330475E+03  0.00000000000E+00 0.  1.
</event>
<event>
12    1  0.9962621E-001  0.2340538E+03  0.7818608E-02  0.1125118E+00
         21   -1    0    0  501  502  0.00000000000E+00  0.00000000000E+00  0.10423620690E+03  0.10423620690E+03  0.00000000000E+00 0.  1.
         21   -1    0    0  502  503 -0.00000000000E+00 -0.00000000000E+00 -0.59873899522E+03  0.59873899522E+03  0.00000000000E+00 0.  1.
         -6    2    1    2    0  503  0.72031267586E+02 -0.14041831489E+03 -0.11458800368E+03  0.26059850280E+03  0.17284490854E+03 0.  0.
        -24    2    3    3    0    0  0.10758202697E+03 -0.11827486485E+03 -0.52839727721E+02  0.18583802891E+03  0.78618699944E+02 0.  0.
          6    2    1    2  501    0 -0.72031267586E+02  0.14041831489E+03 -0.37991478463E+03  0.44237669931E+03  0.16265329338E+03 0.  0.
         24    2    5    5    0    0  0.13110606170E+02  0.89743782026E+02 -0.26179332051E+03  0.28813073588E+03  0.79105903013E+02 0.  0.
          5    1    5    5  501    0 -0.85141873757E+02  0.50674532868E+02 -0.11812146412E+03  0.15424596343E+03  0.47000000000E+01 0. -1.
        -13    1    6    6    0    0 -0.24262863014E+02  0.11955198291E+02 -0.11233581068E+03  0.11554630089E+03  0.00000000000E+00 0.  1.
         14    1    6    6    0    0  0.37373469184E+02  0.77788583735E+02 -0.14945750982E+03  0.17258443499E+03  0.00000000000E+00 0. -1.
         -5    1    3    3    0  503 -0.35550759381E+02 -0.22143450042E+02 -0.61748275964E+02  0.74760473894E+02  0.47000000000E+01 0.  1.
         13    1    4    4    0    0  0.33667783941E+02 -0.37680193602E+02 -0.57291205796E+02  0.76391091935E+02  0.00000000000E+00 0. -1.
        -14    1    4    4    0    0  0.73914243026E+02 -0.80594671250E+02  0.44514780748E+01  0.10944693697E+03  0.00000000000E+00 0.  1.
</event>
<event>
12    1  0.9962621E-001  0.2091863E+03  0.7818608E-02  0.1142573E+00
         21   -1    0    0  501  502  0.00000000000E+00  0.00000000000E+00  0.37332957506E+03  0.37332957506E+03  0.00000000000E+00 0.  1.
         21   -1    0    0  502  503 -0.00000000000E+00 -0.00000000000E+00 -0.11746751494E+03  0.11746751494E+03  0.00000000000E+00 0.  1.
         -6    2    1    2    0  503 -0.10814588054E+03  0.42207214664E+02  0.15285490185E+03  0.25762466228E+03  0.17183964951E+03 0.  0.
        -24    2    3    3    0    0 -0.12039677965E+03  0.80554076054E+02  0.11132756326E+03  0.19959728806E+03  0.80379769469E+02 0.  0.
          6    2    1    2  501    0  0.10814588054E+03 -0.42207214664E+02  0.10300715826E+03  0.23317242772E+03  0.17401702775E+03 0.  0.
         24    2    5    5    0    0  0.56878816669E+02 -0.66288199748E+02  0.12577975071E+03  0.17194427531E+03  0.78198228330E+02 0.  0.
          5    1    5    5  501    0  0.51267063875E+02  0.24080985083E+02 -0.22772592441E+02  0.61228152409E+02  0.47000000000E+01 0. -1.
        -13    1    6    6    0    0 -0.16583501042E+02 -0.23546757366E+02  0.51787429637E+02  0.59257068420E+02  0.00000000000E+00 0.  1.
         14    1    6    6    0    0  0.73462317711E+02 -0.42741442381E+02  0.73992321068E+02  0.11268720689E+03  0.00000000000E+00 0. -1.
         -5    1    3    3    0  503  0.12250899111E+02 -0.38346861389E+02  0.41527338593E+02  0.58027374213E+02  0.47000000000E+01 0.  1.
         13    1    4    4    0    0 -0.18926139203E+02  0.23496480724E+02  0.69727732559E+02  0.75975259390E+02  0.00000000000E+00 0. -1.
        -14    1    4    4    0    0 -0.10147064045E+03  0.57057595330E+02  0.41599830702E+02  0.12362202867E+03  0.00000000000E+00 0.  1.
</event>
<event>
12    1  0.9962621E-001  0.3251978E+03  0.7818608E-02  0.1073412E+00
         21   -1    0    0  503  502  0.00000000000E+00  0.00000000000E+00  0.81131466579E+02  0.81131466579E+02  0.00000000000E+00 0.  1.
         21   -1    0    0  501  503 -0.00000000000E+00 -0.00000000000E+00 -0.12991028089E+04  0.12991028089E+04  0.00000000000E+00 0.  1.
          6    2    1    2  501    0  0.86091892493E+02 -0.26153071288E+03 -0.60063802129E+03  0.68302244274E+03  0.17304189358E+03 0.  0.
         24    2    3    3    0    0 -0.47862876109E+01 -0.55236315578E+02 -0.13622257271E+03  0.16676667196E+03  0.78616629633E+02 0.  0.
         -6    2    1    2    0  502 -0.86091892493E+02  0.26153071288E+03 -0.61733332100E+03  0.69721183271E+03  0.17086188199E+03 0.  0.
        -24    2    5    5    0    0 -0.21445539244E+02  0.69494872647E+02 -0.32891014557E+03  0.34469667977E+03  0.73105873301E+02 0.  0.
          5    1    3    3  501    0  0.90878180104E+02 -0.20629439730E+03 -0.46441544859E+03  0.51625577078E+03  0.47000000000E+01 0. -1.
        -13    1    4    4    0    0  0.61137575669E+01  0.18917404238E+02 -0.18182323849E+02  0.26941475743E+02  0.00000000000E+00 0.  1.
         14    1    4    4    0    0 -0.10900045178E+02 -0.74153719815E+02 -0.11804024886E+03  0.13982519622E+03  0.00000000000E+00 0. -1.
         -5    1    5    5    0  502 -0.64646353250E+02  0.19203584023E+03 -0.28842317543E+03  0.35251515293E+03  0.47000000000E+01 0.  1.
         11    1    6    6    0    0  0.16553831314E+02  0.38406987417E+02 -0.73104983468E+02  0.84222708467E+02  0.00000000000E+00 0. -1.
        -12    1    6    6    0    0 -0.37999370558E+02  0.31087885230E+02 -0.25580516210E+03  0.26047397131E+03  0.00000000000E+00 0.  1.
</event>
<event>
12    1  0.9962621E-001  0.2264166E+03  0.7818608E-02  0.1132805E+00
         21   -1    0    0  501  502  0.00000000000E+00  0.00000000000E+00  0.11718137131E+04  0.11718137131E+04  0.00000000000E+00 0. -1.
         21   -1    0    0  502  503 -0.00000000000E+00 -0.00000000000E+00 -0.54952828269E+02  0.54952828269E+02  0.00000000000E+00 0. -1.
         -6    2    1    2    0  503 -0.11381120746E+03  0.42683302260E+02  0.25798189649E+03  0.34324793742E+03  0.19102259655E+03 0.  0.
        -24    2    3    3    0    0 -0.51163000016E+02  0.69042412011E+02  0.24831907977E+03  0.27443616088E+03  0.79172809693E+02 0.  0.
          6    2    1    2  501    0  0.11381120746E+03 -0.42683302260E+02  0.85887898833E+03  0.88351860393E+03  0.16780092870E+03 0.  0.
         24    2    5    5    0    0  0.39312968867E+02  0.12521710440E+02  0.22928659992E+03  0.24711759316E+03  0.82416364822E+02 0.  0.
          5    1    5    5  501    0  0.74498238591E+02 -0.55205012700E+02  0.62959238841E+03  0.63640101078E+03  0.47000000000E+01 0. -1.
        -13    1    6    6    0    0  0.15227653252E+02 -0.19295006457E+02  0.14254768487E+02  0.28414382315E+02  0.00000000000E+00 0.  1.
         14    1    6    6    0    0  0.24085315615E+02  0.31816716897E+02  0.21503183143E+03  0.21870321084E+03  0.00000000000E+00 0. -1.
         -5    1    3    3    0  503 -0.62648207442E+02 -0.26359109751E+02  0.96628167118E+01  0.68811776531E+02  0.47000000000E+01 0.  1.
         11    1    4    4    0    0  0.19280134904E+02  0.15871542713E+02  0.30522154676E+02  0.39436422201E+02  0.00000000000E+00 0. -1.
        -12    1    4    4    0    0 -0.70443134919E+02  0.53170869298E+02  0.21779692510E+03  0.23499973868E+03  0.00000000000E+00 0.  1.
</event>
<event>
12    1  0.9962621E-001  0.1755914E+03  0.7818608E-02  0.1172142E+00
         21   -1    0    0  501  502  0.00000000000E+00  0.00000000000E+00  0.57626455020E+02  0.57626455020E+02  0.00000000000E+00 0.  1.
         21   -1    0    0  502  503 -0.00000000000E+00 -0.00000000000E+00 -0.75820807182E+03  0.75820807182E+03  0.00000000000E+00 0.  1.
         -6    2    1    2    0  503 -0.52479729721E+01 -0.36189320094E+02 -0.12897420665E+03  0.21786849812E+03  0.17174145796E+03 0.  0.
        -24    2    3    3    0    0  0.27055977809E+01  0.19283228677E+02 -0.13792501212E+03  0.16092405261E+03  0.80585845988E+02 0.  0.
          6    2    1    2  501    0  0.52479729721E+01  0.36189320094E+02 -0.57160741015E+03  0.59796602872E+03  0.17172982286E+03 0.  0.
         24    2    5    5    0    0 -0.54451191368E+02  0.14459815581E+02 -0.45353292099E+03  0.46380255911E+03  0.79035972210E+02 0.  0.
          5    1    5    5  501    0  0.59699164340E+02  0.21729504513E+02 -0.11807448916E+03  0.13416346962E+03  0.47000000000E+01 0. -1.
        -13    1    6    6    0    0  0.19395800522E+02  0.10790394780E+02 -0.79980895858E+02  0.83003454142E+02  0.00000000000E+00 0.  1.
         14    1    6    6    0    0 -0.73846991890E+02  0.36694208006E+01 -0.37355202513E+03  0.38079910496E+03  0.00000000000E+00 0. -1.
         -5    1    3    3    0  503 -0.79535707529E+01 -0.55472548771E+02  0.89508054731E+01  0.56944445502E+02  0.47000000000E+01 0.  1.
         13    1    4    4    0    0  0.36651347437E+02 -0.82008187539E+01 -0.80000961555E+02  0.88378326228E+02  0.00000000000E+00 0. -1.
        -14    1    4    4    0    0 -0.33945749656E+02  0.27484047431E+02 -0.57924050565E+02  0.72545726386E+02  0.00000000000E+00 0.  1.
</event>
<event>
12    1  0.9962621E-001  0.1908644E+03  0.7818608E-02  0.1157766E+00
         21   -1    0    0  501  502  0.00000000000E+00  0.00000000000E+00  0.61811172867E+02  0.61811172867E+02  0.00000000000E+00 0. -1.
         21   -1    0    0  502  503 -0.00000000000E+00 -0.00000000000E+00 -0.59335163633E+03  0.59335163633E+03  0.00000000000E+00 0. -1.
         -6    2    1    2    0  503  0.79897468412E+02  0.86669624097E+01 -0.29592754930E+03  0.35194232286E+03  0.17271815912E+03 0.  0.
        -24    2    3    3    0    0  0.16901355261E+02  0.60356474995E+02 -0.22653060105E+03  0.24480529653E+03  0.68446768492E+02 0.  0.
          6    2    1    2  501    0 -0.79897468412E+02 -0.86669624097E+01 -0.23561291416E+03  0.30322048633E+03  0.17311989001E+03 0.  0.
         24    2    5    5    0    0 -0.17084951401E+02 -0.38075992656E+02 -0.21225005683E+03  0.22988416207E+03  0.77813652836E+02 0.  0.
          5    1    5    5  501    0 -0.62812517011E+02  0.29409030246E+02 -0.23362857329E+02  0.73336324259E+02  0.47000000000E+01 0. -1.
        -11    1    6    6    0    0 -0.44363888792E+02 -0.37632706878E+02 -0.16915298448E+03  0.17887735300E+03  0.00000000000E+00 0.  1.
         12    1    6    6    0    0  0.27278937391E+02 -0.44328577759E+00 -0.43097072346E+02  0.51006809077E+02  0.00000000000E+00 0. -1.
         -5    1    3    3    0  503  0.62996113151E+02 -0.51689512585E+02 -0.69396948259E+02  0.10713702633E+03  0.47000000000E+01 0.  1.
         13    1    4    4    0    0  0.18193616899E+01  0.28591748091E+02 -0.19645869760E+03  0.19853669182E+03  0.00000000000E+00 0. -1.
        -14    1    4    4    0    0  0.15081993571E+02  0.31764726904E+02 -0.30071903447E+02  0.46268604715E+02  0.00000000000E+00 0.  1.
</event>
<event>
12    1  0.9962621E-001  0.2012725E+03  0.7818608E-02  0.1148907E+00
         21   -1    0    0  503  502  0.00000000000E+00  0.00000000000E+00  0.79280542907E+03  0.79280542907E+03  0.00000000000E+00 0. -1.
         21   -1    0    0  501  503 -0.00000000000E+00 -0.00000000000E+00 -0.66600189950E+02  0.66600189950E+02  0.00000000000E+00 0. -1.
          6    2    1    2  501    0 -0.35360528954E+02  0.98079666561E+02  0.57310272781E+03  0.60741861445E+03  0.17216459730E+03 0.  0.
         24    2    3    3    0    0  0.46164978088E+02  0.65017899036E+02  0.33964214410E+03  0.35788820966E+03  0.79803835557E+02 0.  0.
         -6    2    1    2    0  502  0.35360528954E+02 -0.98079666561E+02  0.15310251131E+03  0.25198700456E+03  0.17084227667E+03 0.  0.
        -24    2    5    5    0    0  0.73784653152E+02 -0.11465381937E+03  0.12460100611E+03  0.20113878276E+03  0.79634953819E+02 0.  0.
          5    1    3    3  501    0 -0.81525507042E+02  0.33061767525E+02  0.23346058371E+03  0.24953040479E+03  0.47000000000E+01 0. -1.
        -13    1    4    4    0    0  0.23174158671E+02  0.81076308153E+02  0.24039743209E+03  0.25475740368E+03  0.00000000000E+00 0.  1.
         14    1    4    4    0    0  0.22990819416E+02 -0.16058409117E+02  0.99244712009E+02  0.10313080598E+03  0.00000000000E+00 0. -1.
         -5    1    5    5    0  502 -0.38424124197E+02  0.16574152812E+02  0.28501505197E+02  0.50848221800E+02  0.47000000000E+01 0.  1.
         13    1    6    6    0    0  0.55338023416E+02 -0.30448661170E+02  0.21436660912E+02  0.66700436533E+02  0.00000000000E+00 0. -1.
        -14    1    6    6    0    0  0.18446629736E+02 -0.84205158203E+02  0.10316434520E+03  0.13443834623E+03  0.00000000000E+00 0.  1.
</event>
<event>
12    1  0.9962621E-001  0.2870045E+03  0.7818608E-02  0.1092555E+00
         21   -1    0    0  503  502  0.00000000000E+00  0.00000000000E+00  0.28439349745E+03  0.28439349745E+03  0.00000000000E+00 0.  1.
         21   -1    0    0  501  503 -0.00000000000E+00 -0.00000000000E+00 -0.37238412173E+03  0.37238412173E+03  0.00000000000E+00 0. -1.
          6    2    1    2  501    0  0.12747807488E+03 -0.18633052479E+03  0.11490277312E+03  0.30915077873E+03  0.17720562259E+03 0.  0.
         24    2    3    3    0    0  0.13832477054E+03 -0.18963866606E+03  0.62962330651E+02  0.25577949273E+03  0.79764202557E+02 0.  0.
         -6    2    1    2    0  502 -0.12747807488E+03  0.18633052479E+03 -0.20289339740E+03  0.34762684046E+03  0.16943720209E+03 0.  0.
        -24    2    5    5    0    0 -0.72779969785E+02  0.18494882758E+03 -0.13517663592E+03  0.26044059399E+03  0.10026757837E+03 0.  0.
          5    1    3    3  501    0 -0.10846695660E+02  0.33081412716E+01  0.51940442472E+02  0.53371286003E+02  0.47000000000E+01 0. -1.
        -11    1    4    4    0    0  0.25840309560E+02 -0.98202216701E+02  0.12617305401E+02  0.10232591734E+03  0.00000000000E+00 0.  1.
         12    1    4    4    0    0  0.11248446098E+03 -0.91436449359E+02  0.50345025250E+02  0.15345357539E+03  0.00000000000E+00 0. -1.
         -5    1    5    5    0  502 -0.54698105093E+02  0.13816972104E+01 -0.67716761478E+02  0.87186246468E+02  0.47000000000E+01 0.  1.
         13    1    6    6    0    0  0.15639697965E+02  0.96924252925E+01 -0.36186047803E+02  0.40595237603E+02  0.00000000000E+00 0. -1.
        -14    1    6    6    0    0 -0.88419667750E+02  0.17525640229E+03 -0.98990588120E+02  0.21984535638E+03  0.00000000000E+00 0.  1.
</event>
<event>
12    1  0.9962621E-001  0.4050547E+03  0.7818608E-02  0.1042528E+00
         21   -1    0    0  503  502  0.00000000000E+00  0.00000000000E+00  0.22531307379E+03  0.22531307379E+03  0.00000000000E+00 0.  1.
         21   -1    0    0  501  503 -0.00000000000E+00 -0.00000000000E+00 -0.71908543726E+03  0.71908543726E+03  0.00000000000E+00 0.  1.
          6    2    1    2  501    0  0.35963087736E+03  0.70698990362E+02 -0.23081501424E+03  0.46620265057E+03  0.17244310777E+03 0.  0.
         24    2    3    3    0    0  0.21680216007E+03  0.97664714465E+02 -0.19131935754E+03  0.31550696498E+03  0.79999845731E+02 0.  0.
         -6    2    1    2    0  502 -0.35963087736E+03 -0.70698990362E+02 -0.26295734923E+03  0.47819586048E+03  0.15871987361E+03 0.  0.
        -24    2    5    5    0    0 -0.34912539124E+03 -0.85232390921E+02 -0.21378173060E+03  0.42564192211E+03  0.79468976667E+02 0.  0.
          5    1    3    3  501    0  0.14282871729E+03 -0.26965724103E+02 -0.39495656696E+02  0.15069568560E+03  0.47000000000E+01 0. -1.
        -13    1    4    4    0    0  0.62961242291E+02 -0.73796221941E+00 -0.79337918439E+02  0.10128755067E+03  0.00000000000E+00 0.  1.
         14    1    4    4    0    0  0.15384091777E+03  0.98402676685E+02 -0.11198143910E+03  0.21421941430E+03  0.00000000000E+00 0. -1.
         -5    1    5    5    0  502 -0.10505486119E+02  0.14533400559E+02 -0.49175618626E+02  0.52553938364E+02  0.47000000000E+01 0.  1.
         13    1    6    6    0    0 -0.12828545179E+03  0.72617158230E+01 -0.80326035140E+02  0.15153270795E+03  0.00000000000E+00 0. -1.
        -14    1    6    6    0    0 -0.22083993945E+03 -0.92494106744E+02 -0.13345569546E+03  0.27410921416E+03  0.00000000000E+00 0.  1.
</event>
<event>
12    1  0.9962621E-001  0.2099395E+03  0.7818608E-02  0.1141723E+00
         21   -1    0    0  501  502  0.00000000000E+00  0.00000000000E+00  0.65125408547E+02  0.65125408547E+02  0.00000000000E+00 0.  1.
         21   -1    0    0  502  503 -0.00000000000E+00 -0.00000000000E+00 -0.74430481478E+03  0.74430481478E+03  0.00000000000E+00 0.  1.
         -6    2    1    2    0  503 -0.98664340985E+02  0.66676668847E+02 -0.21648664323E+03  0.30156433514E+03  0.17289925153E+03 0.  0.
        -24    2    3    3    0    0 -0.10146233989E+03  0.46752721686E+02 -0.71380501442E+02  0.15499464232E+03  0.80297819149E+02 0.  0.
          6    2    1    2  501    0  0.98664340985E+02 -0.66676668847E+02 -0.46269276301E+03  0.50786588819E+03  0.17222873483E+03 0.  0.
         24    2    5    5    0    0  0.26855358811E+02  0.26117437899E+02 -0.17184380798E+03  0.19420607118E+03  0.82355163062E+02 0.  0.
          5    1    5    5  501    0  0.71808982174E+02 -0.92794106746E+02 -0.29084895502E+03  0.31365981701E+03  0.47000000000E+01 0. -1.
        -11    1    6    6    0    0  0.41846400298E+02  0.47067241439E+02 -0.13783612300E+03  0.15154287591E+03  0.00000000000E+00 0.  1.
         12    1    6    6    0    0 -0.14991041487E+02 -0.20949803540E+02 -0.34007684982E+02  0.42663195275E+02  0.00000000000E+00 0. -1.
         -5    1    3    3    0  503  0.27979989089E+01  0.19923947161E+02 -0.14510614179E+03  0.14656969282E+03  0.47000000000E+01 0.  1.
         13    1    4    4    0    0 -0.48078921975E+02  0.18030229530E+02  0.11197158809E+02  0.52555192708E+02  0.00000000000E+00 0. -1.
        -14    1    4    4    0    0 -0.53383417919E+02  0.28722492156E+02 -0.82577660251E+02  0.10243944961E+03  0.00000000000E+00 0.  1.
</event>
<event>
12    1  0.9962621E-001  0.3181231E+03  0.7818608E-02  0.1076759E+00
         21   -1    0    0  501  502  0.00000000000E+00  0.00000000000E+00  0.27772061881E+03  0.27772061881E+03  0.00000000000E+00 0.  1.
         21   -1    0    0  502  503 -0.00000000000E+00 -0.00000000000E+00 -0.37629810352E+03  0.37629810352E+03  0.00000000000E+00 0.  1.
         -6    2    1    2    0  503 -0.25302468001E+03  0.78434549418E+02 -0.11283814115E+03  0.33557618827E+03  0.17235273367E+03 0.  0.
        -24    2    3    3    0    0 -0.17956663118E+03  0.10931418591E+03 -0.13071438703E+03  0.25377590066E+03  0.55876564879E+02 0.  0.
          6    2    1    2  501    0  0.25302468001E+03 -0.78434549418E+02  0.14260656443E+02  0.31844253406E+03  0.17614997570E+03 0.  0.
         24    2    5    5    0    0  0.12551539755E+03  0.20700651414E+02 -0.26723393062E+02  0.15174464124E+03  0.78292173408E+02 0.  0.
          5    1    5    5  501    0  0.12750928246E+03 -0.99135200832E+02  0.40984049505E+02  0.16669789282E+03  0.47000000000E+01 0. -1.
        -13    1    6    6    0    0  0.28570269768E+02  0.13651325344E+02  0.26174507597E+02  0.41081916292E+02  0.00000000000E+00 0.  1.
         14    1    6    6    0    0  0.96945127782E+02  0.70493260700E+01 -0.52897900658E+02  0.11066272495E+03  0.00000000000E+00 0. -1.
         -5    1    3    3    0  503 -0.73458048822E+02 -0.30879636491E+02  0.17876245885E+02  0.81800287613E+02  0.47000000000E+01 0.  1.
         11    1    4    4    0    0 -0.15707124989E+03  0.86468424977E+02 -0.86270808239E+02  0.19897441648E+03  0.00000000000E+00 0. -1.
        -12    1    4    4    0    0 -0.22495381292E+02  0.22845760932E+02 -0.44443578792E+02  0.54801484176E+02  0.00000000000E+00 0.  1.
</event>
<event>
12    1  0.9962621E-001  0.2200096E+03  0.7818608E-02  0.1134050E+00
         21   -1    0    0  501  502  0.00000000000E+00  0.00000000000E+00  0.47710767511E+03  0.47710767511E+03  0.00000000000E+00 0.  1.
         21   -1    0    0  502  503 -0.00000000000E+00 -0.00000000000E+00 -0.10325110849E+03  0.10325110849E+03  0.00000000000E+00 0.  1.
         -6    2    1    2    0  503  0.58084451349E+02 -0.12446808761E+03  0.14391278274E+03  0.26211617701E+03  0.17066895703E+03 0.  0.
        -24    2    3    3    0    0  0.65613902634E+01  0.48332846406E+01  0.52292770293E+02  0.95413485463E+02  0.79390093215E+02 0.  0.
          6    2    1    2  501    0 -0.58084451349E+02  0.12446808761E+03  0.22994378388E+03  0.31824260659E+03  0.17186653131E+03 0.  0.
         24    2    5    5    0    0 -0.47859119307E+02  0.14960012313E+03  0.23130529424E+03  0.29067232666E+03  0.79483144172E+02 0.  0.
          5    1    5    5  501    0 -0.10225332042E+02 -0.25132035520E+02 -0.13615103594E+01  0.27570279926E+02  0.47000000000E+01 0. -1.
        -11    1    6    6    0    0 -0.18043139618E+02  0.91887395940E+02  0.70413948021E+02  0.11716216324E+03  0.00000000000E+00 0.  1.
         12    1    6    6    0    0 -0.29815979688E+02  0.57712727186E+02  0.16089134621E+03  0.17351016342E+03  0.00000000000E+00 0. -1.
         -5    1    3    3    0  503  0.51523061085E+02 -0.12930137225E+03  0.91620012450E+02  0.16670269155E+03  0.47000000000E+01 0.  1.
         13    1    4    4    0    0  0.38209919544E+02 -0.11834489887E+02  0.12502110845E+02  0.41908899747E+02  0.00000000000E+00 0. -1.
        -14    1    4    4    0    0 -0.31648529281E+02  0.16667774528E+02  0.39790659448E+02  0.53504585716E+02  0.00000000000E+00 0.  1.
</event>
<event>
12    1  0.9962621E-001  0.1894390E+03  0.7818608E-02  0.1159436E+00
         21   -1    0    0  501  502  0.00000000000E+00  0.00000000000E+00  0.69915684816E+02  0.69915684816E+02  0.00000000000E+00 0. -1.
         21   -1    0    0  502  503 -0.00000000000E+00 -0.00000000000E+00 -0.61553101209E+03  0.61553101209E+03  0.00000000000E+00 0. -1.
         -6    2    1    2    0  503  0.26841811975E+02  0.67579402717E+02 -0.12816464767E+03  0.22702308762E+03  0.17270161220E+03 0.  0.
        -24    2    3    3    0    0  0.34560394967E+02 -0.27312424845E+01 -0.13088175181E+03  0.15608201343E+03  0.77651023010E+02 0.  0.
          6    2    1    2  501    0 -0.26841811975E+02 -0.67579402717E+02 -0.41745067960E+03  0.45842360928E+03  0.17492763393E+03 0.  0.
         24    2    5    5    0    0 -0.53636218881E+02 -0.16746759087E+02 -0.37322467507E+03  0.38576050051E+03  0.79732099931E+02 0.  0.
          5    1    5    5  501    0  0.26794406906E+02 -0.50832643630E+02 -0.44226004525E+02  0.72663108770E+02  0.47000000000E+01 0. -1.
        -11    1    6    6    0    0  0.30008215499E+01 -0.35463638413E+02 -0.18204235843E+03  0.18548879978E+03  0.00000000000E+00 0.  1.
         12    1    6    6    0    0 -0.56637040431E+02  0.18716879327E+02 -0.19118231664E+03  0.20027170074E+03  0.00000000000E+00 0. -1.
         -5    1    3    3    0  503 -0.77185829922E+01  0.70310645201E+02  0.27171041325E+01  0.70941074188E+02  0.47000000000E+01 0.  1.
         13    1    4    4    0    0  0.51477993241E+02 -0.24854116964E+02 -0.86229909947E+02  0.10345679430E+03  0.00000000000E+00 0. -1.
        -14    1    4    4    0    0 -0.16917598273E+02  0.22122874480E+02 -0.44651841859E+02  0.52625219125E+02  0.00000000000E+00 0.  1.
</event>
<event>
12    1  0.9962621E-001  0.1794737E+03  0.7818608E-02  0.1168912E+00
         21   -1    0    0  501  502  0.00000000000E+00  0.00000000000E+00  0.37241587672E+03  0.37241587672E+03  0.00000000000E+00 0.  1.
         21   -1    0    0  502  503 -0.00000000000E+00 -0.00000000000E+00 -0.11131244773E+03  0.11131244773E+03  0.00000000000E+00 0.  1.
         -6    2    1    2    0  503  0.32427327521E+02  0.41681539890E+02  0.24812051908E+03  0.30622636221E+03  0.17152816265E+03 0.  0.
        -24    2    3    3    0    0  0.61130700001E+02 -0.24735590496E+02  0.17611800484E+03  0.20404235730E+03  0.79163880823E+02 0.  0.
          6    2    1    2  501    0 -0.32427327521E+02 -0.41681539890E+02  0.12982909903E+02  0.17750196224E+03  0.16896599750E+03 0.  0.
         24    2    5    5    0    0 -0.25424717843E+02 -0.37565473015E+02  0.72998742670E+02  0.11675684942E+03  0.79030148766E+02 0.  0.
          5    1    5    5  501    0 -0.70026096786E+01 -0.41160668742E+01 -0.60015832768E+02  0.60745112821E+02  0.47000000000E+01 0. -1.
        -13    1    6    6    0    0  0.16712230892E+02 -0.43355178818E+02  0.25514950552E+02  0.53009271768E+02  0.00000000000E+00 0.  1.
         14    1    6    6    0    0 -0.42136948735E+02  0.57897058031E+01  0.47483792119E+02  0.63747577648E+02  0.00000000000E+00 0. -1.
         -5    1    3    3    0  503 -0.28703372480E+02  0.66417130385E+02  0.72002514249E+02  0.10218400491E+03  0.47000000000E+01 0.  1.
         11    1    4    4    0    0  0.29779053786E+02 -0.52797747872E+02  0.95710915454E+02  0.11329154232E+03  0.00000000000E+00 0. -1.
        -12    1    4    4    0    0  0.31351646215E+02  0.28062157376E+02  0.80407089382E+02  0.90750814981E+02  0.00000000000E+00 0.  1.
</event>
<event>
12    1  0.9962621E-001  0.2241195E+03  0.7818608E-02  0.1131387E+00
         21   -1    0    0  503  502  0.00000000000E+00  0.00000000000E+00  0.28675505826E+03  0.28675505826E+03  0.00000000000E+00 0.  1.
         21   -1    0    0  501  503 -0.00000000000E+00 -0.00000000000E+00 -0.33716332553E+03  0.33716332553E+03  0.00000000000E+00 0.  1.
          6    2    1    2  501    0  0.13788625667E+03  0.25052586095E+02  0.19246937401E+03  0.29542177221E+03  0.17489800375E+03 0.  0.
         24    2    3    3    0    0 -0.34622988304E+01  0.71100353248E+00  0.73229102354E+02  0.10884133603E+03  0.80445273055E+02 0.  0.
         -6    2    1    2    0  502 -0.13788625667E+03 -0.25052586095E+02 -0.24287764128E+03  0.32849661158E+03  0.17111464969E+03 0.  0.
        -24    2    5    5    0    0 -0.97074971459E+02 -0.53662549754E+02 -0.80689984308E+02  0.15875852777E+03  0.79938584190E+02 0.  0.
          5    1    3    3  501    0  0.14134855550E+03  0.24341582562E+02  0.11924027166E+03  0.18658043619E+03  0.47000000000E+01 0. -1.
        -13    1    4    4    0    0 -0.38952558753E+02  0.14611124540E+02  0.45852775487E+02  0.61913357312E+02  0.00000000000E+00 0.  1.
         14    1    4    4    0    0  0.35490259923E+02 -0.13900121008E+02  0.27376326867E+02  0.46927978714E+02  0.00000000000E+00 0. -1.
         -5    1    5    5    0  502 -0.40811285207E+02  0.28609963659E+02 -0.16218765697E+03  0.16973808381E+03  0.47000000000E+01 0.  1.
         13    1    6    6    0    0 -0.34508263322E+02  0.19349416879E+02 -0.15009963538E+02  0.42314526778E+02  0.00000000000E+00 0. -1.
        -14    1    6    6    0    0 -0.62566708137E+02 -0.73011966633E+02 -0.65680020770E+02  0.11644400099E+03  0.00000000000E+00 0.  1.
</event>
<event>
12    1  0.9962621E-001  0.1941834E+03  0.7818608E-02  0.1154948E+00
         21   -1    0    0  501  502  0.00000000000E+00  0.00000000000E+00  0.45936134343E+03  0.45936134343E+03  0.00000000000E+00 0. -1.
         21   -1    0    0  502  503 -0.00000000000E+00 -0.00000000000E+00 -0.10491343683E+03  0.10491343683E+03  0.00000000000E+00 0. -1.
         -6    2    1    2    0  503 -0.15084111493E+02 -0.87035385665E+02  0.44144793739E+02  0.19822123572E+03  0.17187264675E+03 0.  0.
        -24    2    3    3    0    0 -0.13764752769E+02  0.11575561588E+02  0.57844894976E+02  0.98543543135E+02  0.77726031508E+02 0.  0.
          6    2    1    2  501    0  0.15084111493E+02  0.87035385665E+02  0.31030311287E+03  0.36605354454E+03  0.17292913819E+03 0.  0.
         24    2    5    5    0    0  0.30665110818E+02 -0.72226888486E-01  0.23888294853E+03  0.25224039249E+03  0.74965313747E+02 0.  0.
          5    1    5    5  501    0 -0.15580999325E+02  0.87107612554E+02  0.71420164335E+02  0.11381315205E+03  0.47000000000E+01 0. -1.
        -11    1    6    6    0    0  0.52824502642E+02  0.22119551022E+00  0.11718431644E+03  0.12854042565E+03  0.00000000000E+00 0.  1.
         12    1    6    6    0    0 -0.22159391824E+02 -0.29342239871E+00  0.12169863210E+03  0.12369996684E+03  0.00000000000E+00 0. -1.
         -5    1    3    3    0  503 -0.13193587237E+01 -0.98610947254E+02 -0.13700101237E+02  0.99677692588E+02  0.47000000000E+01 0.  1.
         13    1    4    4    0    0  0.12245143696E+02 -0.29040752706E+02  0.21497169650E+02  0.38150192199E+02  0.00000000000E+00 0. -1.
        -14    1    4    4    0    0 -0.26009896465E+02  0.40616314294E+02  0.36347725326E+02  0.60393350936E+02  0.00000000000E+00 0.  1.
</event>
<event>
12    1  0.9962621E-001  0.1899422E+03  0.7818608E-02  0.1158900E+00
         21   -1    0    0  503  502  0.00000000000E+00  0.00000000000E+00  0.69199895034E+02  0.69199895034E+02  0.00000000000E+00 0. -1.
         21   -1    0    0  501  503 -0.00000000000E+00 -0.00000000000E+00 -0.54626341549E+03  0.54626341549E+03  0.00000000000E+00 0. -1.
          6    2    1    2  501    0  0.78702468901E+02 -0.52507747139E+01 -0.30910999283E+03  0.36191564664E+03  0.17091605650E+03 0.  0.
         24    2    3    3    0    0  0.12042264529E+03 -0.96447610827E+01 -0.24171935125E+03  0.28239540515E+03  0.82001738793E+02 0.  0.
         -6    2    1    2    0  502 -0.78702468901E+02  0.52507747139E+01 -0.16795352762E+03  0.25354766388E+03  0.17278999153E+03 0.  0.
        -24    2    5    5    0    0  0.11062912855E+02 -0.33609393957E+02 -0.10153582883E+03  0.13522041772E+03  0.81994252417E+02 0.  0.
          5    1    3    3  501    0 -0.41720176391E+02  0.43939863687E+01 -0.67390641580E+02  0.79520241491E+02  0.47000000000E+01 0. -1.
        -13    1    4    4    0    0  0.46145373128E+02  0.15073271694E+02 -0.30984050213E+02  0.57590019520E+02  0.00000000000E+00 0.  1.
         14    1    4    4    0    0  0.74277272163E+02 -0.24718032777E+02 -0.21073530104E+03  0.22480538563E+03  0.00000000000E+00 0. -1.
         -5    1    5    5    0  502 -0.89765381756E+02  0.38860168671E+02 -0.66417698790E+02  0.11832724616E+03  0.47000000000E+01 0.  1.
         13    1    6    6    0    0  0.90895307399E+00 -0.52000548927E+02 -0.28671458390E+02  0.59388010664E+02  0.00000000000E+00 0. -1.
        -14    1    6    6    0    0  0.10153959781E+02  0.18391154971E+02 -0.72864370439E+02  0.75832407056E+02  0.00000000000E+00 0.  1.
</event>
<event>
12    1  0.9962621E-001  0.1909906E+03  0.7818608E-02  0.1157728E+00
         21   -1    0    0  503  502  0.00000000000E+00  0.00000000000E+00  0.76371783987E+02  0.76371783987E+02  0.00000000000E+00 0.  1.
         21   -1    0    0  501  503 -0.00000000000E+00 -0.00000000000E+00 -0.47672877839E+03  0.47672877839E+03  0.00000000000E+00 0.  1.
          6    2    1    2  501    0  0.17955439429E+02  0.80024445546E+02 -0.21147767682E+03  0.28448780048E+03  0.17170961282E+03 0.  0.
         24    2    3    3    0    0 -0.11528223990E+02  0.87522214583E+02 -0.66982835272E+02  0.13675035707E+03  0.80130655461E+02 0.  0.
         -6    2    1    2    0  502 -0.17955439429E+02 -0.80024445546E+02 -0.18887931758E+03  0.26861276190E+03  0.17248509952E+03 0.  0.
        -24    2    5    5    0    0  0.46985305280E+02 -0.87529315588E+02 -0.14109635245E+03  0.18750218827E+03  0.73347732967E+02 0.  0.
          5    1    3    3  501    0  0.29483663419E+02 -0.74977690362E+01 -0.14449484155E+03  0.14773744341E+03  0.47000000000E+01 0. -1.
        -13    1    4    4    0    0  0.12416504577E+02  0.88782880437E+02 -0.33791821762E+02  0.95804262236E+02  0.00000000000E+00 0.  1.
         14    1    4    4    0    0 -0.23944728567E+02 -0.12606658545E+01 -0.33191013510E+02  0.40946094837E+02  0.00000000000E+00 0. -1.
         -5    1    5    5    0  502 -0.64940744710E+02  0.75048700419E+01 -0.47782965123E+02  0.81110573625E+02  0.47000000000E+01 0.  1.
         13    1    6    6    0    0  0.22154659134E+02 -0.27295337326E+01 -0.16049890510E+01  0.22379795924E+02  0.00000000000E+00 0. -1.
        -14    1    6    6    0    0  0.24830646146E+02 -0.84799781856E+02 -0.13949136340E+03  0.16512239235E+03  0.00000000000E+00 0.  1.
</event>
<event>
12    1  0.9962621E-001  0.3639274E+03  0.7818608E-02  0.1057071E+00
         21   -1    0    0  501  502  0.00000000000E+00  0.00000000000E+00  0.11395236275E+03  0.11395236275E+03  0.00000000000E+00 0.  1.
         21   -1    0    0  502  503 -0.00000000000E+00 -0.00000000000E+00 -0.18197830325E+04  0.18197830325E+04  0.00000000000E+00 0. -1.
         -6    2    1    2    0  503  0.16675708782E+03 -0.27401220564E+03 -0.14347987693E+04  0.14802333181E+04  0.17190855788E+03 0.  0.
        -24    2    3    3    0    0  0.19436389261E+03 -0.23357644508E+03 -0.12685840540E+04  0.13068937439E+04  0.79564295822E+02 0.  0.
          6    2    1    2  501    0 -0.16675708782E+03  0.27401220564E+03 -0.27103190041E+03  0.45350207716E+03  0.17121690272E+03 0.  0.
         24    2    5    5    0    0 -0.13597773433E+03  0.15961817757E+03 -0.24526977946E+03  0.33217961784E+03  0.78855100991E+02 0.  0.
          5    1    5    5  501    0 -0.30779353488E+02  0.11439402807E+03 -0.25762120948E+02  0.12132245932E+03  0.47000000000E+01 0. -1.
        -13    1    6    6    0    0 -0.15255476056E+02  0.41815037749E+02 -0.10042714038E+03  0.10984915775E+03  0.00000000000E+00 0.  1.
         14    1    6    6    0    0 -0.12072225828E+03  0.11780313982E+03 -0.14484263907E+03  0.22233046010E+03  0.00000000000E+00 0. -1.
         -5    1    3    3    0  503 -0.27606804788E+02 -0.40435760554E+02 -0.16621471527E+03  0.17333957418E+03  0.47000000000E+01 0.  1.
         13    1    4    4    0    0  0.10125737505E+03 -0.16727380536E+03 -0.69230429849E+03  0.71938781173E+03  0.00000000000E+00 0. -1.
        -14    1    4    4    0    0  0.93106517559E+02 -0.66302639719E+02 -0.57627975556E+03  0.58750593215E+03  0.00000000000E+00 0.  1.
</event>
<event>
12    1  0.9962621E-001  0.1860254E+03  0.7818608E-02  0.1162151E+00
         21   -1    0    0  501  502  0.00000000000E+00  0.00000000000E+00  0.22271234989E+03  0.22271234989E+03  0.00000000000E+00 0.  1.
         21   -1    0    0  502  503 -0.00000000000E+00 -0.00000000000E+00 -0.28180602549E+03  0.28180602549E+03  0.00000000000E+00 0.  1.
         -6    2    1    2    0  503  0.51350995499E+02 -0.48932207799E+02  0.13955822999E+03  0.23236392028E+03  0.17171256853E+03 0.  0.
        -24    2    3    3    0    0 -0.95692503342E+01  0.41551459104E+01  0.12872196869E+03  0.15069961942E+03  0.77667202096E+02 0.  0.
          6    2    1    2  501    0 -0.51350995499E+02  0.48932207799E+02 -0.19865190559E+03  0.27215445509E+03  0.17197145732E+03 0.  0.
         24    2    5    5    0    0 -0.16641496297E+02  0.92142089515E+02 -0.98318221216E+02  0.15743400603E+03  0.79698742601E+02 0.  0.
          5    1    5    5  501    0 -0.34709499202E+02 -0.43209881715E+02 -0.10033368438E+03  0.11472044906E+03  0.47000000000E+01 0. -1.
        -13    1    6    6    0    0  0.15047143704E+02  0.22728561353E+02  0.62694139467E+01  0.27969797748E+02  0.00000000000E+00 0.  1.
         14    1    6    6    0    0 -0.31688640001E+02  0.69413528162E+02 -0.10458763516E+03  0.12946420828E+03  0.00000000000E+00 0. -1.
         -5    1    3    3    0  503  0.60920245833E+02 -0.53087353710E+02  0.10836261306E+02  0.81664300863E+02  0.47000000000E+01 0.  1.
         13    1    4    4    0    0  0.22764715233E+02  0.29277648671E+02  0.68119603867E+02  0.77560901248E+02  0.00000000000E+00 0. -1.
        -14    1    4    4    0    0 -0.32333965567E+02 -0.25122502761E+02  0.60602364820E+02  0.73138718173E+02  0.00000000000E+00 0.  1.
</event>
<event>
12    1  0.9962621E-001  0.3164775E+03  0.7818608E-02  0.1077523E+00
         21   -1    0    0  501  502  0.00000000000E+00  0.00000000000E+00  0.50894521511E+03  0.50894521511E+03  0.00000000000E+00 0. -1.
         21   -1    0    0  502  503 -0.00000000000E+00 -0.00000000000E+00 -0.28074636959E+03  0.28074636959E+03  0.00000000000E+00 0. -1.
         -6    2    1    2    0  503 -0.17756140879E+03 -0.19844024245E+03  0.33139290171E+03  0.45681469543E+03  0.16718799881E+03 0.  0.
        -24    2    3    3    0    0 -0.47806583975E+02 -0.86271207995E+02  0.21238436052E+03  0.24800059215E+03  0.81663861745E+02 0.  0.
          6    2    1    2  501    0  0.17756140879E+03  0.19844024245E+03 -0.10319405618E+03  0.33287688927E+03  0.17103048403E+03 0.  0.
         24    2    5    5    0    0  0.15084700138E+03  0.16451021373E+03 -0.14091111589E+03  0.27534800083E+03  0.78371874659E+02 0.  0.
          5    1    5    5  501    0  0.26714407410E+02  0.33930028718E+02  0.37717059703E+02  0.57528888436E+02  0.47000000000E+01 0. -1.
        -11    1    6    6    0    0  0.11891581350E+03  0.16557443471E+03 -0.11392283990E+03  0.23352575357E+03  0.00000000000E+00 0.  1.
         12    1    6    6    0    0  0.31931187875E+02 -0.10642209803E+01 -0.26988275989E+02  0.41822247265E+02  0.00000000000E+00 0. -1.
         -5    1    3    3    0  503 -0.12975482481E+03 -0.11216903445E+03  0.11900854119E+03  0.20881410328E+03  0.47000000000E+01 0.  1.
         13    1    4    4    0    0 -0.19667454490E+02 -0.20222064976E+02  0.51402387762E+01  0.28673380210E+02  0.00000000000E+00 0. -1.
        -14    1    4    4    0    0 -0.28139129485E+02 -0.66049143019E+02  0.20724412174E+03  0.21932721194E+03  0.00000000000E+00 0.  1.
</event>
<event>
12    1  0.9962621E-001  0.4370896E+03  0.7818608E-02  0.1031703E+00
         21   -1    0    0  501  502  0.00000000000E+00  0.00000000000E+00  0.16328303227E+03  0.16328303227E+03  0.00000000000E+00 0.  1.
         21   -1    0    0  502  503 -0.00000000000E+00 -0.00000000000E+00 -0.12922835285E+04  0.12922835285E+04  0.00000000000E+00 0.  1.
         -6    2    1    2    0  503 -0.39695987550E+03  0.56321887377E+02 -0.33834386964E+03  0.55213686711E+03  0.17213148503E+03 0.  0.
        -24    2    3    3    0    0 -0.37890642802E+03  0.58136815666E+02 -0.25653572524E+03  0.46820902059E+03  0.80368763254E+02 0.  0.
          6    2    1    2  501    0  0.39695987550E+03 -0.56321887377E+02 -0.79065662662E+03  0.90342969370E+03  0.17406324276E+03 0.  0.
         24    2    5    5    0    0  0.31380295700E+03  0.15490399678E+02 -0.63383222201E+03  0.71188841473E+03  0.79558664297E+02 0.  0.
          5    1    5    5  501    0  0.83156918506E+02 -0.71812287055E+02 -0.15682440461E+03  0.19154127897E+03  0.47000000000E+01 0. -1.
        -11    1    6    6    0    0  0.32718556370E+02  0.27259949890E+02 -0.91716598634E+02  0.10112142831E+03  0.00000000000E+00 0.  1.
         12    1    6    6    0    0  0.28108440063E+03 -0.11769550211E+02 -0.54211562338E+03  0.61076698642E+03  0.00000000000E+00 0. -1.
         -5    1    3    3    0  503 -0.18053447486E+02 -0.18149282892E+01 -0.81808144404E+02  0.83927846521E+02  0.47000000000E+01 0.  1.
         11    1    4    4    0    0 -0.12761809191E+03  0.77290503288E+01 -0.43860007143E+02  0.13516588263E+03  0.00000000000E+00 0. -1.
        -12    1    4    4    0    0 -0.25128833611E+03  0.50407765337E+02 -0.21267571810E+03  0.33304313795E+03  0.00000000000E+00 0.  1.
</event>
<event>
12    1  0.9962621E-001  0.5989085E+03  0.7818608E-02  0.9907720E-01
         21   -1    0    0  503  502  0.00000000000E+00  0.00000000000E+00  0.48698292163E+03  0.48698292163E+03  0.00000000000E+00 0. -1.
         21   -1    0    0  501  503 -0.00000000000E+00 -0.00000000000E+00 -0.79265814238E+03  0.79265814238E+03  0.00000000000E+00 0. -1.
          6    2    1    2  501    0 -0.56629729652E+03 -0.92096428485E+02 -0.32320805479E+03  0.68047601760E+03  0.17149280938E+03 0.  0.
         24    2    3    3    0    0 -0.28597186709E+03 -0.11033936011E+03 -0.15149208059E+03  0.35119860153E+03  0.80224211310E+02 0.  0.
         -6    2    1    2    0  502  0.56629729652E+03  0.92096428485E+02  0.17532834044E+02  0.59916504640E+03  0.17180504176E+03 0.  0.
        -24    2    5    5    0    0  0.24011966692E+03  0.15927789162E+02 -0.48840765221E+02  0.25766679993E+03  0.78074390980E+02 0.  0.
          5    1    3    3  501    0 -0.28032542943E+03  0.18242931626E+02 -0.17171597420E+03  0.32927741607E+03  0.47000000000E+01 0. -1.
        -11    1    4    4    0    0 -0.39292653700E+02 -0.59397017225E+01  0.64204992702E+01  0.40254384881E+02  0.00000000000E+00 0.  1.
         12    1    4    4    0    0 -0.24667921339E+03 -0.10439965839E+03 -0.15791257986E+03  0.31094421665E+03  0.00000000000E+00 0. -1.
         -5    1    5    5    0  502  0.32617762959E+03  0.76168639323E+02  0.66373599264E+02  0.34149824647E+03  0.47000000000E+01 0.  1.
         13    1    6    6    0    0  0.15765541113E+03 -0.27026896682E+02 -0.28192337503E+02  0.16242071819E+03  0.00000000000E+00 0. -1.
        -14    1    6    6    0    0  0.82464255790E+02  0.42954685845E+02 -0.20648427718E+02  0.95246081737E+02  0.00000000000E+00 0.  1.
</event>
<event>
12    1  0.1029052E+000  0.2405718E+03  0.7818608E-02  0.1119551E+00
         21   -1    0    0  503  502  0.00000000000E+00  0.00000000000E+00  0.61320940057E+03  0.61320940057E+03  0.00000000000E+00 0.  1.
         21   -1    0    0  501  503 -0.00000000000E+00 -0.00000000000E+00 -0.57966779368E+03  0.57966779368E+03  0.00000000000E+00 0. -1.
          6    2    1    2  501    0  0.11899300212E+03  0.11954976783E+03  0.56268665574E+03  0.61195674344E+03  0.17153221781E+03 0.  0.
         24    2    3    3    0    0  0.12013036495E+03  0.12653313923E+03  0.56941695014E+03  0.60111940368E+03  0.81651298036E+02 0.  0.
         -6    2    1    2    0  502 -0.11899300212E+03 -0.11954976783E+03 -0.52914504886E+03  0.58092045081E+03  0.17036022392E+03 0.  0.
        -24    2    5    5    0    0 -0.30018018728E+02 -0.11180617158E+03 -0.39940181075E+03  0.42333901540E+03  0.79324738084E+02 0.  0.
          5    1    3    3  501    0 -0.11373628329E+01 -0.69833714022E+01 -0.67302943948E+01  0.10837339756E+02  0.47000000000E+01 0. -1.
        -11    1    4    4    0    0  0.97462499138E+01  0.50997014652E+01  0.15504504112E+03  0.15543474874E+03  0.00000000000E+00 0.  1.
         12    1    4    4    0    0  0.11038411504E+03  0.12143343776E+03  0.41437190902E+03  0.44568465494E+03  0.00000000000E+00 0. -1.
         -5    1    5    5    0  502 -0.88974983393E+02 -0.77435962471E+01 -0.12974323811E+03  0.15758143541E+03  0.47000000000E+01 0.  1.
         11    1    6    6    0    0 -0.16285946288E+02 -0.45695855243E+02 -0.29529272985E+03  0.29925096413E+03  0.00000000000E+00 0. -1.
        -12    1    6    6    0    0 -0.13732072441E+02 -0.66110316337E+02 -0.10410908091E+03  0.12408805126E+03  0.00000000000E+00 0.  1.
</event>
<event>
12    1  0.9962621E-001  0.2681712E+03  0.7818608E-02  0.1102402E+00
         21   -1    0    0  503  502  0.00000000000E+00  0.00000000000E+00  0.13990438897E+04  0.13990438897E+04  0.00000000000E+00 0.  1.
         21   -1    0    0  501  503 -0.00000000000E+00 -0.00000000000E+00 -0.65261330190E+02  0.65261330190E+02  0.00000000000E+00 0.  1.
          6    2    1    2  501    0  0.20344265149E+03 -0.15268721499E+02  0.10058999419E+04  0.10410333693E+04  0.17405095969E+03 0.  0.
         24    2    3    3    0    0  0.20379188276E+03 -0.54186997426E+02  0.90854122366E+03  0.93607831138E+03  0.79549278965E+02 0.  0.
         -6    2    1    2    0  502 -0.20344265149E+03  0.15268721499E+02  0.32788261769E+03  0.42327185067E+03  0.17329166826E+03 0.  0.
        -24    2    5    5    0    0 -0.21756514586E+03  0.42644349779E+02  0.28181640190E+03  0.36765660000E+03  0.81226583567E+02 0.  0.
          5    1    3    3  501    0 -0.34923127236E+00  0.38918275926E+02  0.97358718205E+02  0.10495505788E+03  0.47000000000E+01 0. -1.
        -11    1    4    4    0    0  0.15998525244E+03 -0.49045528605E+02  0.82295584473E+03  0.83979584856E+03  0.00000000000E+00 0.  1.
         12    1    4    4    0    0  0.43806630322E+02 -0.51414688205E+01  0.85585378929E+02  0.96282462828E+02  0.00000000000E+00 0. -1.
         -5    1    5    5    0  502  0.14122494374E+02 -0.27375628280E+02  0.46066215784E+02  0.55615250675E+02  0.47000000000E+01 0.  1.
         13    1    6    6    0    0 -0.77085904852E+02  0.11982251225E+02  0.16458093027E+03  0.18213372472E+03  0.00000000000E+00 0. -1.
        -14    1    6    6    0    0 -0.14047924101E+03  0.30662098554E+02  0.11723547163E+03  0.18552287527E+03  0.00000000000E+00 0.  1.
</event>
<event>
12    1  0.9962621E-001  0.2293377E+03  0.7818608E-02  0.1127156E+00
         21   -1    0    0  501  502  0.00000000000E+00  0.00000000000E+00  0.49014685018E+03  0.49014685018E+03  0.00000000000E+00 0. -1.
         21   -1    0    0  502  503 -0.00000000000E+00 -0.00000000000E+00 -0.10772813127E+03  0.10772813127E+03  0.00000000000E+00 0. -1.
         -6    2    1    2    0  503 -0.13269008218E+03 -0.70224395569E+02  0.21251940745E+03  0.31246031109E+03  0.17299949082E+03 0.  0.
        -24    2    3    3    0    0 -0.10636820900E+03 -0.82694646433E+00  0.68175827129E+02  0.15008418560E+03  0.81008886152E+02 0.  0.
          6    2    1    2  501    0  0.13269008218E+03  0.70224395569E+02  0.16989931146E+03  0.28541467036E+03  0.17337137705E+03 0.  0.
         24    2    5    5    0    0  0.14875210431E+02  0.71005984863E+02  0.10836890989E+03  0.15241453802E+03  0.78887571873E+02 0.  0.
          5    1    5    5  501    0  0.11781487174E+03 -0.78158929398E+00  0.61530401561E+02  0.13300013234E+03  0.47000000000E+01 0. -1.
        -13    1    6    6    0    0 -0.81330870569E+01 -0.15428892495E+02  0.13740975005E+02  0.22203878553E+02  0.00000000000E+00 0.  1.
         14    1    6    6    0    0  0.23008297488E+02  0.86434877358E+02  0.94627934890E+02  0.13021065947E+03  0.00000000000E+00 0. -1.
         -5    1    3    3    0  503 -0.26321873174E+02 -0.69397449105E+02  0.14434358032E+03  0.16237612549E+03  0.47000000000E+01 0.  1.
         13    1    4    4    0    0 -0.54610582034E+02  0.59612544037E+01  0.79534075621E+02  0.96661892228E+02  0.00000000000E+00 0. -1.
        -14    1    4    4    0    0 -0.51757626968E+02 -0.67882008680E+01 -0.11358248491E+02  0.53422293372E+02  0.00000000000E+00 0.  1.
</event>
<event>
12    1  0.9962621E-001  0.1935387E+03  0.7818608E-02  0.1156289E+00
         21   -1    0    0  501  502  0.00000000000E+00  0.00000000000E+00  0.63729051177E+03  0.63729051177E+03  0.00000000000E+00 0. -1.
         21   -1    0    0  502  503 -0.00000000000E+00 -0.00000000000E+00 -0.66944220490E+02  0.66944220490E+02  0.00000000000E+00 0. -1.
         -6    2    1    2    0  503 -0.67216799830E+02 -0.37817083161E+02  0.42060729661E+03  0.46299863106E+03  0.17750775882E+03 0.  0.
        -24    2    3    3    0    0 -0.11471177134E+03 -0.28334669277E+02  0.28452993534E+03  0.31848279545E+03  0.80699212671E+02 0.  0.
          6    2    1    2  501    0  0.67216799830E+02  0.37817083161E+02  0.14973899467E+03  0.24123610120E+03  0.17269875518E+03 0.  0.
         24    2    5    5    0    0  0.44548251102E+02 -0.31085676020E+02  0.15038797728E+02  0.88175046783E+02  0.67807134640E+02 0.  0.
          5    1    5    5  501    0  0.22668548728E+02  0.68902759181E+02  0.13470019694E+03  0.15306105442E+03  0.47000000000E+01 0. -1.
        -13    1    6    6    0    0 -0.16234700350E+02 -0.94168631056E+01 -0.69321053180E+01  0.20007420882E+02  0.00000000000E+00 0.  1.
         14    1    6    6    0    0  0.60782951452E+02 -0.21668812915E+02  0.21970903046E+02  0.68167625901E+02  0.00000000000E+00 0. -1.
         -5    1    3    3    0  503  0.47494971506E+02 -0.94824138841E+01  0.13607736127E+03  0.14451583561E+03  0.47000000000E+01 0.  1.
         13    1    4    4    0    0 -0.30469075215E+02 -0.69963794318E+01  0.13846422807E+02  0.34191187375E+02  0.00000000000E+00 0. -1.
        -14    1    4    4    0    0 -0.84242696122E+02 -0.21338289845E+02  0.27068351253E+03  0.28429160807E+03  0.00000000000E+00 0.  1.
</event>
<event>
12    1  0.9962621E-001  0.2021874E+03  0.7818608E-02  0.1148186E+00
         21   -1    0    0  503  502  0.00000000000E+00  0.00000000000E+00  0.78160354628E+02  0.78160354628E+02  0.00000000000E+00 0.  1.
         21   -1    0    0  501  503 -0.00000000000E+00 -0.00000000000E+00 -0.92441327693E+03  0.92441327693E+03  0.00000000000E+00 0.  1.
          6    2    1    2  501    0 -0.21730566336E+02 -0.10189555880E+03 -0.92177473004E+02  0.22220805165E+03  0.17327668416E+03 0.  0.
         24    2    3    3    0    0  0.98103446836E+01 -0.13425292432E+03 -0.76661032919E+02  0.17420098880E+03  0.79680486816E+02 0.  0.
         -6    2    1    2    0  502  0.21730566336E+02  0.10189555880E+03 -0.75407544930E+03  0.78036557991E+03  0.17171410149E+03 0.  0.
        -24    2    5    5    0    0  0.29188044685E+02 -0.75927914439E+01 -0.32874690790E+03  0.34108233307E+03  0.85749845742E+02 0.  0.
          5    1    3    3  501    0 -0.31540911019E+02  0.32357365518E+02 -0.15516440086E+02  0.48007062857E+02  0.47000000000E+01 0. -1.
        -11    1    4    4    0    0 -0.91208486627E+01  0.81325600680E+01 -0.10264841282E+02  0.15959178555E+02  0.00000000000E+00 0.  1.
         12    1    4    4    0    0  0.18931193346E+02 -0.14238548438E+03 -0.66396191637E+02  0.15824181024E+03  0.00000000000E+00 0. -1.
         -5    1    5    5    0  502 -0.74574783490E+01  0.10948835024E+03 -0.42532854141E+03  0.43928324684E+03  0.47000000000E+01 0.  1.
         11    1    6    6    0    0 -0.24477462050E+02  0.12490328622E+02 -0.17218686588E+03  0.17436591192E+03  0.00000000000E+00 0. -1.
        -12    1    6    6    0    0  0.53665506735E+02 -0.20083120066E+02 -0.15656004202E+03  0.16671642115E+03  0.00000000000E+00 0.  1.
</event>
<event>
12    1  0.9962621E-001  0.1975930E+03  0.7818608E-02  0.1151791E+00
         21   -1    0    0  501  502  0.00000000000E+00  0.00000000000E+00  0.72300243699E+03  0.72300243699E+03  0.00000000000E+00 0. -1.
         21   -1    0    0  502  503 -0.00000000000E+00 -0.00000000000E+00 -0.62721265968E+02  0.62721265968E+02  0.00000000000E+00 0. -1.
         -6    2    1    2    0  503  0.11756774729E+02 -0.98296188611E+02  0.18358631722E+03  0.26969951557E+03  0.17097815761E+03 0.  0.
        -24    2    3    3    0    0  0.50592546706E+02 -0.98950168800E+02  0.18580151536E+03  0.23051224751E+03  0.79138811284E+02 0.  0.
          6    2    1    2  501    0 -0.11756774729E+02  0.98296188611E+02  0.47669485380E+03  0.51602418739E+03  0.17100472474E+03 0.  0.
         24    2    5    5    0    0  0.28465507855E+02  0.12219109557E+03  0.38683452876E+03  0.41460541885E+03  0.80720206451E+02 0.  0.
          5    1    5    5  501    0 -0.40222282583E+02 -0.23894906956E+02  0.89860325044E+02  0.10141876854E+03  0.47000000000E+01 0. -1.
        -11    1    6    6    0    0  0.21301967529E+02 -0.41444940118E+01  0.41770335234E+02  0.47071345390E+02  0.00000000000E+00 0.  1.
         12    1    6    6    0    0  0.71635403255E+01  0.12633558958E+03  0.34506419352E+03  0.36753407346E+03  0.00000000000E+00 0. -1.
         -5    1    3    3    0  503 -0.38835771977E+02  0.65398018925E+00 -0.22151981451E+01  0.39187268060E+02  0.47000000000E+01 0.  1.
         13    1    4    4    0    0  0.47582274112E+02 -0.12197667804E+02  0.76871765538E+02  0.91225677561E+02  0.00000000000E+00 0. -1.
        -14    1    4    4    0    0  0.30102725935E+01 -0.86752500995E+02  0.10892974982E+03  0.13928656994E+03  0.00000000000E+00 0.  1.
</event>
<event>
12    1  0.9962621E-001  0.4015899E+03  0.7818608E-02  0.1043282E+00
         21   -1    0    0  503  502  0.00000000000E+00  0.00000000000E+00  0.15554958195E+04  0.15554958195E+04  0.00000000000E+00 0. -1.
         21   -1    0    0  501  503 -0.00000000000E+00 -0.00000000000E+00 -0.14094617834E+03  0.14094617834E+03  0.00000000000E+00 0. -1.
          6    2    1    2  501    0 -0.24165753619E+03  0.27000540311E+03  0.27061132280E+03  0.48425710416E+03  0.17312761882E+03 0.  0.
         24    2    3    3    0    0 -0.38875227215E+02  0.97614070557E+02  0.88152564676E+02  0.16153009137E+03  0.85330567187E+02 0.  0.
         -6    2    1    2    0  502  0.24165753619E+03 -0.27000540311E+03  0.11439383183E+04  0.12121848937E+04  0.17174416364E+03 0.  0.
        -24    2    5    5    0    0  0.10140229876E+03 -0.46979631374E+02  0.44390950327E+03  0.46420464097E+03  0.77076518129E+02 0.  0.
          5    1    3    3  501    0 -0.20278230897E+03  0.17239133255E+03  0.18245875812E+03  0.32272701280E+03  0.47000000000E+01 0. -1.
        -13    1    4    4    0    0 -0.30653334008E+02  0.10566697511E+03  0.97263683488E+02  0.14685149179E+03  0.00000000000E+00 0.  1.
         14    1    4    4    0    0 -0.82218932072E+01 -0.80529045516E+01 -0.91111188122E+01  0.14678599580E+02  0.00000000000E+00 0. -1.
         -5    1    5    5    0  502  0.14025523743E+03 -0.22302577174E+03  0.70002881507E+03  0.74798025268E+03  0.47000000000E+01 0.  1.
         11    1    6    6    0    0  0.36949461297E+02 -0.41346183056E+02  0.31637706137E+03  0.32119964898E+03  0.00000000000E+00 0. -1.
        -12    1    6    6    0    0  0.64452837466E+02 -0.56334483173E+01  0.12753244190E+03  0.14300499199E+03  0.00000000000E+00 0.  1.
</event>
<event>
12    1  0.9962621E-001  0.1896524E+03  0.7818608E-02  0.1158897E+00
         21   -1    0    0  503  502  0.00000000000E+00  0.00000000000E+00  0.54603772591E+02  0.54603772591E+02  0.00000000000E+00 0.  1.
         21   -1    0    0  501  503 -0.00000000000E+00 -0.00000000000E+00 -0.65702060273E+03  0.65702060273E+03  0.00000000000E+00 0.  1.
          6    2    1    2  501    0  0.69440877015E+02  0.40836329378E+02 -0.30671177061E+03  0.36032748381E+03  0.17109688529E+03 0.  0.
         24    2    3    3    0    0 -0.63130386812E+01  0.14564621045E+02 -0.24793535965E+03  0.26080052822E+03  0.79328370166E+02 0.  0.
         -6    2    1    2    0  502 -0.69440877015E+02 -0.40836329378E+02 -0.29570505953E+03  0.35129689152E+03  0.17169269805E+03 0.  0.
        -24    2    5    5    0    0 -0.67658654361E+02 -0.47589144433E+02 -0.31233255627E+03  0.33265981888E+03  0.79173917513E+02 0.  0.
          5    1    3    3  501    0  0.75753915696E+02  0.26271708333E+02 -0.58776410968E+02  0.99526955587E+02  0.47000000000E+01 0. -1.
        -11    1    4    4    0    0 -0.38392080164E+02  0.99767785336E+01 -0.74885785756E+02  0.84742957451E+02  0.00000000000E+00 0.  1.
         12    1    4    4    0    0  0.32079041483E+02  0.45878425110E+01 -0.17304957389E+03  0.17605757077E+03  0.00000000000E+00 0. -1.
         -5    1    5    5    0  502 -0.17822226541E+01  0.67528150554E+01  0.16627496739E+02  0.18637072639E+02  0.47000000000E+01 0.  1.
         11    1    6    6    0    0 -0.38337355717E+02  0.13259032724E+02 -0.68167257521E+02  0.79324206836E+02  0.00000000000E+00 0. -1.
        -12    1    6    6    0    0 -0.29321298644E+02 -0.60848177158E+02 -0.24416529875E+03  0.25333561204E+03  0.00000000000E+00 0.  1.
</event>
<event>
12    1  0.9962621E-001  0.3259695E+03  0.7818608E-02  0.1073309E+00
         21   -1    0    0  503  502  0.00000000000E+00  0.00000000000E+00  0.18329470117E+04  0.18329470117E+04  0.00000000000E+00 0. -1.
         21   -1    0    0  501  503 -0.00000000000E+00 -0.00000000000E+00 -0.68786261195E+02  0.68786261195E+02  0.00000000000E+00 0.  1.
          6    2    1    2  501    0 -0.26380191069E+03 -0.70232847826E+02  0.49867559503E+03  0.59576290287E+03  0.17813474215E+03 0.  0.
         24    2    3    3    0    0 -0.25690166393E+03 -0.92803618097E+02  0.38115066590E+03  0.47579935823E+03  0.80611554457E+02 0.  0.
         -6    2    1    2    0  502  0.26380191069E+03  0.70232847826E+02  0.12654851554E+04  0.13059703700E+04  0.17199368494E+03 0.  0.
        -24    2    5    5    0    0  0.23310740951E+03  0.72028778328E+01  0.10777348728E+04  0.11055029458E+04  0.78951639430E+02 0.  0.
          5    1    3    3  501    0 -0.69002467575E+01  0.22570770271E+02  0.11752492912E+03  0.11996354464E+03  0.47000000000E+01 0. -1.
        -11    1    4    4    0    0 -0.29885810211E+02 -0.14321625482E+02  0.11729251658E+02  0.35154600736E+02  0.00000000000E+00 0.  1.
         12    1    4    4    0    0 -0.22701585372E+03 -0.78481992615E+02  0.36942141425E+03  0.44064475750E+03  0.00000000000E+00 0. -1.
         -5    1    5    5    0  502  0.30694501177E+02  0.63029969993E+02  0.18775028269E+03  0.20046742421E+03  0.47000000000E+01 0.  1.
         11    1    6    6    0    0  0.85372854886E+02  0.27656444689E+02  0.54269652017E+03  0.55006628354E+03  0.00000000000E+00 0. -1.
        -12    1    6    6    0    0  0.14773455462E+03 -0.20453566857E+02  0.53503835258E+03  0.55543666224E+03  0.00000000000E+00 0.  1.
</event>
<event>
12    1  0.9962621E-001  0.2159059E+03  0.7818608E-02  0.1137033E+00
         21   -1    0    0  503  502  0.00000000000E+00  0.00000000000E+00  0.56537159618E+03  0.56537159618E+03  0.00000000000E+00 0.  1.
         21   -1    0    0  501  503 -0.00000000000E+00 -0.00000000000E+00 -0.84286734982E+02  0.84286734982E+02  0.00000000000E+00 0.  1.
          6    2    1    2  501    0  0.10148133956E+03  0.80848834896E+02  0.19088586412E+03  0.28795293207E+03  0.17217572879E+03 0.  0.
         24    2    3    3    0    0  0.12721116934E+03  0.52773719624E+02  0.19124887344E+03  0.24958031144E+03  0.82136795514E+02 0.  0.
         -6    2    1    2    0  502 -0.10148133956E+03 -0.80848834896E+02  0.29019899708E+03  0.36170539909E+03  0.17256981615E+03 0.  0.
        -24    2    5    5    0    0 -0.59765450864E+02 -0.74189887158E+02  0.29363451275E+03  0.31906211448E+03  0.80643396184E+02 0.  0.
          5    1    3    3  501    0 -0.25729829785E+02  0.28075115272E+02 -0.36300931965E+00  0.38372620631E+02  0.47000000000E+01 0. -1.
        -11    1    4    4    0    0  0.19618453421E+01 -0.16494282453E+02  0.27198471918E+02  0.31869531931E+02  0.00000000000E+00 0.  1.
         12    1    4    4    0    0  0.12524932400E+03  0.69268002078E+02  0.16405040152E+03  0.21771077951E+03  0.00000000000E+00 0. -1.
         -5    1    5    5    0  502 -0.41715888695E+02 -0.66589477386E+01 -0.34355156672E+01  0.42643284612E+02  0.47000000000E+01 0.  1.
         13    1    6    6    0    0 -0.61031561603E+02 -0.84386644647E+02  0.20601549537E+03  0.23084267724E+03  0.00000000000E+00 0. -1.
        -14    1    6    6    0    0  0.12661107395E+01  0.10196757489E+02  0.87619017379E+02  0.88219437236E+02  0.00000000000E+00 0.  1.
</event>
<event>
12    1  0.9962621E-001  0.2507814E+03  0.7818608E-02  0.1113675E+00
         21   -1    0    0  501  502  0.00000000000E+00  0.00000000000E+00  0.21287421536E+03  0.21287421536E+03  0.00000000000E+00 0.  1.
         21   -1    0    0  502  503 -0.00000000000E+00 -0.00000000000E+00 -0.32405883277E+03  0.32405883277E+03  0.00000000000E+00 0. -1.
         -6    2    1    2    0  503  0.16262584929E+03  0.80668114877E+02  0.33138506543E+02  0.24758818524E+03  0.16506737181E+03 0.  0.
        -24    2    3    3    0    0  0.13723849181E+03  0.47931287324E+01  0.49537310501E+02  0.16578022588E+03  0.78560552726E+02 0.  0.
          6    2    1    2  501    0 -0.16262584929E+03 -0.80668114877E+02 -0.14432312395E+03  0.28934486289E+03  0.17302246664E+03 0.  0.
         24    2    5    5    0    0 -0.35681536711E+02 -0.62630362265E+01 -0.81537045984E+01  0.88807646917E+02  0.80671665208E+02 0.  0.
          5    1    5    5  501    0 -0.12694431258E+03 -0.74405078650E+02 -0.13616941935E+03  0.20053721597E+03  0.47000000000E+01 0. -1.
        -13    1    6    6    0    0 -0.48556816912E+02 -0.27926620540E+02 -0.21849788775E+02  0.60125484388E+02  0.00000000000E+00 0.  1.
         14    1    6    6    0    0  0.12875280202E+02  0.21663584313E+02  0.13696084176E+02  0.28682162529E+02  0.00000000000E+00 0. -1.
         -5    1    3    3    0  503  0.25387357477E+02  0.75874986144E+02 -0.16398803958E+02  0.81807959352E+02  0.47000000000E+01 0.  1.
         13    1    4    4    0    0  0.50797639727E+02 -0.10662597726E+02 -0.18067329961E+02  0.54959254034E+02  0.00000000000E+00 0. -1.
        -14    1    4    4    0    0  0.86440852085E+02  0.15455726459E+02  0.67604640463E+02  0.11082097185E+03  0.00000000000E+00 0.  1.
</event>
<event>
12    1  0.9962621E-001  0.3110013E+03  0.7818608E-02  0.1079939E+00
         21   -1    0    0  501  502  0.00000000000E+00  0.00000000000E+00  0.15421734529E+03  0.15421734529E+03  0.00000000000E+00 0.  1.
         21   -1    0    0  502  503 -0.00000000000E+00 -0.00000000000E+00 -0.63036044501E+03  0.63036044501E+03  0.00000000000E+00 0.  1.
         -6    2    1    2    0  503 -0.23784348360E+03  0.99284478326E+02 -0.20551723346E+03  0.37277222716E+03  0.17405421500E+03 0.  0.
        -24    2    3    3    0    0 -0.18940654799E+03  0.46782395290E+02 -0.74021861171E+02  0.22305339604E+03  0.78804496237E+02 0.  0.
          6    2    1    2  501    0  0.23784348360E+03 -0.99284478326E+02 -0.27062586626E+03  0.41180556313E+03  0.17296974306E+03 0.  0.
         24    2    5    5    0    0  0.24808290015E+03 -0.58059341198E+02 -0.22570631072E+03  0.34980383693E+03  0.80643494388E+02 0.  0.
          5    1    5    5  501    0 -0.10239416547E+02 -0.41225137127E+02 -0.44919555540E+02  0.62001726204E+02  0.47000000000E+01 0. -1.
        -13    1    6    6    0    0  0.97813846310E+02  0.20811979435E+01 -0.12666288190E+03  0.16004801019E+03  0.00000000000E+00 0.  1.
         14    1    6    6    0    0  0.15026905384E+03 -0.60140539142E+02 -0.99043428818E+02  0.18975582674E+03  0.00000000000E+00 0. -1.
         -5    1    3    3    0  503 -0.48436935617E+02  0.52502083036E+02 -0.13149537229E+03  0.14971883111E+03  0.47000000000E+01 0.  1.
         13    1    4    4    0    0 -0.17254674749E+03  0.57949000273E+02 -0.84043626898E+02  0.20048390939E+03  0.00000000000E+00 0. -1.
        -14    1    4    4    0    0 -0.16859800497E+02 -0.11166604983E+02  0.10021765727E+02  0.22569486656E+02  0.00000000000E+00 0.  1.
</event>
<event>
12    1  0.9962621E-001  0.2494996E+03  0.7818608E-02  0.1113896E+00
         21   -1    0    0  501  502  0.00000000000E+00  0.00000000000E+00  0.12794224788E+03  0.12794224788E+03  0.00000000000E+00 0.  1.
         21   -1    0    0  502  503 -0.00000000000E+00 -0.00000000000E+00 -0.50532947820E+03  0.50532947820E+03  0.00000000000E+00 0.  1.
         -6    2    1    2    0  503  0.13029588219E+03  0.12394219439E+03 -0.25559675153E+03  0.35718304461E+03  0.17294896211E+03 0.  0.
        -24    2    3    3    0    0  0.53253116240E+02  0.12315523907E+03 -0.22905327740E+03  0.27555674306E+03  0.73912160434E+02 0.  0.
          6    2    1    2  501    0 -0.13029588219E+03 -0.12394219439E+03 -0.12179047879E+03  0.27608868147E+03  0.17045044690E+03 0.  0.
         24    2    5    5    0    0 -0.10865664956E+03 -0.10615223580E+03 -0.24440413177E+02  0.17467929192E+03  0.82710075374E+02 0.  0.
          5    1    5    5  501    0 -0.21639232629E+02 -0.17789958584E+02 -0.97350065614E+02  0.10140938956E+03  0.47000000000E+01 0. -1.
        -13    1    6    6    0    0  0.92288231842E+01 -0.32521586743E+02 -0.78187264457E+01  0.34698087338E+02  0.00000000000E+00 0.  1.
         14    1    6    6    0    0 -0.11788547275E+03 -0.73630649058E+02 -0.16621686731E+02  0.13998120458E+03  0.00000000000E+00 0. -1.
         -5    1    3    3    0  503  0.77042765952E+02  0.78695531213E+00 -0.26543474135E+02  0.81626301542E+02  0.47000000000E+01 0.  1.
         13    1    4    4    0    0  0.44694762609E+02  0.94225261532E+02 -0.10539137421E+03  0.14826787741E+03  0.00000000000E+00 0. -1.
        -14    1    4    4    0    0  0.85583536313E+01  0.28929977542E+02 -0.12366190319E+03  0.12728886565E+03  0.00000000000E+00 0.  1.
</event>
<event>
12    1  0.9962621E-001  0.1826077E+03  0.7818608E-02  0.1166522E+00
         21   -1    0    0  501  502  0.00000000000E+00  0.00000000000E+00  0.11137865652E+03  0.11137865652E+03  0.00000000000E+00 0.  1.
         21   -1    0    0  502  503 -0.00000000000E+00 -0.00000000000E+00 -0.41249670920E+03  0.41249670920E+03  0.00000000000E+00 0.  1.
         -6    2    1    2    0  503 -0.16058334295E+02 -0.62502763120E+02 -0.70085245461E+01  0.17768756705E+03  0.16540642844E+03 0.  0.
        -24    2    3    3    0    0  0.49013651814E+02 -0.31060398305E+02  0.40575808039E+02  0.91031093607E+02  0.57211689349E+02 0.  0.
          6    2    1    2  501    0  0.16058334295E+02  0.62502763120E+02 -0.29410952814E+03  0.34618779867E+03  0.17082479887E+03 0.  0.
         24    2    5    5    0    0  0.75169638694E+02  0.25156431323E+02 -0.17161996925E+03  0.20506842777E+03  0.79475314441E+02 0.  0.
          5    1    5    5  501    0 -0.59111304399E+02  0.37346331797E+02 -0.12248955889E+03  0.14111937090E+03  0.47000000000E+01 0. -1.
        -13    1    6    6    0    0 -0.25134053014E+01 -0.68698508225E+01  0.54173555754E+01  0.91027357405E+01  0.00000000000E+00 0.  1.
         14    1    6    6    0    0  0.77683043995E+02  0.32026282145E+02 -0.17703732482E+03  0.19596569203E+03  0.00000000000E+00 0. -1.
         -5    1    3    3    0  503 -0.65071986109E+02 -0.31442364815E+02 -0.47584332585E+02  0.86656473439E+02  0.47000000000E+01 0.  1.
         11    1    4    4    0    0 -0.10365657248E+02 -0.42157103689E+01  0.19606179183E+02  0.22574794047E+02  0.00000000000E+00 0. -1.
        -12    1    4    4    0    0  0.59379309062E+02 -0.26844687936E+02  0.20969628856E+02  0.68456299560E+02  0.00000000000E+00 0.  1.
</event>
<event>
12    1  0.9962621E-001  0.2555981E+03  0.7818608E-02  0.1110339E+00
         21   -1    0    0  501  502  0.00000000000E+00  0.00000000000E+00  0.58997653768E+03  0.58997653768E+03  0.00000000000E+00 0. -1.
         21   -1    0    0  502  503 -0.00000000000E+00 -0.00000000000E+00 -0.16303919979E+03  0.16303919979E+03  0.00000000000E+00 0. -1.
         -6    2    1    2    0  503 -0.85224088062E+02  0.16370656780E+03  0.43062111008E+03  0.50076434990E+03  0.17682592614E+03 0.  0.
        -24    2    3    3    0    0 -0.30216006599E+02  0.24014846863E+01  0.15833736140E+03  0.17950783454E+03  0.78952950945E+02 0.  0.
          6    2    1    2  501    0  0.85224088062E+02 -0.16370656780E+03 -0.36837721929E+01  0.25225138757E+03  0.17191337012E+03 0.  0.
         24    2    5    5    0    0  0.23008359506E+02 -0.17003333711E+03  0.17303825104E+02  0.18611974514E+03  0.70002977322E+02 0.  0.
          5    1    5    5  501    0  0.62215728557E+02  0.63267693056E+01 -0.20987597297E+02  0.66131642426E+02  0.47000000000E+01 0. -1.
        -13    1    6    6    0    0 -0.21161567550E+02 -0.45818212366E+02 -0.10093347831E+02  0.51468399976E+02  0.00000000000E+00 0.  1.
         14    1    6    6    0    0  0.44169927056E+02 -0.12421512474E+03  0.27397172934E+02  0.13465134517E+03  0.00000000000E+00 0. -1.
         -5    1    3    3    0  503 -0.55008081463E+02  0.16130508311E+03  0.27228374868E+03  0.32125651536E+03  0.47000000000E+01 0.  1.
         11    1    4    4    0    0 -0.16635182714E+02 -0.26986905978E+02  0.20115994109E+02  0.37545647114E+02  0.00000000000E+00 0. -1.
        -12    1    4    4    0    0 -0.13580823885E+02  0.29388390664E+02  0.13822136729E+03  0.14196218743E+03  0.00000000000E+00 0.  1.
</event>
<event>
12    1  0.9962621E-001  0.1845572E+03  0.7818608E-02  0.1163483E+00
         21   -1    0    0  501  502  0.00000000000E+00  0.00000000000E+00  0.11778469227E+03  0.11778469227E+03  0.00000000000E+00 0. -1.
         21   -1    0    0  502  503 -0.00000000000E+00 -0.00000000000E+00 -0.43952292310E+03  0.43952292310E+03  0.00000000000E+00 0. -1.
         -6    2    1    2    0  503 -0.39140791572E+02  0.55736152080E+02  0.21483056793E+01  0.18456966727E+03  0.17153083293E+03 0.  0.
        -24    2    3    3    0    0 -0.34307870991E+02 -0.30647783556E+02 -0.22503796157E+02  0.94484387768E+02  0.79401272292E+02 0.  0.
          6    2    1    2  501    0  0.39140791572E+02 -0.55736152080E+02 -0.32388653651E+03  0.37273794810E+03  0.17144261200E+03 0.  0.
         24    2    5    5    0    0 -0.24421848769E+02 -0.47845002338E+02 -0.27693965843E+03  0.29318558262E+03  0.79853869675E+02 0.  0.
          5    1    5    5  501    0  0.63562640341E+02 -0.78911497418E+01 -0.46946878080E+02  0.79552365476E+02  0.47000000000E+01 0. -1.
        -11    1    6    6    0    0  0.28627891663E+02 -0.75815204802E+01 -0.82088799345E+02  0.87267443023E+02  0.00000000000E+00 0.  1.
         12    1    6    6    0    0 -0.53049740432E+02 -0.40263481858E+02 -0.19485085908E+03  0.20591813960E+03  0.00000000000E+00 0. -1.
         -5    1    3    3    0  503 -0.48329205815E+01  0.86383935636E+02  0.24652101837E+02  0.90085279499E+02  0.47000000000E+01 0.  1.
         13    1    4    4    0    0 -0.27266678105E+02 -0.31350443690E+02  0.23638455230E+02  0.47802705155E+02  0.00000000000E+00 0. -1.
        -14    1    4    4    0    0 -0.70411928855E+01  0.70266013412E+00 -0.46142251387E+02  0.46681682613E+02  0.00000000000E+00 0.  1.
</event>
<event>
12    1  0.9962621E-001  0.2156664E+03  0.7818608E-02  0.1137590E+00
         21   -1    0    0  501  502  0.00000000000E+00  0.00000000000E+00  0.98001720473E+03  0.98001720473E+03  0.00000000000E+00 0.  1.
         21   -1    0    0  502  503 -0.00000000000E+00 -0.00000000000E+00 -0.64857394776E+02  0.64857394776E+02  0.00000000000E+00 0.  1.
         -6    2    1    2    0  503  0.95690066540E+01 -0.12552436221E+03  0.73023874652E+03  0.76078340090E+03  0.17232186389E+03 0.  0.
        -24    2    3    3    0    0  0.61905798930E+02 -0.34764144909E+02  0.41417612388E+03  0.42777555069E+03  0.80057394835E+02 0.  0.
          6    2    1    2  501    0 -0.95690066540E+01  0.12552436221E+03  0.18492106343E+03  0.28409119860E+03  0.17511161590E+03 0.  0.
         24    2    5    5    0    0  0.17468834445E+02  0.15159974504E+03  0.17375601887E+03  0.24462325387E+03  0.79760512607E+02 0.  0.
          5    1    5    5  501    0 -0.27037841099E+02 -0.26075382824E+02  0.11165044566E+02  0.39467944725E+02  0.47000000000E+01 0. -1.
        -13    1    6    6    0    0 -0.19682419716E+02  0.80710635169E+02  0.49144248806E+02  0.96523372641E+02  0.00000000000E+00 0.  1.
         14    1    6    6    0    0  0.37151254161E+02  0.70889109869E+02  0.12461177006E+03  0.14809988123E+03  0.00000000000E+00 0. -1.
         -5    1    3    3    0  503 -0.52336792276E+02 -0.90760217305E+02  0.31606262264E+03  0.33300785021E+03  0.47000000000E+01 0.  1.
         11    1    4    4    0    0  0.15280797229E+02  0.13526519480E+02  0.22448192367E+02  0.30337943795E+02  0.00000000000E+00 0. -1.
        -12    1    4    4    0    0  0.46625001701E+02 -0.48290664389E+02  0.39172793151E+03  0.39743760690E+03  0.00000000000E+00 0.  1.
</event>
<event>
12    1  0.9962621E-001  0.2410090E+03  0.7818608E-02  0.1119143E+00
         21   -1    0    0  501  502  0.00000000000E+00  0.00000000000E+00  0.20400833794E+03  0.20400833794E+03  0.00000000000E+00 0. -1.
         21   -1    0    0  502  503 -0.00000000000E+00 -0.00000000000E+00 -0.28464066322E+03  0.28464066322E+03  0.00000000000E+00 0.  1.
         -6    2    1    2    0  503 -0.95492526874E+02  0.13874272706E+03 -0.36691702557E+02  0.24378596534E+03  0.17238604601E+03 0.  0.
        -24    2    3    3    0    0 -0.33562397554E+02  0.24329227858E+02  0.34445276720E+02  0.95433851980E+02  0.78757838706E+02 0.  0.
          6    2    1    2  501    0  0.95492526874E+02 -0.13874272706E+03 -0.43940622719E+02  0.24486303582E+03  0.17221719133E+03 0.  0.
         24    2    5    5    0    0 -0.56790398844E+00 -0.96663678395E+02 -0.59199192531E+02  0.13878209189E+03  0.80073312637E+02 0.  0.
          5    1    5    5  501    0  0.96060430862E+02 -0.42079048661E+02  0.15258569812E+02  0.10608094394E+03  0.47000000000E+01 0. -1.
        -13    1    6    6    0    0  0.89578911621E+01  0.97784044171E+01 -0.21881577129E+02  0.25586410937E+02  0.00000000000E+00 0.  1.
         14    1    6    6    0    0 -0.95257951505E+01 -0.10644208281E+03 -0.37317615403E+02  0.11319568095E+03  0.00000000000E+00 0. -1.
         -5    1    3    3    0  503 -0.61930129319E+02  0.11441349920E+03 -0.71136979277E+02  0.14835211336E+03  0.47000000000E+01 0.  1.
         13    1    4    4    0    0 -0.50820603897E+02  0.16983681839E+01  0.12624693424E+00  0.50849131489E+02  0.00000000000E+00 0. -1.
        -14    1    4    4    0    0  0.17258206343E+02  0.22630859674E+02  0.34319029786E+02  0.44584720490E+02  0.00000000000E+00 0.  1.
</event>
<event>
12    1  0.9962621E-001  0.1888811E+03  0.7818608E-02  0.1160568E+00
         21   -1    0    0  501  502  0.00000000000E+00  0.00000000000E+00  0.68570136329E+02  0.68570136329E+02  0.00000000000E+00 0.  1.
         21   -1    0    0  502  503 -0.00000000000E+00 -0.00000000000E+00 -0.58463832716E+03  0.58463832716E+03  0.00000000000E+00 0.  1.
         -6    2    1    2    0  503 -0.48430572764E+02 -0.61126268801E+02 -0.14209689491E+03  0.23636324045E+03  0.17202939510E+03 0.  0.
        -24    2    3    3    0    0 -0.66691917505E+02 -0.69663825149E+02 -0.16406425299E+03  0.20618010938E+03  0.79324006439E+02 0.  0.
          6    2    1    2  501    0  0.48430572764E+02  0.61126268801E+02 -0.37397129592E+03  0.41684522304E+03  0.16680368306E+03 0.  0.
         24    2    5    5    0    0  0.68928892979E+02  0.86558465565E+02 -0.21588330833E+03  0.25534946587E+03  0.79713152333E+02 0.  0.
          5    1    5    5  501    0 -0.20498320215E+02 -0.25432196765E+02 -0.15808798759E+03  0.16149575717E+03  0.47000000000E+01 0. -1.
        -11    1    6    6    0    0  0.34492796343E+02  0.12190075014E+02 -0.17195748317E+02  0.40423318624E+02  0.00000000000E+00 0.  1.
         12    1    6    6    0    0  0.34436096636E+02  0.74368390551E+02 -0.19868756002E+03  0.21492614725E+03  0.00000000000E+00 0. -1.
         -5    1    3    3    0  503  0.18261344741E+02  0.85375563486E+01  0.21967358084E+02  0.30183131073E+02  0.47000000000E+01 0.  1.
         11    1    4    4    0    0 -0.68909541051E+02 -0.62286833204E+02 -0.82447062564E+02  0.12420021161E+03  0.00000000000E+00 0. -1.
        -12    1    4    4    0    0  0.22176235460E+01 -0.73769919448E+01 -0.81617190428E+02  0.81979897766E+02  0.00000000000E+00 0.  1.
</event>
<event>
12    1  0.9962621E-001  0.2380714E+03  0.7818608E-02  0.1121091E+00
         21   -1    0    0  503  502  0.00000000000E+00  0.00000000000E+00  0.28230184407E+02  0.28230184407E+02  0.00000000000E+00 0. -1.
         21   -1    0    0  501  503 -0.00000000000E+00 -0.00000000000E+00 -0.20171275835E+04  0.20171275835E+04  0.00000000000E+00 0. -1.
          6    2    1    2  501    0 -0.12917968254E+03 -0.10219334379E+03 -0.10656322867E+04  0.10919020856E+04  0.17189276951E+03 0.  0.
         24    2    3    3    0    0 -0.96456574264E+02 -0.76958343719E+02 -0.10174003074E+04  0.10282151884E+04  0.83045956532E+02 0.  0.
         -6    2    1    2    0  502  0.12917968254E+03  0.10219334379E+03 -0.92326511231E+03  0.95345568222E+03  0.17183829737E+03 0.  0.
        -24    2    5    5    0    0  0.13143962105E+02 -0.11745181948E+01 -0.35931041000E+03  0.36846320401E+03  0.80542030871E+02 0.  0.
          5    1    3    3  501    0 -0.32723108273E+02 -0.25235000066E+02 -0.48231979367E+02  0.63686897216E+02  0.47000000000E+01 0. -1.
        -13    1    4    4    0    0 -0.93628251078E+02 -0.43348310274E+02 -0.54961633708E+03  0.55921681251E+03  0.00000000000E+00 0.  1.
         14    1    4    4    0    0 -0.28283231858E+01 -0.33610033446E+02 -0.46778397029E+03  0.46899837593E+03  0.00000000000E+00 0. -1.
         -5    1    5    5    0  502  0.11603572043E+03  0.10336786198E+03 -0.56395470231E+03  0.58499247821E+03  0.47000000000E+01 0.  1.
         11    1    6    6    0    0 -0.71997528034E+01 -0.14806121676E+02 -0.32938036470E+03  0.32979157408E+03  0.00000000000E+00 0. -1.
        -12    1    6    6    0    0  0.20343714909E+02  0.13631603481E+02 -0.29930045299E+02  0.38671629929E+02  0.00000000000E+00 0.  1.
</event>
<event>
12    1  0.9962621E-001  0.3048618E+03  0.7818608E-02  0.1083778E+00
         21   -1    0    0  503  502  0.00000000000E+00  0.00000000000E+00  0.43453472671E+03  0.43453472671E+03  0.00000000000E+00 0. -1.
         21   -1    0    0  501  503 -0.00000000000E+00 -0.00000000000E+00 -0.20955197134E+03  0.20955197134E+03  0.00000000000E+00 0. -1.
          6    2    1    2  501    0  0.16310498448E+03  0.18923690981E+03  0.13288941578E+03  0.32561867867E+03  0.16110270971E+03 0.  0.
         24    2    3    3    0    0  0.72647622009E+02  0.38416212520E+02  0.87212031802E+02  0.14385528697E+03  0.79592227822E+02 0.  0.
         -6    2    1    2    0  502 -0.16310498448E+03 -0.18923690981E+03  0.92093339587E+02  0.31846801939E+03  0.17471935261E+03 0.  0.
        -24    2    5    5    0    0 -0.28770139253E+02 -0.62420425901E+02 -0.22690899350E+01  0.11097192463E+03  0.87095285778E+02 0.  0.
          5    1    3    3  501    0  0.90457362474E+02  0.15082069729E+03  0.45677383981E+02  0.18176339170E+03  0.47000000000E+01 0. -1.
        -13    1    4    4    0    0  0.39608097159E+02  0.22417742794E+02 -0.38478406093E+01  0.45674527145E+02  0.00000000000E+00 0.  1.
         14    1    4    4    0    0  0.33039524849E+02  0.15998469727E+02  0.91059872412E+02  0.98180759823E+02  0.00000000000E+00 0. -1.
         -5    1    5    5    0  502 -0.13433484523E+03 -0.12681648391E+03  0.94362429522E+02  0.20749609476E+03  0.47000000000E+01 0.  1.
         13    1    6    6    0    0  0.19338976134E+02 -0.54776223645E+01 -0.25887790668E+02  0.32774655610E+02  0.00000000000E+00 0. -1.
        -14    1    6    6    0    0 -0.48109115387E+02 -0.56942803536E+02  0.23618700733E+02  0.78197269020E+02  0.00000000000E+00 0.  1.
</event>
<event>
12    1  0.9962621E-001  0.1775908E+03  0.7818608E-02  0.1170235E+00
         21   -1    0    0  501  502  0.00000000000E+00  0.00000000000E+00  0.90314187335E+02  0.90314187335E+02  0.00000000000E+00 0. -1.
         21   -1    0    0  502  503 -0.00000000000E+00 -0.00000000000E+00 -0.35633659290E+03  0.35633659290E+03  0.00000000000E+00 0. -1.
         -6    2    1    2    0  503 -0.22294216300E+02  0.41788323413E+02 -0.99936055150E+02  0.20349820512E+03  0.17082449565E+03 0.  0.
        -24    2    3    3    0    0 -0.22699546796E+02  0.85873750654E+02 -0.33599175044E+02  0.12370872680E+03  0.79280350955E+02 0.  0.
          6    2    1    2  501    0  0.22294216300E+02 -0.41788323413E+02 -0.16608635041E+03  0.24315257511E+03  0.17115841474E+03 0.  0.
         24    2    5    5    0    0 -0.52281891937E+02 -0.18366726619E+02 -0.11829170860E+03  0.15141062777E+03  0.76560544711E+02 0.  0.
          5    1    5    5  501    0  0.74576108237E+02 -0.23421596795E+02 -0.47794641808E+02  0.91741947340E+02  0.47000000000E+01 0. -1.
        -13    1    6    6    0    0 -0.36119004285E+02 -0.39842277838E+02 -0.11134148244E+03  0.12364835335E+03  0.00000000000E+00 0.  1.
         14    1    6    6    0    0 -0.16162887652E+02  0.21475551219E+02 -0.69502261647E+01  0.27762274424E+02  0.00000000000E+00 0. -1.
         -5    1    3    3    0  503  0.40533049689E+00 -0.44085427241E+02 -0.66336880107E+02  0.79789478317E+02  0.47000000000E+01 0.  1.
         13    1    4    4    0    0  0.50702303071E+01  0.90118997294E+00 -0.33924329842E+02  0.34312964517E+02  0.00000000000E+00 0. -1.
        -14    1    4    4    0    0 -0.27769777103E+02  0.84972560681E+02  0.32515479852E+00  0.89395762286E+02  0.00000000000E+00 0.  1.
</event>
<event>
12    1  0.9962621E-001  0.2163842E+03  0.7818608E-02  0.1136692E+00
         21   -1    0    0  503  502  0.00000000000E+00  0.00000000000E+00  0.25330469163E+03  0.25330469163E+03  0.00000000000E+00 0.  1.
         21   -1    0    0  501  503 -0.00000000000E+00 -0.00000000000E+00 -0.18568596109E+03  0.18568596109E+03  0.00000000000E+00 0.  1.
          6    2    1    2  501    0  0.11652055509E+03  0.59643247424E+02  0.15999579755E+02  0.21653469405E+03  0.17174670434E+03 0.  0.
         24    2    3    3    0    0  0.95617828976E+02  0.68770932449E+02  0.73242942712E+02  0.15473557435E+03  0.68602907697E+02 0.  0.
         -6    2    1    2    0  502 -0.11652055509E+03 -0.59643247424E+02  0.51619150785E+02  0.22245595867E+03  0.17230136418E+03 0.  0.
        -24    2    5    5    0    0 -0.13965159221E+03 -0.16294614726E+02  0.17639738629E+02  0.16253234659E+03  0.79608552509E+02 0.  0.
          5    1    3    3  501    0  0.20902726115E+02 -0.91276850248E+01 -0.57243362957E+02  0.61799119699E+02  0.47000000000E+01 0. -1.
        -11    1    4    4    0    0  0.69750136467E+02  0.16951604855E+02  0.63835711448E+02  0.96059546638E+02  0.00000000000E+00 0.  1.
         12    1    4    4    0    0  0.25867692509E+02  0.51819327594E+02  0.94072312641E+01  0.58676027712E+02  0.00000000000E+00 0. -1.
         -5    1    5    5    0  502  0.23131037118E+02 -0.43348632699E+02  0.33979412156E+02  0.59923612086E+02  0.47000000000E+01 0.  1.
         11    1    6    6    0    0 -0.70718162825E+02 -0.31241719148E+02 -0.23590342656E+02  0.80830735709E+02  0.00000000000E+00 0. -1.
        -12    1    6    6    0    0 -0.68933429384E+02  0.14947104422E+02  0.41230081285E+02  0.81701610877E+02  0.00000000000E+00 0.  1.
</event>
<event>
12    1  0.9962621E-001  0.2331475E+03  0.7818608E-02  0.1124737E+00
         21   -1    0    0  503  502  0.00000000000E+00  0.00000000000E+00  0.16159490725E+03  0.16159490725E+03  0.00000000000E+00 0. -1.
         21   -1    0    0  501  503 -0.00000000000E+00 -0.00000000000E+00 -0.34064939619E+03  0.34064939619E+03  0.00000000000E+00 0. -1.
          6    2    1    2  501    0 -0.92604324030E+02 -0.12778161432E+03 -0.54622889795E+02  0.23946063068E+03  0.17162176951E+03 0.  0.
         24    2    3    3    0    0 -0.79299459191E+02 -0.15646898308E+03 -0.69472761711E+02  0.20421019451E+03  0.78130608781E+02 0.  0.
         -6    2    1    2    0  502  0.92604324030E+02  0.12778161432E+03 -0.12443159915E+03  0.26278367276E+03  0.16931725846E+03 0.  0.
        -24    2    5    5    0    0  0.11160757805E+03  0.14594627002E+03 -0.89886492102E+02  0.21911981125E+03  0.78596087747E+02 0.  0.
          5    1    3    3  501    0 -0.13304864839E+02  0.28687368756E+02  0.14849871917E+02  0.35250436174E+02  0.47000000000E+01 0. -1.
        -11    1    4    4    0    0 -0.59147575455E+01 -0.27908017608E+02 -0.46290021429E+02  0.54374698965E+02  0.00000000000E+00 0.  1.
         12    1    4    4    0    0 -0.73384701645E+02 -0.12856096547E+03 -0.23182740282E+02  0.14983549554E+03  0.00000000000E+00 0. -1.
         -5    1    5    5    0  502 -0.19003254023E+02 -0.18164655701E+02 -0.34545107050E+02  0.43663861502E+02  0.47000000000E+01 0.  1.
         11    1    6    6    0    0  0.30497566331E+02  0.98308105386E+02 -0.65294780313E+02  0.12189336927E+03  0.00000000000E+00 0. -1.
        -12    1    6    6    0    0  0.81110011722E+02  0.47638164637E+02 -0.24591711789E+02  0.97226441980E+02  0.00000000000E+00 0.  1.
</event>
<event>
12    1  0.9962621E-001  0.2542218E+03  0.7818608E-02  0.1111488E+00
         21   -1    0    0  503  502  0.00000000000E+00  0.00000000000E+00  0.87474544004E+03  0.87474544004E+03  0.00000000000E+00 0.  1.
         21   -1    0    0  501  503 -0.00000000000E+00 -0.00000000000E+00 -0.74299597838E+02  0.74299597838E+02  0.00000000000E+00 0.  1.
          6    2    1    2  501    0  0.54121312804E+02  0.17777502016E+03  0.48091441545E+03  0.54397369437E+03  0.17348092372E+03 0.  0.
         24    2    3    3    0    0 -0.24048881513E+01  0.15101309287E+03  0.23446792607E+03  0.28967195574E+03  0.78255324940E+02 0.  0.
         -6    2    1    2    0  502 -0.54121312804E+02 -0.17777502016E+03  0.31953142676E+03  0.40507134351E+03  0.16567856335E+03 0.  0.
        -24    2    5    5    0    0 -0.67603707731E+02 -0.10448938142E+03  0.28826677770E+03  0.32412612686E+03  0.80446994079E+02 0.  0.
          5    1    3    3  501    0  0.56526200955E+02  0.26761927287E+02  0.24644648938E+03  0.25430173863E+03  0.47000000000E+01 0. -1.
        -11    1    4    4    0    0 -0.14769528921E+02  0.35613905553E+02  0.12243080577E+03  0.12835805956E+03  0.00000000000E+00 0.  1.
         12    1    4    4    0    0  0.12364640770E+02  0.11539918732E+03  0.11203712030E+03  0.16131389618E+03  0.00000000000E+00 0. -1.
         -5    1    5    5    0  502  0.13482394927E+02 -0.73285638736E+02  0.31264649059E+02  0.80945216651E+02  0.47000000000E+01 0.  1.
         11    1    6    6    0    0  0.14603402183E+02 -0.43191931017E+02  0.92672313405E+02  0.10328097565E+03  0.00000000000E+00 0. -1.
        -12    1    6    6    0    0 -0.82207109914E+02 -0.61297450403E+02  0.19559446430E+03  0.22084515120E+03  0.00000000000E+00 0.  1.
</event>
<event>
12    1  0.9962621E-001  0.1731768E+03  0.7818608E-02  0.1177002E+00
         21   -1    0    0  503  502  0.00000000000E+00  0.00000000000E+00  0.44408245350E+02  0.44408245350E+02  0.00000000000E+00 0.  1.
         21   -1    0    0  501  503 -0.00000000000E+00 -0.00000000000E+00 -0.64097797212E+03  0.64097797212E+03  0.00000000000E+00 0.  1.
          6    2    1    2  501    0  0.85807382197E+01  0.21834177793E+02 -0.29112690153E+03  0.33874041631E+03  0.17158040815E+03 0.  0.
         24    2    3    3    0    0 -0.25232296097E+02  0.70189417189E+02 -0.21471984087E+03  0.24208805274E+03  0.83299412736E+02 0.  0.
         -6    2    1    2    0  502 -0.85807382197E+01 -0.21834177793E+02 -0.30544282524E+03  0.34664580116E+03  0.16222709878E+03 0.  0.
        -24    2    5    5    0    0  0.43452795392E+02 -0.46562188398E+02 -0.17412636161E+03  0.20317083209E+03  0.83079566609E+02 0.  0.
          5    1    3    3  501    0  0.33813034317E+02 -0.48355239396E+02 -0.76407060657E+02  0.96652363577E+02  0.47000000000E+01 0. -1.
        -13    1    4    4    0    0  0.19145477529E+02  0.20916200531E+02 -0.13709034414E+03  0.13999213982E+03  0.00000000000E+00 0.  1.
         14    1    4    4    0    0 -0.44377773626E+02  0.49273216658E+02 -0.77629496730E+02  0.10209591292E+03  0.00000000000E+00 0. -1.
         -5    1    5    5    0  502 -0.52033533612E+02  0.24728010605E+02 -0.13131646363E+03  0.14347496907E+03  0.47000000000E+01 0.  1.
         11    1    6    6    0    0 -0.10957041220E+02 -0.32956689594E+02 -0.12111922404E+03  0.12600026418E+03  0.00000000000E+00 0. -1.
        -12    1    6    6    0    0  0.54409836613E+02 -0.13605498804E+02 -0.53007137570E+02  0.77170567908E+02  0.00000000000E+00 0.  1.
</event>
<event>
12    1  0.9962621E-001  0.2566111E+03  0.7818608E-02  0.1109261E+00
         21   -1    0    0  503  502  0.00000000000E+00  0.00000000000E+00  0.51902380097E+03  0.51902380097E+03  0.00000000000E+00 0.  1.
         21   -1    0    0  501  503 -0.00000000000E+00 -0.00000000000E+00 -0.14251556825E+03  0.14251556825E+03  0.00000000000E+00 0.  1.
          6    2    1    2  501    0 -0.48549873296E+02 -0.18474564234E+03  0.29870575889E+03  0.39379483007E+03  0.17135108766E+03 0.  0.
         24    2    3    3    0    0 -0.66619831378E+02 -0.10032041324E+03  0.26280208099E+03  0.30017161297E+03  0.80843529215E+02 0.  0.
         -6    2    1    2    0  502  0.48549873296E+02  0.18474564234E+03  0.77802473831E+02  0.26774453914E+03  0.17072161769E+03 0.  0.
        -24    2    5    5    0    0 -0.55852538181E+01  0.18328519233E+03  0.74620258100E+02  0.21329308004E+03  0.79379457572E+02 0.  0.
          5    1    3    3  501    0  0.18069958082E+02 -0.84425229102E+02  0.35903677892E+02  0.93623217100E+02  0.47000000000E+01 0. -1.
        -11    1    4    4    0    0 -0.38715547206E+02 -0.43260848762E+02  0.20905363182E+03  0.21696501010E+03  0.00000000000E+00 0.  1.
         12    1    4    4    0    0 -0.27904284172E+02 -0.57059564477E+02  0.53748449179E+02  0.83206602878E+02  0.00000000000E+00 0. -1.
         -5    1    5    5    0  502  0.54135127114E+02  0.14604500079E+01  0.31822157316E+01  0.54451459106E+02  0.47000000000E+01 0.  1.
         13    1    6    6    0    0  0.29745504142E+02  0.12025690160E+03  0.66448661961E+02  0.14057717480E+03  0.00000000000E+00 0. -1.
        -14    1    6    6    0    0 -0.35330757960E+02  0.63028290733E+02  0.81715961383E+01  0.72715905235E+02  0.00000000000E+00 0.  1.
</event>
<event>
12    1  0.9962621E-001  0.2836101E+03  0.7818608E-02  0.1093733E+00
         21   -1    0    0  503  502  0.00000000000E+00  0.00000000000E+00  0.86898866246E+03  0.86898866246E+03  0.00000000000E+00 0. -1.
         21   -1    0    0  501  503 -0.00000000000E+00 -0.00000000000E+00 -0.93683953105E+02  0.93683953105E+02  0.00000000000E+00 0. -1.
          6    2    1    2  501    0  0.49886716873E+02  0.22024191841E+03  0.33495912684E+03  0.43889887863E+03  0.17157919998E+03 0.  0.
         24    2    3    3    0    0  0.40093192429E+02  0.24209231601E+03  0.29703083169E+03  0.39379900535E+03  0.81450525426E+02 0.  0.
         -6    2    1    2    0  502 -0.49886716873E+02 -0.22024191841E+03  0.44034558251E+03  0.52377373694E+03  0.17157945192E+03 0.  0.
        -24    2    5    5    0    0 -0.81898774428E+02 -0.11860500757E+03  0.34033414628E+03  0.37755742167E+03  0.77121452659E+02 0.  0.
          5    1    3    3  501    0  0.97935244444E+01 -0.21850397604E+02  0.37928295155E+02  0.45099873280E+02  0.47000000000E+01 0. -1.
        -11    1    4    4    0    0  0.30262347984E+01  0.16227230534E+03  0.14257613383E+03  0.21603104664E+03  0.00000000000E+00 0.  1.
         12    1    4    4    0    0  0.37066957630E+02  0.79820010670E+02  0.15445469786E+03  0.17776795871E+03  0.00000000000E+00 0. -1.
         -5    1    5    5    0  502  0.32012057555E+02 -0.10163691084E+03  0.10001143624E+03  0.14621631527E+03  0.47000000000E+01 0.  1.
         11    1    6    6    0    0 -0.16455056450E+02  0.81241571362E+01  0.64084487844E+02  0.66660275983E+02  0.00000000000E+00 0. -1.
        -12    1    6    6    0    0 -0.65443717978E+02 -0.12672916471E+03  0.27624965843E+03  0.31089714568E+03  0.00000000000E+00 0.  1.
</event>
<event>
12    1  0.9962621E-001  0.1873511E+03  0.7818608E-02  0.1161671E+00
         21   -1    0    0  501  502  0.00000000000E+00  0.00000000000E+00  0.19096556901E+03  0.19096556901E+03  0.00000000000E+00 0.  1.
         21   -1    0    0  502  503 -0.00000000000E+00 -0.00000000000E+00 -0.26124392629E+03  0.26124392629E+03  0.00000000000E+00 0.  1.
         -6    2    1    2    0  503  0.47541269668E+01 -0.71629038312E+02 -0.16110799248E+03  0.24709559232E+03  0.17305237834E+03 0.  0.
        -24    2    3    3    0    0  0.67776775456E+02 -0.65020921819E+02 -0.95194274707E+02  0.15554107514E+03  0.79433396956E+02 0.  0.
          6    2    1    2  501    0 -0.47541269668E+01  0.71629038312E+02  0.90829635194E+02  0.20511390298E+03  0.16931736389E+03 0.  0.
         24    2    5    5    0    0 -0.43799889607E+02 -0.10999046822E+02  0.51006600830E+02  0.10531442353E+03  0.80312172893E+02 0.  0.
          5    1    5    5  501    0  0.39045762640E+02  0.82628085134E+02  0.39823034364E+02  0.99799479453E+02  0.47000000000E+01 0. -1.
        -13    1    6    6    0    0 -0.48547681093E+02  0.56254896777E+01 -0.26468396417E+01  0.48944144019E+02  0.00000000000E+00 0.  1.
         14    1    6    6    0    0  0.47477914862E+01 -0.16624536500E+02  0.53653440471E+02  0.56370279512E+02  0.00000000000E+00 0. -1.
         -5    1    3    3    0  503 -0.63022648489E+02 -0.66081164925E+01 -0.65913717768E+02  0.91554517181E+02  0.47000000000E+01 0.  1.
         11    1    4    4    0    0  0.39384445167E+01 -0.58221819148E+02 -0.38674608110E+02  0.70007263070E+02  0.00000000000E+00 0. -1.
        -12    1    4    4    0    0  0.63838330939E+02 -0.67991026711E+01 -0.56519666597E+02  0.85533812065E+02  0.00000000000E+00 0.  1.
</event>
<event>
12    1  0.9962621E-001  0.2299517E+03  0.7818608E-02  0.1128625E+00
         21   -1    0    0  503  502  0.00000000000E+00  0.00000000000E+00  0.62056090955E+03  0.62056090955E+03  0.00000000000E+00 0. -1.
         21   -1    0    0  501  503 -0.00000000000E+00 -0.00000000000E+00 -0.82238105838E+02  0.82238105838E+02  0.00000000000E+00 0. -1.
          6    2    1    2  501    0  0.11702985081E+03  0.70061695788E+02  0.23712434696E+03  0.33031154731E+03  0.18513004933E+03 0.  0.
         24    2    3    3    0    0  0.14150130746E+03  0.41563906472E+02  0.11842224009E+03  0.20571918654E+03  0.80909693040E+02 0.  0.
         -6    2    1    2    0  502 -0.11702985081E+03 -0.70061695788E+02  0.30119845676E+03  0.37248746808E+03  0.17152777130E+03 0.  0.
        -24    2    5    5    0    0 -0.10770492654E+03  0.14715211607E+02  0.17537201915E+03  0.22040702673E+03  0.77504991317E+02 0.  0.
          5    1    3    3  501    0 -0.24471456652E+02  0.28497789316E+02  0.11870210687E+03  0.12459236077E+03  0.47000000000E+01 0. -1.
        -13    1    4    4    0    0  0.11352693985E+02  0.10676264929E+02 -0.11404884672E+02  0.19311594650E+02  0.00000000000E+00 0.  1.
         14    1    4    4    0    0  0.13014861348E+03  0.30887641543E+02  0.12982712476E+03  0.18640759189E+03  0.00000000000E+00 0. -1.
         -5    1    5    5    0  502 -0.93249242719E+01 -0.84776907395E+02  0.12582643761E+03  0.15208044135E+03  0.47000000000E+01 0.  1.
         13    1    6    6    0    0 -0.75132322555E+02 -0.24183003786E+02  0.80011700003E+02  0.11239019398E+03  0.00000000000E+00 0. -1.
        -14    1    6    6    0    0 -0.32572603984E+02  0.38898215393E+02  0.95360319143E+02  0.10801683275E+03  0.00000000000E+00 0.  1.
</event>
<event>
12    1  0.9962621E-001  0.1745446E+03  0.7818608E-02  0.1174342E+00
         21   -1    0    0  503  502  0.00000000000E+00  0.00000000000E+00  0.23981538422E+03  0.23981538422E+03  0.00000000000E+00 0. -1.
         21   -1    0    0  501  503 -0.00000000000E+00 -0.00000000000E+00 -0.23710741089E+03  0.23710741089E+03  0.00000000000E+00 0. -1.
          6    2    1    2  501    0  0.18182169832E+02  0.25636450942E+02  0.16619922101E+03  0.23776760688E+03  0.16710306670E+03 0.  0.
         24    2    3    3    0    0 -0.21877385487E+02 -0.88971206563E+01  0.16569930133E+03  0.18466699051E+03  0.78024740748E+02 0.  0.
         -6    2    1    2    0  502 -0.18182169832E+02 -0.25636450942E+02 -0.16349124769E+03  0.23915518823E+03  0.17169157542E+03 0.  0.
        -24    2    5    5    0    0 -0.45622822215E+02 -0.67731634295E+02 -0.73031642877E+02  0.13556935924E+03  0.79852452137E+02 0.  0.
          5    1    3    3  501    0  0.40059555319E+02  0.34533571599E+02  0.49991967871E+00  0.53100616375E+02  0.47000000000E+01 0. -1.
        -11    1    4    4    0    0 -0.36571040433E+02 -0.20123209602E+02  0.40674242229E+02  0.58281888644E+02  0.00000000000E+00 0.  1.
         12    1    4    4    0    0  0.14693654946E+02  0.11226088946E+02  0.12502505911E+03  0.12638510186E+03  0.00000000000E+00 0. -1.
         -5    1    5    5    0  502  0.27440652383E+02  0.42095183352E+02 -0.90459604810E+02  0.10358582899E+03  0.47000000000E+01 0.  1.
         13    1    6    6    0    0 -0.67450184768E+02 -0.44132469457E+02 -0.61611209227E+02  0.10145512992E+03  0.00000000000E+00 0. -1.
        -14    1    6    6    0    0  0.21827362553E+02 -0.23599164838E+02 -0.11420433650E+02  0.34114229316E+02  0.00000000000E+00 0.  1.
</event>
<event>
12    1  0.9962621E-001  0.1973016E+03  0.7818608E-02  0.1152277E+00
         21   -1    0    0  503  502  0.00000000000E+00  0.00000000000E+00  0.15450177787E+03  0.15450177787E+03  0.00000000000E+00 0.  1.
         21   -1    0    0  501  503 -0.00000000000E+00 -0.00000000000E+00 -0.29812045339E+03  0.29812045339E+03  0.00000000000E+00 0.  1.
          6    2    1    2  501    0  0.95480935265E+02  0.17999972597E+02 -0.16240171355E+03  0.25554303447E+03  0.17171871736E+03 0.  0.
         24    2    3    3    0    0  0.82803421161E+02 -0.51883055378E+02 -0.82215075081E+02  0.14832202929E+03  0.75444335847E+02 0.  0.
         -6    2    1    2    0  502 -0.95480935265E+02 -0.17999972597E+02  0.18783038034E+02  0.19707919679E+03  0.17043121568E+03 0.  0.
        -24    2    5    5    0    0 -0.18265648321E+02 -0.54947822114E+02 -0.21230112028E+02  0.10247218701E+03  0.81834799385E+02 0.  0.
          5    1    3    3  501    0  0.12677514104E+02  0.69883027975E+02 -0.80186638470E+02  0.10722100518E+03  0.47000000000E+01 0. -1.
        -13    1    4    4    0    0 -0.70449219836E+00 -0.27866914106E+02  0.11584675056E+01  0.27899879176E+02  0.00000000000E+00 0.  1.
         14    1    4    4    0    0  0.83507913360E+02 -0.24016141272E+02 -0.83373542587E+02  0.12042215012E+03  0.00000000000E+00 0. -1.
         -5    1    5    5    0  502 -0.77215286945E+02  0.36947849518E+02  0.40013150062E+02  0.94607009781E+02  0.47000000000E+01 0.  1.
         11    1    6    6    0    0 -0.28348616471E+02  0.13236082134E+02 -0.53399184196E+01  0.31738819367E+02  0.00000000000E+00 0. -1.
        -12    1    6    6    0    0  0.10082968150E+02 -0.68183904249E+02 -0.15890193608E+02  0.70733367644E+02  0.00000000000E+00 0.  1.
</event>
<event>
12    1  0.9962621E-001  0.2446368E+03  0.7818608E-02  0.1116918E+00
         21   -1    0    0  501  502  0.00000000000E+00  0.00000000000E+00  0.40219464715E+03  0.40219464715E+03  0.00000000000E+00 0. -1.
         21   -1    0    0  502  503 -0.00000000000E+00 -0.00000000000E+00 -0.16166844960E+03  0.16166844960E+03  0.00000000000E+00 0.  1.
         -6    2    1    2    0  503 -0.14004758482E+03  0.10515308001E+03  0.20204533194E+03  0.31728455540E+03  0.17081181659E+03 0.  0.
        -24    2    3    3    0    0 -0.14169987515E+03  0.11499744454E+03  0.21951291573E+03  0.29662425386E+03  0.80602487190E+02 0.  0.
          6    2    1    2  501    0  0.14004758482E+03 -0.10515308001E+03  0.38480865612E+02  0.24657854134E+03  0.16926223378E+03 0.  0.
         24    2    5    5    0    0  0.42033291346E+02 -0.65805113169E+02  0.84698719799E+02  0.13119550851E+03  0.62779597143E+02 0.  0.
          5    1    5    5  501    0  0.98014293475E+02 -0.39347966843E+02 -0.46217854187E+02  0.11538303283E+03  0.47000000000E+01 0. -1.
        -11    1    6    6    0    0 -0.12312617221E+02 -0.55452691605E+01 -0.53137910925E+00  0.13514174657E+02  0.00000000000E+00 0.  1.
         12    1    6    6    0    0  0.54345908567E+02 -0.60259844009E+02  0.85230098908E+02  0.11768133385E+03  0.00000000000E+00 0. -1.
         -5    1    3    3    0  503  0.16522903242E+01 -0.98443645296E+01 -0.17467583785E+02  0.20660301537E+02  0.47000000000E+01 0.  1.
         11    1    4    4    0    0 -0.45527669580E+01  0.23384679532E+02  0.70249323642E+02  0.74179096759E+02  0.00000000000E+00 0. -1.
        -12    1    4    4    0    0 -0.13714710819E+03  0.91612765010E+02  0.14926359209E+03  0.22244515710E+03  0.00000000000E+00 0.  1.
</event>
<event>
12    1  0.9962621E-001  0.5188192E+03  0.7818608E-02  0.1009014E+00
         21   -1    0    0  501  502  0.00000000000E+00  0.00000000000E+00  0.48560183193E+03  0.48560183193E+03  0.00000000000E+00 0. -1.
         21   -1    0    0  502  503 -0.00000000000E+00 -0.00000000000E+00 -0.80788229006E+03  0.80788229006E+03  0.00000000000E+00 0. -1.
         -6    2    1    2    0  503 -0.32477094519E+03 -0.36591872449E+03 -0.52382593562E+03  0.73689271564E+03  0.17101047851E+03 0.  0.
        -24    2    3    3    0    0 -0.28545227850E+03 -0.35150551232E+03 -0.41174636814E+03  0.61715292408E+03  0.79394782787E+02 0.  0.
          6    2    1    2  501    0  0.32477094519E+03  0.36591872449E+03  0.20154547749E+03  0.55659140635E+03  0.17262889201E+03 0.  0.
         24    2    5    5    0    0  0.92565464378E+02  0.13213933489E+03  0.24129753929E+02  0.18233131325E+03  0.81445035129E+02 0.  0.
          5    1    5    5  501    0  0.23220548081E+03  0.23377938961E+03  0.17741572356E+03  0.37426009310E+03  0.47000000000E+01 0. -1.
        -11    1    6    6    0    0  0.91712485169E+02  0.11793651124E+03  0.45928610990E+02  0.15629983342E+03  0.00000000000E+00 0.  1.
         12    1    6    6    0    0  0.85297920882E+00  0.14202823649E+02 -0.21798857061E+02  0.26031479833E+02  0.00000000000E+00 0. -1.
         -5    1    3    3    0  503 -0.39318666690E+02 -0.14413212170E+02 -0.11207956748E+03  0.11973979156E+03  0.47000000000E+01 0.  1.
         11    1    4    4    0    0 -0.10415513988E+03 -0.13365470893E+03 -0.10416805934E+03  0.19890414518E+03  0.00000000000E+00 0. -1.
        -12    1    4    4    0    0 -0.18129713862E+03 -0.21785080339E+03 -0.30757830879E+03  0.41824877890E+03  0.00000000000E+00 0.  1.
</event>
<event>
12    1  0.9962621E-001  0.2557480E+03  0.7818608E-02  0.1111345E+00
         21   -1    0    0  501  502  0.00000000000E+00  0.00000000000E+00  0.12203290977E+03  0.12203290977E+03  0.00000000000E+00 0. -1.
         21   -1    0    0  502  503 -0.00000000000E+00 -0.00000000000E+00 -0.53335910957E+03  0.53335910957E+03  0.00000000000E+00 0. -1.
         -6    2    1    2    0  503  0.37268630944E+02 -0.17051373296E+03 -0.26309873376E+03  0.35979362150E+03  0.17253006227E+03 0.  0.
        -24    2    3    3    0    0  0.27291981646E+02 -0.19191914474E+02 -0.53605410794E+02  0.10112903435E+03  0.78995947228E+02 0.  0.
          6    2    1    2  501    0 -0.37268630944E+02  0.17051373296E+03 -0.14822746605E+03  0.29559839784E+03  0.18693086191E+03 0.  0.
         24    2    5    5    0    0  0.41805336553E+02  0.14454509127E+03 -0.76199294014E+02  0.18542939016E+03  0.77050352051E+02 0.  0.
          5    1    5    5  501    0 -0.79073967497E+02  0.25968641685E+02 -0.72028172034E+02  0.11016900768E+03  0.47000000000E+01 0. -1.
        -11    1    6    6    0    0  0.33817810534E+02  0.53066588141E+02  0.46293948052E+01  0.63096262825E+02  0.00000000000E+00 0.  1.
         12    1    6    6    0    0  0.79875260197E+01  0.91478503132E+02 -0.80828688820E+02  0.12233312733E+03  0.00000000000E+00 0. -1.
         -5    1    3    3    0  503  0.99766492973E+01 -0.15132181848E+03 -0.20949332296E+03  0.25866458715E+03  0.47000000000E+01 0.  1.
         13    1    4    4    0    0  0.42373250764E+02 -0.13848896721E+02  0.62940355715E+00  0.44583410251E+02  0.00000000000E+00 0. -1.
        -14    1    4    4    0    0 -0.15081269118E+02 -0.53430177523E+01 -0.54234814351E+02  0.56545624098E+02  0.00000000000E+00 0.  1.
</event>
<event>
12    1  0.9962621E-001  0.2585069E+03  0.7818608E-02  0.1108245E+00
         21   -1    0    0  503  502  0.00000000000E+00  0.00000000000E+00  0.26592557541E+03  0.26592557541E+03  0.00000000000E+00 0.  1.
         21   -1    0    0  501  503 -0.00000000000E+00 -0.00000000000E+00 -0.30557273741E+03  0.30557273741E+03  0.00000000000E+00 0. -1.
          6    2    1    2  501    0  0.13271211308E+03 -0.13922632755E+03  0.10206951151E+03  0.27669421392E+03  0.17071914829E+03 0.  0.
         24    2    3    3    0    0  0.15518710552E+03 -0.13408181393E+03  0.11672341853E+03  0.24897385504E+03  0.79389253118E+02 0.  0.
         -6    2    1    2    0  502 -0.13271211308E+03  0.13922632755E+03 -0.14171667351E+03  0.29480409890E+03  0.17271180022E+03 0.  0.
        -24    2    5    5    0    0 -0.10224371689E+03  0.11432959711E+03 -0.29995795572E+02  0.17626374746E+03  0.81511511433E+02 0.  0.
          5    1    3    3  501    0 -0.22474992440E+02 -0.51445136233E+01 -0.14653907018E+02  0.27720358881E+02  0.47000000000E+01 0. -1.
        -13    1    4    4    0    0  0.26524967607E+02 -0.72187471397E+02  0.35407251150E+02  0.84665685890E+02  0.00000000000E+00 0.  1.
         14    1    4    4    0    0  0.12866213792E+03 -0.61894342534E+02  0.81316167380E+02  0.16430816915E+03  0.00000000000E+00 0. -1.
         -5    1    5    5    0  502 -0.30468396190E+02  0.24896730441E+02 -0.11172087794E+03  0.11854035144E+03  0.47000000000E+01 0.  1.
         13    1    6    6    0    0 -0.61649748476E+02  0.37977541720E+02 -0.49382221160E+02  0.87644674276E+02  0.00000000000E+00 0. -1.
        -14    1    6    6    0    0 -0.40593968415E+02  0.76352055394E+02  0.19386425588E+02  0.88619073182E+02  0.00000000000E+00 0.  1.
</event>
<event>
12    1  0.9962621E-001  0.2329602E+03  0.7818608E-02  0.1125299E+00
         21   -1    0    0  503  502  0.00000000000E+00  0.00000000000E+00  0.17433391209E+04  0.17433391209E+04  0.00000000000E+00 0. -1.
         21   -1    0    0  501  503 -0.00000000000E+00 -0.00000000000E+00 -0.33637530723E+02  0.33637530723E+02  0.00000000000E+00 0. -1.
          6    2    1    2  501    0  0.10227071755E+03 -0.11916305455E+03  0.11298145597E+04  0.11535819860E+04  0.17207941752E+03 0.  0.
         24    2    3    3    0    0  0.83468584400E+02 -0.33766805438E+02  0.38291081953E+03  0.40156248718E+03  0.80774585489E+02 0.  0.
         -6    2    1    2    0  502 -0.10227071755E+03  0.11916305455E+03  0.57988703043E+03  0.62339466555E+03  0.16641156131E+03 0.  0.
        -24    2    5    5    0    0 -0.98444149228E+02  0.86903620164E+02  0.56552468452E+03  0.58756617532E+03  0.90401061197E+02 0.  0.
          5    1    3    3  501    0  0.18802133147E+02 -0.85396249116E+02  0.74690374017E+03  0.75201949885E+03  0.47000000000E+01 0. -1.
        -11    1    4    4    0    0  0.92766091423E+02 -0.47170893047E+02  0.31619494822E+03  0.33288118924E+03  0.00000000000E+00 0.  1.
         12    1    4    4    0    0 -0.92975070228E+01  0.13404087609E+02  0.66715871314E+02  0.68681297939E+02  0.00000000000E+00 0. -1.
         -5    1    5    5    0  502 -0.38265683190E+01  0.32259434389E+02  0.14362345915E+02  0.35828490233E+02  0.47000000000E+01 0.  1.
         11    1    6    6    0    0 -0.14399833686E+02 -0.88650314315E+00  0.71191114302E+01  0.16087972078E+02  0.00000000000E+00 0. -1.
        -12    1    6    6    0    0 -0.84044315542E+02  0.87790123307E+02  0.55840557309E+03  0.57147820324E+03  0.00000000000E+00 0.  1.
</event>
<event>
12    1  0.9962621E-001  0.1996254E+03  0.7818608E-02  0.1151667E+00
         21   -1    0    0  501  502  0.00000000000E+00  0.00000000000E+00  0.41203537610E+02  0.41203537610E+02  0.00000000000E+00 0. -1.
         21   -1    0    0  502  503 -0.00000000000E+00 -0.00000000000E+00 -0.93524230254E+03  0.93524230254E+03  0.00000000000E+00 0. -1.
         -6    2    1    2    0  503 -0.69771164710E+02 -0.48789981339E+02 -0.48716714180E+03  0.52648089859E+03  0.18055978188E+03 0.  0.
        -24    2    3    3    0    0 -0.10968888141E+03 -0.67114989076E+02 -0.40902540762E+03  0.43671759520E+03  0.82972293083E+02 0.  0.
          6    2    1    2  501    0  0.69771164710E+02  0.48789981339E+02 -0.40687162313E+03  0.44996494155E+03  0.17226564723E+03 0.  0.
         24    2    5    5    0    0  0.78516591085E+02 -0.23192251860E+01 -0.36902749981E+03  0.38559956931E+03  0.79595843824E+02 0.  0.
          5    1    5    5  501    0 -0.87454263751E+01  0.51109206525E+02 -0.37844123314E+02  0.64365372239E+02  0.47000000000E+01 0. -1.
        -13    1    6    6    0    0  0.22434315104E+02  0.36380615899E+02 -0.11856104017E+03  0.12603002799E+03  0.00000000000E+00 0.  1.
         14    1    6    6    0    0  0.56082275982E+02 -0.38699841085E+02 -0.25046645964E+03  0.25956954133E+03  0.00000000000E+00 0. -1.
         -5    1    3    3    0  503  0.39917716699E+02  0.18325007736E+02 -0.78141734178E+02  0.89763303390E+02  0.47000000000E+01 0.  1.
         11    1    4    4    0    0 -0.21856097933E+02 -0.57413193885E+02 -0.21326258273E+03  0.22193443410E+03  0.00000000000E+00 0. -1.
        -12    1    4    4    0    0 -0.87832783477E+02 -0.97017951911E+01 -0.19576282489E+03  0.21478316110E+03  0.00000000000E+00 0.  1.
</event>
<event>
12    1  0.9962621E-001  0.1736600E+03  0.7818608E-02  0.1175099E+00
         21   -1    0    0  503  502  0.00000000000E+00  0.00000000000E+00  0.87984366423E+03  0.87984366423E+03  0.00000000000E+00 0.  1.
         21   -1    0    0  501  503 -0.00000000000E+00 -0.00000000000E+00 -0.33631852467E+02  0.33631852467E+02  0.00000000000E+00 0.  1.
          6    2    1    2  501    0  0.15741522775E+02  0.19293031207E+02  0.44682974170E+03  0.47797141365E+03  0.16786851284E+03 0.  0.
         24    2    3    3    0    0  0.54781391614E+02 -0.21036422524E+02  0.18508634789E+03  0.21023596511E+03  0.80614346821E+02 0.  0.
         -6    2    1    2    0  502 -0.15741522775E+02 -0.19293031207E+02  0.39938207006E+03  0.43550410305E+03  0.17186555586E+03 0.  0.
        -24    2    5    5    0    0 -0.71305710117E+02 -0.15093752242E+02  0.19121253144E+03  0.21995443437E+03  0.80656031180E+02 0.  0.
          5    1    3    3  501    0 -0.39039868839E+02  0.40329453731E+02  0.26174339381E+03  0.26773544853E+03  0.47000000000E+01 0. -1.
        -11    1    4    4    0    0  0.75804015800E+02 -0.16166595478E+02  0.13441877515E+03  0.15516447639E+03  0.00000000000E+00 0.  1.
         12    1    4    4    0    0 -0.21022624186E+02 -0.48698270463E+01  0.50667572741E+02  0.55071488727E+02  0.00000000000E+00 0. -1.
         -5    1    5    5    0  502  0.55564187342E+02 -0.41992789650E+01  0.20816953862E+03  0.21554966868E+03  0.47000000000E+01 0.  1.
         11    1    6    6    0    0 -0.35493392135E+02 -0.45702066484E+02  0.13317330627E+03  0.14520189141E+03  0.00000000000E+00 0. -1.
        -12    1    6    6    0    0 -0.35812317982E+02  0.30608314243E+02  0.58039225166E+02  0.74752542953E+02  0.00000000000E+00 0.  1.
</event>
<event>
12    1  0.9962621E-001  0.4562762E+03  0.7818608E-02  0.1025995E+00
         21   -1    0    0  503  502  0.00000000000E+00  0.00000000000E+00  0.13838160640E+04  0.13838160640E+04  0.00000000000E+00 0.  1.
         21   -1    0    0  501  503 -0.00000000000E+00 -0.00000000000E+00 -0.15931724722E+03  0.15931724722E+03  0.00000000000E+00 0. -1.
          6    2    1    2  501    0 -0.29953572757E+03 -0.29523481564E+03  0.79904977247E+03  0.91927848715E+03  0.17235762122E+03 0.  0.
         24    2    3    3    0    0 -0.68763057760E+02 -0.56348320366E+02  0.26402616665E+03  0.28952049272E+03  0.78795987914E+02 0.  0.
         -6    2    1    2    0  502  0.29953572757E+03  0.29523481564E+03  0.42544904436E+03  0.62385482412E+03  0.17692570128E+03 0.  0.
        -24    2    5    5    0    0  0.13596669081E+03  0.18834221635E+03  0.16008940491E+03  0.29428133334E+03  0.83744576685E+02 0.  0.
          5    1    3    3  501    0 -0.23077266981E+03 -0.23888649527E+03  0.53502360583E+03  0.62975799443E+03  0.47000000000E+01 0. -1.
        -11    1    4    4    0    0 -0.38297121484E+01 -0.42309204931E+01 -0.51955316582E+01  0.77175729714E+01  0.00000000000E+00 0.  1.
         12    1    4    4    0    0 -0.64933345611E+02 -0.52117399873E+02  0.26922169830E+03  0.28180291975E+03  0.00000000000E+00 0. -1.
         -5    1    5    5    0  502  0.16356903676E+03  0.10689259929E+03  0.26535963945E+03  0.32957349078E+03  0.47000000000E+01 0.  1.
         11    1    6    6    0    0  0.61473380388E+02  0.38682766606E+02  0.17872347142E+02  0.74798086346E+02  0.00000000000E+00 0. -1.
        -12    1    6    6    0    0  0.74493310418E+02  0.14965944974E+03  0.14221705776E+03  0.21948324700E+03  0.00000000000E+00 0.  1.
</event>
<event>
12    1  0.9962621E-001  0.2720944E+03  0.7818608E-02  0.1100322E+00
         21   -1    0    0  503  502  0.00000000000E+00  0.00000000000E+00  0.13685586997E+03  0.13685586997E+03  0.00000000000E+00 0.  1.
         21   -1    0    0  501  503 -0.00000000000E+00 -0.00000000000E+00 -0.61759822891E+03  0.61759822891E+03  0.00000000000E+00 0.  1.
          6    2    1    2  501    0 -0.14615540153E+03  0.14973594919E+03 -0.10531588225E+03  0.29176498887E+03  0.17393423413E+03 0.  0.
         24    2    3    3    0    0 -0.15201990238E+03  0.96036076380E+02 -0.28422274482E+02  0.19767574600E+03  0.77038277377E+02 0.  0.
         -6    2    1    2    0  502  0.14615540153E+03 -0.14973594919E+03 -0.37542647669E+03  0.46268911001E+03  0.17132984926E+03 0.  0.
        -24    2    5    5    0    0  0.26813408662E+02 -0.18522262739E+02 -0.79706762595E+02  0.11782423491E+03  0.80419831061E+02 0.  0.
          5    1    3    3  501    0  0.58645008569E+01  0.53699872806E+02 -0.76893607767E+02  0.94089242877E+02  0.47000000000E+01 0. -1.
        -13    1    4    4    0    0 -0.51128399354E+02  0.35216201656E+02 -0.47715086335E+02  0.78300852764E+02  0.00000000000E+00 0.  1.
         14    1    4    4    0    0 -0.10089150303E+03  0.60819874724E+02  0.19292811853E+02  0.11937489323E+03  0.00000000000E+00 0. -1.
         -5    1    5    5    0  502  0.11934199286E+03 -0.13121368645E+03 -0.29571971409E+03  0.34486487510E+03  0.47000000000E+01 0.  1.
         13    1    6    6    0    0  0.23431557995E+02 -0.21502891224E+02 -0.95889282110E+02  0.10102557431E+03  0.00000000000E+00 0. -1.
        -14    1    6    6    0    0  0.33818506677E+01  0.29806284857E+01  0.16182519515E+02  0.16798660600E+02  0.00000000000E+00 0.  1.
</event>
<event>
12    1  0.9962621E-001  0.1784640E+03  0.7818608E-02  0.1169410E+00
         21   -1    0    0  503  502  0.00000000000E+00  0.00000000000E+00  0.22309099594E+03  0.22309099594E+03  0.00000000000E+00 0. -1.
         21   -1    0    0  501  503 -0.00000000000E+00 -0.00000000000E+00 -0.16205596474E+03  0.16205596474E+03  0.00000000000E+00 0. -1.
          6    2    1    2  501    0 -0.44376742550E+02 -0.44020840196E+01  0.97622703195E+02  0.20341975347E+03  0.17280257608E+03 0.  0.
         24    2    3    3    0    0  0.27631988580E+02 -0.26174223848E+02  0.89958861151E+02  0.12765625364E+03  0.82188232779E+02 0.  0.
         -6    2    1    2    0  502  0.44376742550E+02  0.44020840196E+01 -0.36587671999E+02  0.18172720721E+03  0.17232947071E+03 0.  0.
        -24    2    5    5    0    0  0.86974461592E+02 -0.33018341305E+02  0.37976050043E+01  0.11195676578E+03  0.62170151746E+02 0.  0.
          5    1    3    3  501    0 -0.72008731131E+02  0.21772139828E+02  0.76638420439E+01  0.75763499831E+02  0.47000000000E+01 0. -1.
        -11    1    4    4    0    0  0.23665986977E+02 -0.85693743618E+01  0.10258766262E+03  0.10563021177E+03  0.00000000000E+00 0.  1.
         12    1    4    4    0    0  0.39660016028E+01 -0.17604849486E+02 -0.12628801467E+02  0.22026041874E+02  0.00000000000E+00 0. -1.
         -5    1    5    5    0  502 -0.42597719041E+02  0.37420425325E+02 -0.40385277003E+02  0.69770441432E+02  0.47000000000E+01 0.  1.
         13    1    6    6    0    0  0.17409140580E+02 -0.36018818054E+02  0.12193475051E+02  0.41822413412E+02  0.00000000000E+00 0. -1.
        -14    1    6    6    0    0  0.69565321011E+02  0.30004767485E+01 -0.83958700468E+01  0.70134352367E+02  0.00000000000E+00 0.  1.
</event>
<event>
12    1  0.9962621E-001  0.4789367E+03  0.7818608E-02  0.1019658E+00
         21   -1    0    0  501  502  0.00000000000E+00  0.00000000000E+00  0.27711061910E+03  0.27711061910E+03  0.00000000000E+00 0.  1.
         21   -1    0    0  502  503 -0.00000000000E+00 -0.00000000000E+00 -0.82630422860E+03  0.82630422860E+03  0.00000000000E+00 0.  1.
         -6    2    1    2    0  503 -0.24047368037E+02  0.44628190141E+03 -0.31338740133E+03  0.56957502448E+03  0.16265987139E+03 0.  0.
        -24    2    3    3    0    0 -0.22022382507E+02  0.42083832356E+03 -0.23806598222E+03  0.48990770121E+03  0.75790922300E+02 0.  0.
          6    2    1    2  501    0  0.24047368037E+02 -0.44628190141E+03 -0.23580620817E+03  0.53383982322E+03  0.17214696514E+03 0.  0.
         24    2    5    5    0    0  0.14401704753E+02 -0.12999858098E+03 -0.28666226776E+02  0.15561073986E+03  0.79283728768E+02 0.  0.
          5    1    5    5  501    0  0.96456632836E+01 -0.31628332044E+03 -0.20713998139E+03  0.37822908336E+03  0.47000000000E+01 0. -1.
        -13    1    6    6    0    0 -0.32727025375E+02 -0.44071059229E+02 -0.12212860947E+02  0.56235846432E+02  0.00000000000E+00 0.  1.
         14    1    6    6    0    0  0.47128730128E+02 -0.85927521749E+02 -0.16453365829E+02  0.99374893432E+02  0.00000000000E+00 0. -1.
         -5    1    3    3    0  503 -0.20249855301E+01  0.25443577850E+02 -0.75321419112E+02  0.79667323271E+02  0.47000000000E+01 0.  1.
         13    1    4    4    0    0 -0.18837842881E+02  0.42243999855E+02 -0.46530321604E+02  0.65608617396E+02  0.00000000000E+00 0. -1.
        -14    1    4    4    0    0 -0.31845396261E+01  0.37859432371E+03 -0.19153566062E+03  0.42429908382E+03  0.00000000000E+00 0.  1.
</event>
<event>
12    1  0.9962621E-001  0.1843889E+03  0.7818608E-02  0.1163707E+00
         21   -1    0    0  503  502  0.00000000000E+00  0.00000000000E+00  0.24953604815E+02  0.24953604815E+02  0.00000000000E+00 0. -1.
         21   -1    0    0  501  503 -0.00000000000E+00 -0.00000000000E+00 -0.13827855116E+04  0.13827855116E+04  0.00000000000E+00 0. -1.
          6    2    1    2  501    0 -0.45655503983E+02 -0.48813369485E+02 -0.76897703544E+03  0.79069022717E+03  0.17145898698E+03 0.  0.
         24    2    3    3    0    0  0.38184015998E+02 -0.32521461468E+02 -0.44865125937E+03  0.45914055639E+03  0.83704441058E+02 0.  0.
         -6    2    1    2    0  502  0.45655503983E+02  0.48813369485E+02 -0.58885487135E+03  0.61704888926E+03  0.17184906789E+03 0.  0.
        -24    2    5    5    0    0  0.34213260159E+02  0.98899026913E+02 -0.46141007298E+03  0.47955792717E+03  0.78262285734E+02 0.  0.
          5    1    3    3  501    0 -0.83839519981E+02 -0.16291908017E+02 -0.32032577607E+03  0.33154967078E+03  0.47000000000E+01 0. -1.
        -13    1    4    4    0    0  0.18801676005E+02  0.14155937860E+02 -0.32079541986E+03  0.32165757414E+03  0.00000000000E+00 0.  1.
         14    1    4    4    0    0  0.19382339993E+02 -0.46677399328E+02 -0.12785583951E+03  0.13748298225E+03  0.00000000000E+00 0. -1.
         -5    1    5    5    0  502  0.11442243824E+02 -0.50085657428E+02 -0.12744479837E+03  0.13749096208E+03  0.47000000000E+01 0.  1.
         11    1    6    6    0    0  0.79279266400E+01 -0.60409252189E+01 -0.14151375878E+03  0.14186433210E+03  0.00000000000E+00 0. -1.
        -12    1    6    6    0    0  0.26285333519E+02  0.10493995213E+03 -0.31989631420E+03  0.33769359507E+03  0.00000000000E+00 0.  1.
</event>
<event>
12    1  0.9962621E-001  0.1877647E+03  0.7818608E-02  0.1160589E+00
         21   -1    0    0  501  502  0.00000000000E+00  0.00000000000E+00  0.11460674452E+03  0.11460674452E+03  0.00000000000E+00 0. -1.
         21   -1    0    0  502  503 -0.00000000000E+00 -0.00000000000E+00 -0.43340651496E+03  0.43340651496E+03  0.00000000000E+00 0. -1.
         -6    2    1    2    0  503 -0.37631659047E+01 -0.73290327455E+02 -0.11509655929E+02  0.18811713174E+03  0.17282924972E+03 0.  0.
        -24    2    3    3    0    0  0.29276143434E+02  0.18584867404E+01  0.36495626605E+02  0.92904016115E+02  0.80241378987E+02 0.  0.
          6    2    1    2  501    0  0.37631659047E+01  0.73290327455E+02 -0.30729011451E+03  0.35989612773E+03  0.17237277849E+03 0.  0.
         24    2    5    5    0    0  0.65707847754E+02  0.27439258538E+02 -0.18809361466E+03  0.21787725678E+03  0.83790554235E+02 0.  0.
          5    1    5    5  501    0 -0.61944681849E+02  0.45851068917E+02 -0.11919649985E+03  0.14201887095E+03  0.47000000000E+01 0. -1.
        -11    1    6    6    0    0 -0.13656199452E+02  0.21921872792E+02 -0.22868921270E+02  0.34497070169E+02  0.00000000000E+00 0.  1.
         12    1    6    6    0    0  0.79364047206E+02  0.55173857456E+01 -0.16522469339E+03  0.18338018661E+03  0.00000000000E+00 0. -1.
         -5    1    3    3    0  503 -0.33039309339E+02 -0.75148814195E+02 -0.48005282535E+02  0.95213115629E+02  0.47000000000E+01 0.  1.
         13    1    4    4    0    0  0.29376499427E+02 -0.24256598665E+02 -0.10167464072E+02  0.39430174018E+02  0.00000000000E+00 0. -1.
        -14    1    4    4    0    0 -0.10035599358E+00  0.26115085406E+02  0.46663090678E+02  0.53473842098E+02  0.00000000000E+00 0.  1.
</event>
<event>
12    1  0.9962621E-001  0.1788980E+03  0.7818608E-02  0.1169075E+00
         21   -1    0    0  501  502  0.00000000000E+00  0.00000000000E+00  0.94241639228E+02  0.94241639228E+02  0.00000000000E+00 0.  1.
         21   -1    0    0  502  503 -0.00000000000E+00 -0.00000000000E+00 -0.41350184385E+03  0.41350184385E+03  0.00000000000E+00 0.  1.
         -6    2    1    2    0  503  0.10967789778E+02  0.45822134098E+02 -0.50880037687E+02  0.18520292550E+03  0.17173055929E+03 0.  0.
        -24    2    3    3    0    0 -0.18161031704E+02 -0.21422745335E+02 -0.69532344280E+02  0.10943775809E+03  0.79706454600E+02 0.  0.
          6    2    1    2  501    0 -0.10967789778E+02 -0.45822134098E+02 -0.26838016693E+03  0.32254055758E+03  0.17258197152E+03 0.  0.
         24    2    5    5    0    0  0.32019550942E+02  0.33591236726E+02 -0.13828968498E+03  0.16411070426E+03  0.75197496320E+02 0.  0.
          5    1    5    5  501    0 -0.42987340720E+02 -0.79413370825E+02 -0.13009048195E+03  0.15842985332E+03  0.47000000000E+01 0. -1.
        -11    1    6    6    0    0 -0.20411476262E+02  0.13914665974E+01 -0.12228027524E+02  0.23834621868E+02  0.00000000000E+00 0.  1.
         12    1    6    6    0    0  0.52431027203E+02  0.32199770129E+02 -0.12606165746E+03  0.14027608239E+03  0.00000000000E+00 0. -1.
         -5    1    3    3    0  503  0.29128821482E+02  0.67244879434E+02  0.18652306593E+02  0.75765167407E+02  0.47000000000E+01 0.  1.
         11    1    4    4    0    0 -0.32215882523E+02 -0.18536821961E+02  0.12762196435E+01  0.37190127611E+02  0.00000000000E+00 0. -1.
        -12    1    4    4    0    0  0.14054850819E+02 -0.28859233745E+01 -0.70808563924E+02  0.72247630482E+02  0.00000000000E+00 0.  1.
</event>
<event>
12    1  0.9962621E-001  0.3189372E+03  0.7818608E-02  0.1076260E+00
         21   -1    0    0  503  502  0.00000000000E+00  0.00000000000E+00  0.22540237292E+03  0.22540237292E+03  0.00000000000E+00 0.  1.
         21   -1    0    0  501  503 -0.00000000000E+00 -0.00000000000E+00 -0.45011273978E+03  0.45011273978E+03  0.00000000000E+00 0.  1.
          6    2    1    2  501    0 -0.24692894201E+03 -0.10029268380E+03 -0.10352409146E+03  0.33433030142E+03  0.17328297120E+03 0.  0.
         24    2    3    3    0    0 -0.15388634985E+03 -0.12642562083E+02 -0.67265578473E+02  0.20137828918E+03  0.11039798123E+03 0.  0.
         -6    2    1    2    0  502  0.24692894201E+03  0.10029268380E+03 -0.12118627540E+03  0.34118481129E+03  0.17518115561E+03 0.  0.
        -24    2    5    5    0    0  0.13517934393E+03  0.94593681483E+02 -0.10721752635E+02  0.18387952820E+03  0.80469281763E+02 0.  0.
          5    1    3    3  501    0 -0.93042592166E+02 -0.87650121720E+02 -0.36258512988E+02  0.13295201224E+03  0.47000000000E+01 0. -1.
        -11    1    4    4    0    0  0.93976539944E+01  0.59551221190E+01 -0.31204650137E+02  0.33128681987E+02  0.00000000000E+00 0.  1.
         12    1    4    4    0    0 -0.16328400384E+03 -0.18597684203E+02 -0.36060928336E+02  0.16824960719E+03  0.00000000000E+00 0. -1.
         -5    1    5    5    0  502  0.11174959808E+03  0.56990023203E+01 -0.11046452276E+03  0.15730528309E+03  0.47000000000E+01 0.  1.
         13    1    6    6    0    0  0.63635717843E+02  0.16139540972E+02 -0.35805544238E+02  0.74779852676E+02  0.00000000000E+00 0. -1.
        -14    1    6    6    0    0  0.71543626090E+02  0.78454140511E+02  0.25083791603E+02  0.10909967552E+03  0.00000000000E+00 0.  1.
</event>
<event>
12    1  0.9962621E-001  0.2707624E+03  0.7818608E-02  0.1100968E+00
         21   -1    0    0  501  502  0.00000000000E+00  0.00000000000E+00  0.49333027675E+02  0.49333027675E+02  0.00000000000E+00 0.  1.
         21   -1    0    0  502  503 -0.00000000000E+00 -0.00000000000E+00 -0.14819687204E+04  0.14819687204E+04  0.00000000000E+00 0.  1.
         -6    2    1    2    0  503 -0.18072679100E+03 -0.10282045655E+03 -0.73116351639E+03  0.77938719274E+03  0.17207582408E+03 0.  0.
        -24    2    3    3    0    0 -0.32571868914E+02 -0.26629814852E+02 -0.14962208980E+03  0.17443478497E+03  0.79187440725E+02 0.  0.
          6    2    1    2  501    0  0.18072679100E+03  0.10282045655E+03 -0.70147217638E+03  0.75191455538E+03  0.17343028886E+03 0.  0.
         24    2    5    5    0    0  0.16025863005E+03  0.12282390941E+03 -0.46834820849E+03  0.51699338107E+03  0.84637878295E+02 0.  0.
          5    1    5    5  501    0  0.20468160949E+02 -0.20003452858E+02 -0.23312396788E+03  0.23492117431E+03  0.47000000000E+01 0. -1.
        -13    1    6    6    0    0  0.46412948884E+02  0.15229717878E+02 -0.20357641220E+03  0.20935487034E+03  0.00000000000E+00 0.  1.
         14    1    6    6    0    0  0.11384568116E+03  0.10759419153E+03 -0.26477179629E+03  0.30763851072E+03  0.00000000000E+00 0. -1.
         -5    1    3    3    0  503 -0.14815492208E+03 -0.76190641695E+02 -0.58154142659E+03  0.60495240777E+03  0.47000000000E+01 0.  1.
         13    1    4    4    0    0  0.93552706383E+01 -0.13233305797E+02 -0.12066469809E+03  0.12174814510E+03  0.00000000000E+00 0. -1.
        -14    1    4    4    0    0 -0.41927139552E+02 -0.13396509055E+02 -0.28957391707E+02  0.52686639866E+02  0.00000000000E+00 0.  1.
</event>
<event>
12    1  0.9962621E-001  0.1737889E+03  0.7818608E-02  0.1174016E+00
         21   -1    0    0  503  502  0.00000000000E+00  0.00000000000E+00  0.25263156852E+03  0.25263156852E+03  0.00000000000E+00 0. -1.
         21   -1    0    0  501  503 -0.00000000000E+00 -0.00000000000E+00 -0.15404096646E+03  0.15404096646E+03  0.00000000000E+00 0. -1.
          6    2    1    2  501    0 -0.25904280463E+02  0.10091266960E+01  0.14571872466E+03  0.22660690828E+03  0.17159456309E+03 0.  0.
         24    2    3    3    0    0  0.45855688459E+02 -0.25580257394E+02  0.96331563729E+02  0.13540564650E+03  0.79358838203E+02 0.  0.
         -6    2    1    2    0  502  0.25904280463E+02 -0.10091266960E+01 -0.47128122597E+02  0.18006562670E+03  0.17184446426E+03 0.  0.
        -24    2    5    5    0    0 -0.36826159813E+02  0.38465639116E+02 -0.68736541301E+01  0.95591503414E+02  0.79086768582E+02 0.  0.
          5    1    3    3  501    0 -0.71759968922E+02  0.26589384090E+02  0.49387160926E+02  0.91201261780E+02  0.47000000000E+01 0. -1.
        -11    1    4    4    0    0 -0.52324994940E+01 -0.11033821663E+02  0.78394852387E+02  0.79340261861E+02  0.00000000000E+00 0.  1.
         12    1    4    4    0    0  0.51088187953E+02 -0.14546435731E+02  0.17936711342E+02  0.56065384638E+02  0.00000000000E+00 0. -1.
         -5    1    5    5    0  502  0.62730440276E+02 -0.39474765812E+02 -0.40254468467E+02  0.84474123284E+02  0.47000000000E+01 0.  1.
         11    1    6    6    0    0 -0.35683275894E+02 -0.17121670127E+02 -0.76063685900E-01  0.39578448076E+02  0.00000000000E+00 0. -1.
        -12    1    6    6    0    0 -0.11428839197E+01  0.55587309242E+02 -0.67975904442E+01  0.56013055338E+02  0.00000000000E+00 0.  1.
</event>
<event>
12    1  0.9962621E-001  0.2116342E+03  0.7818608E-02  0.1140354E+00
         21   -1    0    0  503  502  0.00000000000E+00  0.00000000000E+00  0.50458445121E+03  0.50458445121E+03  0.00000000000E+00 0. -1.
         21   -1    0    0  501  503 -0.00000000000E+00 -0.00000000000E+00 -0.15616858449E+03  0.15616858449E+03  0.00000000000E+00 0. -1.
          6    2    1    2  501    0 -0.41160181598E+02  0.11692579190E+03  0.39142533960E+03  0.44479272198E+03  0.17105837507E+03 0.  0.
         24    2    3    3    0    0 -0.59677787702E+02  0.58800727376E+02  0.35545556426E+03  0.37381850412E+03  0.79828891878E+02 0.  0.
         -6    2    1    2    0  502  0.41160181598E+02 -0.11692579190E+03 -0.43009472878E+02  0.21596031372E+03  0.17153204069E+03 0.  0.
        -24    2    5    5    0    0 -0.39043630406E+02 -0.48425198011E+02  0.39405351924E+01  0.10041215891E+03  0.78725275234E+02 0.  0.
          5    1    3    3  501    0  0.18517606104E+02  0.58125064525E+02  0.35969775347E+02  0.70974217857E+02  0.47000000000E+01 0. -1.
        -13    1    4    4    0    0 -0.30522024583E+02  0.48364485952E+02  0.32634005145E+03  0.33131336627E+03  0.00000000000E+00 0.  1.
         14    1    4    4    0    0 -0.29155763119E+02  0.10436241423E+02  0.29115512801E+02  0.42505137851E+02  0.00000000000E+00 0. -1.
         -5    1    5    5    0  502  0.80203812004E+02 -0.68500593890E+02 -0.46950008071E+02  0.11554815481E+03  0.47000000000E+01 0.  1.
         11    1    6    6    0    0 -0.20581964931E+02 -0.30877328137E+01  0.36221138756E+02  0.41774660587E+02  0.00000000000E+00 0. -1.
        -12    1    6    6    0    0 -0.18461665475E+02 -0.45337465197E+02 -0.32280603564E+02  0.58637498319E+02  0.00000000000E+00 0.  1.
</event>
<event>
12    1  0.9962621E-001  0.3020597E+03  0.7818608E-02  0.1084827E+00
         21   -1    0    0  503  502  0.00000000000E+00  0.00000000000E+00  0.13143157426E+04  0.13143157426E+04  0.00000000000E+00 0. -1.
         21   -1    0    0  501  503 -0.00000000000E+00 -0.00000000000E+00 -0.13590462665E+03  0.13590462665E+03  0.00000000000E+00 0. -1.
          6    2    1    2  501    0  0.24258727254E+03 -0.11383518993E+01  0.75375038792E+02  0.30657327830E+03  0.17162720604E+03 0.  0.
         24    2    3    3    0    0  0.11741405950E+03 -0.12065085928E+00 -0.27714363403E+02  0.14434232003E+03  0.79249880044E+02 0.  0.
         -6    2    1    2    0  502 -0.24258727254E+03  0.11383518993E+01  0.11030360771E+04  0.11436470909E+04  0.17997277697E+03 0.  0.
        -24    2    5    5    0    0 -0.86115975387E+02  0.37883357190E+02  0.68420679328E+03  0.69501191478E+03  0.77791488937E+02 0.  0.
          5    1    3    3  501    0  0.12517321304E+03 -0.10177010401E+01  0.10308940220E+03  0.16223095828E+03  0.47000000000E+01 0. -1.
        -11    1    4    4    0    0  0.10911304136E+03 -0.26894965270E+02 -0.14361186465E+02  0.11329271216E+03  0.00000000000E+00 0.  1.
         12    1    4    4    0    0  0.83010181389E+01  0.26774314411E+02 -0.13353176938E+02  0.31049607866E+02  0.00000000000E+00 0. -1.
         -5    1    5    5    0  502 -0.15647129715E+03 -0.36745005290E+02  0.41882928384E+03  0.44863517612E+03  0.47000000000E+01 0.  1.
         13    1    6    6    0    0 -0.52315378975E+02 -0.16654982014E+02  0.39327074305E+03  0.39708458122E+03  0.00000000000E+00 0. -1.
        -14    1    6    6    0    0 -0.33800596411E+02  0.54538339203E+02  0.29093605023E+03  0.29792733356E+03  0.00000000000E+00 0.  1.
</event>
<event>
12    1  0.9962621E-001  0.2524204E+03  0.7818608E-02  0.1111808E+00
         21   -1    0    0  501  502  0.00000000000E+00  0.00000000000E+00  0.43795942211E+03  0.43795942211E+03  0.00000000000E+00 0.  1.
         21   -1    0    0  502  503 -0.00000000000E+00 -0.00000000000E+00 -0.20310599341E+03  0.20310599341E+03  0.00000000000E+00 0.  1.
         -6    2    1    2    0  503 -0.11518389273E+03 -0.14385966817E+03  0.28830751100E+03  0.38319351865E+03  0.17249092314E+03 0.  0.
        -24    2    3    3    0    0 -0.88207799292E+02 -0.14789372906E+03  0.29945728290E+03  0.35335410381E+03  0.74372625645E+02 0.  0.
          6    2    1    2  501    0  0.11518389273E+03  0.14385966817E+03 -0.53454082306E+02  0.25787189687E+03  0.17227200298E+03 0.  0.
         24    2    5    5    0    0  0.77129698447E+02  0.13612489821E+03  0.17927578241E+02  0.17647546064E+03  0.79644283214E+02 0.  0.
          5    1    5    5  501    0  0.38054194285E+02  0.77347699505E+01 -0.71381660547E+02  0.81396436232E+02  0.47000000000E+01 0. -1.
        -11    1    6    6    0    0  0.10231748236E+02  0.37909652765E+02  0.39503079405E+02  0.55698507406E+02  0.00000000000E+00 0.  1.
         12    1    6    6    0    0  0.66897950211E+02  0.98215245450E+02 -0.21575501164E+02  0.12077695323E+03  0.00000000000E+00 0. -1.
         -5    1    3    3    0  503 -0.26976093440E+02  0.40340608901E+01 -0.11149771900E+02  0.29839414840E+02  0.47000000000E+01 0.  1.
         11    1    4    4    0    0 -0.11248989779E+02 -0.32859940114E+02  0.12999743897E+03  0.13455723531E+03  0.00000000000E+00 0. -1.
        -12    1    4    4    0    0 -0.76958809513E+02 -0.11503378894E+03  0.16945984394E+03  0.21879686850E+03  0.00000000000E+00 0.  1.
</event>
<event>
12    1  0.9962621E-001  0.1763712E+03  0.7818608E-02  0.1171589E+00
         21   -1    0    0  503  502  0.00000000000E+00  0.00000000000E+00  0.32966753738E+03  0.32966753738E+03  0.00000000000E+00 0.  1.
         21   -1    0    0  501  503 -0.00000000000E+00 -0.00000000000E+00 -0.16723595751E+03  0.16723595751E+03  0.00000000000E+00 0.  1.
          6    2    1    2  501    0  0.28527107226E+02 -0.24178726946E+02 -0.83225397155E+02  0.19502119055E+03  0.17236122344E+03 0.  0.
         24    2    3    3    0    0  0.40524503380E+02  0.34282708388E+02 -0.97468419135E+02  0.13348558613E+03  0.74167172705E+02 0.  0.
         -6    2    1    2    0  502 -0.28527107226E+02  0.24178726946E+02  0.24565697702E+03  0.30188230434E+03  0.17142686088E+03 0.  0.
        -24    2    5    5    0    0  0.18839708696E+02 -0.43488507189E+02  0.13610960958E+03  0.16460453652E+03  0.79515047258E+02 0.  0.
          5    1    3    3  501    0 -0.11997396155E+02 -0.58461435334E+02  0.14243021980E+02  0.61535604417E+02  0.47000000000E+01 0. -1.
        -11    1    4    4    0    0  0.26245182672E+02 -0.63802669819E+01 -0.84148350299E+02  0.88376819802E+02  0.00000000000E+00 0.  1.
         12    1    4    4    0    0  0.14279320708E+02  0.40662975370E+02 -0.13320068836E+02  0.45108766328E+02  0.00000000000E+00 0. -1.
         -5    1    5    5    0  502 -0.47366815922E+02  0.67667234136E+02  0.10954736744E+03  0.13727776783E+03  0.47000000000E+01 0.  1.
         11    1    6    6    0    0  0.38645102625E+02 -0.38828643567E+02  0.13323294655E+03  0.14405598066E+03  0.00000000000E+00 0. -1.
        -12    1    6    6    0    0 -0.19805393928E+02 -0.46598636221E+01  0.28766630342E+01  0.20548555858E+02  0.00000000000E+00 0.  1.
</event>
<event>
12    1  0.9962621E-001  0.1769475E+03  0.7818608E-02  0.1172889E+00
         21   -1    0    0  501  502  0.00000000000E+00  0.00000000000E+00  0.54389725108E+03  0.54389725108E+03  0.00000000000E+00 0. -1.
         21   -1    0    0  502  503 -0.00000000000E+00 -0.00000000000E+00 -0.13736910903E+03  0.13736910903E+03  0.00000000000E+00 0. -1.
         -6    2    1    2    0  503  0.13623525613E+02  0.41326723143E+02 -0.62565447257E+02  0.17990898682E+03  0.16297027291E+03 0.  0.
        -24    2    3    3    0    0 -0.62887652705E+01 -0.30981336722E+02 -0.62769636567E+02  0.10476188745E+03  0.77689342862E+02 0.  0.
          6    2    1    2  501    0 -0.13623525613E+02 -0.41326723143E+02  0.46909358931E+03  0.50135737330E+03  0.17151361968E+03 0.  0.
         24    2    5    5    0    0 -0.25614206312E+02 -0.14468137147E+02  0.97388066630E+02  0.12846027536E+03  0.78435911833E+02 0.  0.
          5    1    5    5  501    0  0.11990680699E+02 -0.26858585996E+02  0.37170552268E+03  0.37289709794E+03  0.47000000000E+01 0. -1.
        -13    1    6    6    0    0 -0.44312915182E+02 -0.30480761651E+02  0.43351329350E+02  0.69080019102E+02  0.00000000000E+00 0.  1.
         14    1    6    6    0    0  0.18698708870E+02  0.16012624504E+02  0.54036737279E+02  0.59380256253E+02  0.00000000000E+00 0. -1.
         -5    1    3    3    0  503  0.19912290884E+02  0.72308059865E+02  0.20418930964E+00  0.75147099365E+02  0.47000000000E+01 0.  1.
         13    1    4    4    0    0 -0.23400319951E+02  0.17407453766E+02 -0.37634430686E+02  0.47612443683E+02  0.00000000000E+00 0. -1.
        -14    1    4    4    0    0  0.17111554681E+02 -0.48388790489E+02 -0.25135205881E+02  0.57149443770E+02  0.00000000000E+00 0.  1.
</event>
<event>
12    1  0.9962621E-001  0.1799101E+03  0.7818608E-02  0.1168336E+00
         21   -1    0    0  501  502  0.00000000000E+00  0.00000000000E+00  0.47213465884E+03  0.47213465884E+03  0.00000000000E+00 0.  1.
         21   -1    0    0  502  503 -0.00000000000E+00 -0.00000000000E+00 -0.67939499048E+02  0.67939499048E+02  0.00000000000E+00 0.  1.
         -6    2    1    2    0  503 -0.49397192523E+02  0.31422678231E+01  0.21030881752E+03  0.27557543494E+03  0.17106158289E+03 0.  0.
        -24    2    3    3    0    0 -0.29833093008E+02 -0.77027756348E+01  0.22994626963E+03  0.24544092842E+03  0.80103784169E+02 0.  0.
          6    2    1    2  501    0  0.49397192523E+02 -0.31422678231E+01  0.19388634227E+03  0.26449872294E+03  0.17296735022E+03 0.  0.
         24    2    5    5    0    0 -0.24962378253E+02  0.38331481090E+02  0.79205273846E+02  0.12158876853E+03  0.80111986976E+02 0.  0.
          5    1    5    5  501    0  0.74359570776E+02 -0.41473748913E+02  0.11468106843E+03  0.14290995441E+03  0.47000000000E+01 0. -1.
        -13    1    6    6    0    0  0.23783712191E+02  0.36313098133E+02  0.35197020125E+02  0.55885027398E+02  0.00000000000E+00 0.  1.
         14    1    6    6    0    0 -0.48746090444E+02  0.20183829576E+01  0.44008253721E+02  0.65703741133E+02  0.00000000000E+00 0. -1.
         -5    1    3    3    0  503 -0.19564099515E+02  0.10845043458E+02 -0.19637452114E+02  0.30134506516E+02  0.47000000000E+01 0.  1.
         11    1    4    4    0    0 -0.32370193091E+02  0.14640686529E+02  0.37393628598E+02  0.51579671989E+02  0.00000000000E+00 0. -1.
        -12    1    4    4    0    0  0.25371000829E+01 -0.22343462164E+02  0.19255264103E+03  0.19386125643E+03  0.00000000000E+00 0.  1.
</event>
<event>
12    1  0.9962621E-001  0.2269231E+03  0.7818608E-02  0.1129980E+00
         21   -1    0    0  503  502  0.00000000000E+00  0.00000000000E+00  0.10873135277E+03  0.10873135277E+03  0.00000000000E+00 0.  1.
         21   -1    0    0  501  503 -0.00000000000E+00 -0.00000000000E+00 -0.46606723683E+03  0.46606723683E+03  0.00000000000E+00 0.  1.
          6    2    1    2  501    0 -0.92831856160E+02  0.10076668473E+03 -0.14452703156E+03  0.26370100937E+03  0.17285393029E+03 0.  0.
         24    2    3    3    0    0 -0.50737355639E+02  0.42556831099E+00 -0.16346011551E+02  0.95496519203E+02  0.79233406595E+02 0.  0.
         -6    2    1    2    0  502  0.92831856160E+02 -0.10076668473E+03 -0.21280885250E+03  0.31109758023E+03  0.18089338975E+03 0.  0.
        -24    2    5    5    0    0  0.29017947596E+02  0.20654658872E+02 -0.67378170423E+02  0.11112875542E+03  0.80877229276E+02 0.  0.
          5    1    3    3  501    0 -0.42094500520E+02  0.10034111642E+03 -0.12818102001E+03  0.16820449016E+03  0.47000000000E+01 0. -1.
        -13    1    4    4    0    0  0.18833239323E+02 -0.84780560905E+01 -0.14679276368E+02  0.25338695570E+02  0.00000000000E+00 0.  1.
         14    1    4    4    0    0 -0.69570594962E+02  0.89036244015E+01 -0.16667351824E+01  0.70157823634E+02  0.00000000000E+00 0. -1.
         -5    1    5    5    0  502  0.63813908563E+02 -0.12142134361E+03 -0.14543068207E+03  0.19996882481E+03  0.47000000000E+01 0.  1.
         13    1    6    6    0    0  0.13414513278E+02  0.47858487805E+01  0.17968265971E+02  0.22928412440E+02  0.00000000000E+00 0. -1.
        -14    1    6    6    0    0  0.15603434319E+02  0.15868810092E+02 -0.85346436394E+02  0.88200342978E+02  0.00000000000E+00 0.  1.
</event>
<event>
12    1  0.1116106E+000  0.1920341E+03  0.7818608E-02  0.1156778E+00
         21   -1    0    0  503  502  0.00000000000E+00  0.00000000000E+00  0.58893971453E+03  0.58893971453E+03  0.00000000000E+00 0. -1.
         21   -1    0    0  501  503 -0.00000000000E+00 -0.00000000000E+00 -0.22572021471E+03  0.22572021471E+03  0.00000000000E+00 0. -1.
          6    2    1    2  501    0 -0.36472788619E+02  0.73604184927E+02  0.52815927618E+03  0.56198693733E+03  0.17357781071E+03 0.  0.
         24    2    3    3    0    0 -0.13149514825E+02  0.35199524289E+02  0.50160166181E+03  0.50958188089E+03  0.81593810778E+02 0.  0.
         -6    2    1    2    0  502  0.36472788619E+02 -0.73604184927E+02 -0.16493977636E+03  0.25267299190E+03  0.17288918608E+03 0.  0.
        -24    2    5    5    0    0  0.46172406531E+02 -0.11579505063E+03 -0.12056113177E+03  0.19049819128E+03  0.78830130749E+02 0.  0.
          5    1    3    3  501    0 -0.23323273794E+02  0.38404660638E+02  0.26557614372E+02  0.52405056438E+02  0.47000000000E+01 0. -1.
        -11    1    4    4    0    0 -0.44747245743E+02  0.32041873729E+01  0.24972526185E+03  0.25372285909E+03  0.00000000000E+00 0.  1.
         12    1    4    4    0    0  0.31597730917E+02  0.31995336917E+02  0.25187639996E+03  0.25585902181E+03  0.00000000000E+00 0. -1.
         -5    1    5    5    0  502 -0.96996179118E+01  0.42190865702E+02 -0.44378644591E+02  0.62174800620E+02  0.47000000000E+01 0.  1.
         11    1    6    6    0    0  0.43820440258E+02 -0.85183695499E+02 -0.39140956552E+02  0.10348191844E+03  0.00000000000E+00 0. -1.
        -12    1    6    6    0    0  0.23519662734E+01 -0.30611355130E+02 -0.81420175214E+02  0.87016272847E+02  0.00000000000E+00 0.  1.
</event>
<event>
12    1  0.9962621E-001  0.2064124E+03  0.7818608E-02  0.1144467E+00
         21   -1    0    0  501  502  0.00000000000E+00  0.00000000000E+00  0.75254619052E+03  0.75254619052E+03  0.00000000000E+00 0. -1.
         21   -1    0    0  502  503 -0.00000000000E+00 -0.00000000000E+00 -0.56711232490E+02  0.56711232490E+02  0.00000000000E+00 0. -1.
         -6    2    1    2    0  503  0.11605373208E+02  0.11344625900E+03  0.36763496584E+03  0.42161777675E+03  0.17205040887E+03 0.  0.
        -24    2    3    3    0    0  0.45222525844E+02  0.13416748462E+03  0.24974062927E+03  0.29719652962E+03  0.76872651419E+02 0.  0.
          6    2    1    2  501    0 -0.11605373208E+02 -0.11344625900E+03  0.32819999219E+03  0.38763964626E+03  0.17188520039E+03 0.  0.
         24    2    5    5    0    0 -0.62066877319E+02 -0.32169295715E+02  0.21245619443E+03  0.23740308320E+03  0.79595405132E+02 0.  0.
          5    1    5    5  501    0  0.50461504111E+02 -0.81276963287E+02  0.11574379776E+03  0.15023656305E+03  0.47000000000E+01 0. -1.
        -13    1    6    6    0    0 -0.55185937186E+01 -0.19630674578E+02  0.15316110125E+03  0.15451259236E+03  0.00000000000E+00 0.  1.
         14    1    6    6    0    0 -0.56548283600E+02 -0.12538621137E+02  0.59295093178E+02  0.82890490849E+02  0.00000000000E+00 0. -1.
         -5    1    3    3    0  503 -0.33617152636E+02 -0.20721225613E+02  0.11789433657E+03  0.12442124713E+03  0.47000000000E+01 0.  1.
         13    1    4    4    0    0 -0.10415834210E+02  0.28803958297E+02  0.10681121054E+03  0.11111612086E+03  0.00000000000E+00 0. -1.
        -14    1    4    4    0    0  0.55638360053E+02  0.10536352632E+03  0.14292941873E+03  0.18608040876E+03  0.00000000000E+00 0.  1.
</event>
<event>
12    1  0.9962621E-001  0.1744041E+03  0.7818608E-02  0.1174874E+00
         21   -1    0    0  503  502  0.00000000000E+00  0.00000000000E+00  0.18315348740E+03  0.18315348740E+03  0.00000000000E+00 0. -1.
         21   -1    0    0  501  503 -0.00000000000E+00 -0.00000000000E+00 -0.16827619363E+03  0.16827619363E+03  0.00000000000E+00 0. -1.
          6    2    1    2  501    0 -0.26464174441E+02 -0.14991604062E+02  0.45311855390E+02  0.17438998393E+03  0.16563091963E+03 0.  0.
         24    2    3    3    0    0 -0.67092747572E+02 -0.18269374297E+02  0.71149161940E+02  0.12590203551E+03  0.77161599823E+02 0.  0.
         -6    2    1    2    0  502  0.26464174441E+02  0.14991604062E+02 -0.30434561615E+02  0.17703969709E+03  0.17173145048E+03 0.  0.
        -24    2    5    5    0    0  0.64121393771E+02 -0.35751941572E+02 -0.28128025680E+01  0.10791643643E+03  0.79046131653E+02 0.  0.
          5    1    3    3  501    0  0.40628573131E+02  0.32777702350E+01 -0.25837306550E+02  0.48487948422E+02  0.47000000000E+01 0. -1.
        -13    1    4    4    0    0 -0.51111100762E+02  0.22634675084E+02  0.56823061512E+02  0.79709055050E+02  0.00000000000E+00 0.  1.
         14    1    4    4    0    0 -0.15981646810E+02 -0.40904049381E+02  0.14326100428E+02  0.46192980462E+02  0.00000000000E+00 0. -1.
         -5    1    5    5    0  502 -0.37657219330E+02  0.50743545634E+02 -0.27621759047E+02  0.69123260658E+02  0.47000000000E+01 0.  1.
         13    1    6    6    0    0  0.22544609364E+02 -0.53884688184E+02 -0.16213830095E+02  0.60619364220E+02  0.00000000000E+00 0. -1.
        -14    1    6    6    0    0  0.41576784407E+02  0.18132746613E+02  0.13401027527E+02  0.47297072215E+02  0.00000000000E+00 0.  1.
</event>
<event>
12    1  0.9962621E-001  0.1952815E+03  0.7818608E-02  0.1153913E+00
         21   -1    0    0  501  502  0.00000000000E+00  0.00000000000E+00  0.54213878595E+02  0.54213878595E+02  0.00000000000E+00 0. -1.
         21   -1    0    0  502  503 -0.00000000000E+00 -0.00000000000E+00 -0.76947896654E+03  0.76947896654E+03  0.00000000000E+00 0. -1.
         -6    2    1    2    0  503 -0.20369216397E+02  0.91790544427E+02 -0.23450710569E+03  0.30478715381E+03  0.17047350963E+03 0.  0.
        -24    2    3    3    0    0  0.21584359306E+01  0.16711844383E+00 -0.41825830115E+02  0.90193325229E+02  0.79879591115E+02 0.  0.
          6    2    1    2  501    0  0.20369216397E+02 -0.91790544427E+02 -0.48075798226E+03  0.51890569133E+03  0.17115627352E+03 0.  0.
         24    2    5    5    0    0  0.16923698637E+02 -0.62870006246E+02 -0.47834551971E+03  0.48930536875E+03  0.79788836322E+02 0.  0.
          5    1    5    5  501    0  0.34455177604E+01 -0.28920538181E+02 -0.24124625523E+01  0.29600322581E+02  0.47000000000E+01 0. -1.
        -11    1    6    6    0    0  0.28458997240E+02 -0.75548115158E+02 -0.31965758187E+03  0.32969440680E+03  0.00000000000E+00 0.  1.
         12    1    6    6    0    0 -0.11535298603E+02  0.12678108912E+02 -0.15868793783E+03  0.15961096194E+03  0.00000000000E+00 0. -1.
         -5    1    3    3    0  503 -0.22527652328E+02  0.91623425983E+02 -0.19268127558E+03  0.21459382858E+03  0.47000000000E+01 0.  1.
         11    1    4    4    0    0  0.10796135855E+02 -0.27477980280E+02 -0.51748436229E+02  0.59577651865E+02  0.00000000000E+00 0. -1.
        -12    1    4    4    0    0 -0.86376999248E+01  0.27645098724E+02  0.99226061133E+01  0.30615673364E+02  0.00000000000E+00 0.  1.
</event>
<event>
12    1  0.9962621E-001  0.3152573E+03  0.7818608E-02  0.1077881E+00
         21   -1    0    0  503  502  0.00000000000E+00  0.00000000000E+00  0.98966376879E+03  0.98966376879E+03  0.00000000000E+00 0. -1.
         21   -1    0    0  501  503 -0.00000000000E+00 -0.00000000000E+00 -0.11146820229E+03  0.11146820229E+03  0.00000000000E+00 0.  1.
          6    2    1    2  501    0  0.11457258570E+03  0.23778177043E+03  0.61283932781E+03  0.68906268088E+03  0.17195432164E+03 0.  0.
         24    2    3    3    0    0  0.40103387305E+02  0.43715924982E+02  0.27162801875E+03  0.28949483769E+03  0.80660502800E+02 0.  0.
         -6    2    1    2    0  502 -0.11457258570E+03 -0.23778177043E+03  0.26535623869E+03  0.41206929019E+03  0.17239523999E+03 0.  0.
        -24    2    5    5    0    0 -0.14159418912E+03 -0.18872742916E+03  0.17468394592E+03  0.30539197244E+03  0.84159485246E+02 0.  0.
          5    1    3    3  501    0  0.74469198392E+02  0.19406584544E+03  0.34121130906E+03  0.39956784319E+03  0.47000000000E+01 0. -1.
        -13    1    4    4    0    0  0.46070008125E+02  0.30533543541E+01  0.70940041168E+02  0.84641940328E+02  0.00000000000E+00 0.  1.
         14    1    4    4    0    0 -0.59666208207E+01  0.40662570628E+02  0.20068797758E+03  0.20485289737E+03  0.00000000000E+00 0. -1.
         -5    1    5    5    0  502  0.27021603419E+02 -0.49054341263E+02  0.90672292769E+02  0.10667731776E+03  0.47000000000E+01 0.  1.
         13    1    6    6    0    0 -0.68465176728E+02 -0.15018319301E+03  0.13717716293E+03  0.21461604301E+03  0.00000000000E+00 0. -1.
        -14    1    6    6    0    0 -0.73129012388E+02 -0.38544236159E+02  0.37506782985E+02  0.90775929430E+02  0.00000000000E+00 0.  1.
</event>
<event>
12    1  0.9962621E-001  0.1791328E+03  0.7818608E-02  0.1169071E+00
         21   -1    0    0  503  502  0.00000000000E+00  0.00000000000E+00  0.66406847833E+03  0.66406847833E+03  0.00000000000E+00 0. -1.
         21   -1    0    0  501  503 -0.00000000000E+00 -0.00000000000E+00 -0.51335010045E+02  0.51335010045E+02  0.00000000000E+00 0. -1.
          6    2    1    2  501    0  0.76349279007E+01  0.47295165554E+02  0.39813502852E+03  0.43586629823E+03  0.17080048065E+03 0.  0.
         24    2    3    3    0    0  0.24587694933E+02 -0.10055326966E+02  0.93584227931E+02  0.12546372827E+03  0.79230518429E+02 0.  0.
         -6    2    1    2    0  502 -0.76349279007E+01 -0.47295165554E+02  0.21459843977E+03  0.27953719015E+03  0.17260772148E+03 0.  0.
        -24    2    5    5    0    0 -0.35709642149E+02 -0.16710846207E+02  0.22057937929E+03  0.23732994186E+03  0.78203630432E+02 0.  0.
          5    1    3    3  501    0 -0.16952767033E+02  0.57350492519E+02  0.30455080059E+03  0.31040256997E+03  0.47000000000E+01 0. -1.
        -11    1    4    4    0    0  0.27682613489E+02 -0.34086886276E+02  0.91069694437E+02  0.10110357140E+03  0.00000000000E+00 0.  1.
         12    1    4    4    0    0 -0.30949185558E+01  0.24031559310E+02  0.25145334947E+01  0.24360156864E+02  0.00000000000E+00 0. -1.
         -5    1    5    5    0  502  0.28074714249E+02 -0.30584319347E+02 -0.59809395232E+01  0.42207248283E+02  0.47000000000E+01 0.  1.
         13    1    6    6    0    0 -0.41126396834E+02  0.13107220107E+02  0.59985768363E+02  0.73901773602E+02  0.00000000000E+00 0. -1.
        -14    1    6    6    0    0  0.54167546843E+01 -0.29818066315E+02  0.16059361093E+03  0.16342816826E+03  0.00000000000E+00 0.  1.
</event>
<event>
12    1  0.9962621E-001  0.2029917E+03  0.7818608E-02  0.1147268E+00
         21   -1    0    0  501  502  0.00000000000E+00  0.00000000000E+00  0.10427941958E+03  0.10427941958E+03  0.00000000000E+00 0. -1.
         21   -1    0    0  502  503 -0.00000000000E+00 -0.00000000000E+00 -0.43732736689E+03  0.43732736689E+03  0.00000000000E+00 0. -1.
         -6    2    1    2    0  503 -0.10671808161E+02  0.10720265092E+03 -0.82099893294E+02  0.21883668442E+03  0.17188020863E+03 0.  0.
        -24    2    3    3    0    0  0.49914307839E+02  0.90709792738E+02 -0.23731012246E+02  0.13297803257E+03  0.80001822347E+02 0.  0.
          6    2    1    2  501    0  0.10671808161E+02 -0.10720265092E+03 -0.25094805402E+03  0.32277010205E+03  0.17204452073E+03 0.  0.
         24    2    5    5    0    0 -0.26593473630E+02 -0.12499956402E+03 -0.23290648916E+03  0.27745984487E+03  0.80040171046E+02 0.  0.
          5    1    5    5  501    0  0.37265281791E+02  0.17796913108E+02 -0.18041564861E+02  0.45310257180E+02  0.47000000000E+01 0. -1.
        -11    1    6    6    0    0  0.20503990911E+02 -0.87619534441E+02 -0.12652896981E+03  0.15526485971E+03  0.00000000000E+00 0.  1.
         12    1    6    6    0    0 -0.47097464541E+02 -0.37380029582E+02 -0.10637751934E+03  0.12219498516E+03  0.00000000000E+00 0. -1.
         -5    1    3    3    0  503 -0.60586116000E+02  0.16492858177E+02 -0.58368881048E+02  0.85858651850E+02  0.47000000000E+01 0.  1.
         11    1    4    4    0    0  0.58825139162E+01 -0.13529306580E+02  0.60849367211E+01  0.15958463629E+02  0.00000000000E+00 0. -1.
        -12    1    4    4    0    0  0.44031793922E+02  0.10423909932E+03 -0.29815948967E+02  0.11701956894E+03  0.00000000000E+00 0.  1.
</event>
<event>
12    1  0.9962621E-001  0.2287173E+03  0.7818608E-02  0.1127757E+00
         21   -1    0    0  501  502  0.00000000000E+00  0.00000000000E+00  0.89929485882E+02  0.89929485882E+02  0.00000000000E+00 0.  1.
         21   -1    0    0  502  503 -0.00000000000E+00 -0.00000000000E+00 -0.59205054094E+03  0.59205054094E+03  0.00000000000E+00 0.  1.
         -6    2    1    2    0  503 -0.91341313761E+02  0.11822314311E+03 -0.19917298060E+03  0.30238930337E+03  0.17160847131E+03 0.  0.
        -24    2    3    3    0    0 -0.10702916288E+03  0.94270257901E+02 -0.85788256383E+02  0.18535069860E+03  0.81566741433E+02 0.  0.
          6    2    1    2  501    0  0.91341313761E+02 -0.11822314311E+03 -0.30294807445E+03  0.37959072345E+03  0.17318092952E+03 0.  0.
         24    2    5    5    0    0  0.21438194544E+02  0.86295321627E+01 -0.10965192281E+03  0.13800525299E+03  0.80547133192E+02 0.  0.
          5    1    5    5  501    0  0.69903119217E+02 -0.12685267527E+03 -0.19329615165E+03  0.24158547047E+03  0.47000000000E+01 0. -1.
        -13    1    6    6    0    0 -0.13143976166E+02  0.93245434107E+01  0.60728739382E+01  0.17221818055E+02  0.00000000000E+00 0.  1.
         14    1    6    6    0    0  0.34582170709E+02 -0.69501124804E+00 -0.11572479675E+03  0.12078343493E+03  0.00000000000E+00 0. -1.
         -5    1    3    3    0  503  0.15687849116E+02  0.23952885205E+02 -0.11338472422E+03  0.11703860477E+03  0.47000000000E+01 0.  1.
         11    1    4    4    0    0 -0.26403485962E+02  0.77591567505E+02 -0.41845350315E+02  0.92025152875E+02  0.00000000000E+00 0. -1.
        -12    1    4    4    0    0 -0.80625676915E+02  0.16678690396E+02 -0.43942906068E+02  0.93325545726E+02  0.00000000000E+00 0.  1.
</event>
<event>
12    1  0.9962621E-001  0.2644070E+03  0.7818608E-02  0.1104817E+00
         21   -1    0    0  503  502  0.00000000000E+00  0.00000000000E+00  0.89070116949E+02  0.89070116949E+02  0.00000000000E+00 0.  1.
         21   -1    0    0  501  503 -0.00000000000E+00 -0.00000000000E+00 -0.82732420697E+03  0.82732420697E+03  0.00000000000E+00 0.  1.
          6    2    1    2  501    0  0.19445770394E+03  0.50792692444E+02 -0.25708673934E+03  0.36736509912E+03  0.16873004557E+03 0.  0.
         24    2    3    3    0    0  0.11244293455E+03  0.16362830887E+02 -0.23871413617E+03  0.27641742014E+03  0.80690740376E+02 0.  0.
         -6    2    1    2    0  502 -0.19445770394E+03 -0.50792692444E+02 -0.48116735068E+03  0.54902922480E+03  0.17180621087E+03 0.  0.
        -24    2    5    5    0    0 -0.19634009432E+03 -0.34676292801E+01 -0.34443091452E+03  0.40424611815E+03  0.78872124791E+02 0.  0.
          5    1    3    3  501    0  0.82014769387E+02  0.34429861557E+02 -0.18372603165E+02  0.90947678978E+02  0.47000000000E+01 0. -1.
        -13    1    4    4    0    0  0.13734419437E+01  0.57775303783E+01 -0.91537848916E+02  0.91730278449E+02  0.00000000000E+00 0.  1.
         14    1    4    4    0    0  0.11106949261E+03  0.10585300508E+02 -0.14717628726E+03  0.18468714169E+03  0.00000000000E+00 0. -1.
         -5    1    5    5    0  502  0.18823903824E+01 -0.47325063164E+02 -0.13673643616E+03  0.14478310665E+03  0.47000000000E+01 0.  1.
         13    1    6    6    0    0 -0.50603666686E+02  0.28869721220E+02 -0.63921850773E+02  0.86488119945E+02  0.00000000000E+00 0. -1.
        -14    1    6    6    0    0 -0.14573642764E+03 -0.32337350500E+02 -0.28050906375E+03  0.31775799820E+03  0.00000000000E+00 0.  1.
</event>
<event>
12    1  0.9962621E-001  0.2371024E+03  0.7818608E-02  0.1122029E+00
         21   -1    0    0  501  502  0.00000000000E+00  0.00000000000E+00  0.22769546704E+03  0.22769546704E+03  0.00000000000E+00 0.  1.
         21   -1    0    0  502  503 -0.00000000000E+00 -0.00000000000E+00 -0.24523217073E+03  0.24523217073E+03  0.00000000000E+00 0.  1.
         -6    2    1    2    0  503 -0.11146565662E+03 -0.11755385942E+03 -0.13818406682E+02  0.23579604464E+03  0.17077858131E+03 0.  0.
        -24    2    3    3    0    0 -0.12423542974E+03 -0.10610073197E+03  0.34077335617E+02  0.18470462301E+03  0.79137384528E+02 0.  0.
          6    2    1    2  501    0  0.11146565662E+03  0.11755385942E+03 -0.37182970047E+01  0.23713159313E+03  0.17313019453E+03 0.  0.
         24    2    5    5    0    0  0.33379423162E+02  0.11777842328E+03 -0.38574025236E+02  0.15148976880E+03  0.80468948959E+02 0.  0.
          5    1    5    5  501    0  0.78086233457E+02 -0.22456386330E+00  0.34855728231E+02  0.85641824333E+02  0.47000000000E+01 0. -1.
        -11    1    6    6    0    0 -0.25842165774E+02  0.44139472596E+02 -0.58284206901E+01  0.51478938030E+02  0.00000000000E+00 0.  1.
         12    1    6    6    0    0  0.59221588936E+02  0.73638950687E+02 -0.32745604546E+02  0.10001083077E+03  0.00000000000E+00 0. -1.
         -5    1    3    3    0  503  0.12769773121E+02 -0.11453127452E+02 -0.47895742299E+02  0.51091421632E+02  0.47000000000E+01 0.  1.
         13    1    4    4    0    0 -0.92694371901E+02 -0.78415206393E+02  0.59944590301E+02  0.13540511468E+03  0.00000000000E+00 0. -1.
        -14    1    4    4    0    0 -0.31541057840E+02 -0.27685525575E+02 -0.25867254684E+02  0.49299508324E+02  0.00000000000E+00 0.  1.
</event>
<event>
12    1  0.9962621E-001  0.1742897E+03  0.7818608E-02  0.1173635E+00
         21   -1    0    0  501  502  0.00000000000E+00  0.00000000000E+00  0.12492219254E+03  0.12492219254E+03  0.00000000000E+00 0.  1.
         21   -1    0    0  502  503 -0.00000000000E+00 -0.00000000000E+00 -0.24838528357E+03  0.24838528357E+03  0.00000000000E+00 0.  1.
         -6    2    1    2    0  503 -0.11824470700E+02  0.23541799116E+02 -0.91226461716E+02  0.19606159120E+03  0.17153380371E+03 0.  0.
        -24    2    3    3    0    0  0.36610193354E+02  0.68567525752E+02 -0.53679502567E+02  0.11987040482E+03  0.73794397554E+02 0.  0.
          6    2    1    2  501    0  0.11824470700E+02 -0.23541799116E+02 -0.32236629317E+02  0.17724588491E+03  0.17228717026E+03 0.  0.
         24    2    5    5    0    0 -0.10766970999E+02  0.11659537807E+02  0.42835357169E+02  0.91179628374E+02  0.78911243307E+02 0.  0.
          5    1    5    5  501    0  0.22591441698E+02 -0.35201336923E+02 -0.75071986486E+02  0.86066256536E+02  0.47000000000E+01 0. -1.
        -11    1    6    6    0    0 -0.17304100777E+02 -0.12525041444E+02  0.58059211662E+02  0.61864211186E+02  0.00000000000E+00 0.  1.
         12    1    6    6    0    0  0.65371297786E+01  0.24184579251E+02 -0.15223854492E+02  0.29315417188E+02  0.00000000000E+00 0. -1.
         -5    1    3    3    0  503 -0.48434664054E+02 -0.45025726636E+02 -0.37546959149E+02  0.76191186383E+02  0.47000000000E+01 0.  1.
         13    1    4    4    0    0  0.21899397506E+02  0.33445485441E+02  0.13880415920E+02  0.42318436332E+02  0.00000000000E+00 0. -1.
        -14    1    4    4    0    0  0.14710795848E+02  0.35122040311E+02 -0.67559918487E+02  0.77551968486E+02  0.00000000000E+00 0.  1.
</event>
<event>
12    1  0.9962621E-001  0.5191293E+03  0.7818608E-02  0.1008920E+00
         21   -1    0    0  503  502  0.00000000000E+00  0.00000000000E+00  0.56624484308E+03  0.56624484308E+03  0.00000000000E+00 0.  1.
         21   -1    0    0  501  503 -0.00000000000E+00 -0.00000000000E+00 -0.47839953496E+03  0.47839953496E+03  0.00000000000E+00 0.  1.
          6    2    1    2  501    0  0.48474601843E+03 -0.71185388443E+02  0.46129007004E+01  0.51914980873E+03  0.17160764300E+03 0.  0.
         24    2    3    3    0    0  0.42177396713E+03 -0.71714131795E+02 -0.49375934735E+02  0.43606766163E+03  0.68416566278E+02 0.  0.
         -6    2    1    2    0  502 -0.48474601843E+03  0.71185388443E+02  0.83232407423E+02  0.52549456931E+03  0.17079475056E+03 0.  0.
        -24    2    5    5    0    0 -0.35686125683E+03  0.10079931262E+02  0.10788757235E+03  0.38155584518E+03  0.80582709584E+02 0.  0.
          5    1    3    3  501    0  0.62972051304E+02  0.52874335222E+00  0.53988835435E+02  0.83082147099E+02  0.47000000000E+01 0. -1.
        -11    1    4    4    0    0  0.78889110044E+02 -0.40831455668E+02 -0.14935571396E+02  0.90076471670E+02  0.00000000000E+00 0.  1.
         12    1    4    4    0    0  0.34288485709E+03 -0.30882676127E+02 -0.34440363339E+02  0.34599118996E+03  0.00000000000E+00 0. -1.
         -5    1    5    5    0  502 -0.12788476160E+03  0.61105457181E+02 -0.24655164923E+02  0.14393872413E+03  0.47000000000E+01 0.  1.
         13    1    6    6    0    0 -0.25233026134E+03  0.43074249772E+02  0.83566513068E+02  0.26927553526E+03  0.00000000000E+00 0. -1.
        -14    1    6    6    0    0 -0.10453099549E+03 -0.32994318511E+02  0.24321059278E+02  0.11228030993E+03  0.00000000000E+00 0.  1.
</event>
<event>
12    1  0.9962621E-001  0.1877164E+03  0.7818608E-02  0.1160606E+00
         21   -1    0    0  501  502  0.00000000000E+00  0.00000000000E+00  0.40237355431E+03  0.40237355431E+03  0.00000000000E+00 0.  1.
         21   -1    0    0  502  503 -0.00000000000E+00 -0.00000000000E+00 -0.10775927464E+03  0.10775927464E+03  0.00000000000E+00 0.  1.
         -6    2    1    2    0  503 -0.76187694495E+02 -0.30125146997E+01  0.25817841723E+03  0.31920768163E+03  0.17153369597E+03 0.  0.
        -24    2    3    3    0    0 -0.11319519093E+03 -0.29246384032E+02  0.20510024914E+03  0.24922802302E+03  0.79874858572E+02 0.  0.
          6    2    1    2  501    0  0.76187694495E+02  0.30125146997E+01  0.36435862439E+02  0.19092514732E+03  0.17120513944E+03 0.  0.
         24    2    5    5    0    0  0.95777572561E+02 -0.44322486960E+02  0.93907664787E+01  0.13280550417E+03  0.80070526323E+02 0.  0.
          5    1    5    5  501    0 -0.19589878065E+02  0.47335001660E+02  0.27045095960E+02  0.58119643153E+02  0.47000000000E+01 0. -1.
        -11    1    6    6    0    0  0.22032016176E+02  0.23405195825E+02  0.54378611399E+01  0.32600356780E+02  0.00000000000E+00 0.  1.
         12    1    6    6    0    0  0.73745556385E+02 -0.67727682785E+02  0.39529053388E+01  0.10020514739E+03  0.00000000000E+00 0. -1.
         -5    1    3    3    0  503  0.37007496430E+02  0.26233869333E+02  0.53078168090E+02  0.69979658616E+02  0.47000000000E+01 0.  1.
         13    1    4    4    0    0 -0.35688752344E+02 -0.48080295521E+02  0.10876681161E+03  0.12415965999E+03  0.00000000000E+00 0. -1.
        -14    1    4    4    0    0 -0.77506438582E+02  0.18833911489E+02  0.96333437527E+02  0.12506836302E+03  0.00000000000E+00 0.  1.
</event>
<event>
12    1  0.9962621E-001  0.3011207E+03  0.7818608E-02  0.1084793E+00
         21   -1    0    0  501  502  0.00000000000E+00  0.00000000000E+00  0.88957361400E+02  0.88957361400E+02  0.00000000000E+00 0.  1.
         21   -1    0    0  502  503 -0.00000000000E+00 -0.00000000000E+00 -0.16369357924E+04  0.16369357924E+04  0.00000000000E+00 0.  1.
         -6    2    1    2    0  503 -0.14411860221E+03 -0.20012308424E+03 -0.13046447761E+04  0.13387434048E+04  0.17122059392E+03 0.  0.
        -24    2    3    3    0    0 -0.47441976784E+02 -0.24884516232E+02 -0.32593975507E+03  0.33977366863E+03  0.79620610721E+02 0.  0.
          6    2    1    2  501    0  0.14411860221E+03  0.20012308424E+03 -0.24333365495E+03  0.38714974903E+03  0.17278379611E+03 0.  0.
         24    2    5    5    0    0  0.66844311511E+02  0.19639821739E+03 -0.19498472405E+03  0.29579932618E+03  0.80235758747E+02 0.  0.
          5    1    5    5  501    0  0.77274290700E+02  0.37248668498E+01 -0.48348930897E+02  0.91350422851E+02  0.47000000000E+01 0. -1.
        -11    1    6    6    0    0  0.15086743449E+01  0.12697486767E+03 -0.11617134830E+03  0.17210658117E+03  0.00000000000E+00 0.  1.
         12    1    6    6    0    0  0.65335637166E+02  0.69423349719E+02 -0.78813375752E+02  0.12369274501E+03  0.00000000000E+00 0. -1.
         -5    1    3    3    0  503 -0.96676625427E+02 -0.17523856801E+03 -0.97870502098E+03  0.99896973614E+03  0.47000000000E+01 0.  1.
         13    1    4    4    0    0 -0.59223068078E+02 -0.16405043773E+02 -0.13553123063E+03  0.14881267329E+03  0.00000000000E+00 0. -1.
        -14    1    4    4    0    0  0.11781091294E+02 -0.84794724586E+01 -0.19040852444E+03  0.19096099534E+03  0.00000000000E+00 0.  1.
</event>
<event>
12    1  0.9962621E-001  0.2130683E+03  0.7818608E-02  0.1139163E+00
         21   -1    0    0  503  502  0.00000000000E+00  0.00000000000E+00  0.81640436011E+03  0.81640436011E+03  0.00000000000E+00 0. -1.
         21   -1    0    0  501  503 -0.00000000000E+00 -0.00000000000E+00 -0.11307933413E+03  0.11307933413E+03  0.00000000000E+00 0. -1.
          6    2    1    2  501    0 -0.10372518847E+03  0.69551048750E+02  0.68300827424E+03  0.71547076331E+03  0.17263211570E+03 0.  0.
         24    2    3    3    0    0 -0.31332736508E+02  0.77065634469E+02  0.56348906435E+03  0.57545623681E+03  0.81909110899E+02 0.  0.
         -6    2    1    2    0  502  0.10372518847E+03 -0.69551048750E+02  0.20316751742E+02  0.21401293093E+03  0.17260504366E+03 0.  0.
        -24    2    5    5    0    0 -0.11635485503E+02 -0.54184976865E+02  0.18809654427E+02  0.97528757726E+02  0.78017044568E+02 0.  0.
          5    1    3    3  501    0 -0.72392451958E+02 -0.75145857190E+01  0.11951920988E+03  0.14001452650E+03  0.47000000000E+01 0. -1.
        -11    1    4    4    0    0 -0.28598430767E+02  0.51484430445E+02  0.14970176538E+03  0.16086993311E+03  0.00000000000E+00 0.  1.
         12    1    4    4    0    0 -0.27343057403E+01  0.25581204023E+02  0.41378729898E+03  0.41458630371E+03  0.00000000000E+00 0. -1.
         -5    1    5    5    0  502  0.11536067397E+03 -0.15366071885E+02  0.15070973149E+01  0.11648417320E+03  0.47000000000E+01 0.  1.
         13    1    6    6    0    0 -0.14433749044E+02 -0.27333065578E+02 -0.29153512741E+02  0.42489491530E+02  0.00000000000E+00 0. -1.
        -14    1    6    6    0    0  0.27982635403E+01 -0.26851911287E+02  0.47963167168E+02  0.55039266196E+02  0.00000000000E+00 0.  1.
</event>
<event>
12    1  0.9962621E-001  0.2453188E+03  0.7818608E-02  0.1118837E+00
         21   -1    0    0  501  502  0.00000000000E+00  0.00000000000E+00  0.70105107311E+03  0.70105107311E+03  0.00000000000E+00 0.  1.
         21   -1    0    0  502  503 -0.00000000000E+00 -0.00000000000E+00 -0.80624394377E+02  0.80624394377E+02  0.00000000000E+00 0.  1.
         -6    2    1    2    0  503  0.50213344647E+02  0.14611213980E+03  0.32066879535E+03  0.40374471631E+03  0.19055493240E+03 0.  0.
        -24    2    3    3    0    0  0.27904440841E+02  0.13030241419E+03  0.33725125926E+03  0.37142285495E+03  0.80368826941E+02 0.  0.
          6    2    1    2  501    0 -0.50213344647E+02 -0.14611213980E+03  0.29975788339E+03  0.37793075118E+03  0.17060693613E+03 0.  0.
         24    2    5    5    0    0  0.17604399789E+02 -0.28523448114E+02  0.16707900121E+03  0.18805678601E+03  0.79539047870E+02 0.  0.
          5    1    5    5  501    0 -0.67817744436E+02 -0.11758869169E+03  0.13267888218E+03  0.18987396517E+03  0.47000000000E+01 0. -1.
        -13    1    6    6    0    0 -0.20591612871E+02  0.13106421439E+01  0.11530838017E+03  0.11713989432E+03  0.00000000000E+00 0.  1.
         14    1    6    6    0    0  0.38196012660E+02 -0.29834090258E+02  0.51770621034E+02  0.70916891689E+02  0.00000000000E+00 0. -1.
         -5    1    3    3    0  503  0.22308903806E+02  0.15809725612E+02 -0.16582463906E+02  0.32321861366E+02  0.47000000000E+01 0.  1.
         11    1    4    4    0    0  0.12497756680E+02  0.12204637874E+03  0.21185594447E+03  0.24481514188E+03  0.00000000000E+00 0. -1.
        -12    1    4    4    0    0  0.15406684161E+02  0.82560354516E+01  0.12539531479E+03  0.12660771307E+03  0.00000000000E+00 0.  1.
</event>
<event>
12    1  0.9962621E-001  0.3139558E+03  0.7818608E-02  0.1078876E+00
         21   -1    0    0  503  502  0.00000000000E+00  0.00000000000E+00  0.25238169945E+03  0.25238169945E+03  0.00000000000E+00 0.  1.
         21   -1    0    0  501  503 -0.00000000000E+00 -0.00000000000E+00 -0.47821935566E+03  0.47821935566E+03  0.00000000000E+00 0.  1.
          6    2    1    2  501    0  0.10827757071E+03 -0.23872525997E+03  0.47782952264E+02  0.31414398962E+03  0.16640148323E+03 0.  0.
         24    2    3    3    0    0  0.44710319239E+02 -0.13766253278E+03 -0.34913116744E+02  0.16883328762E+03  0.79597535823E+02 0.  0.
         -6    2    1    2    0  502 -0.10827757071E+03  0.23872525997E+03 -0.27362060848E+03  0.41645706549E+03  0.17278445517E+03 0.  0.
        -24    2    5    5    0    0 -0.63025395753E+02  0.39416846165E+02 -0.10640066624E+03  0.15234307072E+03  0.79758517722E+02 0.  0.
          5    1    3    3  501    0  0.63567251469E+02 -0.10106272719E+03  0.82696069007E+02  0.14531070200E+03  0.47000000000E+01 0. -1.
        -11    1    4    4    0    0  0.22506410061E+02 -0.13951815640E+03 -0.37993931589E+02  0.14633999213E+03  0.00000000000E+00 0.  1.
         12    1    4    4    0    0  0.22203909177E+02  0.18556236190E+01  0.30808148456E+01  0.22493295487E+02  0.00000000000E+00 0. -1.
         -5    1    5    5    0  502 -0.45252174955E+02  0.19930841380E+03 -0.16721994224E+03  0.26411399477E+03  0.47000000000E+01 0.  1.
         11    1    6    6    0    0 -0.23259615332E+02  0.57209342012E+02 -0.81193395000E+02  0.10201120483E+03  0.00000000000E+00 0. -1.
        -12    1    6    6    0    0 -0.39765780421E+02 -0.17792495847E+02 -0.25207271239E+02  0.50331865893E+02  0.00000000000E+00 0.  1.
</event>
<event>
12    1  0.9962621E-001  0.1954625E+03  0.7818608E-02  0.1156648E+00
         21   -1    0    0  503  502  0.00000000000E+00  0.00000000000E+00  0.38323707572E+03  0.38323707572E+03  0.00000000000E+00 0.  1.
         21   -1    0    0  501  503 -0.00000000000E+00 -0.00000000000E+00 -0.28556030542E+03  0.28556030542E+03  0.00000000000E+00 0.  1.
          6    2    1    2  501    0  0.90076876514E+02  0.26904198929E+02  0.32396060064E+03  0.37835967434E+03  0.17137062993E+03 0.  0.
         24    2    3    3    0    0  0.59261443370E+02 -0.37575542484E+02  0.11007113413E+03  0.15279810435E+03  0.79421445859E+02 0.  0.
         -6    2    1    2    0  502 -0.90076876514E+02 -0.26904198929E+02 -0.22628383033E+03  0.29043770680E+03  0.15592309021E+03 0.  0.
        -24    2    5    5    0    0 -0.65626737362E+02  0.30288000610E+02 -0.89306116668E+02  0.13992610913E+03  0.79871784161E+02 0.  0.
          5    1    3    3  501    0  0.30815433144E+02  0.64479741414E+02  0.21388946651E+03  0.22556156999E+03  0.47000000000E+01 0. -1.
        -11    1    4    4    0    0  0.26550267183E+01  0.18078601655E+02  0.50041112198E+02  0.53272862836E+02  0.00000000000E+00 0.  1.
         12    1    4    4    0    0  0.56606416652E+02 -0.55654144140E+02  0.60030021928E+02  0.99525241516E+02  0.00000000000E+00 0. -1.
         -5    1    5    5    0  502 -0.24450139152E+02 -0.57192199539E+02 -0.13697771366E+03  0.15051159767E+03  0.47000000000E+01 0.  1.
         11    1    6    6    0    0 -0.71139074314E+02  0.18308783831E+01 -0.84617452160E+02  0.11056325438E+03  0.00000000000E+00 0. -1.
        -12    1    6    6    0    0  0.55123369523E+01  0.28457122227E+02 -0.46886645072E+01  0.29362854749E+02  0.00000000000E+00 0.  1.
</event>
<event>
12    1  0.9962621E-001  0.1986706E+03  0.7818608E-02  0.1151101E+00
         21   -1    0    0  503  502  0.00000000000E+00  0.00000000000E+00  0.21294741519E+03  0.21294741519E+03  0.00000000000E+00 0. -1.
         21   -1    0    0  501  503 -0.00000000000E+00 -0.00000000000E+00 -0.21269686358E+03  0.21269686358E+03  0.00000000000E+00 0. -1.
          6    2    1    2  501    0  0.60402873908E+02  0.75069903928E+02  0.77854120565E+02  0.21338054091E+03  0.17374116812E+03 0.  0.
         24    2    3    3    0    0 -0.13346788437E+02  0.92720158040E+02  0.57281751196E+02  0.13466677752E+03  0.77966515109E+02 0.  0.
         -6    2    1    2    0  502 -0.60402873908E+02 -0.75069903928E+02 -0.77603568955E+02  0.21226373786E+03  0.17248067382E+03 0.  0.
        -24    2    5    5    0    0 -0.52117258809E+02 -0.56663075236E+01  0.14862972993E+02  0.96256574324E+02  0.79347995739E+02 0.  0.
          5    1    3    3  501    0  0.73749662345E+02 -0.17650254113E+02  0.20572369369E+02  0.78713763394E+02  0.47000000000E+01 0. -1.
        -13    1    4    4    0    0  0.24879787732E+01  0.84124645613E+02  0.10845121463E+02  0.84857307861E+02  0.00000000000E+00 0.  1.
         14    1    4    4    0    0 -0.15834767210E+02  0.85955124273E+01  0.46436629733E+02  0.49809469656E+02  0.00000000000E+00 0. -1.
         -5    1    5    5    0  502 -0.82856150996E+01 -0.69403596404E+02 -0.92466541948E+02  0.11600716353E+03  0.47000000000E+01 0.  1.
         11    1    6    6    0    0 -0.35854237091E+02  0.33389436291E+01 -0.30526715516E+02  0.47207575898E+02  0.00000000000E+00 0. -1.
        -12    1    6    6    0    0 -0.16263021718E+02 -0.90052511528E+01  0.45389688509E+02  0.49048998427E+02  0.00000000000E+00 0.  1.
</event>
<event>
12    1  0.9962621E-001  0.2776142E+03  0.7818608E-02  0.1097104E+00
         21   -1    0    0  503  502  0.00000000000E+00  0.00000000000E+00  0.42702841643E+02  0.42702841643E+02  0.00000000000E+00 0. -1.
         21   -1    0    0  501  503 -0.00000000000E+00 -0.00000000000E+00 -0.18030315248E+04  0.18030315248E+04  0.00000000000E+00 0. -1.
          6    2    1    2  501    0 -0.50645877085E+02  0.21116168728E+03 -0.84256821490E+03  0.88712503953E+03  0.17296061970E+03 0.  0.
         24    2    3    3    0    0 -0.32437995347E+02  0.23179416936E+02 -0.28334637928E+03  0.29685390492E+03  0.79041516341E+02 0.  0.
         -6    2    1    2    0  502  0.50645877085E+02 -0.21116168728E+03 -0.91776046821E+03  0.95860932686E+03  0.17173613917E+03 0.  0.
        -24    2    5    5    0    0  0.49350591845E+01 -0.26420016764E+02 -0.21947249917E+03  0.23483647478E+03  0.79105119317E+02 0.  0.
          5    1    3    3  501    0 -0.18207881738E+02  0.18798227034E+03 -0.55922183562E+03  0.59027113461E+03  0.47000000000E+01 0. -1.
        -11    1    4    4    0    0  0.13122333191E+02  0.35360040416E+02 -0.16912443787E+03  0.17327897613E+03  0.00000000000E+00 0.  1.
         12    1    4    4    0    0 -0.45560328538E+02 -0.12180623480E+02 -0.11422194141E+03  0.12357492879E+03  0.00000000000E+00 0. -1.
         -5    1    5    5    0  502  0.45710817901E+02 -0.18474167051E+03 -0.69828796905E+03  0.72377285208E+03  0.47000000000E+01 0.  1.
         13    1    6    6    0    0  0.46914396473E+00 -0.53605810422E+02 -0.11650004764E+03  0.12824220876E+03  0.00000000000E+00 0. -1.
        -14    1    6    6    0    0  0.44659152197E+01  0.27185793658E+02 -0.10297245152E+03  0.10659426602E+03  0.00000000000E+00 0.  1.
</event>
<event>
12    1  0.9962621E-001  0.2497848E+03  0.7818608E-02  0.1113487E+00
         21   -1    0    0  503  502  0.00000000000E+00  0.00000000000E+00  0.11688408177E+04  0.11688408177E+04  0.00000000000E+00 0.  1.
         21   -1    0    0  501  503 -0.00000000000E+00 -0.00000000000E+00 -0.13762631593E+03  0.13762631593E+03  0.00000000000E+00 0.  1.
          6    2    1    2  501    0 -0.64883182389E+02  0.16844874791E+03  0.10269953856E+04  0.10569351768E+04  0.17264888631E+03 0.  0.
         24    2    3    3    0    0 -0.84376281760E+02  0.95894318004E+02  0.43461503706E+03  0.45979139719E+03  0.78757992258E+02 0.  0.
         -6    2    1    2    0  502  0.64883182389E+02 -0.16844874791E+03  0.42191161501E+01  0.24953195678E+03  0.17223120647E+03 0.  0.
        -24    2    5    5    0    0  0.90944062592E+02 -0.18287648029E+03 -0.16591348657E+00  0.21905823984E+03  0.79195046251E+02 0.  0.
          5    1    3    3  501    0  0.19493099371E+02  0.72554429906E+02  0.59238034853E+03  0.59714377963E+03  0.47000000000E+01 0. -1.
        -11    1    4    4    0    0 -0.66670340521E+02  0.17715320277E+02  0.22652791757E+03  0.23679878445E+03  0.00000000000E+00 0.  1.
         12    1    4    4    0    0 -0.17705941240E+02  0.78178997727E+02  0.20808711949E+03  0.22299261274E+03  0.00000000000E+00 0. -1.
         -5    1    5    5    0  502 -0.26060880203E+02  0.14427732385E+02  0.43850296366E+01  0.30473716932E+02  0.47000000000E+01 0.  1.
         13    1    6    6    0    0  0.43640995013E+02 -0.16051341405E+03  0.54875881478E+01  0.16643078489E+03  0.00000000000E+00 0. -1.
        -14    1    6    6    0    0  0.47303067579E+02 -0.22363066246E+02 -0.56535016344E+01  0.52627454954E+02  0.00000000000E+00 0.  1.
</event>
<event>
12    1  0.9962621E-001  0.2056053E+03  0.7818608E-02  0.1145411E+00
         21   -1    0    0  501  502  0.00000000000E+00  0.00000000000E+00  0.10120578555E+03  0.10120578555E+03  0.00000000000E+00 0. -1.
         21   -1    0    0  502  503 -0.00000000000E+00 -0.00000000000E+00 -0.44122580557E+03  0.44122580557E+03  0.00000000000E+00 0.  1.
         -6    2    1    2    0  503  0.82974264436E+02 -0.74234086164E+02 -0.23729081781E+03  0.31397530205E+03  0.17285291427E+03 0.  0.
        -24    2    3    3    0    0  0.47463712144E+02 -0.10845768106E+03 -0.12110185172E+03  0.18766528814E+03  0.80850042239E+02 0.  0.
          6    2    1    2  501    0 -0.82974264436E+02  0.74234086164E+02 -0.10272920220E+03  0.22845628907E+03  0.17100748207E+03 0.  0.
         24    2    5    5    0    0 -0.50521622904E+02  0.22460235194E+02  0.11203819113E+02  0.99086551762E+02  0.81459944951E+02 0.  0.
          5    1    5    5  501    0 -0.32452641532E+02  0.51773850970E+02 -0.11393302131E+03  0.12936973731E+03  0.47000000000E+01 0. -1.
        -11    1    6    6    0    0 -0.20076799845E+02 -0.75928046974E+01 -0.31840466797E+02  0.38399790378E+02  0.00000000000E+00 0.  1.
         12    1    6    6    0    0 -0.30444823059E+02  0.30053039891E+02  0.43044285910E+02  0.60686761384E+02  0.00000000000E+00 0. -1.
         -5    1    3    3    0  503  0.35510552292E+02  0.34223594901E+02 -0.11618896609E+03  0.12631001391E+03  0.47000000000E+01 0.  1.
         11    1    4    4    0    0  0.24647296048E+02 -0.78726915181E+02 -0.27693486586E+02  0.87019225322E+02  0.00000000000E+00 0. -1.
        -12    1    4    4    0    0  0.22816416096E+02 -0.29730765884E+02 -0.93408365136E+02  0.10064606282E+03  0.00000000000E+00 0.  1.
</event>
<event>
12    1  0.9962621E-001  0.2135659E+03  0.7818608E-02  0.1140147E+00
         21   -1    0    0  503  502  0.00000000000E+00  0.00000000000E+00  0.93404666395E+02  0.93404666395E+02  0.00000000000E+00 0.  1.
         21   -1    0    0  501  503 -0.00000000000E+00 -0.00000000000E+00 -0.92943474006E+03  0.92943474006E+03  0.00000000000E+00 0.  1.
          6    2    1    2  501    0  0.51734757886E+02  0.10107214900E+03 -0.78010173161E+03  0.80880720342E+03  0.18088205043E+03 0.  0.
         24    2    3    3    0    0  0.24129899585E+01  0.12670445623E+03 -0.65375992783E+03  0.67069857463E+03  0.79841674709E+02 0.  0.
         -6    2    1    2    0  502 -0.51734757886E+02 -0.10107214900E+03 -0.55928342055E+02  0.21403220303E+03  0.17259704521E+03 0.  0.
        -24    2    5    5    0    0  0.99741233645E+01 -0.82486171888E+02 -0.77055453938E+02  0.14604787082E+03  0.92135692862E+02 0.  0.
          5    1    3    3  501    0  0.49321767928E+02 -0.25632307228E+02 -0.12634180378E+03  0.13810862879E+03  0.47000000000E+01 0. -1.
        -13    1    4    4    0    0 -0.25515375711E+02  0.20324261891E+02 -0.25394480654E+03  0.25603139414E+03  0.00000000000E+00 0.  1.
         14    1    4    4    0    0  0.27928365670E+02  0.10638019434E+03 -0.39981512129E+03  0.41466718048E+03  0.00000000000E+00 0. -1.
         -5    1    5    5    0  502 -0.61708881251E+02 -0.18585977110E+02  0.21127111883E+02  0.67984332216E+02  0.47000000000E+01 0.  1.
         11    1    6    6    0    0 -0.27207792213E+02 -0.43458101039E+02  0.88827650186E+00  0.51280206105E+02  0.00000000000E+00 0. -1.
        -12    1    6    6    0    0  0.37181915578E+02 -0.39028070849E+02 -0.77943730440E+02  0.94767664713E+02  0.00000000000E+00 0.  1.
</event>
<event>
12    1  0.9962621E-001  0.3006643E+03  0.7818608E-02  0.1085022E+00
         21   -1    0    0  501  502  0.00000000000E+00  0.00000000000E+00  0.69829397161E+02  0.69829397161E+02  0.00000000000E+00 0.  1.
         21   -1    0    0  502  503 -0.00000000000E+00 -0.00000000000E+00 -0.15015498665E+04  0.15015498665E+04  0.00000000000E+00 0.  1.
         -6    2    1    2    0  503 -0.23030152882E+03 -0.86845103538E+02 -0.10112261018E+04  0.10549773578E+04  0.17267927027E+03 0.  0.
        -24    2    3    3    0    0 -0.15447673285E+03 -0.11841766442E+03 -0.82186457534E+03  0.84851645598E+03  0.81443180474E+02 0.  0.
          6    2    1    2  501    0  0.23030152882E+03  0.86845103538E+02 -0.42049436754E+03  0.51640190584E+03  0.17109806847E+03 0.  0.
         24    2    5    5    0    0  0.10595578284E+03  0.77069721696E+02 -0.13770826491E+03  0.20729433156E+03  0.82710360615E+02 0.  0.
          5    1    5    5  501    0  0.12434574598E+03  0.97753818421E+01 -0.28278610264E+03  0.30910757428E+03  0.47000000000E+01 0. -1.
        -13    1    6    6    0    0  0.15433553261E+02  0.24236931139E+01 -0.70225146756E+02  0.71941921656E+02  0.00000000000E+00 0.  1.
         14    1    6    6    0    0  0.90522229580E+02  0.74646028582E+02 -0.67483118149E+02  0.13535240990E+03  0.00000000000E+00 0. -1.
         -5    1    3    3    0  503 -0.75824795962E+02  0.31572560881E+02 -0.18936152642E+03  0.20646090180E+03  0.47000000000E+01 0.  1.
         13    1    4    4    0    0 -0.51092934342E+02 -0.12239114170E+01 -0.27735288528E+03  0.28202235527E+03  0.00000000000E+00 0. -1.
        -14    1    4    4    0    0 -0.10338379851E+03 -0.11719375300E+03 -0.54451169005E+03  0.56649410071E+03  0.00000000000E+00 0.  1.
</event>
<event>
12    1  0.9962621E-001  0.1910918E+03  0.7818608E-02  0.1157481E+00
         21   -1    0    0  503  502  0.00000000000E+00  0.00000000000E+00  0.69370938874E+03  0.69370938874E+03  0.00000000000E+00 0.  1.
         21   -1    0    0  501  503 -0.00000000000E+00 -0.00000000000E+00 -0.75850926654E+02  0.75850926654E+02  0.00000000000E+00 0.  1.
          6    2    1    2  501    0 -0.67734230961E+02 -0.49401108121E+02  0.96062478592E+02  0.21387412701E+03  0.17171414294E+03 0.  0.
         24    2    3    3    0    0 -0.58584006387E+02 -0.82854640039E+02  0.11607493470E+03  0.17355720988E+03  0.79697788261E+02 0.  0.
         -6    2    1    2    0  502  0.67734230961E+02  0.49401108121E+02  0.52179598349E+03  0.55568618838E+03  0.17171981843E+03 0.  0.
        -24    2    5    5    0    0 -0.13113562360E+02  0.49157748113E+02  0.38852139339E+03  0.39973545489E+03  0.79063968140E+02 0.  0.
          5    1    3    3  501    0 -0.91502245746E+01  0.33453531918E+02 -0.20012456112E+02  0.40316917134E+02  0.47000000000E+01 0. -1.
        -13    1    4    4    0    0  0.17581081393E+02 -0.23123501200E+01  0.11310512923E+02  0.21032572088E+02  0.00000000000E+00 0.  1.
         14    1    4    4    0    0 -0.76165087780E+02 -0.80542289919E+02  0.10476442178E+03  0.15252463779E+03  0.00000000000E+00 0. -1.
         -5    1    5    5    0  502  0.80847793321E+02  0.24336000840E+00  0.13327459010E+03  0.15595073349E+03  0.47000000000E+01 0.  1.
         11    1    6    6    0    0 -0.55356286587E+01  0.49484521859E+01 -0.11303767122E+01  0.75105336158E+01  0.00000000000E+00 0. -1.
        -12    1    6    6    0    0 -0.75779337011E+01  0.44209295927E+02  0.38965177010E+03  0.39222492128E+03  0.00000000000E+00 0.  1.
</event>
<event>
12    1  0.9962621E-001  0.1908499E+03  0.7818608E-02  0.1158274E+00
         21   -1    0    0  503  502  0.00000000000E+00  0.00000000000E+00  0.13622684287E+03  0.13622684287E+03  0.00000000000E+00 0. -1.
         21   -1    0    0  501  503 -0.00000000000E+00 -0.00000000000E+00 -0.28797093563E+03  0.28797093563E+03  0.00000000000E+00 0. -1.
          6    2    1    2  501    0  0.20716864862E+02  0.67518755977E+02 -0.13777450327E+03  0.23538371620E+03  0.17730118218E+03 0.  0.
         24    2    3    3    0    0  0.58203380791E+02 -0.72311979572E+01 -0.38847428712E+02  0.10576330666E+03  0.78973606719E+02 0.  0.
         -6    2    1    2    0  502 -0.20716864862E+02 -0.67518755977E+02 -0.13969589488E+02  0.18881406230E+03  0.17454979173E+03 0.  0.
        -24    2    5    5    0    0 -0.30583123304E+02  0.30355288996E+02  0.66458524671E+01  0.88197174146E+02  0.76666832276E+02 0.  0.
          5    1    3    3  501    0 -0.37486515929E+02  0.74749953934E+02 -0.98927074553E+02  0.12962040954E+03  0.47000000000E+01 0. -1.
        -13    1    4    4    0    0  0.15820210817E+02  0.11405221353E+02 -0.53706361923E+02  0.57137828585E+02  0.00000000000E+00 0.  1.
         14    1    4    4    0    0  0.42383169974E+02 -0.18636419310E+02  0.14858933210E+02  0.48625478073E+02  0.00000000000E+00 0. -1.
         -5    1    5    5    0  502  0.98662584421E+01 -0.97874044974E+02 -0.20615441955E+02  0.10061688816E+03  0.47000000000E+01 0.  1.
         11    1    6    6    0    0  0.22412195889E+02  0.26527890491E+02  0.73211147883E+00  0.34735737874E+02  0.00000000000E+00 0. -1.
        -12    1    6    6    0    0 -0.52995319193E+02  0.38273985054E+01  0.59137409883E+01  0.53461436271E+02  0.00000000000E+00 0.  1.
</event>
<event>
12    1  0.9962621E-001  0.1970172E+03  0.7818608E-02  0.1152667E+00
         21   -1    0    0  503  502  0.00000000000E+00  0.00000000000E+00  0.81258724554E+02  0.81258724554E+02  0.00000000000E+00 0.  1.
         21   -1    0    0  501  503 -0.00000000000E+00 -0.00000000000E+00 -0.47416751861E+03  0.47416751861E+03  0.00000000000E+00 0.  1.
          6    2    1    2  501    0  0.82513250633E+02  0.40428989695E+02 -0.18587169288E+03  0.27085799747E+03  0.17427802168E+03 0.  0.
         24    2    3    3    0    0  0.18321605963E+01  0.39091735065E+02 -0.26675882006E+02  0.92317742234E+02  0.79242932098E+02 0.  0.
         -6    2    1    2    0  502 -0.82513250633E+02 -0.40428989695E+02 -0.20703710118E+03  0.28456824570E+03  0.17225500125E+03 0.  0.
        -24    2    5    5    0    0 -0.86184933046E+02 -0.51003734001E+02 -0.22738587574E+03  0.26087290660E+03  0.79505429685E+02 0.  0.
          5    1    3    3  501    0  0.80681090037E+02  0.13372546297E+01 -0.15919581088E+03  0.17854025524E+03  0.47000000000E+01 0. -1.
        -11    1    4    4    0    0  0.25864429696E+02  0.29239660859E+02  0.16137740211E+02  0.42241604489E+02  0.00000000000E+00 0.  1.
         12    1    4    4    0    0 -0.24032269100E+02  0.98520742060E+01 -0.42813622216E+02  0.50076137746E+02  0.00000000000E+00 0. -1.
         -5    1    5    5    0  502  0.36716824128E+01  0.10574744306E+02  0.20348774556E+02  0.23695339095E+02  0.47000000000E+01 0.  1.
         13    1    6    6    0    0 -0.23103275422E+02 -0.29551997226E+02 -0.18909113632E+02  0.42007576146E+02  0.00000000000E+00 0. -1.
        -14    1    6    6    0    0 -0.63081657624E+02 -0.21451736775E+02 -0.20847676210E+03  0.21886533046E+03  0.00000000000E+00 0.  1.
</event>
<event>
12    1  0.9962621E-001  0.2181173E+03  0.7818608E-02  0.1135346E+00
         21   -1    0    0  503  502  0.00000000000E+00  0.00000000000E+00  0.85001063761E+02  0.85001063761E+02  0.00000000000E+00 0.  1.
         21   -1    0    0  501  503 -0.00000000000E+00 -0.00000000000E+00 -0.74758107265E+03  0.74758107265E+03  0.00000000000E+00 0.  1.
          6    2    1    2  501    0 -0.77373655767E+02 -0.10895938075E+03 -0.12205774179E+03  0.24971036979E+03  0.17204170189E+03 0.  0.
         24    2    3    3    0    0  0.84514963102E+01 -0.25210012280E+02 -0.94995631172E+02  0.12668857790E+03  0.79491215360E+02 0.  0.
         -6    2    1    2    0  502  0.77373655767E+02  0.10895938075E+03 -0.54052226711E+03  0.58287176663E+03  0.17238429694E+03 0.  0.
        -24    2    5    5    0    0  0.87768493990E+02  0.36992456685E+02 -0.39795473663E+03  0.42276279884E+03  0.10624811190E+03 0.  0.
          5    1    3    3  501    0 -0.85825152077E+02 -0.83749368473E+02 -0.27062110613E+02  0.12302179189E+03  0.47000000000E+01 0. -1.
        -11    1    4    4    0    0  0.11644051880E+02 -0.53224822866E+02 -0.52303056036E+02  0.75525329420E+02  0.00000000000E+00 0.  1.
         12    1    4    4    0    0 -0.31925555700E+01  0.28014810586E+02 -0.42692575135E+02  0.51163248479E+02  0.00000000000E+00 0. -1.
         -5    1    5    5    0  502 -0.10394838224E+02  0.71966924068E+02 -0.14256753047E+03  0.16010896779E+03  0.47000000000E+01 0.  1.
         13    1    6    6    0    0  0.38717538015E+02 -0.15860734944E+02 -0.40936355716E+02  0.58535424165E+02  0.00000000000E+00 0. -1.
        -14    1    6    6    0    0  0.49050955975E+02  0.52853191629E+02 -0.35701838092E+03  0.36422737467E+03  0.00000000000E+00 0.  1.
</event>
<event>
12    1  0.9962621E-001  0.3473281E+03  0.7818608E-02  0.1063796E+00
         21   -1    0    0  501  502  0.00000000000E+00  0.00000000000E+00  0.12334497364E+03  0.12334497364E+03  0.00000000000E+00 0. -1.
         21   -1    0    0  502  503 -0.00000000000E+00 -0.00000000000E+00 -0.11054870094E+04  0.11054870094E+04  0.00000000000E+00 0.  1.
         -6    2    1    2    0  503 -0.93651664838E+02  0.28677606319E+03 -0.28119358398E+03  0.44688550476E+03  0.17212111420E+03 0.  0.
        -24    2    3    3    0    0 -0.67299265157E+02  0.66143694626E+02 -0.77234462402E+02  0.14523255135E+03  0.78886959385E+02 0.  0.
          6    2    1    2  501    0  0.93651664838E+02 -0.28677606319E+03 -0.70094845181E+03  0.78194647830E+03  0.17058844656E+03 0.  0.
         24    2    5    5    0    0  0.49461876684E+02 -0.79417058548E+02 -0.36044240194E+03  0.38080192310E+03  0.79610508604E+02 0.  0.
          5    1    5    5  501    0  0.44189788154E+02 -0.20735900464E+03 -0.34050604986E+03  0.40114455521E+03  0.47000000000E+01 0. -1.
        -11    1    6    6    0    0 -0.20064722548E+02 -0.31013596778E+02 -0.86428407419E+02  0.93990988318E+02  0.00000000000E+00 0.  1.
         12    1    6    6    0    0  0.69526599232E+02 -0.48403461770E+02 -0.27401399453E+03  0.28681093478E+03  0.00000000000E+00 0. -1.
         -5    1    3    3    0  503 -0.26352399681E+02  0.22063236856E+03 -0.20395912158E+03  0.30165295341E+03  0.47000000000E+01 0.  1.
         11    1    4    4    0    0 -0.35170499901E+02  0.79604355407E+02 -0.45957557456E+02  0.98417044004E+02  0.00000000000E+00 0. -1.
        -12    1    4    4    0    0 -0.32128765256E+02 -0.13460660781E+02 -0.31276904946E+02  0.46815507351E+02  0.00000000000E+00 0.  1.
</event>
<event>
12    1  0.9962621E-001  0.3136576E+03  0.7818608E-02  0.1078642E+00
         21   -1    0    0  501  502  0.00000000000E+00  0.00000000000E+00  0.26960732215E+03  0.26960732215E+03  0.00000000000E+00 0. -1.
         21   -1    0    0  502  503 -0.00000000000E+00 -0.00000000000E+00 -0.36649818636E+03  0.36649818636E+03  0.00000000000E+00 0. -1.
         -6    2    1    2    0  503 -0.23030613896E+03 -0.12258751398E+03 -0.71678299922E+02  0.32174352482E+03  0.17410485593E+03 0.  0.
        -24    2    3    3    0    0 -0.15494996718E+03 -0.10608142330E+03 -0.11157542579E+03  0.23476723893E+03  0.86045453897E+02 0.  0.
          6    2    1    2  501    0  0.23030613896E+03  0.12258751398E+03 -0.25212564281E+02  0.31436198369E+03  0.17354874579E+03 0.  0.
         24    2    5    5    0    0  0.15649715822E+03  0.61375002416E+02  0.33576845617E+02  0.20178746648E+03  0.10645433581E+03 0.  0.
          5    1    5    5  501    0  0.73808980739E+02  0.61212511564E+02 -0.58789409898E+02  0.11257451721E+03  0.47000000000E+01 0. -1.
        -13    1    6    6    0    0  0.31332626265E+02  0.66500077612E+02  0.16715852475E+02  0.75388417645E+02  0.00000000000E+00 0.  1.
         14    1    6    6    0    0  0.12516453196E+03 -0.51250751957E+01  0.16860993142E+02  0.12639904883E+03  0.00000000000E+00 0. -1.
         -5    1    3    3    0  503 -0.75356171779E+02 -0.16506090680E+02  0.39897125867E+02  0.86976285890E+02  0.47000000000E+01 0.  1.
         11    1    4    4    0    0 -0.44614985135E+02 -0.25996179177E+02 -0.79354942810E+02  0.94675789824E+02  0.00000000000E+00 0. -1.
        -12    1    4    4    0    0 -0.11033498205E+03 -0.80085244123E+02 -0.32220482979E+02  0.14009144911E+03  0.00000000000E+00 0.  1.
</event>
<event>
12    1  0.9962621E-001  0.1753201E+03  0.7818608E-02  0.1172640E+00
         21   -1    0    0  503  502  0.00000000000E+00  0.00000000000E+00  0.66451395886E+02  0.66451395886E+02  0.00000000000E+00 0.  1.
         21   -1    0    0  501  503 -0.00000000000E+00 -0.00000000000E+00 -0.75186700219E+03  0.75186700219E+03  0.00000000000E+00 0.  1.
          6    2    1    2  501    0 -0.27543206315E+02 -0.13221394151E+02 -0.87294829623E+02  0.19503225670E+03  0.17170835855E+03 0.  0.
         24    2    3    3    0    0 -0.51591223595E+02  0.33776663478E+02 -0.97487535907E+02  0.14105906134E+03  0.81186955724E+02 0.  0.
         -6    2    1    2    0  502  0.27543206315E+02  0.13221394151E+02 -0.59812077668E+03  0.62328614138E+03  0.17263753086E+03 0.  0.
        -24    2    5    5    0    0 -0.37688881883E+02  0.46754491829E+02 -0.31369388585E+03  0.32951677573E+03  0.81061810612E+02 0.  0.
          5    1    3    3  501    0  0.24048017281E+02 -0.46998057629E+02  0.10192706284E+02  0.53973195361E+02  0.47000000000E+01 0. -1.
        -13    1    4    4    0    0 -0.59479812895E+02  0.11945324639E+01 -0.32149891115E+02  0.67623150981E+02  0.00000000000E+00 0.  1.
         14    1    4    4    0    0  0.78885893001E+01  0.32582131014E+02 -0.65337644792E+02  0.73435910355E+02  0.00000000000E+00 0. -1.
         -5    1    5    5    0  502  0.65232088198E+02 -0.33533097678E+02 -0.28442689082E+03  0.29376936565E+03  0.47000000000E+01 0.  1.
         13    1    6    6    0    0 -0.31269345285E+02 -0.61090111198E+01 -0.42347280727E+02  0.52994189836E+02  0.00000000000E+00 0. -1.
        -14    1    6    6    0    0 -0.64195365986E+01  0.52863502949E+02 -0.27134660513E+03  0.27652258589E+03  0.00000000000E+00 0.  1.
</event>
<event>
12    1  0.9962621E-001  0.1751991E+03  0.7818608E-02  0.1172749E+00
         21   -1    0    0  501  502  0.00000000000E+00  0.00000000000E+00  0.45466219303E+02  0.45466219303E+02  0.00000000000E+00 0. -1.
         21   -1    0    0  502  503 -0.00000000000E+00 -0.00000000000E+00 -0.68453604700E+03  0.68453604700E+03  0.00000000000E+00 0. -1.
         -6    2    1    2    0  503  0.11038305281E+02 -0.24273382686E+02 -0.27049426308E+03  0.32227607192E+03  0.17315795933E+03 0.  0.
        -24    2    3    3    0    0 -0.23223882991E+02 -0.75094463490E+02 -0.20095950293E+03  0.22946522843E+03  0.78045128311E+02 0.  0.
          6    2    1    2  501    0 -0.11038305281E+02  0.24273382686E+02 -0.36857556462E+03  0.40772619439E+03  0.17228366570E+03 0.  0.
         24    2    5    5    0    0 -0.55029544256E+02  0.44245247707E+02 -0.15368891642E+03  0.18742534084E+03  0.80759412293E+02 0.  0.
          5    1    5    5  501    0  0.43991238975E+02 -0.19971865020E+02 -0.21488664820E+03  0.22030085355E+03  0.47000000000E+01 0. -1.
        -11    1    6    6    0    0 -0.72515932247E+01  0.32824055344E+02 -0.12729681291E+03  0.13166048303E+03  0.00000000000E+00 0.  1.
         12    1    6    6    0    0 -0.47777951032E+02  0.11421192363E+02 -0.26392103513E+02  0.55764857819E+02  0.00000000000E+00 0. -1.
         -5    1    3    3    0  503  0.34262188273E+02  0.50821080804E+02 -0.69534760147E+02  0.92810843483E+02  0.47000000000E+01 0.  1.
         13    1    4    4    0    0 -0.20940952502E+02 -0.55274137678E+01 -0.12326034514E+03  0.12514866551E+03  0.00000000000E+00 0. -1.
        -14    1    4    4    0    0 -0.22829304892E+01 -0.69567049723E+02 -0.77699157791E+02  0.10431656292E+03  0.00000000000E+00 0.  1.
</event>
<event>
12    1  0.9962621E-001  0.1977166E+03  0.7818608E-02  0.1152003E+00
         21   -1    0    0  503  502  0.00000000000E+00  0.00000000000E+00  0.37778560502E+03  0.37778560502E+03  0.00000000000E+00 0.  1.
         21   -1    0    0  501  503 -0.00000000000E+00 -0.00000000000E+00 -0.23484874228E+03  0.23484874228E+03  0.00000000000E+00 0.  1.
          6    2    1    2  501    0  0.86916228567E+02 -0.39619585099E+02 -0.15819684080E+03  0.25321548191E+03  0.17311180644E+03 0.  0.
         24    2    3    3    0    0  0.10665648387E+03 -0.64836159600E+02 -0.16392818527E+03  0.22034464958E+03  0.78102378509E+02 0.  0.
         -6    2    1    2    0  502 -0.86916228567E+02  0.39619585099E+02  0.30113370354E+03  0.35941886539E+03  0.17139507308E+03 0.  0.
        -24    2    5    5    0    0  0.10556407878E+02  0.14256383854E+02  0.20467788728E+03  0.21988384712E+03  0.78365722448E+02 0.  0.
          5    1    3    3  501    0 -0.19740255302E+02  0.25216574502E+02  0.57313444714E+01  0.32870832336E+02  0.47000000000E+01 0. -1.
        -13    1    4    4    0    0  0.27292988852E+02 -0.42178354030E+02 -0.11221472595E+03  0.12294740953E+03  0.00000000000E+00 0.  1.
         14    1    4    4    0    0  0.79363495017E+02 -0.22657805570E+02 -0.51713459315E+02  0.97397240048E+02  0.00000000000E+00 0. -1.
         -5    1    5    5    0  502 -0.97472636445E+02  0.25363201244E+02  0.96455816260E+02  0.13953501827E+03  0.47000000000E+01 0.  1.
         13    1    6    6    0    0 -0.11826719007E+02 -0.95704857538E+01  0.29163481968E+01  0.15490983404E+02  0.00000000000E+00 0. -1.
        -14    1    6    6    0    0  0.22383126885E+02  0.23826869608E+02  0.20176153908E+03  0.20439286372E+03  0.00000000000E+00 0.  1.
</event>
<event>
12    1  0.9962621E-001  0.1906010E+03  0.7818608E-02  0.1158502E+00
         21   -1    0    0  503  502  0.00000000000E+00  0.00000000000E+00  0.33088282509E+02  0.33088282509E+02  0.00000000000E+00 0. -1.
         21   -1    0    0  501  503 -0.00000000000E+00 -0.00000000000E+00 -0.15806776182E+04  0.15806776182E+04  0.00000000000E+00 0. -1.
          6    2    1    2  501    0  0.74412301991E+02 -0.11196045052E+02 -0.31752100733E+03  0.36901820182E+03  0.17231454107E+03 0.  0.
         24    2    3    3    0    0  0.10724973770E+02 -0.68001840079E+01 -0.28758009128E+03  0.29835033200E+03  0.78417753991E+02 0.  0.
         -6    2    1    2    0  502 -0.74412301991E+02  0.11196045052E+02 -0.12300683283E+04  0.12447476988E+04  0.17511767285E+03 0.  0.
        -24    2    5    5    0    0  0.27849914218E+02 -0.12790509186E+02 -0.59411547979E+03  0.60016176106E+03  0.79257310457E+02 0.  0.
          5    1    3    3  501    0  0.63687328222E+02 -0.43958610443E+01 -0.29940916052E+02  0.70667869816E+02  0.47000000000E+01 0. -1.
        -11    1    4    4    0    0  0.27187233514E+02  0.21074790188E+02 -0.22766098844E+03  0.23024512613E+03  0.00000000000E+00 0.  1.
         12    1    4    4    0    0 -0.16462259744E+02 -0.27874974196E+02 -0.59919102836E+02  0.68105205873E+02  0.00000000000E+00 0. -1.
         -5    1    5    5    0  502 -0.10226221621E+03  0.23986554238E+02 -0.63595284853E+03  0.64458593779E+03  0.47000000000E+01 0.  1.
         11    1    6    6    0    0 -0.56588402623E+01 -0.35962591191E+02 -0.15764009181E+03  0.16178914977E+03  0.00000000000E+00 0. -1.
        -12    1    6    6    0    0  0.33508754481E+02  0.23172082005E+02 -0.43647538798E+03  0.43837261129E+03  0.00000000000E+00 0.  1.
</event>
<event>
12    1  0.9962621E-001  0.2536588E+03  0.7818608E-02  0.1112429E+00
         21   -1    0    0  503  502  0.00000000000E+00  0.00000000000E+00  0.61163040245E+02  0.61163040245E+02  0.00000000000E+00 0.  1.
         21   -1    0    0  501  503 -0.00000000000E+00 -0.00000000000E+00 -0.11088802747E+04  0.11088802747E+04  0.00000000000E+00 0.  1.
          6    2    1    2  501    0 -0.16353564684E+02 -0.17774881920E+03 -0.34521598962E+03  0.42314923051E+03  0.16738909757E+03 0.  0.
         24    2    3    3    0    0 -0.44054631010E+01 -0.14844030703E+03 -0.35521734046E+03  0.38962516399E+03  0.59786926613E+02 0.  0.
         -6    2    1    2    0  502  0.16353564684E+02  0.17774881920E+03 -0.70250124487E+03  0.74689408446E+03  0.18022400662E+03 0.  0.
        -24    2    5    5    0    0 -0.36558665527E+02  0.98136895416E+02 -0.55921937513E+03  0.57458753580E+03  0.80356334639E+02 0.  0.
          5    1    3    3  501    0 -0.11948101583E+02 -0.29308512176E+02  0.10001350842E+02  0.33524066521E+02  0.47000000000E+01 0. -1.
        -11    1    4    4    0    0 -0.56903929464E+01  0.39717872508E-02 -0.13027673310E+01  0.58376185537E+01  0.00000000000E+00 0.  1.
         12    1    4    4    0    0  0.12849298454E+01 -0.14844427882E+03 -0.35391457313E+03  0.38378754543E+03  0.00000000000E+00 0. -1.
         -5    1    5    5    0  502  0.52912230211E+02  0.79611923789E+02 -0.14328186974E+03  0.17230654866E+03  0.47000000000E+01 0.  1.
         13    1    6    6    0    0 -0.12398799181E+02  0.10244081731E+03 -0.49904457324E+03  0.50960115517E+03  0.00000000000E+00 0. -1.
        -14    1    6    6    0    0 -0.24159866346E+02 -0.43039218928E+01 -0.60174801889E+02  0.64986380634E+02  0.00000000000E+00 0.  1.
</event>
<event>
12    1  0.9962621E-001  0.2512598E+03  0.7818608E-02  0.1112561E+00
         21   -1    0    0  503  502  0.00000000000E+00  0.00000000000E+00  0.19061563227E+03  0.19061563227E+03  0.00000000000E+00 0. -1.
         21   -1    0    0  501  503 -0.00000000000E+00 -0.00000000000E+00 -0.33469548252E+03  0.33469548252E+03  0.00000000000E+00 0. -1.
          6    2    1    2  501    0  0.23082220822E+02  0.18207193111E+03 -0.43585648301E+02  0.25469959662E+03  0.17114087404E+03 0.  0.
         24    2    3    3    0    0  0.30920016754E+02  0.13374002605E+03  0.35173719287E+02  0.16184200634E+03  0.78186971309E+02 0.  0.
         -6    2    1    2    0  502 -0.23082220822E+02 -0.18207193111E+03 -0.10049420195E+03  0.27061151816E+03  0.17160574618E+03 0.  0.
        -24    2    5    5    0    0  0.13752196028E+02 -0.18451146559E+03 -0.11345177217E+03  0.23120702325E+03  0.79698049918E+02 0.  0.
          5    1    3    3  501    0 -0.78377959319E+01  0.48331905056E+02 -0.78759367587E+02  0.92857590289E+02  0.47000000000E+01 0. -1.
        -13    1    4    4    0    0  0.48419377312E+02  0.40574123744E+02  0.14785289571E+02  0.64879121484E+02  0.00000000000E+00 0.  1.
         14    1    4    4    0    0 -0.17499360558E+02  0.93165902306E+02  0.20388429715E+02  0.96962884852E+02  0.00000000000E+00 0. -1.
         -5    1    5    5    0  502 -0.36834416850E+02  0.24395344815E+01  0.12957570224E+02  0.39404494912E+02  0.47000000000E+01 0.  1.
         13    1    6    6    0    0  0.38985589003E+02 -0.44379152886E+02 -0.32924117837E+02  0.67626791259E+02  0.00000000000E+00 0. -1.
        -14    1    6    6    0    0 -0.25233392974E+02 -0.14013231270E+03 -0.80527654336E+02  0.16358023199E+03  0.00000000000E+00 0.  1.
</event>
<event>
12    1  0.9962621E-001  0.3300998E+03  0.7818608E-02  0.1071235E+00
         21   -1    0    0  503  502  0.00000000000E+00  0.00000000000E+00  0.13926558411E+03  0.13926558411E+03  0.00000000000E+00 0. -1.
         21   -1    0    0  501  503 -0.00000000000E+00 -0.00000000000E+00 -0.14343951918E+04  0.14343951918E+04  0.00000000000E+00 0.  1.
          6    2    1    2  501    0 -0.27803842372E+03  0.40272877859E+02 -0.11785809144E+04  0.12235901205E+04  0.17085824927E+03 0.  0.
         24    2    3    3    0    0 -0.20079239480E+03 -0.12444188977E+02 -0.98160273018E+03  0.10054880041E+04  0.83604801108E+02 0.  0.
         -6    2    1    2    0  502  0.27803842372E+03 -0.40272877859E+02 -0.11654869326E+03  0.35007065544E+03  0.17331646241E+03 0.  0.
        -24    2    5    5    0    0  0.32318718947E+02 -0.16218604305E+02 -0.47156966069E+02  0.93567081990E+02  0.72273623565E+02 0.  0.
          5    1    3    3  501    0 -0.77246028916E+02  0.52717066836E+02 -0.19697818426E+03  0.21810211643E+03  0.47000000000E+01 0. -1.
        -13    1    4    4    0    0 -0.85344580163E+02  0.13458822773E+02 -0.59333883600E+03  0.59959637389E+03  0.00000000000E+00 0.  1.
         14    1    4    4    0    0 -0.11544781464E+03 -0.25903011750E+02 -0.38826389418E+03  0.40589163017E+03  0.00000000000E+00 0. -1.
         -5    1    5    5    0  502  0.24571970477E+03 -0.24054273554E+02 -0.69391727196E+02  0.25650357345E+03  0.47000000000E+01 0.  1.
         11    1    6    6    0    0  0.23259427003E+02  0.29118867735E+01 -0.62940040472E+02  0.67163447825E+02  0.00000000000E+00 0. -1.
        -12    1    6    6    0    0  0.90592919438E+01 -0.19130491079E+02  0.15783074404E+02  0.26403634164E+02  0.00000000000E+00 0.  1.
</event>
<event>
12    1  0.9962621E-001  0.6660227E+03  0.7818608E-02  0.9777196E-01
         21   -1    0    0  501  502  0.00000000000E+00  0.00000000000E+00  0.30780556249E+03  0.30780556249E+03  0.00000000000E+00 0.  1.
         21   -1    0    0  502  503 -0.00000000000E+00 -0.00000000000E+00 -0.21196267284E+04  0.21196267284E+04  0.00000000000E+00 0. -1.
         -6    2    1    2    0  503 -0.62688803992E+03 -0.14400125748E+03 -0.15926945332E+04  0.17263435641E+04  0.17280407502E+03 0.  0.
        -24    2    3    3    0    0 -0.62507914925E+03 -0.11994273470E+03 -0.15335465823E+04  0.16622915953E+04  0.79611716202E+02 0.  0.
          6    2    1    2  501    0  0.62688803992E+03  0.14400125748E+03 -0.21912663269E+03  0.70108872681E+03  0.17258025655E+03 0.  0.
         24    2    5    5    0    0  0.54683094073E+03  0.84179189609E+02 -0.22194776938E+03  0.60099942794E+03  0.76349763268E+02 0.  0.
          5    1    5    5  501    0  0.80057099192E+02  0.59822067873E+02  0.28211366868E+01  0.10008929887E+03  0.47000000000E+01 0. -1.
        -11    1    6    6    0    0  0.20624399910E+03  0.18948170532E+02 -0.46085320699E+02  0.21217793739E+03  0.00000000000E+00 0.  1.
         12    1    6    6    0    0  0.34058694163E+03  0.65231019077E+02 -0.17586244868E+03  0.38882149055E+03  0.00000000000E+00 0. -1.
         -5    1    3    3    0  503 -0.18088906681E+01 -0.24058522780E+02 -0.59147950934E+02  0.64051968772E+02  0.47000000000E+01 0.  1.
         13    1    4    4    0    0 -0.91677627523E+02  0.10039470151E+02 -0.20612281868E+03  0.22581451399E+03  0.00000000000E+00 0. -1.
        -14    1    4    4    0    0 -0.53340152173E+03 -0.12998220485E+03 -0.13274237636E+04  0.14364770813E+04  0.00000000000E+00 0.  1.
</event>
<event>
12    1  0.9962621E-001  0.2277406E+03  0.7818608E-02  0.1128967E+00
         21   -1    0    0  503  502  0.00000000000E+00  0.00000000000E+00  0.13595566950E+03  0.13595566950E+03  0.00000000000E+00 0. -1.
         21   -1    0    0  501  503 -0.00000000000E+00 -0.00000000000E+00 -0.39913023277E+03  0.39913023277E+03  0.00000000000E+00 0. -1.
          6    2    1    2  501    0 -0.60772639773E+02 -0.12957449409E+03 -0.64368002541E+02  0.23277842278E+03  0.17192932006E+03 0.  0.
         24    2    3    3    0    0 -0.53637321348E+02 -0.76789008561E+01 -0.22734030798E+01  0.95711732071E+02  0.78864691306E+02 0.  0.
         -6    2    1    2    0  502  0.60772639773E+02  0.12957449409E+03 -0.19880656072E+03  0.30230747949E+03  0.17715219533E+03 0.  0.
        -24    2    5    5    0    0 -0.38529101230E+02  0.72519311962E+02 -0.10190201510E+03  0.15221180821E+03  0.77723044397E+02 0.  0.
          5    1    3    3  501    0 -0.71353184258E+01 -0.12189559323E+03 -0.62094599461E+02  0.13706669070E+03  0.47000000000E+01 0. -1.
        -13    1    4    4    0    0 -0.20681776396E+01 -0.10035471973E+02 -0.33735240769E+02  0.35256978404E+02  0.00000000000E+00 0.  1.
         14    1    4    4    0    0 -0.51569143708E+02  0.23565711167E+01  0.31461837689E+02  0.60454753667E+02  0.00000000000E+00 0. -1.
         -5    1    5    5    0  502  0.99301741003E+02  0.57055182126E+02 -0.96904545626E+02  0.15009567128E+03  0.47000000000E+01 0.  1.
         11    1    6    6    0    0  0.16669235932E+02  0.37859435411E+00 -0.36966165856E+02  0.40552486710E+02  0.00000000000E+00 0. -1.
        -12    1    6    6    0    0 -0.55198337162E+02  0.72140717608E+02 -0.64935849239E+02  0.11165932150E+03  0.00000000000E+00 0.  1.
</event>
<event>
12    1  0.9962621E-001  0.2390011E+03  0.7818608E-02  0.1122977E+00
         21   -1    0    0  503  502  0.00000000000E+00  0.00000000000E+00  0.63863139576E+03  0.63863139576E+03  0.00000000000E+00 0.  1.
         21   -1    0    0  501  503 -0.00000000000E+00 -0.00000000000E+00 -0.96634322480E+02  0.96634322480E+02  0.00000000000E+00 0.  1.
          6    2    1    2  501    0  0.11751862640E+03  0.10894722120E+03  0.14597782763E+03  0.28005544940E+03  0.17731724119E+03 0.  0.
         24    2    3    3    0    0  0.50944547101E+02  0.13648548188E+03  0.80968927721E+02  0.18290242113E+03  0.75323932166E+02 0.  0.
         -6    2    1    2    0  502 -0.11751862640E+03 -0.10894722120E+03  0.39601924566E+03  0.45521026884E+03  0.15717831074E+03 0.  0.
        -24    2    5    5    0    0 -0.68601458423E+02 -0.13268398029E+03  0.31551876041E+03  0.35795420898E+03  0.79170252193E+02 0.  0.
          5    1    3    3  501    0  0.66574079296E+02 -0.27538260676E+02  0.65008899906E+02  0.97153028270E+02  0.47000000000E+01 0. -1.
        -11    1    4    4    0    0 -0.36322322057E+01  0.95928482689E+02  0.48417614290E+02  0.10751619541E+03  0.00000000000E+00 0.  1.
         12    1    4    4    0    0  0.54576779306E+02  0.40556999191E+02  0.32551313431E+02  0.75386225724E+02  0.00000000000E+00 0. -1.
         -5    1    5    5    0  502 -0.48917167973E+02  0.23736759086E+02  0.80500485248E+02  0.97256059861E+02  0.47000000000E+01 0.  1.
         13    1    6    6    0    0 -0.56821140490E+02 -0.59089790736E+02  0.23178676591E+03  0.24585636096E+03  0.00000000000E+00 0. -1.
        -14    1    6    6    0    0 -0.11780317934E+02 -0.73594189554E+02  0.83731994501E+02  0.11209784802E+03  0.00000000000E+00 0.  1.
</event>
<event>
12    1  0.9962621E-001  0.3955774E+03  0.7818608E-02  0.1045586E+00
         21   -1    0    0  503  502  0.00000000000E+00  0.00000000000E+00  0.17518046537E+03  0.17518046537E+03  0.00000000000E+00 0. -1.
         21   -1    0    0  501  503 -0.00000000000E+00 -0.00000000000E+00 -0.10056777319E+04  0.10056777319E+04  0.00000000000E+00 0. -1.
          6    2    1    2  501    0  0.33070240543E+03 -0.12307575005E+03 -0.21061470445E+03  0.44551074929E+03  0.17207426535E+03 0.  0.
         24    2    3    3    0    0  0.29815770289E+03 -0.15506713339E+03 -0.17530935139E+03  0.38762150827E+03  0.81075479256E+02 0.  0.
         -6    2    1    2    0  502 -0.33070240543E+03  0.12307575005E+03 -0.61988256205E+03  0.73534744795E+03  0.17880088721E+03 0.  0.
        -24    2    5    5    0    0 -0.22036308803E+03  0.13530543783E+02 -0.31202864825E+03  0.39042566056E+03  0.79544659833E+02 0.  0.
          5    1    3    3  501    0  0.32544702542E+02  0.31991383341E+02 -0.35305353063E+02  0.57889241026E+02  0.47000000000E+01 0. -1.
        -11    1    4    4    0    0  0.22267073784E+03 -0.90069371431E+02 -0.15526561329E+03  0.28601076873E+03  0.00000000000E+00 0.  1.
         12    1    4    4    0    0  0.75486965055E+02 -0.64997761960E+02 -0.20043738102E+02  0.10161073954E+03  0.00000000000E+00 0. -1.
         -5    1    5    5    0  502 -0.11033931740E+03  0.10954520627E+03 -0.30785391379E+03  0.34492178739E+03  0.47000000000E+01 0.  1.
         13    1    6    6    0    0 -0.15466878338E+03 -0.21516799246E+02 -0.24326020148E+03  0.28906907622E+03  0.00000000000E+00 0. -1.
        -14    1    6    6    0    0 -0.65694304648E+02  0.35047343028E+02 -0.68768446775E+02  0.10135658434E+03  0.00000000000E+00 0.  1.
</event>
<event>
12    1  0.9962621E-001  0.1838503E+03  0.7818608E-02  0.1165216E+00
         21   -1    0    0  501  502  0.00000000000E+00  0.00000000000E+00  0.63745616342E+02  0.63745616342E+02  0.00000000000E+00 0. -1.
         21   -1    0    0  502  503 -0.00000000000E+00 -0.00000000000E+00 -0.56952341378E+03  0.56952341378E+03  0.00000000000E+00 0. -1.
         -6    2    1    2    0  503 -0.54084814442E+02 -0.39737619669E+01 -0.15978274255E+03  0.24358047000E+03  0.17567003902E+03 0.  0.
        -24    2    3    3    0    0 -0.58873232692E+02 -0.40501634689E+02 -0.17360564835E+03  0.20395248545E+03  0.79694762945E+02 0.  0.
          6    2    1    2  501    0  0.54084814442E+02  0.39737619669E+01 -0.34599505488E+03  0.38968856012E+03  0.17089071932E+03 0.  0.
         24    2    5    5    0    0  0.72761982561E+02 -0.52231879088E+02 -0.23108816983E+03  0.26033017065E+03  0.79671702718E+02 0.  0.
          5    1    5    5  501    0 -0.18677168119E+02  0.56205641055E+02 -0.11490688505E+03  0.12935838948E+03  0.47000000000E+01 0. -1.
        -11    1    6    6    0    0  0.42608229013E+02 -0.45334115279E+02 -0.59878366819E+02  0.86348491594E+02  0.00000000000E+00 0.  1.
         12    1    6    6    0    0  0.30153753548E+02 -0.68977638091E+01 -0.17120980301E+03  0.17398167905E+03  0.00000000000E+00 0. -1.
         -5    1    3    3    0  503  0.47884182504E+01  0.36527872723E+02  0.13822905797E+02  0.39627984552E+02  0.47000000000E+01 0.  1.
         13    1    4    4    0    0  0.10845575580E+01 -0.46659297171E+02 -0.80056244094E+02  0.92667515862E+02  0.00000000000E+00 0. -1.
        -14    1    4    4    0    0 -0.59957790250E+02  0.61576624816E+01 -0.93549404258E+02  0.11128496959E+03  0.00000000000E+00 0.  1.
</event>
<event>
12    1  0.9962621E-001  0.2733959E+03  0.7818608E-02  0.1099366E+00
         21   -1    0    0  501  502  0.00000000000E+00  0.00000000000E+00  0.68638482727E+02  0.68638482727E+02  0.00000000000E+00 0. -1.
         21   -1    0    0  502  503 -0.00000000000E+00 -0.00000000000E+00 -0.10892174769E+04  0.10892174769E+04  0.00000000000E+00 0. -1.
         -6    2    1    2    0  503  0.17752177367E+03 -0.11742824169E+03 -0.49634516014E+03  0.56666025442E+03  0.17158657834E+03 0.  0.
        -24    2    3    3    0    0  0.12981941982E+03 -0.78610718869E+01 -0.24524184577E+03  0.28853178814E+03  0.78690225829E+02 0.  0.
          6    2    1    2  501    0 -0.17752177367E+03  0.11742824169E+03 -0.52423383407E+03  0.59119570524E+03  0.17142892709E+03 0.  0.
         24    2    5    5    0    0 -0.19185176865E+03  0.91679522150E+02 -0.50993297573E+03  0.55810567859E+03  0.78981471432E+02 0.  0.
          5    1    5    5  501    0  0.14329994984E+02  0.25748719544E+02 -0.14300858343E+02  0.33090026651E+02  0.47000000000E+01 0. -1.
        -13    1    6    6    0    0 -0.12429037911E+03  0.21109944107E+02 -0.33175165917E+03  0.35489842412E+03  0.00000000000E+00 0.  1.
         14    1    6    6    0    0 -0.67561389539E+02  0.70569578043E+02 -0.17818131656E+03  0.20320725448E+03  0.00000000000E+00 0. -1.
         -5    1    3    3    0  503  0.47702353850E+02 -0.10956716981E+03 -0.25110331437E+03  0.27812846627E+03  0.47000000000E+01 0.  1.
         13    1    4    4    0    0  0.34498258944E+02  0.33448159960E+02 -0.73485188514E+02  0.87800809825E+02  0.00000000000E+00 0. -1.
        -14    1    4    4    0    0  0.95321160875E+02 -0.41309231847E+02 -0.17175665725E+03  0.20073097832E+03  0.00000000000E+00 0.  1.
</event>
<event>
12    1  0.9962621E-001  0.3120149E+03  0.7818608E-02  0.1079503E+00
         21   -1    0    0  501  502  0.00000000000E+00  0.00000000000E+00  0.19541535289E+03  0.19541535289E+03  0.00000000000E+00 0. -1.
         21   -1    0    0  502  503 -0.00000000000E+00 -0.00000000000E+00 -0.71369988871E+03  0.71369988871E+03  0.00000000000E+00 0.  1.
         -6    2    1    2    0  503  0.11975645040E+03  0.22964154041E+03 -0.87232071397E+01  0.31213680181E+03  0.17400127646E+03 0.  0.
        -24    2    3    3    0    0  0.44940470703E+02  0.57550213364E+02  0.14864325092E+02  0.12295086856E+03  0.97797213431E+02 0.  0.
          6    2    1    2  501    0 -0.11975645040E+03 -0.22964154041E+03 -0.50956132867E+03  0.59697843978E+03  0.17220239659E+03 0.  0.
         24    2    5    5    0    0 -0.78707011674E+02 -0.15364266083E+03 -0.20414025063E+03  0.27954338968E+03  0.81672540521E+02 0.  0.
          5    1    5    5  501    0 -0.41049438728E+02 -0.75998879579E+02 -0.30542107804E+03  0.31743505010E+03  0.47000000000E+01 0. -1.
        -13    1    6    6    0    0 -0.56311059856E+02 -0.12396487549E+03 -0.20025970569E+03  0.24216146585E+03  0.00000000000E+00 0.  1.
         14    1    6    6    0    0 -0.22395951817E+02 -0.29677785345E+02 -0.38805449354E+01  0.37381923837E+02  0.00000000000E+00 0. -1.
         -5    1    3    3    0  503  0.74815979698E+02  0.17209132705E+03 -0.23587532231E+02  0.18918593325E+03  0.47000000000E+01 0.  1.
         13    1    4    4    0    0 -0.19716129435E+02 -0.17282921183E+01 -0.20387918072E+02  0.28414432193E+02  0.00000000000E+00 0. -1.
        -14    1    4    4    0    0  0.64656600138E+02  0.59278505482E+02  0.35252243163E+02  0.94536436371E+02  0.00000000000E+00 0.  1.
</event>
<event>
12    1  0.9962621E-001  0.1741812E+03  0.7818608E-02  0.1173647E+00
         21   -1    0    0  503  502  0.00000000000E+00  0.00000000000E+00  0.12995665120E+03  0.12995665120E+03  0.00000000000E+00 0.  1.
         21   -1    0    0  501  503 -0.00000000000E+00 -0.00000000000E+00 -0.27936550179E+03  0.27936550179E+03  0.00000000000E+00 0.  1.
          6    2    1    2  501    0  0.23688070528E+02 -0.12531824720E+02 -0.15816750819E+03  0.23527869954E+03  0.17210733422E+03 0.  0.
         24    2    3    3    0    0  0.36574813953E+01 -0.59849399012E+02 -0.42461673473E+02  0.10858968058E+03  0.79958722361E+02 0.  0.
         -6    2    1    2    0  502 -0.23688070528E+02  0.12531824720E+02  0.87586575957E+01  0.17404345344E+03  0.17174468926E+03 0.  0.
        -24    2    5    5    0    0  0.29925626103E+02  0.19244617793E+02  0.53721705872E+02  0.10359307539E+03  0.81114765463E+02 0.  0.
          5    1    3    3  501    0  0.20030589133E+02  0.47317574292E+02 -0.11570583471E+03  0.12668901896E+03  0.47000000000E+01 0. -1.
        -11    1    4    4    0    0 -0.14994712171E+02 -0.48095363766E+02 -0.61472167263E+02  0.79478504999E+02  0.00000000000E+00 0.  1.
         12    1    4    4    0    0  0.18652193567E+02 -0.11754035246E+02  0.19010493790E+02  0.29111175578E+02  0.00000000000E+00 0. -1.
         -5    1    5    5    0  502 -0.53613696631E+02 -0.67127930732E+01 -0.44963048276E+02  0.70450378051E+02  0.47000000000E+01 0.  1.
         11    1    6    6    0    0 -0.15374143241E+02  0.36867022588E+02  0.25430603805E+02  0.47352478761E+02  0.00000000000E+00 0. -1.
        -12    1    6    6    0    0  0.45299769345E+02 -0.17622404795E+02  0.28291102067E+02  0.56240596633E+02  0.00000000000E+00 0.  1.
</event>
<event>
12    1  0.9962621E-001  0.2655980E+03  0.7818608E-02  0.1103864E+00
         21   -1    0    0  501  502  0.00000000000E+00  0.00000000000E+00  0.15289532817E+03  0.15289532817E+03  0.00000000000E+00 0. -1.
         21   -1    0    0  502  503 -0.00000000000E+00 -0.00000000000E+00 -0.73207887716E+03  0.73207887716E+03  0.00000000000E+00 0. -1.
         -6    2    1    2    0  503 -0.20136839048E+03  0.47318330861E+01 -0.20205599825E+02  0.26610534622E+03  0.17271991807E+03 0.  0.
        -24    2    3    3    0    0 -0.12511276542E+03 -0.45228256004E+02  0.31788104684E+02  0.16105123558E+03  0.85018925365E+02 0.  0.
          6    2    1    2  501    0  0.20136839048E+03 -0.47318330861E+01 -0.55897794917E+03  0.61886885911E+03  0.17312047307E+03 0.  0.
         24    2    5    5    0    0  0.19541567578E+03  0.31058540853E+02 -0.53333972002E+03  0.57419454353E+03  0.78078150368E+02 0.  0.
          5    1    5    5  501    0  0.59527146948E+01 -0.35790373939E+02 -0.25638229144E+02  0.44674315580E+02  0.47000000000E+01 0. -1.
        -13    1    6    6    0    0  0.83120924293E+02 -0.21010201294E+02 -0.26851909254E+03  0.28187412026E+03  0.00000000000E+00 0.  1.
         14    1    6    6    0    0  0.11229475149E+03  0.52068742147E+02 -0.26482062748E+03  0.29232042327E+03  0.00000000000E+00 0. -1.
         -5    1    3    3    0  503 -0.76255625053E+02  0.49960089090E+02 -0.51993704508E+02  0.10505411064E+03  0.47000000000E+01 0.  1.
         13    1    4    4    0    0 -0.50335400813E+02 -0.27214252664E+02  0.56348817282E+02  0.80308513448E+02  0.00000000000E+00 0. -1.
        -14    1    4    4    0    0 -0.74777364610E+02 -0.18014003341E+02 -0.24560712599E+02  0.80742722135E+02  0.00000000000E+00 0.  1.
</event>
<event>
12    1  0.9962621E-001  0.2978325E+03  0.7818608E-02  0.1086371E+00
         21   -1    0    0  501  502  0.00000000000E+00  0.00000000000E+00  0.23243359537E+03  0.23243359537E+03  0.00000000000E+00 0.  1.
         21   -1    0    0  502  503 -0.00000000000E+00 -0.00000000000E+00 -0.43450140037E+03  0.43450140037E+03  0.00000000000E+00 0. -1.
         -6    2    1    2    0  503  0.39087590353E+02  0.23976542921E+03  0.15701953592E+02  0.29824613229E+03  0.17230468163E+03 0.  0.
        -24    2    3    3    0    0 -0.27071896247E+02  0.14310211566E+03  0.54459952014E+02  0.17477489557E+03  0.79807735689E+02 0.  0.
          6    2    1    2  501    0 -0.39087590353E+02 -0.23976542921E+03 -0.21776975860E+03  0.36868886345E+03  0.17173383332E+03 0.  0.
         24    2    5    5    0    0 -0.53001551947E+02 -0.17282344335E+03 -0.81448375759E+02  0.21610958171E+03  0.85979103928E+02 0.  0.
          5    1    5    5  501    0  0.13913961594E+02 -0.66941985867E+02 -0.13632138284E+03  0.15257928175E+03  0.47000000000E+01 0. -1.
        -13    1    6    6    0    0 -0.53538625459E+02 -0.17580759832E+03 -0.58359591633E+02  0.19282255568E+03  0.00000000000E+00 0.  1.
         14    1    6    6    0    0  0.53707351242E+00  0.29841549713E+01 -0.23088784125E+02  0.23287026028E+02  0.00000000000E+00 0. -1.
         -5    1    3    3    0  503  0.66159486600E+02  0.96663313549E+02 -0.38757998422E+02  0.12347123671E+03  0.47000000000E+01 0.  1.
         13    1    4    4    0    0  0.19087953688E+02  0.85162085626E+02  0.87139559173E+01  0.87708972357E+02  0.00000000000E+00 0. -1.
        -14    1    4    4    0    0 -0.46159849936E+02  0.57940030038E+02  0.45745996097E+02  0.87065923218E+02  0.00000000000E+00 0.  1.
</event>
<event>
12    1  0.9962621E-001  0.2486171E+03  0.7818608E-02  0.1114409E+00
         21   -1    0    0  501  502  0.00000000000E+00  0.00000000000E+00  0.17260403126E+04  0.17260403126E+04  0.00000000000E+00 0. -1.
         21   -1    0    0  502  503 -0.00000000000E+00 -0.00000000000E+00 -0.24038349768E+03  0.24038349768E+03  0.00000000000E+00 0. -1.
         -6    2    1    2    0  503  0.12292406408E+02 -0.17643827907E+03 -0.16433314337E+03  0.29801987542E+03  0.17472519726E+03 0.  0.
        -24    2    3    3    0    0  0.16985439397E+02 -0.20299312673E+03 -0.15824547582E+03  0.26997822445E+03  0.79698785492E+02 0.  0.
          6    2    1    2  501    0 -0.12292406408E+02  0.17643827907E+03  0.16499899583E+04  0.16684039349E+04  0.17269411633E+03 0.  0.
         24    2    5    5    0    0  0.91201764082E+01  0.10889118242E+03  0.57838655701E+03  0.59445000260E+03  0.83062199826E+02 0.  0.
          5    1    5    5  501    0 -0.21412582816E+02  0.67547096655E+02  0.10716034013E+04  0.10739539323E+04  0.47000000000E+01 0. -1.
        -11    1    6    6    0    0 -0.35145170726E+02  0.39332192979E+02  0.27766592187E+03  0.28263150673E+03  0.00000000000E+00 0.  1.
         12    1    6    6    0    0  0.44265347134E+02  0.69558989437E+02  0.30072063514E+03  0.31181849587E+03  0.00000000000E+00 0. -1.
         -5    1    3    3    0  503 -0.46930329894E+01  0.26554847659E+02 -0.60876675523E+01  0.28041650969E+02  0.47000000000E+01 0.  1.
         11    1    4    4    0    0  0.45355146626E+02 -0.75989370132E+02 -0.59879749374E+02  0.10685063446E+03  0.00000000000E+00 0. -1.
        -12    1    4    4    0    0 -0.28369707229E+02 -0.12700375660E+03 -0.98365726444E+02  0.16312758999E+03  0.00000000000E+00 0.  1.
</event>
<event>
12    1  0.9962621E-001  0.2675346E+03  0.7818608E-02  0.1102859E+00
         21   -1    0    0  501  502  0.00000000000E+00  0.00000000000E+00  0.50239344716E+02  0.50239344716E+02  0.00000000000E+00 0.  1.
         21   -1    0    0  502  503 -0.00000000000E+00 -0.00000000000E+00 -0.17589110267E+04  0.17589110267E+04  0.00000000000E+00 0.  1.
         -6    2    1    2    0  503  0.17594728490E+03 -0.10211189653E+03 -0.45514879480E+03  0.52739594785E+03  0.17205166065E+03 0.  0.
        -24    2    3    3    0    0  0.12975425916E+03 -0.10315656467E+03 -0.21658671674E+03  0.28435512403E+03  0.80439953321E+02 0.  0.
          6    2    1    2  501    0 -0.17594728490E+03  0.10211189653E+03 -0.12535228872E+04  0.12817544236E+04  0.17375409963E+03 0.  0.
         24    2    5    5    0    0 -0.55608989379E+02  0.40776203184E+02 -0.84686376649E+03  0.85322542443E+03  0.77848105037E+02 0.  0.
          5    1    5    5  501    0 -0.12033829552E+03  0.61335693343E+02 -0.40665912069E+03  0.42852899912E+03  0.47000000000E+01 0. -1.
        -11    1    6    6    0    0  0.16637514105E+02  0.16231807484E+02 -0.11045178919E+03  0.11287106000E+03  0.00000000000E+00 0.  1.
         12    1    6    6    0    0 -0.72246503484E+02  0.24544395700E+02 -0.73641197730E+03  0.74035436443E+03  0.00000000000E+00 0. -1.
         -5    1    3    3    0  503  0.46193025744E+02  0.10446681425E+01 -0.23856207805E+03  0.24304082382E+03  0.47000000000E+01 0.  1.
         13    1    4    4    0    0  0.36351672817E+02 -0.95002951103E+00 -0.13981476857E+02  0.38959316828E+02  0.00000000000E+00 0. -1.
        -14    1    4    4    0    0  0.93402586342E+02 -0.10220653516E+03 -0.20260523989E+03  0.24539580720E+03  0.00000000000E+00 0.  1.
</event>
<event>
12    1  0.9962621E-001  0.1844499E+03  0.7818608E-02  0.1163625E+00
         21   -1    0    0  503  502  0.00000000000E+00  0.00000000000E+00  0.55288395230E+03  0.55288395230E+03  0.00000000000E+00 0. -1.
         21   -1    0    0  501  503 -0.00000000000E+00 -0.00000000000E+00 -0.12785299820E+03  0.12785299820E+03  0.00000000000E+00 0. -1.
          6    2    1    2  501    0  0.48307974312E+02  0.41150872975E+02  0.45774023138E+03  0.49340923774E+03  0.17291472387E+03 0.  0.
         24    2    3    3    0    0 -0.28083894354E+02 -0.17130314504E+02  0.28070876211E+03  0.29192810829E+03  0.73092123275E+02 0.  0.
         -6    2    1    2    0  502 -0.48307974312E+02 -0.41150872975E+02 -0.32709277288E+02  0.18732771277E+03  0.17318983925E+03 0.  0.
        -24    2    5    5    0    0 -0.99915416624E+02 -0.29285005540E+02 -0.26564693633E+02  0.13381161406E+03  0.79744360816E+02 0.  0.
          5    1    3    3  501    0  0.76391868666E+02  0.58281187479E+02  0.17703146927E+03  0.20148112945E+03  0.47000000000E+01 0. -1.
        -13    1    4    4    0    0  0.16664643053E+02  0.14678237068E+02  0.12166014388E+03  0.12367033428E+03  0.00000000000E+00 0.  1.
         14    1    4    4    0    0 -0.44748537407E+02 -0.31808551572E+02  0.15904861823E+03  0.16825777401E+03  0.00000000000E+00 0. -1.
         -5    1    5    5    0  502  0.51607442312E+02 -0.11865867436E+02 -0.61445836548E+01  0.53516098702E+02  0.47000000000E+01 0.  1.
         13    1    6    6    0    0 -0.12753429193E+02 -0.21961761653E+02  0.22144169906E+02  0.33694705696E+02  0.00000000000E+00 0. -1.
        -14    1    6    6    0    0 -0.87161987431E+02 -0.73232438861E+01 -0.48708863539E+02  0.10011690837E+03  0.00000000000E+00 0.  1.
</event>
<event>
12    1  0.9962621E-001  0.2701643E+03  0.7818608E-02  0.1101710E+00
         21   -1    0    0  501  502  0.00000000000E+00  0.00000000000E+00  0.29890729745E+03  0.29890729745E+03  0.00000000000E+00 0.  1.
         21   -1    0    0  502  503 -0.00000000000E+00 -0.00000000000E+00 -0.28996235324E+03  0.28996235324E+03  0.00000000000E+00 0.  1.
         -6    2    1    2    0  503 -0.14743425635E+03 -0.14050001999E+03  0.12560532276E+03  0.29793533357E+03  0.17751521152E+03 0.  0.
        -24    2    3    3    0    0 -0.68790939567E+02 -0.14855041430E+03  0.50821870094E+02  0.18901226478E+03  0.79645180642E+02 0.  0.
          6    2    1    2  501    0  0.14743425635E+03  0.14050001999E+03 -0.11666037855E+03  0.29093431711E+03  0.17191863594E+03 0.  0.
         24    2    5    5    0    0  0.11392762120E+03  0.78919019454E+02 -0.14506214999E+03  0.21514734694E+03  0.77702245992E+02 0.  0.
          5    1    5    5  501    0  0.33506635151E+02  0.61581000541E+02  0.28401771437E+02  0.75786970169E+02  0.47000000000E+01 0. -1.
        -13    1    6    6    0    0  0.44055631892E+01  0.38358775231E+02 -0.57133672025E+02  0.68956951087E+02  0.00000000000E+00 0.  1.
         14    1    6    6    0    0  0.10952205801E+03  0.40560244223E+02 -0.87928477967E+02  0.14619039586E+03  0.00000000000E+00 0. -1.
         -5    1    3    3    0  503 -0.78643316787E+02  0.80503943106E+01  0.74783452665E+02  0.10892306880E+03  0.47000000000E+01 0.  1.
         11    1    4    4    0    0 -0.69788346308E+02 -0.67909084260E+02  0.80073378815E+01  0.97704526330E+02  0.00000000000E+00 0. -1.
        -12    1    4    4    0    0  0.99740674113E+00 -0.80641330045E+02  0.42814532213E+02  0.91307738447E+02  0.00000000000E+00 0.  1.
</event>
<event>
12    1  0.9962621E-001  0.4806335E+03  0.7818608E-02  0.1019052E+00
         21   -1    0    0  503  502  0.00000000000E+00  0.00000000000E+00  0.30273020699E+03  0.30273020699E+03  0.00000000000E+00 0. -1.
         21   -1    0    0  501  503 -0.00000000000E+00 -0.00000000000E+00 -0.80787301677E+03  0.80787301677E+03  0.00000000000E+00 0. -1.
          6    2    1    2  501    0 -0.31803499662E+03 -0.31660268592E+03 -0.11846308432E+03  0.49373230467E+03  0.16838814248E+03 0.  0.
         24    2    3    3    0    0 -0.74636463916E+02 -0.59362949566E+02 -0.42903509681E+02  0.13159080333E+03  0.79880328304E+02 0.  0.
         -6    2    1    2    0  502  0.31803499662E+03  0.31660268592E+03 -0.38667972547E+03  0.61687091909E+03  0.17211914749E+03 0.  0.
        -24    2    5    5    0    0  0.13518093600E+03  0.13394717474E+03 -0.25021412928E+03  0.32456355999E+03  0.80738236898E+02 0.  0.
          5    1    3    3  501    0 -0.24339853270E+03 -0.25723973635E+03 -0.75559574639E+02  0.36214150135E+03  0.47000000000E+01 0. -1.
        -11    1    4    4    0    0 -0.15834514616E+02 -0.17057338851E+02 -0.53535262506E+02  0.58375585593E+02  0.00000000000E+00 0.  1.
         12    1    4    4    0    0 -0.58801949300E+02 -0.42305610715E+02  0.10631752825E+02  0.73215217732E+02  0.00000000000E+00 0. -1.
         -5    1    5    5    0  502  0.18285406061E+03  0.18265551118E+03 -0.13646559618E+03  0.29230735910E+03  0.47000000000E+01 0.  1.
         11    1    6    6    0    0  0.13832961001E+03  0.11836098186E+03 -0.19358103661E+03  0.26574051397E+03  0.00000000000E+00 0. -1.
        -12    1    6    6    0    0 -0.31486740015E+01  0.15586192878E+02 -0.56633092673E+02  0.58823046011E+02  0.00000000000E+00 0.  1.
</event>
<event>
12    1  0.9962621E-001  0.2306293E+03  0.7818608E-02  0.1126687E+00
         21   -1    0    0  501  502  0.00000000000E+00  0.00000000000E+00  0.38492533847E+03  0.38492533847E+03  0.00000000000E+00 0. -1.
         21   -1    0    0  502  503 -0.00000000000E+00 -0.00000000000E+00 -0.16561908185E+03  0.16561908185E+03  0.00000000000E+00 0.  1.
         -6    2    1    2    0  503  0.17926142126E+01  0.15083919112E+03  0.22447896124E+03  0.31985708566E+03  0.17076907262E+03 0.  0.
        -24    2    3    3    0    0  0.19362005852E+01 -0.43920381744E+00  0.32062656397E+02  0.75048389407E+02  0.67825548614E+02 0.  0.
          6    2    1    2  501    0 -0.17926142126E+01 -0.15083919112E+03 -0.51727046236E+01  0.23068733465E+03  0.17445404682E+03 0.  0.
         24    2    5    5    0    0 -0.25705194425E+02 -0.78766288526E+01 -0.16086797728E+02  0.85252424361E+02  0.79286773775E+02 0.  0.
          5    1    5    5  501    0  0.23912580212E+02 -0.14296256227E+03  0.10914093105E+02  0.14543491029E+03  0.47000000000E+01 0. -1.
        -11    1    6    6    0    0 -0.32458294008E+02 -0.32977155722E+02 -0.30607516405E+02  0.55478407601E+02  0.00000000000E+00 0.  1.
         12    1    6    6    0    0  0.67530995831E+01  0.25100526870E+02  0.14520718677E+02  0.29774016760E+02  0.00000000000E+00 0. -1.
         -5    1    3    3    0  503 -0.14358637255E+00  0.15127839494E+03  0.19241630484E+03  0.24480869626E+03  0.47000000000E+01 0.  1.
         13    1    4    4    0    0  0.18023162797E+02  0.23724050358E+02  0.34892922268E+02  0.45882251328E+02  0.00000000000E+00 0. -1.
        -14    1    4    4    0    0 -0.16086962212E+02 -0.24163254175E+02 -0.28302658709E+01  0.29166138079E+02  0.00000000000E+00 0.  1.
</event>
<event>
12    1  0.9962621E-001  0.1741195E+03  0.7818608E-02  0.1174092E+00
         21   -1    0    0  501  502  0.00000000000E+00  0.00000000000E+00  0.51700072303E+03  0.51700072303E+03  0.00000000000E+00 0.  1.
         21   -1    0    0  502  503 -0.00000000000E+00 -0.00000000000E+00 -0.58433831397E+02  0.58433831397E+02  0.00000000000E+00 0.  1.
         -6    2    1    2    0  503 -0.19525609844E+02 -0.65373280918E+01  0.25237691809E+03  0.30556071126E+03  0.17102413100E+03 0.  0.
        -24    2    3    3    0    0 -0.75013835863E+02 -0.13172546397E+02  0.12760993663E+03  0.16876941398E+03  0.79988921858E+02 0.  0.
          6    2    1    2  501    0  0.19525609844E+02  0.65373280918E+01  0.20618997355E+03  0.26987384317E+03  0.17289765741E+03 0.  0.
         24    2    5    5    0    0  0.57840403146E+02  0.52331357673E+02  0.15516177640E+03  0.19119040504E+03  0.79965685721E+02 0.  0.
          5    1    5    5  501    0 -0.38314793302E+02 -0.45794029581E+02  0.51028197146E+02  0.78683438124E+02  0.47000000000E+01 0. -1.
        -11    1    6    6    0    0 -0.11774173724E+02  0.36850305288E+00  0.64733573043E+02  0.65796674995E+02  0.00000000000E+00 0.  1.
         12    1    6    6    0    0  0.69614576870E+02  0.51962854620E+02  0.90428203355E+02  0.12539373005E+03  0.00000000000E+00 0. -1.
         -5    1    3    3    0  503  0.55488226020E+02  0.66352183053E+01  0.12476698146E+03  0.13679129728E+03  0.47000000000E+01 0.  1.
         11    1    4    4    0    0 -0.52776450715E+02  0.24352674053E+01  0.13113104587E+03  0.14137409759E+03  0.00000000000E+00 0. -1.
        -12    1    4    4    0    0 -0.22237385149E+02 -0.15607813802E+02 -0.35211092444E+01  0.27395316393E+02  0.00000000000E+00 0.  1.
</event>
<event>
12    1  0.9962621E-001  0.2709007E+03  0.7818608E-02  0.1100847E+00
         21   -1    0    0  503  502  0.00000000000E+00  0.00000000000E+00  0.14596296054E+03  0.14596296054E+03  0.00000000000E+00 0.  1.
         21   -1    0    0  501  503 -0.00000000000E+00 -0.00000000000E+00 -0.94114236434E+03  0.94114236434E+03  0.00000000000E+00 0. -1.
          6    2    1    2  501    0 -0.46263276089E+02  0.20348239290E+03 -0.26400489627E+02  0.27218408475E+03  0.17274783704E+03 0.  0.
         24    2    3    3    0    0 -0.64123029542E+02  0.16040400465E+03  0.36561696523E+02  0.19369175893E+03  0.79614899358E+02 0.  0.
         -6    2    1    2    0  502  0.46263276089E+02 -0.20348239290E+03 -0.76877891418E+03  0.81492124013E+03  0.17184363178E+03 0.  0.
        -24    2    5    5    0    0  0.74497258451E+02 -0.13954347191E+03 -0.37366850022E+03  0.41364867366E+03  0.80342112837E+02 0.  0.
          5    1    3    3  501    0  0.17859753453E+02  0.43078388252E+02 -0.62962186150E+02  0.78492325820E+02  0.47000000000E+01 0. -1.
        -13    1    4    4    0    0 -0.15283093795E+02  0.63616602859E+02  0.52795110226E+02  0.84071212546E+02  0.00000000000E+00 0.  1.
         14    1    4    4    0    0 -0.48839935747E+02  0.96787401793E+02 -0.16233413702E+02  0.10962054639E+03  0.00000000000E+00 0. -1.
         -5    1    5    5    0  502 -0.28233982362E+02 -0.63938920996E+02 -0.39511041396E+03  0.40127256647E+03  0.47000000000E+01 0.  1.
         11    1    6    6    0    0  0.49767511041E+02 -0.35382004509E+02 -0.20475488402E+03  0.21366622084E+03  0.00000000000E+00 0. -1.
        -12    1    6    6    0    0  0.24729747410E+02 -0.10416146740E+03 -0.16891361620E+03  0.19998245282E+03  0.00000000000E+00 0.  1.
</event>
<event>
12    1  0.9962621E-001  0.2413613E+03  0.7818608E-02  0.1119844E+00
         21   -1    0    0  503  502  0.00000000000E+00  0.00000000000E+00  0.35611413470E+03  0.35611413470E+03  0.00000000000E+00 0.  1.
         21   -1    0    0  501  503 -0.00000000000E+00 -0.00000000000E+00 -0.17734239058E+03  0.17734239058E+03  0.00000000000E+00 0. -1.
          6    2    1    2  501    0 -0.13118863980E+03 -0.92639426990E+02  0.17436605377E+03  0.29775628902E+03  0.18017426092E+03 0.  0.
         24    2    3    3    0    0 -0.11538184325E+02 -0.69206863462E+02  0.34324836399E+02  0.11201736178E+03  0.80293058848E+02 0.  0.
         -6    2    1    2    0  502  0.13118863980E+03  0.92639426990E+02  0.44056903437E+01  0.23570023626E+03  0.17246062919E+03 0.  0.
        -24    2    5    5    0    0  0.15220944318E+03  0.57134117992E+02  0.33233834045E+02  0.18514676941E+03  0.82114654387E+02 0.  0.
          5    1    3    3  501    0 -0.11965045547E+03 -0.23432563528E+02  0.14004121737E+03  0.18573892724E+03  0.47000000000E+01 0. -1.
        -13    1    4    4    0    0 -0.28457419485E+02 -0.81099386423E+02  0.27834477840E+02  0.90342090736E+02  0.00000000000E+00 0.  1.
         14    1    4    4    0    0  0.16919235160E+02  0.11892522960E+02  0.64903585588E+01  0.21675271047E+02  0.00000000000E+00 0. -1.
         -5    1    5    5    0  502 -0.21020803378E+02  0.35505308998E+02 -0.28828143702E+02  0.50553466854E+02  0.47000000000E+01 0.  1.
         11    1    6    6    0    0  0.26198942370E+02  0.43859940898E+02  0.28163830913E+02  0.58337641095E+02  0.00000000000E+00 0. -1.
        -12    1    6    6    0    0  0.12601050081E+03  0.13274177095E+02  0.50700031322E+01  0.12680912831E+03  0.00000000000E+00 0.  1.
</event>
<event>
12    1  0.9962621E-001  0.2476407E+03  0.7818608E-02  0.1114937E+00
         21   -1    0    0  501  502  0.00000000000E+00  0.00000000000E+00  0.18392759161E+03  0.18392759161E+03  0.00000000000E+00 0.  1.
         21   -1    0    0  502  503 -0.00000000000E+00 -0.00000000000E+00 -0.34292875534E+03  0.34292875534E+03  0.00000000000E+00 0.  1.
         -6    2    1    2    0  503  0.11838913822E+03  0.13260108383E+03 -0.33280586626E+02  0.24986699250E+03  0.17241485149E+03 0.  0.
        -24    2    3    3    0    0  0.13557531766E+03  0.75631969937E+02 -0.59557201367E+02  0.18464893378E+03  0.80295123608E+02 0.  0.
          6    2    1    2  501    0 -0.11838913822E+03 -0.13260108383E+03 -0.12572057711E+03  0.27698935445E+03  0.17122617641E+03 0.  0.
         24    2    5    5    0    0 -0.12412230455E+03 -0.12727639845E+03 -0.15426102341E+03  0.24702489974E+03  0.74961387809E+02 0.  0.
          5    1    5    5  501    0  0.57331663310E+01 -0.53246853863E+01  0.28540446301E+02  0.29964454704E+02  0.47000000000E+01 0. -1.
        -11    1    6    6    0    0 -0.14254291246E+02  0.94683073848E+01 -0.18587096336E+02  0.25264873121E+02  0.00000000000E+00 0.  1.
         12    1    6    6    0    0 -0.10986801331E+03 -0.13674470583E+03 -0.13567392707E+03  0.22176002662E+03  0.00000000000E+00 0. -1.
         -5    1    3    3    0  503 -0.17186179439E+02  0.56969113895E+02  0.26276614742E+02  0.65218058726E+02  0.47000000000E+01 0.  1.
         13    1    4    4    0    0  0.69975369767E+02  0.69940105146E+02 -0.65316195631E+02  0.11855115391E+03  0.00000000000E+00 0. -1.
        -14    1    4    4    0    0  0.65599947892E+02  0.56918647903E+01  0.57589942636E+01  0.66097779866E+02  0.00000000000E+00 0.  1.
</event>
<event>
12    1  0.9962621E-001  0.6454900E+03  0.7818608E-02  0.9815706E-01
         21   -1    0    0  501  502  0.00000000000E+00  0.00000000000E+00  0.82096405362E+03  0.82096405362E+03  0.00000000000E+00 0. -1.
         21   -1    0    0  502  503 -0.00000000000E+00 -0.00000000000E+00 -0.53921109663E+03  0.53921109663E+03  0.00000000000E+00 0. -1.
         -6    2    1    2    0  503 -0.62222507283E+03 -0.10714177017E+02 -0.25735055241E+02  0.64600282806E+03  0.17140165095E+03 0.  0.
        -24    2    3    3    0    0 -0.13623198119E+03 -0.30639292734E+01  0.89244651105E+01  0.15869267656E+03  0.80840454928E+02 0.  0.
          6    2    1    2  501    0  0.62222507283E+03  0.10714177017E+02  0.30748801223E+03  0.71417232218E+03  0.16797140605E+03 0.  0.
         24    2    5    5    0    0  0.51423101981E+03  0.12726317881E+01  0.18844540209E+03  0.55309752187E+03  0.77266019723E+02 0.  0.
          5    1    5    5  501    0  0.10799405302E+03  0.94415452293E+01  0.11904261014E+03  0.16107480031E+03  0.47000000000E+01 0. -1.
        -11    1    6    6    0    0  0.25740114517E+03  0.38673539824E+02  0.10155221418E+03  0.27939907734E+03  0.00000000000E+00 0.  1.
         12    1    6    6    0    0  0.25682987465E+03 -0.37400908035E+02  0.86893187906E+02  0.27369844453E+03  0.00000000000E+00 0. -1.
         -5    1    3    3    0  503 -0.48599309164E+03 -0.76502477441E+01 -0.34659520351E+02  0.48731015151E+03  0.47000000000E+01 0.  1.
         13    1    4    4    0    0 -0.65946156088E+02  0.13398034164E+02 -0.33279580040E+02  0.75072853082E+02  0.00000000000E+00 0. -1.
        -14    1    4    4    0    0 -0.70285825103E+02 -0.16461963438E+02  0.42204045150E+02  0.83619823473E+02  0.00000000000E+00 0.  1.
</event>
<event>
12    1  0.9962621E-001  0.1926651E+03  0.7818608E-02  0.1156129E+00
         21   -1    0    0  503  502  0.00000000000E+00  0.00000000000E+00  0.45259803676E+02  0.45259803676E+02  0.00000000000E+00 0. -1.
         21   -1    0    0  501  503 -0.00000000000E+00 -0.00000000000E+00 -0.95913592057E+03  0.95913592057E+03  0.00000000000E+00 0. -1.
          6    2    1    2  501    0 -0.86590881652E+02 -0.13262321080E+02 -0.64898154580E+03  0.67697626878E+03  0.17159822771E+03 0.  0.
         24    2    3    3    0    0 -0.63416389755E+02 -0.50355548196E+02 -0.25257675640E+03  0.27813819182E+03  0.83716880920E+02 0.  0.
         -6    2    1    2    0  502  0.86590881652E+02  0.13262321080E+02 -0.26489457109E+03  0.32741945547E+03  0.17134904750E+03 0.  0.
        -24    2    5    5    0    0  0.42669134308E+02 -0.38234005868E+01 -0.26150461867E+03  0.27993657906E+03  0.90247156710E+02 0.  0.
          5    1    3    3  501    0 -0.23174491897E+02  0.37093227116E+02 -0.39640478940E+03  0.39883807695E+03  0.47000000000E+01 0. -1.
        -11    1    4    4    0    0 -0.19390736646E+02  0.79975037503E+01 -0.73136584703E+01  0.22213742011E+02  0.00000000000E+00 0.  1.
         12    1    4    4    0    0 -0.44025653109E+02 -0.58353051946E+02 -0.24526309793E+03  0.25592444981E+03  0.00000000000E+00 0. -1.
         -5    1    5    5    0  502  0.43921747345E+02  0.17085721666E+02 -0.33899524211E+01  0.47482876409E+02  0.47000000000E+01 0.  1.
         11    1    6    6    0    0 -0.25829475705E+02 -0.63841213742E+01 -0.11715754466E+03  0.12014078862E+03  0.00000000000E+00 0. -1.
        -12    1    6    6    0    0  0.68498610012E+02  0.25607207874E+01 -0.14434707401E+03  0.15979579043E+03  0.00000000000E+00 0.  1.
</event>
<event>
12    1  0.9962621E-001  0.2122775E+03  0.7818608E-02  0.1140049E+00
         21   -1    0    0  503  502  0.00000000000E+00  0.00000000000E+00  0.19609231247E+03  0.19609231247E+03  0.00000000000E+00 0. -1.
         21   -1    0    0  501  503 -0.00000000000E+00 -0.00000000000E+00 -0.30290486965E+03  0.30290486965E+03  0.00000000000E+00 0. -1.
          6    2    1    2  501    0 -0.69505694369E+02  0.10355096116E+03  0.70560898624E+02  0.22236914982E+03  0.17004515657E+03 0.  0.
         24    2    3    3    0    0 -0.78405495948E+02  0.52424648422E+01  0.28763550454E+02  0.11507108260E+03  0.78988017976E+02 0.  0.
         -6    2    1    2    0  502  0.69505694369E+02 -0.10355096116E+03 -0.17737345581E+03  0.27662803229E+03  0.17177858516E+03 0.  0.
        -24    2    5    5    0    0  0.50557680389E+01 -0.11465441858E+03 -0.85193326469E+02  0.16350709694E+03  0.79406998337E+02 0.  0.
          5    1    3    3  501    0  0.88998015789E+01  0.98308496313E+02  0.41797348170E+02  0.10729806722E+03  0.47000000000E+01 0. -1.
        -11    1    4    4    0    0 -0.62994111891E+02  0.31481751905E+02 -0.37705644036E+01  0.70523584650E+02  0.00000000000E+00 0.  1.
         12    1    4    4    0    0 -0.15411384058E+02 -0.26239287063E+02  0.32534114858E+02  0.44547497951E+02  0.00000000000E+00 0. -1.
         -5    1    5    5    0  502  0.64449926331E+02  0.11103457420E+02 -0.92180129338E+02  0.11312093535E+03  0.47000000000E+01 0.  1.
         13    1    6    6    0    0  0.25059282649E+01 -0.42365490023E+02  0.10337923445E+02  0.43680511473E+02  0.00000000000E+00 0. -1.
        -14    1    6    6    0    0  0.25498397741E+01 -0.72288928553E+02 -0.95531249914E+02  0.11982658547E+03  0.00000000000E+00 0.  1.
</event>
<event>
12    1  0.9962621E-001  0.2348615E+03  0.7818608E-02  0.1123443E+00
         21   -1    0    0  501  502  0.00000000000E+00  0.00000000000E+00  0.90856685145E+02  0.90856685145E+02  0.00000000000E+00 0. -1.
         21   -1    0    0  502  503 -0.00000000000E+00 -0.00000000000E+00 -0.60567699274E+03  0.60567699274E+03  0.00000000000E+00 0. -1.
         -6    2    1    2    0  503 -0.11108738106E+03 -0.11110622068E+03 -0.27272771422E+03  0.35923742982E+03  0.17316502642E+03 0.  0.
        -24    2    3    3    0    0 -0.64755273558E+02  0.61790178043E+01 -0.15763807697E+03  0.18844455539E+03  0.80188287383E+02 0.  0.
          6    2    1    2  501    0  0.11108738106E+03  0.11110622068E+03 -0.24209259338E+03  0.33729624807E+03  0.17457072117E+03 0.  0.
         24    2    5    5    0    0  0.65024913063E+01  0.60624687798E+02 -0.48810344086E+02  0.11176021499E+03  0.79939106834E+02 0.  0.
          5    1    5    5  501    0  0.10458488975E+03  0.50481532878E+02 -0.19328224929E+03  0.22553603308E+03  0.47000000000E+01 0. -1.
        -13    1    6    6    0    0  0.22365706484E+02  0.51549640280E+01  0.13672071908E+02  0.26715613991E+02  0.00000000000E+00 0.  1.
         14    1    6    6    0    0 -0.15863215178E+02  0.55469723770E+02 -0.62482415994E+02  0.85044601000E+02  0.00000000000E+00 0. -1.
         -5    1    3    3    0  503 -0.46332107500E+02 -0.11728523848E+03 -0.11508963726E+03  0.17079287443E+03  0.47000000000E+01 0.  1.
         11    1    4    4    0    0 -0.80762902426E+02  0.30525794460E+01 -0.10018166331E+03  0.12871802637E+03  0.00000000000E+00 0. -1.
        -12    1    4    4    0    0  0.16007628867E+02  0.31264383583E+01 -0.57456413659E+02  0.59726529024E+02  0.00000000000E+00 0.  1.
</event>
<event>
12    1  0.9962621E-001  0.1942790E+03  0.7818608E-02  0.1155349E+00
         21   -1    0    0  503  502  0.00000000000E+00  0.00000000000E+00  0.53698369786E+03  0.53698369786E+03  0.00000000000E+00 0. -1.
         21   -1    0    0  501  503 -0.00000000000E+00 -0.00000000000E+00 -0.69219810561E+02  0.69219810561E+02  0.00000000000E+00 0. -1.
          6    2    1    2  501    0  0.86848607870E+02 -0.27605715144E+02  0.24073714617E+03  0.30739673951E+03  0.16802864552E+03 0.  0.
         24    2    3    3    0    0  0.12235465262E+03 -0.20103975865E+02  0.15509957260E+03  0.21426865935E+03  0.80500621713E+02 0.  0.
         -6    2    1    2    0  502 -0.86848607870E+02  0.27605715144E+02  0.22702674113E+03  0.29880676891E+03  0.17157968343E+03 0.  0.
        -24    2    5    5    0    0 -0.15761780279E+02  0.70279245542E+02  0.10603298680E+03  0.15205546282E+03  0.81794030423E+02 0.  0.
          5    1    3    3  501    0 -0.35506044751E+02 -0.75017392786E+01  0.85637573578E+02  0.93128080160E+02  0.47000000000E+01 0. -1.
        -11    1    4    4    0    0 -0.48579998695E+01  0.20290817323E+01 -0.58859734126E+01  0.78969626073E+01  0.00000000000E+00 0.  1.
         12    1    4    4    0    0  0.12721265249E+03 -0.22133057598E+02  0.16098554601E+03  0.20637169674E+03  0.00000000000E+00 0. -1.
         -5    1    5    5    0  502 -0.71086827591E+02 -0.42673530398E+02  0.12099375433E+03  0.14675130609E+03  0.47000000000E+01 0.  1.
         13    1    6    6    0    0 -0.35216148977E+02  0.52336317229E+02  0.10846886119E+03  0.12547812996E+03  0.00000000000E+00 0. -1.
        -14    1    6    6    0    0  0.19454368698E+02  0.17942928313E+02 -0.24358743944E+01  0.26577332860E+02  0.00000000000E+00 0.  1.
</event>
<event>
12    1  0.9962621E-001  0.3392715E+03  0.7818608E-02  0.1067127E+00
         21   -1    0    0  503  502  0.00000000000E+00  0.00000000000E+00  0.21233555658E+03  0.21233555658E+03  0.00000000000E+00 0. -1.
         21   -1    0    0  501  503 -0.00000000000E+00 -0.00000000000E+00 -0.10258274569E+04  0.10258274569E+04  0.00000000000E+00 0. -1.
          6    2    1    2  501    0  0.11728972621E+03  0.26768515251E+03  0.18568295313E+02  0.33959230258E+03  0.17194746184E+03 0.  0.
         24    2    3    3    0    0 -0.72738730988E+01  0.11461310612E+03  0.25210295695E+02  0.14207433422E+03  0.79752643270E+02 0.  0.
         -6    2    1    2    0  502 -0.11728972621E+03 -0.26768515251E+03 -0.83206019563E+03  0.89857071089E+03  0.17231637345E+03 0.  0.
        -24    2    5    5    0    0 -0.15257412960E+03 -0.22289513388E+03 -0.71866802074E+03  0.77156279689E+03  0.76578846824E+02 0.  0.
          5    1    3    3  501    0  0.12456359931E+03  0.15307204639E+03 -0.66420003812E+01  0.19751796837E+03  0.47000000000E+01 0. -1.
        -11    1    4    4    0    0 -0.34398260854E+02  0.10514536917E+03  0.15290710564E+02  0.11168077201E+03  0.00000000000E+00 0.  1.
         12    1    4    4    0    0  0.27124387755E+02  0.94677369510E+01  0.99195851311E+01  0.30393562201E+02  0.00000000000E+00 0. -1.
         -5    1    5    5    0  502  0.35284403384E+02 -0.44790018632E+02 -0.11339217489E+03  0.12700791400E+03  0.47000000000E+01 0.  1.
         11    1    6    6    0    0  0.10955505419E+01 -0.11557561096E+02 -0.90113111341E+02  0.90857857585E+02  0.00000000000E+00 0. -1.
        -12    1    6    6    0    0 -0.15366968014E+03 -0.21133757279E+03 -0.62855490940E+03  0.68070493931E+03  0.00000000000E+00 0.  1.
</event>
<event>
12    1  0.9962621E-001  0.2159647E+03  0.7818608E-02  0.1136946E+00
         21   -1    0    0  501  502  0.00000000000E+00  0.00000000000E+00  0.13192777304E+03  0.13192777304E+03  0.00000000000E+00 0.  1.
         21   -1    0    0  502  503 -0.00000000000E+00 -0.00000000000E+00 -0.36312861131E+03  0.36312861131E+03  0.00000000000E+00 0.  1.
         -6    2    1    2    0  503  0.12867866736E+03 -0.21549771997E+02 -0.75062755876E+02  0.22863765789E+03  0.17209930034E+03 0.  0.
        -24    2    3    3    0    0  0.67916950900E+02 -0.64977509128E+02 -0.23596896395E+01  0.12430271466E+03  0.81306874392E+02 0.  0.
          6    2    1    2  501    0 -0.12867866736E+03  0.21549771997E+02 -0.15613808239E+03  0.26641872645E+03  0.17198036203E+03 0.  0.
         24    2    5    5    0    0 -0.12880573208E+03 -0.16847034842E+02 -0.62766095816E+02  0.16535068601E+03  0.80786925814E+02 0.  0.
          5    1    5    5  501    0  0.12706471330E+00  0.38396806839E+02 -0.93371986578E+02  0.10106804044E+03  0.47000000000E+01 0. -1.
        -11    1    6    6    0    0 -0.47734481138E+02 -0.14429019710E+02 -0.67711271446E+02  0.84092767704E+02  0.00000000000E+00 0.  1.
         12    1    6    6    0    0 -0.81071250940E+02 -0.24180151317E+01  0.49451756299E+01  0.81257918311E+02  0.00000000000E+00 0. -1.
         -5    1    3    3    0  503  0.60761716465E+02  0.43427737131E+02 -0.72703066237E+02  0.10433494324E+03  0.47000000000E+01 0.  1.
         11    1    4    4    0    0  0.76293494736E+02 -0.23235215545E+02 -0.11998671190E+02  0.80650732735E+02  0.00000000000E+00 0. -1.
        -12    1    4    4    0    0 -0.83765438358E+01 -0.41742293583E+02  0.96389815504E+01  0.43651981920E+02  0.00000000000E+00 0.  1.
</event>
<event>
12    1  0.9962621E-001  0.2050209E+03  0.7818608E-02  0.1145574E+00
         21   -1    0    0  503  502  0.00000000000E+00  0.00000000000E+00  0.93067053792E+03  0.93067053792E+03  0.00000000000E+00 0.  1.
         21   -1    0    0  501  503 -0.00000000000E+00 -0.00000000000E+00 -0.70697200557E+02  0.70697200557E+02  0.00000000000E+00 0.  1.
          6    2    1    2  501    0  0.11052242529E+03 -0.62007872506E+01  0.73090691682E+03  0.75911691322E+03  0.17256856788E+03 0.  0.
         24    2    3    3    0    0  0.27742523529E+02 -0.41286451312E+02  0.53871559604E+03  0.54688329255E+03  0.79953884069E+02 0.  0.
         -6    2    1    2    0  502 -0.11052242529E+03  0.62007872506E+01  0.12906642054E+03  0.24225082526E+03  0.17255047137E+03 0.  0.
        -24    2    5    5    0    0 -0.12134641062E+02  0.31124194740E+02  0.10998841968E+03  0.13887097981E+03  0.77921316455E+02 0.  0.
          5    1    3    3  501    0  0.82779901766E+02  0.35085664062E+02  0.19219132078E+03  0.21223362067E+03  0.47000000000E+01 0. -1.
        -11    1    4    4    0    0  0.53358505032E+02 -0.30749463663E+02  0.28019402357E+03  0.28688211938E+03  0.00000000000E+00 0.  1.
         12    1    4    4    0    0 -0.25615981503E+02 -0.10536987649E+02  0.25852157247E+03  0.26000117317E+03  0.00000000000E+00 0. -1.
         -5    1    5    5    0  502 -0.98387784233E+02 -0.24923407489E+02  0.19078000856E+02  0.10337984544E+03  0.47000000000E+01 0.  1.
         13    1    6    6    0    0 -0.93035306692E+01 -0.38884722858E+00  0.10664961308E+03  0.10705534483E+03  0.00000000000E+00 0. -1.
        -14    1    6    6    0    0 -0.28311103925E+01  0.31513041968E+02  0.33388066004E+01  0.31815634988E+02  0.00000000000E+00 0.  1.
</event>
<event>
12    1  0.9962621E-001  0.2406122E+03  0.7818608E-02  0.1119697E+00
         21   -1    0    0  501  502  0.00000000000E+00  0.00000000000E+00  0.20222593057E+03  0.20222593057E+03  0.00000000000E+00 0.  1.
         21   -1    0    0  502  503 -0.00000000000E+00 -0.00000000000E+00 -0.31060804553E+03  0.31060804553E+03  0.00000000000E+00 0.  1.
         -6    2    1    2    0  503  0.44068209921E+02  0.16259267118E+03  0.20566259767E+02  0.24148956237E+03  0.17180178649E+03 0.  0.
        -24    2    3    3    0    0 -0.22138380940E+02  0.74631723863E+02  0.57242123530E+02  0.12535322047E+03  0.79854662090E+02 0.  0.
          6    2    1    2  501    0 -0.44068209921E+02 -0.16259267118E+03 -0.12894837472E+03  0.27134441374E+03  0.16917956045E+03 0.  0.
         24    2    5    5    0    0 -0.22745822797E+02 -0.12113633144E+02 -0.60609608784E+02  0.10463849899E+03  0.81311611910E+02 0.  0.
          5    1    5    5  501    0 -0.21322387124E+02 -0.15047903804E+03 -0.68338765941E+02  0.16670591475E+03  0.47000000000E+01 0. -1.
        -13    1    6    6    0    0 -0.10059943351E+02  0.31311004369E+02 -0.55093868933E+01  0.33345686359E+02  0.00000000000E+00 0.  1.
         14    1    6    6    0    0 -0.12685879446E+02 -0.43424637514E+02 -0.55100221890E+02  0.71292812631E+02  0.00000000000E+00 0. -1.
         -5    1    3    3    0  503  0.66206590861E+02  0.87960947321E+02 -0.36675863763E+02  0.11613634190E+03  0.47000000000E+01 0.  1.
         11    1    4    4    0    0  0.68669211798E+01  0.49764220974E+02  0.69026132784E+02  0.85371185436E+02  0.00000000000E+00 0. -1.
        -12    1    4    4    0    0 -0.29005302120E+02  0.24867502889E+02 -0.11784009254E+02  0.39982035029E+02  0.00000000000E+00 0.  1.
</event>
<event>
12    1  0.9962621E-001  0.2239842E+03  0.7818608E-02  0.1131730E+00
         21   -1    0    0  503  502  0.00000000000E+00  0.00000000000E+00  0.16367092011E+03  0.16367092011E+03  0.00000000000E+00 0.  1.
         21   -1    0    0  501  503 -0.00000000000E+00 -0.00000000000E+00 -0.30073536101E+03  0.30073536101E+03  0.00000000000E+00 0.  1.
          6    2    1    2  501    0 -0.10767080423E+03  0.85616766674E+02 -0.66955524897E+02  0.22970605059E+03  0.17134349869E+03 0.  0.
         24    2    3    3    0    0 -0.53758564479E+02 -0.19543855286E+02 -0.11357063552E+02  0.99021067101E+02  0.80026516249E+02 0.  0.
         -6    2    1    2    0  502  0.10767080423E+03 -0.85616766674E+02 -0.70108916004E+02  0.23470023052E+03  0.17676454759E+03 0.  0.
        -24    2    5    5    0    0  0.59775633711E+02 -0.31977727314E+02 -0.11031045926E+03  0.15218145700E+03  0.79969350391E+02 0.  0.
          5    1    3    3  501    0 -0.53912239754E+02  0.10516062196E+03 -0.55598461345E+02  0.13068498349E+03  0.47000000000E+01 0. -1.
        -13    1    4    4    0    0 -0.34292520743E+02  0.16476471472E+02 -0.35038649972E+02  0.51721930387E+02  0.00000000000E+00 0.  1.
         14    1    4    4    0    0 -0.19466043736E+02 -0.36020326758E+02  0.23681586420E+02  0.47299136714E+02  0.00000000000E+00 0. -1.
         -5    1    5    5    0  502  0.47895170523E+02 -0.53639039361E+02  0.40201543261E+02  0.82518773521E+02  0.47000000000E+01 0.  1.
         13    1    6    6    0    0  0.46942724658E+02 -0.46539195180E+02 -0.35778951303E+02  0.75164149983E+02  0.00000000000E+00 0. -1.
        -14    1    6    6    0    0  0.12832909052E+02  0.14561467866E+02 -0.74531507962E+02  0.77017307018E+02  0.00000000000E+00 0.  1.
</event>
<event>
12    1  0.9962621E-001  0.1818889E+03  0.7818608E-02  0.1166123E+00
         21   -1    0    0  503  502  0.00000000000E+00  0.00000000000E+00  0.10614747338E+04  0.10614747338E+04  0.00000000000E+00 0.  1.
         21   -1    0    0  501  503 -0.00000000000E+00 -0.00000000000E+00 -0.31074811043E+02  0.31074811043E+02  0.00000000000E+00 0.  1.
          6    2    1    2  501    0  0.13158116567E+02  0.54995605025E+02  0.52238666631E+03  0.55314683047E+03  0.17287548792E+03 0.  0.
         24    2    3    3    0    0 -0.59432874640E+02  0.33513948353E+02  0.29622968655E+03  0.31460965712E+03  0.81066379211E+02 0.  0.
         -6    2    1    2    0  502 -0.13158116567E+02 -0.54995605025E+02  0.50801325640E+03  0.53940271432E+03  0.17227932823E+03 0.  0.
        -24    2    5    5    0    0 -0.19799135337E+02 -0.85228716313E+01  0.47351810301E+03  0.48095766588E+03  0.81463104506E+02 0.  0.
          5    1    3    3  501    0  0.72590991207E+02  0.21481656671E+02  0.22615697976E+03  0.23853717336E+03  0.47000000000E+01 0. -1.
        -13    1    4    4    0    0 -0.53011151003E+02 -0.16315726907E+02  0.14457853286E+03  0.15485263072E+03  0.00000000000E+00 0.  1.
         14    1    4    4    0    0 -0.64217236373E+01  0.49829675261E+02  0.15165115368E+03  0.15975702640E+03  0.00000000000E+00 0. -1.
         -5    1    5    5    0  502  0.66410187703E+01 -0.46472733393E+02  0.34495153397E+02  0.58445048441E+02  0.47000000000E+01 0.  1.
         13    1    6    6    0    0 -0.24531504214E+02 -0.66854988373E+01  0.39918830250E+02  0.47328676320E+02  0.00000000000E+00 0. -1.
        -14    1    6    6    0    0  0.47323688771E+01 -0.18373727941E+01  0.43359927276E+03  0.43362898956E+03  0.00000000000E+00 0.  1.
</event>
<event>
12    1  0.9962621E-001  0.2446332E+03  0.7818608E-02  0.1118092E+00
         21   -1    0    0  503  502  0.00000000000E+00  0.00000000000E+00  0.25464885014E+03  0.25464885014E+03  0.00000000000E+00 0.  1.
         21   -1    0    0  501  503 -0.00000000000E+00 -0.00000000000E+00 -0.23142143601E+03  0.23142143601E+03  0.00000000000E+00 0.  1.
          6    2    1    2  501    0  0.10265332190E+03  0.12714132316E+03 -0.20806370532E+02  0.24551641906E+03  0.18205160374E+03 0.  0.
         24    2    3    3    0    0 -0.21011592012E+02  0.71508100740E+02 -0.52519063924E+01  0.10894373613E+03  0.79285936017E+02 0.  0.
         -6    2    1    2    0  502 -0.10265332190E+03 -0.12714132316E+03  0.44033784665E+02  0.24055386709E+03  0.17095194712E+03 0.  0.
        -24    2    5    5    0    0 -0.86344252903E+02 -0.11557172163E+03  0.91731425461E+02  0.18862125355E+03  0.79694228292E+02 0.  0.
          5    1    3    3  501    0  0.12366491391E+03  0.55633222421E+02 -0.15554464139E+02  0.13657268294E+03  0.47000000000E+01 0. -1.
        -11    1    4    4    0    0 -0.12449521915E+02  0.42223643915E+02 -0.42231261949E+02  0.61002509679E+02  0.00000000000E+00 0.  1.
         12    1    4    4    0    0 -0.85620700969E+01  0.29284456825E+02  0.36979355556E+02  0.47941226447E+02  0.00000000000E+00 0. -1.
         -5    1    5    5    0  502 -0.16309068998E+02 -0.11569601527E+02 -0.47697640796E+02  0.51932613535E+02  0.47000000000E+01 0.  1.
         13    1    6    6    0    0 -0.86473128129E+02 -0.79814799865E+02  0.37210071196E+02  0.12342039363E+03  0.00000000000E+00 0. -1.
        -14    1    6    6    0    0  0.12887522599E+00 -0.35756921769E+02  0.54521354265E+02  0.65200859919E+02  0.00000000000E+00 0.  1.
</event>
<event>
12    1  0.9962621E-001  0.2097708E+03  0.7818608E-02  0.1141982E+00
         21   -1    0    0  503  502  0.00000000000E+00  0.00000000000E+00  0.86524146060E+02  0.86524146060E+02  0.00000000000E+00 0. -1.
         21   -1    0    0  501  503 -0.00000000000E+00 -0.00000000000E+00 -0.57372725771E+03  0.57372725771E+03  0.00000000000E+00 0. -1.
          6    2    1    2  501    0  0.69144098360E+02  0.97082350302E+02 -0.13054495745E+03  0.24707438869E+03  0.17262062030E+03 0.  0.
         24    2    3    3    0    0 -0.16637386663E+02  0.91108973517E+02 -0.88129942522E+02  0.15107820181E+03  0.80498997534E+02 0.  0.
         -6    2    1    2    0  502 -0.69144098360E+02 -0.97082350302E+02 -0.35665815420E+03  0.41317701509E+03  0.17118503952E+03 0.  0.
        -24    2    5    5    0    0  0.12661198025E+02 -0.77498055386E+01 -0.92579709901E+02  0.12260529448E+03  0.78998038759E+02 0.  0.
          5    1    3    3  501    0  0.85781485023E+02  0.59733767846E+01 -0.42415014928E+02  0.95996186874E+02  0.47000000000E+01 0. -1.
        -11    1    4    4    0    0 -0.30306249516E+02  0.54039342175E+02 -0.89661910856E+01  0.62602810201E+02  0.00000000000E+00 0.  1.
         12    1    4    4    0    0  0.13668862853E+02  0.37069631343E+02 -0.79163751437E+02  0.88475391613E+02  0.00000000000E+00 0. -1.
         -5    1    5    5    0  502 -0.81805296385E+02 -0.89332544763E+02 -0.26407844430E+03  0.29057172061E+03  0.47000000000E+01 0.  1.
         11    1    6    6    0    0 -0.29069761046E+02  0.15135787652E+02 -0.36706409994E+02  0.49208775740E+02  0.00000000000E+00 0. -1.
        -12    1    6    6    0    0  0.41730959071E+02 -0.22885593191E+02 -0.55873299906E+02  0.73396518740E+02  0.00000000000E+00 0.  1.
</event>
<event>
12    1  0.9962621E-001  0.1996726E+03  0.7818608E-02  0.1151205E+00
         21   -1    0    0  501  502  0.00000000000E+00  0.00000000000E+00  0.84493466916E+02  0.84493466916E+02  0.00000000000E+00 0. -1.
         21   -1    0    0  502  503 -0.00000000000E+00 -0.00000000000E+00 -0.54394555057E+03  0.54394555057E+03  0.00000000000E+00 0. -1.
         -6    2    1    2    0  503 -0.49050856726E+02 -0.79629310192E+02 -0.35672457327E+03  0.40880505509E+03  0.17641524397E+03 0.  0.
        -24    2    3    3    0    0 -0.76664480731E+02 -0.39374363601E+01 -0.14592168979E+03  0.18308018344E+03  0.79575549064E+02 0.  0.
          6    2    1    2  501    0  0.49050856726E+02  0.79629310192E+02 -0.10272751038E+03  0.21963396240E+03  0.17011561498E+03 0.  0.
         24    2    5    5    0    0 -0.14484540025E+02 -0.98859861619E+01 -0.64111799292E+02  0.10317367704E+03  0.78911027138E+02 0.  0.
          5    1    5    5  501    0  0.63535396750E+02  0.89515296353E+02 -0.38615711092E+02  0.11646028535E+03  0.47000000000E+01 0. -1.
        -11    1    6    6    0    0  0.25622547950E+01  0.31579887624E+02 -0.10704464625E+02  0.33443086204E+02  0.00000000000E+00 0.  1.
         12    1    6    6    0    0 -0.17046794820E+02 -0.41465873786E+02 -0.53407334667E+02  0.69730590838E+02  0.00000000000E+00 0. -1.
         -5    1    3    3    0  503  0.27613624005E+02 -0.75691873832E+02 -0.21080288349E+03  0.22572487165E+03  0.47000000000E+01 0.  1.
         13    1    4    4    0    0 -0.16818935674E+02 -0.10401345089E+02 -0.11251129973E+03  0.11423597132E+03  0.00000000000E+00 0. -1.
        -14    1    4    4    0    0 -0.59845545057E+02  0.64639087294E+01 -0.33410390059E+02  0.68844212125E+02  0.00000000000E+00 0.  1.
</event>
<event>
12    1  0.9962621E-001  0.4132567E+03  0.7818608E-02  0.1039308E+00
         21   -1    0    0  501  502  0.00000000000E+00  0.00000000000E+00  0.10986791062E+03  0.10986791062E+03  0.00000000000E+00 0.  1.
         21   -1    0    0  502  503 -0.00000000000E+00 -0.00000000000E+00 -0.15550946314E+04  0.15550946314E+04  0.00000000000E+00 0.  1.
         -6    2    1    2    0  503  0.79543057629E+02 -0.36674531175E+03 -0.69459753663E+03  0.80823686869E+03  0.17306610389E+03 0.  0.
        -24    2    3    3    0    0 -0.11935366351E+02 -0.19241191992E+03 -0.26473098648E+03  0.33540732806E+03  0.72462270282E+02 0.  0.
          6    2    1    2  501    0 -0.79543057629E+02  0.36674531175E+03 -0.75062918418E+03  0.85672567335E+03  0.17235279379E+03 0.  0.
         24    2    5    5    0    0 -0.14832376999E+01  0.16969362589E+03 -0.24202005849E+03  0.30570114111E+03  0.77983025760E+02 0.  0.
          5    1    5    5  501    0 -0.78059819929E+02  0.19705168586E+03 -0.50860912569E+03  0.55102453223E+03  0.47000000000E+01 0. -1.
        -11    1    6    6    0    0  0.14931766028E+02  0.28595016102E+02 -0.10221797007E+02  0.33839588009E+02  0.00000000000E+00 0.  1.
         12    1    6    6    0    0 -0.16415003728E+02  0.14109860979E+03 -0.23179826148E+03  0.27186155311E+03  0.00000000000E+00 0. -1.
         -5    1    3    3    0  503  0.91478423980E+02 -0.17433339183E+03 -0.42986655015E+03  0.47282954063E+03  0.47000000000E+01 0.  1.
         11    1    4    4    0    0 -0.26232589483E+02 -0.14918230032E+03 -0.23942298446E+03  0.28331408889E+03  0.00000000000E+00 0. -1.
        -12    1    4    4    0    0  0.14297223132E+02 -0.43229619605E+02 -0.25308002027E+02  0.52093239169E+02  0.00000000000E+00 0.  1.
</event>
<event>
12    1  0.9962621E-001  0.2972233E+03  0.7818608E-02  0.1086648E+00
         21   -1    0    0  501  502  0.00000000000E+00  0.00000000000E+00  0.49446797861E+03  0.49446797861E+03  0.00000000000E+00 0.  1.
         21   -1    0    0  502  503 -0.00000000000E+00 -0.00000000000E+00 -0.18194687436E+03  0.18194687436E+03  0.00000000000E+00 0.  1.
         -6    2    1    2    0  503 -0.18001871241E+03 -0.16248537198E+03  0.20206431150E+03  0.35933064472E+03  0.17169826245E+03 0.  0.
        -24    2    3    3    0    0 -0.16917867907E+03 -0.16867966020E+03  0.12703762918E+03  0.28312717636E+03  0.83355776955E+02 0.  0.
          6    2    1    2  501    0  0.18001871241E+03  0.16248537198E+03  0.11045679274E+03  0.31708420825E+03  0.17185301607E+03 0.  0.
         24    2    5    5    0    0  0.97720492346E+02  0.12362713824E+03  0.47772058492E+00  0.17425407953E+03  0.74372656827E+02 0.  0.
          5    1    5    5  501    0  0.82298220061E+02  0.38858233740E+02  0.10997907216E+03  0.14283012871E+03  0.47000000000E+01 0. -1.
        -13    1    6    6    0    0  0.97593704052E+02  0.11613295884E+03  0.20313793934E+02  0.15304916015E+03  0.00000000000E+00 0.  1.
         14    1    6    6    0    0  0.12678829430E+00  0.74941794043E+01 -0.19836073349E+02  0.21204919385E+02  0.00000000000E+00 0. -1.
         -5    1    3    3    0  503 -0.10840033342E+02  0.61942882180E+01  0.75026682327E+02  0.76203468361E+02  0.47000000000E+01 0.  1.
         13    1    4    4    0    0 -0.14876405265E+03 -0.95133418573E+02  0.92641156113E+02  0.19940785966E+03  0.00000000000E+00 0. -1.
        -14    1    4    4    0    0 -0.20414626418E+02 -0.73546241625E+02  0.34396473065E+02  0.83719316697E+02  0.00000000000E+00 0.  1.
</event>
<event>
12    1  0.9962621E-001  0.2304348E+03  0.7818608E-02  0.1126360E+00
         21   -1    0    0  503  502  0.00000000000E+00  0.00000000000E+00  0.15797009018E+03  0.15797009018E+03  0.00000000000E+00 0. -1.
         21   -1    0    0  501  503 -0.00000000000E+00 -0.00000000000E+00 -0.49599916699E+03  0.49599916699E+03  0.00000000000E+00 0. -1.
          6    2    1    2  501    0  0.20672798380E+02  0.15186215403E+03  0.16777504496E+02  0.23089965631E+03  0.17188277461E+03 0.  0.
         24    2    3    3    0    0  0.48280771546E+02  0.60485095838E+02  0.69493231502E+02  0.12175294395E+03  0.63284993602E+02 0.  0.
         -6    2    1    2    0  502 -0.20672798380E+02 -0.15186215403E+03 -0.35480658131E+03  0.42306960086E+03  0.17207759474E+03 0.  0.
        -24    2    5    5    0    0 -0.32449521390E+02 -0.13087102410E+03 -0.15547213075E+03  0.22223227385E+03  0.83877313458E+02 0.  0.
          5    1    3    3  501    0 -0.27607973166E+02  0.91377058189E+02 -0.52715727007E+02  0.10914671236E+03  0.47000000000E+01 0. -1.
        -11    1    4    4    0    0  0.30825329962E+02  0.70803690587E+02  0.42990715388E+02  0.88383059336E+02  0.00000000000E+00 0.  1.
         12    1    4    4    0    0  0.17455441585E+02 -0.10318594749E+02  0.26502516114E+02  0.33369884610E+02  0.00000000000E+00 0. -1.
         -5    1    5    5    0  502  0.11776723010E+02 -0.20991129923E+02 -0.19933445056E+03  0.20083732701E+03  0.47000000000E+01 0.  1.
         11    1    6    6    0    0 -0.10168894253E+02  0.65056474852E+01  0.18212846893E+01  0.12208478098E+02  0.00000000000E+00 0. -1.
        -12    1    6    6    0    0 -0.22280627136E+02 -0.13737667159E+03 -0.15729341544E+03  0.21002379575E+03  0.00000000000E+00 0.  1.
</event>
<event>
12    1  0.9962621E-001  0.2127886E+03  0.7818608E-02  0.1139460E+00
         21   -1    0    0  501  502  0.00000000000E+00  0.00000000000E+00  0.38171455186E+02  0.38171455186E+02  0.00000000000E+00 0. -1.
         21   -1    0    0  502  503 -0.00000000000E+00 -0.00000000000E+00 -0.11981448904E+04  0.11981448904E+04  0.00000000000E+00 0. -1.
         -6    2    1    2    0  503  0.11913532161E+03  0.34825145013E+02 -0.64817388852E+03  0.68220844842E+03  0.17283796387E+03 0.  0.
        -24    2    3    3    0    0  0.79892052918E+02 -0.49690691029E+02 -0.29142462982E+03  0.31346045282E+03  0.66912149262E+02 0.  0.
          6    2    1    2  501    0 -0.11913532161E+03 -0.34825145013E+02 -0.51179954665E+03  0.55410789712E+03  0.17231009872E+03 0.  0.
         24    2    5    5    0    0 -0.14858437118E+03 -0.67239043001E+01 -0.34630714743E+03  0.38361816005E+03  0.71496336299E+02 0.  0.
          5    1    5    5  501    0  0.29449049570E+02 -0.28101240713E+02 -0.16549239921E+03  0.17048973707E+03  0.47000000000E+01 0. -1.
        -11    1    6    6    0    0 -0.56798832210E+02  0.23377526902E+01 -0.59261789484E+02  0.82119011933E+02  0.00000000000E+00 0.  1.
         12    1    6    6    0    0 -0.91785538972E+02 -0.90616569903E+01 -0.28704535795E+03  0.30149914811E+03  0.00000000000E+00 0. -1.
         -5    1    3    3    0  503  0.39243268694E+02  0.84515836042E+02 -0.35674925870E+03  0.36874799561E+03  0.47000000000E+01 0.  1.
         11    1    4    4    0    0  0.69963553874E+02 -0.57307176278E+01 -0.16867975601E+03  0.18270358530E+03  0.00000000000E+00 0. -1.
        -12    1    4    4    0    0  0.99284990438E+01 -0.43959973402E+02 -0.12274487381E+03  0.13075686751E+03  0.00000000000E+00 0.  1.
</event>
<event>
12    1  0.9962621E-001  0.2065930E+03  0.7818608E-02  0.1144343E+00
         21   -1    0    0  501  502  0.00000000000E+00  0.00000000000E+00  0.12448590379E+03  0.12448590379E+03  0.00000000000E+00 0.  1.
         21   -1    0    0  502  503 -0.00000000000E+00 -0.00000000000E+00 -0.35926033837E+03  0.35926033837E+03  0.00000000000E+00 0.  1.
         -6    2    1    2    0  503 -0.85314043836E+02 -0.76490890776E+02 -0.16978208113E+03  0.26740724987E+03  0.17190503123E+03 0.  0.
        -24    2    3    3    0    0 -0.82526329405E+02 -0.36480945822E+02 -0.37991889081E+02  0.12956925885E+03  0.84872579494E+02 0.  0.
          6    2    1    2  501    0  0.85314043836E+02  0.76490890776E+02 -0.64992353452E+02  0.21633899230E+03  0.17160772458E+03 0.  0.
         24    2    5    5    0    0  0.46581808613E+02  0.70136972072E+02 -0.10805057990E+03  0.15788679651E+03  0.78512756611E+02 0.  0.
          5    1    5    5  501    0  0.38732235224E+02  0.63539187046E+01  0.43058226444E+02  0.58452195791E+02  0.47000000000E+01 0. -1.
        -13    1    6    6    0    0  0.26931249120E+02 -0.81221453164E+01 -0.77859410584E+01  0.29187022833E+02  0.00000000000E+00 0.  1.
         14    1    6    6    0    0  0.19650559493E+02  0.78259117388E+02 -0.10026463884E+03  0.12869977367E+03  0.00000000000E+00 0. -1.
         -5    1    3    3    0  503 -0.27877144314E+01 -0.40009944954E+02 -0.13179019205E+03  0.13783799102E+03  0.47000000000E+01 0.  1.
         11    1    4    4    0    0 -0.80146215083E+02 -0.15609477654E+02 -0.58317084128E+02  0.10033919417E+03  0.00000000000E+00 0. -1.
        -12    1    4    4    0    0 -0.23801143216E+01 -0.20871468168E+02  0.20325195048E+02  0.29230064683E+02  0.00000000000E+00 0.  1.
</event>
<event>
12    1  0.9962621E-001  0.2373167E+03  0.7818608E-02  0.1121816E+00
         21   -1    0    0  503  502  0.00000000000E+00  0.00000000000E+00  0.49059707786E+02  0.49059707786E+02  0.00000000000E+00 0.  1.
         21   -1    0    0  501  503 -0.00000000000E+00 -0.00000000000E+00 -0.11555768786E+04  0.11555768786E+04  0.00000000000E+00 0.  1.
          6    2    1    2  501    0  0.33462863554E+01 -0.16235414258E+03 -0.62096061706E+03  0.66476410984E+03  0.17305828078E+03 0.  0.
         24    2    3    3    0    0 -0.23983753785E+02 -0.17520307416E+03 -0.43591133171E+03  0.47720784056E+03  0.80232763505E+02 0.  0.
         -6    2    1    2    0  502 -0.33462863554E+01  0.16235414258E+03 -0.48555655377E+03  0.53987247657E+03  0.17125144903E+03 0.  0.
        -24    2    5    5    0    0 -0.68465229639E+02  0.11546345691E+03 -0.33422897535E+03  0.36852096893E+03  0.77970501008E+02 0.  0.
          5    1    3    3  501    0  0.27330040141E+02  0.12848931581E+02 -0.18504928535E+03  0.18755626928E+03  0.47000000000E+01 0. -1.
        -11    1    4    4    0    0 -0.21551928582E+02 -0.40455627193E+02 -0.20304548774E+03  0.20815526294E+03  0.00000000000E+00 0.  1.
         12    1    4    4    0    0 -0.24318252036E+01 -0.13474744697E+03 -0.23286584397E+03  0.26905257762E+03  0.00000000000E+00 0. -1.
         -5    1    5    5    0  502  0.65118943284E+02  0.46890685668E+02 -0.15132757842E+03  0.17135150763E+03  0.47000000000E+01 0.  1.
         13    1    6    6    0    0 -0.40184053209E+02  0.11316234695E+02 -0.14269223781E+03  0.14867377049E+03  0.00000000000E+00 0. -1.
        -14    1    6    6    0    0 -0.28281176430E+02  0.10414722222E+03 -0.19153673753E+03  0.21984719844E+03  0.00000000000E+00 0.  1.
</event>
<event>
12    1  0.9962621E-001  0.2527010E+03  0.7818608E-02  0.1111720E+00
         21   -1    0    0  501  502  0.00000000000E+00  0.00000000000E+00  0.10389448849E+03  0.10389448849E+03  0.00000000000E+00 0.  1.
         21   -1    0    0  502  503 -0.00000000000E+00 -0.00000000000E+00 -0.69219872519E+03  0.69219872519E+03  0.00000000000E+00 0.  1.
         -6    2    1    2    0  503 -0.13468683490E+03  0.12682120881E+03 -0.15907550896E+03  0.29800174423E+03  0.17110189805E+03 0.  0.
        -24    2    3    3    0    0 -0.88911876223E+01  0.39525187613E+02 -0.10348756993E+03  0.13503779375E+03  0.76708767020E+02 0.  0.
          6    2    1    2  501    0  0.13468683490E+03 -0.12682120881E+03 -0.42922872774E+03  0.49809146944E+03  0.17214426715E+03 0.  0.
         24    2    5    5    0    0  0.46800572024E+02 -0.19413586853E+02 -0.27406090485E+03  0.28986194291E+03  0.79645373294E+02 0.  0.
          5    1    5    5  501    0  0.87886262879E+02 -0.10740762196E+03 -0.15516782289E+03  0.20822952653E+03  0.47000000000E+01 0. -1.
        -13    1    6    6    0    0  0.57507730299E+01 -0.44376108606E+02 -0.15892016081E+03  0.16509975142E+03  0.00000000000E+00 0.  1.
         14    1    6    6    0    0  0.41049798994E+02  0.24962521754E+02 -0.11514074403E+03  0.12476219149E+03  0.00000000000E+00 0. -1.
         -5    1    3    3    0  503 -0.12579564728E+03  0.87296021198E+02 -0.55587939023E+02  0.16296395048E+03  0.47000000000E+01 0.  1.
         13    1    4    4    0    0  0.27464267166E+02  0.85607330570E-01 -0.59990522577E+02  0.65978451775E+02  0.00000000000E+00 0. -1.
        -14    1    4    4    0    0 -0.36355454788E+02  0.39439580283E+02 -0.43497047355E+02  0.69059341977E+02  0.00000000000E+00 0.  1.
</event>
<event>
12    1  0.9962621E-001  0.2734503E+03  0.7818608E-02  0.1100308E+00
         21   -1    0    0  501  502  0.00000000000E+00  0.00000000000E+00  0.11201813544E+03  0.11201813544E+03  0.00000000000E+00 0. -1.
         21   -1    0    0  502  503 -0.00000000000E+00 -0.00000000000E+00 -0.71470899339E+03  0.71470899339E+03  0.00000000000E+00 0. -1.
         -6    2    1    2    0  503  0.47808275754E+02 -0.20582742689E+03 -0.17418771714E+03  0.31840634291E+03  0.16245207759E+03 0.  0.
        -24    2    3    3    0    0  0.82044198365E+00 -0.43669525290E+02 -0.37829442960E+02  0.10133789631E+03  0.83250236690E+02 0.  0.
          6    2    1    2  501    0 -0.47808275754E+02  0.20582742689E+03 -0.42850314080E+03  0.50832078592E+03  0.17356416344E+03 0.  0.
         24    2    5    5    0    0  0.18882298448E+02  0.10021963995E+03 -0.31041411475E+03  0.33636804409E+03  0.79912583619E+02 0.  0.
          5    1    5    5  501    0 -0.66690574202E+02  0.10560778694E+03 -0.11808902605E+03  0.17195274183E+03  0.47000000000E+01 0. -1.
        -13    1    6    6    0    0 -0.50986594056E+01  0.10203083680E+03 -0.21601211232E+03  0.23895087498E+03  0.00000000000E+00 0.  1.
         14    1    6    6    0    0  0.23980957853E+02 -0.18111968504E+01 -0.94402002431E+02  0.97417169105E+02  0.00000000000E+00 0. -1.
         -5    1    3    3    0  503  0.46987833771E+02 -0.16215790160E+03 -0.13635827418E+03  0.21706844660E+03  0.47000000000E+01 0.  1.
         11    1    4    4    0    0 -0.11817397166E+02 -0.59492980987E+02 -0.26099424369E+01  0.60711427771E+02  0.00000000000E+00 0. -1.
        -12    1    4    4    0    0  0.12637839149E+02  0.15823455697E+02 -0.35219500523E+02  0.40626468535E+02  0.00000000000E+00 0.  1.
</event>
<event>
12    1  0.9962621E-001  0.4767815E+03  0.7818608E-02  0.1020123E+00
         21   -1    0    0  503  502  0.00000000000E+00  0.00000000000E+00  0.47140234269E+03  0.47140234269E+03  0.00000000000E+00 0. -1.
         21   -1    0    0  501  503 -0.00000000000E+00 -0.00000000000E+00 -0.64769252791E+03  0.64769252791E+03  0.00000000000E+00 0. -1.
          6    2    1    2  501    0  0.40429869964E+03 -0.18473543582E+03  0.19600862387E+03  0.51417585554E+03  0.16844230470E+03 0.  0.
         24    2    3    3    0    0  0.33183857065E+03 -0.19257758035E+03  0.12201425634E+03  0.41020842819E+03  0.78616247571E+02 0.  0.
         -6    2    1    2    0  502 -0.40429869964E+03  0.18473543582E+03 -0.37229880908E+03  0.60491901507E+03  0.17244127050E+03 0.  0.
        -24    2    5    5    0    0 -0.14583226960E+03  0.94857193519E+02 -0.72026744350E+02  0.19863291298E+03  0.63263292650E+02 0.  0.
          5    1    3    3  501    0  0.72460128985E+02  0.78421445318E+01  0.73994367525E+02  0.10396742735E+03  0.47000000000E+01 0. -1.
        -11    1    4    4    0    0  0.53714629103E+02 -0.58855602165E+02  0.47403010175E+02  0.92716172589E+02  0.00000000000E+00 0.  1.
         12    1    4    4    0    0  0.27812394155E+03 -0.13372197819E+03  0.74611246166E+02  0.31749225560E+03  0.00000000000E+00 0. -1.
         -5    1    5    5    0  502 -0.25846643003E+03  0.89878242302E+02 -0.30027206473E+03  0.40628610209E+03  0.47000000000E+01 0.  1.
         13    1    6    6    0    0 -0.14907177875E+03  0.79991338535E+02 -0.70714152600E+02  0.18336166676E+03  0.00000000000E+00 0. -1.
        -14    1    6    6    0    0  0.32395091454E+01  0.14865854984E+02 -0.13125917504E+01  0.15271246217E+02  0.00000000000E+00 0.  1.
</event>
<event>
12    1  0.9962621E-001  0.2362334E+03  0.7818608E-02  0.1122342E+00
         21   -1    0    0  501  502  0.00000000000E+00  0.00000000000E+00  0.20563052611E+03  0.20563052611E+03  0.00000000000E+00 0.  1.
         21   -1    0    0  502  503 -0.00000000000E+00 -0.00000000000E+00 -0.27240348688E+03  0.27240348688E+03  0.00000000000E+00 0.  1.
         -6    2    1    2    0  503 -0.99272281060E+02  0.12849010784E+03 -0.18146197518E+02  0.23684781269E+03  0.17147276253E+03 0.  0.
        -24    2    3    3    0    0 -0.27242928372E+02  0.35313841489E+02 -0.60402524798E+02  0.11163706453E+03  0.82614312486E+02 0.  0.
          6    2    1    2  501    0  0.99272281060E+02 -0.12849010784E+03 -0.48626763251E+02  0.24118620030E+03  0.17158533594E+03 0.  0.
         24    2    5    5    0    0  0.12338535173E+03 -0.90365151094E+02  0.30251750285E+01  0.17244781778E+03  0.79619674823E+02 0.  0.
          5    1    5    5  501    0 -0.24113070665E+02 -0.38124956743E+02 -0.51651938280E+02  0.68738382521E+02  0.47000000000E+01 0. -1.
        -13    1    6    6    0    0 -0.61086852448E+01 -0.27188244214E+02 -0.42129729239E+01  0.28182721652E+02  0.00000000000E+00 0.  1.
         14    1    6    6    0    0  0.12949403697E+03 -0.63176906880E+02  0.72381479524E+01  0.14426509612E+03  0.00000000000E+00 0. -1.
         -5    1    3    3    0  503 -0.72029352689E+02  0.93176266349E+02  0.42256327280E+02  0.12521074816E+03  0.47000000000E+01 0.  1.
         13    1    4    4    0    0 -0.49316178133E+02 -0.32541058327E+01 -0.30552686991E+02  0.58104572219E+02  0.00000000000E+00 0. -1.
        -14    1    4    4    0    0  0.22073249762E+02  0.38567947321E+02 -0.29849837807E+02  0.53532492308E+02  0.00000000000E+00 0.  1.
</event>
<event>
12    1  0.9962621E-001  0.1958730E+03  0.7818608E-02  0.1153295E+00
         21   -1    0    0  503  502  0.00000000000E+00  0.00000000000E+00  0.24936288877E+03  0.24936288877E+03  0.00000000000E+00 0.  1.
         21   -1    0    0  501  503 -0.00000000000E+00 -0.00000000000E+00 -0.15424852163E+03  0.15424852163E+03  0.00000000000E+00 0.  1.
          6    2    1    2  501    0  0.35454538698E+02 -0.86355510518E+02  0.58872648964E+02  0.20441373978E+03  0.17206013398E+03 0.  0.
         24    2    3    3    0    0 -0.36085616529E+02 -0.31542963372E+02  0.67228500434E+02  0.11378085729E+03  0.78289730855E+02 0.  0.
         -6    2    1    2    0  502 -0.35454538698E+02  0.86355510518E+02  0.36241718176E+02  0.19919767062E+03  0.17219741965E+03 0.  0.
        -24    2    5    5    0    0 -0.86935295216E+02  0.58569269893E+02  0.20718648739E+01  0.13128587242E+03  0.79016344789E+02 0.  0.
          5    1    3    3  501    0  0.71540155226E+02 -0.54812547146E+02 -0.83558514696E+01  0.90632882489E+02  0.47000000000E+01 0. -1.
        -11    1    4    4    0    0 -0.26826438496E+02  0.23068864366E+02  0.18102170309E+02  0.39743161367E+02  0.00000000000E+00 0.  1.
         12    1    4    4    0    0 -0.92591780324E+01 -0.54611827737E+02  0.49126330125E+02  0.74037695927E+02  0.00000000000E+00 0. -1.
         -5    1    5    5    0  502  0.51480756518E+02  0.27786240625E+02  0.34169853302E+02  0.67911798198E+02  0.47000000000E+01 0.  1.
         11    1    6    6    0    0 -0.33892403004E+02 -0.17789947018E+02  0.15724978479E+01  0.38309919678E+02  0.00000000000E+00 0. -1.
        -12    1    6    6    0    0 -0.53042892212E+02  0.76359216911E+02  0.49936702599E+00  0.92975952745E+02  0.00000000000E+00 0.  1.
</event>
<event>
12    1  0.9962621E-001  0.3909763E+03  0.7818608E-02  0.1046994E+00
         21   -1    0    0  503  502  0.00000000000E+00  0.00000000000E+00  0.18141579257E+03  0.18141579257E+03  0.00000000000E+00 0. -1.
         21   -1    0    0  501  503 -0.00000000000E+00 -0.00000000000E+00 -0.93419895529E+03  0.93419895529E+03  0.00000000000E+00 0. -1.
          6    2    1    2  501    0  0.20372876997E+03  0.28564976798E+03 -0.20093385559E+03  0.43958718833E+03  0.17251457956E+03 0.  0.
         24    2    3    3    0    0  0.17394579774E+03  0.28728706684E+03 -0.14241390741E+03  0.37373598852E+03  0.81276495774E+02 0.  0.
         -6    2    1    2    0  502 -0.20372876997E+03 -0.28564976798E+03 -0.55184930713E+03  0.67602755954E+03  0.17138961991E+03 0.  0.
        -24    2    5    5    0    0 -0.14033000987E+03 -0.19504702461E+03 -0.25654858490E+03  0.36066607420E+03  0.80789771509E+02 0.  0.
          5    1    3    3  501    0  0.29782972226E+02 -0.16372988550E+01 -0.58519948175E+02  0.65851199811E+02  0.47000000000E+01 0. -1.
        -13    1    4    4    0    0  0.11002643793E+03  0.24414374093E+03 -0.10101766251E+03  0.28621067663E+03  0.00000000000E+00 0.  1.
         14    1    4    4    0    0  0.63919359809E+02  0.43143325908E+02 -0.41396244903E+02  0.87525311887E+02  0.00000000000E+00 0. -1.
         -5    1    5    5    0  502 -0.63398760095E+02 -0.90602743372E+02 -0.29530072223E+03  0.31536148534E+03  0.47000000000E+01 0.  1.
         13    1    6    6    0    0 -0.24867499514E+02 -0.19499944804E+02 -0.35587577938E+01  0.31801024142E+02  0.00000000000E+00 0. -1.
        -14    1    6    6    0    0 -0.11546251036E+03 -0.17554707981E+03 -0.25298982711E+03  0.32886505005E+03  0.00000000000E+00 0.  1.
</event>
<event>
12    1  0.9962621E-001  0.4764980E+03  0.7818608E-02  0.1020138E+00
         21   -1    0    0  501  502  0.00000000000E+00  0.00000000000E+00  0.90678942950E+03  0.90678942950E+03  0.00000000000E+00 0. -1.
         21   -1    0    0  502  503 -0.00000000000E+00 -0.00000000000E+00 -0.26190517064E+03  0.26190517064E+03  0.00000000000E+00 0.  1.
         -6    2    1    2    0  503  0.14134478507E+03 -0.42117680771E+03  0.19830375322E+03  0.51563680446E+03  0.17084696064E+03 0.  0.
        -24    2    3    3    0    0  0.77381825573E+02 -0.36200498201E+03  0.20055369630E+03  0.42834581187E+03  0.78884697626E+02 0.  0.
          6    2    1    2  501    0 -0.14134478507E+03  0.42117680771E+03  0.44658050564E+03  0.65305779567E+03  0.17228489442E+03 0.  0.
         24    2    5    5    0    0 -0.14843460660E+03  0.23484251134E+03  0.24641095187E+03  0.37945100513E+03  0.77979936671E+02 0.  0.
          5    1    5    5  501    0  0.70898215280E+01  0.18633429637E+03  0.20016955377E+03  0.27360679054E+03  0.47000000000E+01 0. -1.
        -11    1    6    6    0    0 -0.40727054408E+01 -0.62943475238E+01  0.58541048485E+01  0.95119022249E+01  0.00000000000E+00 0.  1.
         12    1    6    6    0    0 -0.14436190116E+03  0.24113685886E+03  0.24055684703E+03  0.36993910290E+03  0.00000000000E+00 0. -1.
         -5    1    3    3    0  503  0.63962959495E+02 -0.59171825696E+02 -0.22499430795E+01  0.87290992591E+02  0.47000000000E+01 0.  1.
         13    1    4    4    0    0  0.50065520234E+02 -0.28242871799E+03  0.18880658457E+03  0.34339549129E+03  0.00000000000E+00 0. -1.
        -14    1    4    4    0    0  0.27316305339E+02 -0.79576264028E+02  0.11747111730E+02  0.84950320588E+02  0.00000000000E+00 0.  1.
</event>
<event>
12    1  0.9962621E-001  0.3295010E+03  0.7818608E-02  0.1071601E+00
         21   -1    0    0  501  502  0.00000000000E+00  0.00000000000E+00  0.20769178783E+04  0.20769178783E+04  0.00000000000E+00 0.  1.
         21   -1    0    0  502  503 -0.00000000000E+00 -0.00000000000E+00 -0.69730437722E+02  0.69730437722E+02  0.00000000000E+00 0.  1.
         -6    2    1    2    0  503 -0.92183072329E+02  0.26555855094E+03  0.45880436745E+03  0.56359397019E+03  0.16768319190E+03 0.  0.
        -24    2    3    3    0    0 -0.11317494435E+03  0.22337526723E+03  0.30581751651E+03  0.40344667962E+03  0.80868979580E+02 0.  0.
          6    2    1    2  501    0  0.92183072329E+02 -0.26555855094E+03  0.15483830731E+04  0.15830543458E+04  0.17190653822E+03 0.  0.
         24    2    5    5    0    0 -0.97443566872E+01 -0.97155577506E+02  0.45975690168E+03  0.47676424218E+03  0.79959835273E+02 0.  0.
          5    1    5    5  501    0  0.10192742902E+03 -0.16840297344E+03  0.10886261714E+04  0.11062901036E+04  0.47000000000E+01 0. -1.
        -11    1    6    6    0    0 -0.18971928722E+02  0.31190546204E+01  0.14558015095E+03  0.14684428123E+03  0.00000000000E+00 0.  1.
         12    1    6    6    0    0  0.92275720352E+01 -0.10027463213E+03  0.31417675073E+03  0.32991996095E+03  0.00000000000E+00 0. -1.
         -5    1    3    3    0  503  0.20991872025E+02  0.42183283719E+02  0.15298685094E+03  0.16014729057E+03  0.47000000000E+01 0.  1.
         13    1    4    4    0    0 -0.25061508585E+02  0.26753649327E+01  0.35299849419E+02  0.43374141595E+02  0.00000000000E+00 0. -1.
        -14    1    4    4    0    0 -0.88113435770E+02  0.22069990229E+03  0.27051766709E+03  0.36007253803E+03  0.00000000000E+00 0.  1.
</event>
<event>
12    1  0.9962621E-001  0.2859508E+03  0.7818608E-02  0.1092609E+00
         21   -1    0    0  503  502  0.00000000000E+00  0.00000000000E+00  0.97076453161E+03  0.97076453161E+03  0.00000000000E+00 0. -1.
         21   -1    0    0  501  503 -0.00000000000E+00 -0.00000000000E+00 -0.91210208586E+02  0.91210208586E+02  0.00000000000E+00 0. -1.
          6    2    1    2  501    0  0.28277206984E+02  0.22705999851E+03  0.58890802617E+03  0.65424547521E+03  0.16990772550E+03 0.  0.
         24    2    3    3    0    0 -0.25873314017E+02  0.19691212036E+03  0.37873070022E+03  0.43507026716E+03  0.80033633864E+02 0.  0.
         -6    2    1    2    0  502 -0.28277206984E+02 -0.22705999851E+03  0.29064629685E+03  0.40772926498E+03  0.17149938860E+03 0.  0.
        -24    2    5    5    0    0  0.40853677986E+02 -0.72821429319E+02  0.14887757422E+03  0.18707325170E+03  0.76549891060E+02 0.  0.
          5    1    3    3  501    0  0.54150521001E+02  0.30147878149E+02  0.21017732595E+03  0.21917520805E+03  0.47000000000E+01 0. -1.
        -13    1    4    4    0    0 -0.10457025789E+02  0.12277983345E+03  0.30684586208E+03  0.33066390786E+03  0.00000000000E+00 0.  1.
         14    1    4    4    0    0 -0.15416288228E+02  0.74132286915E+02  0.71884838149E+02  0.10440635930E+03  0.00000000000E+00 0. -1.
         -5    1    5    5    0  502 -0.69130884970E+02 -0.15423856919E+03  0.14176872263E+03  0.22065601329E+03  0.47000000000E+01 0.  1.
         11    1    6    6    0    0  0.17337127401E+02 -0.76083264251E+01  0.10115447457E+03  0.10291107978E+03  0.00000000000E+00 0. -1.
        -12    1    6    6    0    0  0.23516550585E+02 -0.65213102893E+02  0.47723099655E+02  0.84162171913E+02  0.00000000000E+00 0.  1.
</event>
<event>
12    1  0.9962621E-001  0.1961986E+03  0.7818608E-02  0.1154773E+00
         21   -1    0    0  503  502  0.00000000000E+00  0.00000000000E+00  0.23720135375E+03  0.23720135375E+03  0.00000000000E+00 0. -1.
         21   -1    0    0  501  503 -0.00000000000E+00 -0.00000000000E+00 -0.15962223590E+03  0.15962223590E+03  0.00000000000E+00 0. -1.
          6    2    1    2  501    0 -0.11529408261E+02  0.68863179402E+02  0.70798008212E+02  0.20858154480E+03  0.18335440582E+03 0.  0.
         24    2    3    3    0    0 -0.29852211957E+02  0.11641766153E+03  0.46308876102E+02  0.15184565231E+03  0.80426137818E+02 0.  0.
         -6    2    1    2    0  502  0.11529408261E+02 -0.68863179402E+02  0.67811096311E+01  0.18824204484E+03  0.17468262440E+03 0.  0.
        -24    2    5    5    0    0 -0.19954330155E+02  0.24463601655E+02  0.17318757204E+02  0.89074278592E+02  0.81471741467E+02 0.  0.
          5    1    3    3  501    0  0.18322803696E+02 -0.47554482128E+02  0.24489132110E+02  0.56735892495E+02  0.47000000000E+01 0. -1.
        -13    1    4    4    0    0  0.85476650489E+01 -0.80472950004E+01  0.12763440576E+02  0.17341480616E+02  0.00000000000E+00 0.  1.
         14    1    4    4    0    0 -0.38399877006E+02  0.12446495653E+03  0.33545435526E+02  0.13450417169E+03  0.00000000000E+00 0. -1.
         -5    1    5    5    0  502  0.31483738415E+02 -0.93326781058E+02 -0.10537647572E+02  0.99167766253E+02  0.47000000000E+01 0.  1.
         11    1    6    6    0    0 -0.10898198805E+02  0.30414620841E+02  0.47251186898E+02  0.57240672265E+02  0.00000000000E+00 0. -1.
        -12    1    6    6    0    0 -0.90561313494E+01 -0.59510191858E+01 -0.29932429694E+02  0.31833606327E+02  0.00000000000E+00 0.  1.
</event>
<event>
12    1  0.9962621E-001  0.1748778E+03  0.7818608E-02  0.1173049E+00
         21   -1    0    0  503  502  0.00000000000E+00  0.00000000000E+00  0.15374414441E+04  0.15374414441E+04  0.00000000000E+00 0. -1.
         21   -1    0    0  501  503 -0.00000000000E+00 -0.00000000000E+00 -0.20107896121E+02  0.20107896121E+02  0.00000000000E+00 0. -1.
          6    2    1    2  501    0 -0.28319497246E+02  0.13894431518E+02  0.66127371117E+03  0.68380986125E+03  0.17122486997E+03 0.  0.
         24    2    3    3    0    0 -0.83853738125E+02  0.11065077670E+02  0.39503095669E+03  0.41178164310E+03  0.79754495222E+02 0.  0.
         -6    2    1    2    0  502  0.28319497246E+02 -0.13894431518E+02  0.85605983680E+03  0.87373947897E+03  0.17200925492E+03 0.  0.
        -24    2    5    5    0    0 -0.14022620137E+02  0.41048967074E+02  0.32099504069E+03  0.33417663926E+03  0.82186121155E+02 0.  0.
          5    1    3    3  501    0  0.55534240879E+02  0.28293538474E+01  0.26624275448E+03  0.27202821815E+03  0.47000000000E+01 0. -1.
        -11    1    4    4    0    0 -0.75346592117E+02  0.67247719742E+01  0.16457355730E+03  0.18112643999E+03  0.00000000000E+00 0.  1.
         12    1    4    4    0    0 -0.85071460083E+01  0.43403056960E+01  0.23045739939E+03  0.23065520310E+03  0.00000000000E+00 0. -1.
         -5    1    5    5    0  502  0.42342117383E+02 -0.54943398592E+02  0.53506479611E+03  0.53956283971E+03  0.47000000000E+01 0.  1.
         11    1    6    6    0    0 -0.73050760870E+00  0.11736394161E+02  0.18953378748E+00  0.11760634011E+02  0.00000000000E+00 0. -1.
        -12    1    6    6    0    0 -0.13292112529E+02  0.29312572913E+02  0.32080550690E+03  0.32241600525E+03  0.00000000000E+00 0.  1.
</event>
<event>
12    1  0.9962621E-001  0.2624673E+03  0.7818608E-02  0.1105677E+00
         21   -1    0    0  501  502  0.00000000000E+00  0.00000000000E+00  0.38506879128E+03  0.38506879128E+03  0.00000000000E+00 0.  1.
         21   -1    0    0  502  503 -0.00000000000E+00 -0.00000000000E+00 -0.21536971824E+03  0.21536971824E+03  0.00000000000E+00 0. -1.
         -6    2    1    2    0  503  0.17565998933E+03 -0.93208229985E+02  0.20844828168E+03  0.33517125915E+03  0.17130347584E+03 0.  0.
        -24    2    3    3    0    0  0.16739243860E+03 -0.17316422818E+02  0.14460238073E+03  0.23554040119E+03  0.79052799312E+02 0.  0.
          6    2    1    2  501    0 -0.17565998933E+03  0.93208229985E+02 -0.38749208645E+02  0.26526725037E+03  0.17123377868E+03 0.  0.
         24    2    5    5    0    0 -0.84721218592E+02  0.74907041720E+02  0.38583005034E+02  0.14440718754E+03  0.81092772536E+02 0.  0.
          5    1    5    5  501    0 -0.90938770738E+02  0.18301188266E+02 -0.77332213679E+02  0.12086006283E+03  0.47000000000E+01 0. -1.
        -13    1    6    6    0    0 -0.13612997556E+02  0.58086941267E+02 -0.40689630205E+01  0.59799355417E+02  0.00000000000E+00 0.  1.
         14    1    6    6    0    0 -0.71108221036E+02  0.16820100453E+02  0.42651968054E+02  0.84607832126E+02  0.00000000000E+00 0. -1.
         -5    1    3    3    0  503  0.82675507311E+01 -0.75891807168E+02  0.63845900952E+02  0.99630857964E+02  0.47000000000E+01 0.  1.
         13    1    4    4    0    0  0.15938975727E+02 -0.29115112360E+02  0.34861991850E+02  0.48136256509E+02  0.00000000000E+00 0. -1.
        -14    1    4    4    0    0  0.15145346287E+03  0.11798689542E+02  0.10974038888E+03  0.18740414468E+03  0.00000000000E+00 0.  1.
</event>
<event>
12    1  0.9962621E-001  0.1752074E+03  0.7818608E-02  0.1172930E+00
         21   -1    0    0  501  502  0.00000000000E+00  0.00000000000E+00  0.24030164379E+03  0.24030164379E+03  0.00000000000E+00 0. -1.
         21   -1    0    0  502  503 -0.00000000000E+00 -0.00000000000E+00 -0.12988787232E+03  0.12988787232E+03  0.00000000000E+00 0. -1.
         -6    2    1    2    0  503  0.17373900061E+02 -0.14783180176E+02  0.25879526440E+02  0.17710837775E+03  0.17371595425E+03 0.  0.
        -24    2    3    3    0    0  0.48360961276E+01  0.47084766756E+02 -0.25985180722E+02  0.95273927587E+02  0.78495404799E+02 0.  0.
          6    2    1    2  501    0 -0.17373900061E+02  0.14783180176E+02  0.84534245028E+02  0.19308113835E+03  0.17208687511E+03 0.  0.
         24    2    5    5    0    0  0.61086374528E+01 -0.37791221001E+02  0.81759399976E+01  0.97330535355E+02  0.89111701147E+02 0.  0.
          5    1    5    5  501    0 -0.23482537513E+02  0.52574401178E+02  0.76358305031E+02  0.95750602998E+02  0.47000000000E+01 0. -1.
        -11    1    6    6    0    0 -0.87381027775E+01 -0.64531342859E+02  0.12891028309E+02  0.66383938285E+02  0.00000000000E+00 0.  1.
         12    1    6    6    0    0  0.14846740230E+02  0.26740121858E+02 -0.47150883114E+01  0.30946597070E+02  0.00000000000E+00 0. -1.
         -5    1    3    3    0  503  0.12537803933E+02 -0.61867946932E+02  0.51864707162E+02  0.81834450166E+02  0.47000000000E+01 0.  1.
         11    1    4    4    0    0  0.41706400303E+02  0.26882879213E+02 -0.14003925305E+02  0.51557957145E+02  0.00000000000E+00 0. -1.
        -12    1    4    4    0    0 -0.36870304176E+02  0.20201887543E+02 -0.11981255417E+02  0.43715970442E+02  0.00000000000E+00 0.  1.
</event>
<event>
12    1  0.9962621E-001  0.2503091E+03  0.7818608E-02  0.1113474E+00
         21   -1    0    0  503  502  0.00000000000E+00  0.00000000000E+00  0.29286708273E+03  0.29286708273E+03  0.00000000000E+00 0. -1.
         21   -1    0    0  501  503 -0.00000000000E+00 -0.00000000000E+00 -0.21553708038E+03  0.21553708038E+03  0.00000000000E+00 0. -1.
          6    2    1    2  501    0  0.23447712913E+02  0.18030630844E+03  0.71163564869E+02  0.25801910740E+03  0.16866963780E+03 0.  0.
         24    2    3    3    0    0 -0.32203465590E+02  0.16730948246E+03  0.37588999872E+02  0.19157128901E+03  0.79101831478E+02 0.  0.
         -6    2    1    2    0  502 -0.23447712913E+02 -0.18030630844E+03  0.61664374820E+01  0.25038505570E+03  0.17203049458E+03 0.  0.
        -24    2    5    5    0    0  0.34164781583E+02 -0.88622055726E+02 -0.41297992594E+02  0.13206276770E+03  0.81938692676E+02 0.  0.
          5    1    3    3  501    0  0.55651178504E+02  0.12996825974E+02  0.33574564997E+02  0.66447818391E+02  0.47000000000E+01 0. -1.
        -13    1    4    4    0    0 -0.46342850575E+02  0.46477242463E+02  0.20240472750E+02  0.68683845288E+02  0.00000000000E+00 0.  1.
         14    1    4    4    0    0  0.14139384984E+02  0.12083224000E+03  0.17348527122E+02  0.12288744372E+03  0.00000000000E+00 0. -1.
         -5    1    5    5    0  502 -0.57612494496E+02 -0.91684252709E+02  0.47464430076E+02  0.11832228801E+03  0.47000000000E+01 0.  1.
         13    1    6    6    0    0  0.19629127795E+02 -0.53611362124E+01 -0.42950149258E+02  0.47526411192E+02  0.00000000000E+00 0. -1.
        -14    1    6    6    0    0  0.14535653788E+02 -0.83260919513E+02  0.16521566642E+01  0.84536356504E+02  0.00000000000E+00 0.  1.
</event>
<event>
12    1  0.9962621E-001  0.2226265E+03  0.7818608E-02  0.1132108E+00
         21   -1    0    0  501  502  0.00000000000E+00  0.00000000000E+00  0.29380620528E+02  0.29380620528E+02  0.00000000000E+00 0. -1.
         21   -1    0    0  502  503 -0.00000000000E+00 -0.00000000000E+00 -0.17252715613E+04  0.17252715613E+04  0.00000000000E+00 0. -1.
         -6    2    1    2    0  503 -0.63925935723E+02 -0.12469505042E+03 -0.99177163355E+03  0.10164514416E+04  0.17299473755E+03 0.  0.
        -24    2    3    3    0    0 -0.86261585435E+02 -0.14891595466E+03 -0.85132605088E+03  0.87211646617E+03  0.78829328168E+02 0.  0.
          6    2    1    2  501    0  0.63925935723E+02  0.12469505042E+03 -0.70411930722E+03  0.73820074019E+03  0.17181662657E+03 0.  0.
         24    2    5    5    0    0  0.39970970711E+02  0.75348040264E+02 -0.65205093389E+03  0.66242361131E+03  0.79747192847E+02 0.  0.
          5    1    5    5  501    0  0.23954965013E+02  0.49347010160E+02 -0.52068373330E+02  0.75777128883E+02  0.47000000000E+01 0. -1.
        -13    1    6    6    0    0 -0.84886982558E+01  0.14416471607E+02 -0.35328389551E+03  0.35367980361E+03  0.00000000000E+00 0.  1.
         14    1    6    6    0    0  0.48459668966E+02  0.60931568657E+02 -0.29876703838E+03  0.30874380770E+03  0.00000000000E+00 0. -1.
         -5    1    3    3    0  503  0.22335649712E+02  0.24220904239E+02 -0.14044558267E+03  0.14433497546E+03  0.47000000000E+01 0.  1.
         11    1    4    4    0    0 -0.50895084014E+02 -0.87858785791E+02 -0.66813685395E+03  0.67580791015E+03  0.00000000000E+00 0. -1.
        -12    1    4    4    0    0 -0.35366501421E+02 -0.61057168871E+02 -0.18318919693E+03  0.19630855602E+03  0.00000000000E+00 0.  1.
</event>
<event>
12    1  0.9962621E-001  0.1895896E+03  0.7818608E-02  0.1159019E+00
         21   -1    0    0  503  502  0.00000000000E+00  0.00000000000E+00  0.24016240200E+03  0.24016240200E+03  0.00000000000E+00 0. -1.
         21   -1    0    0  501  503 -0.00000000000E+00 -0.00000000000E+00 -0.32291926672E+03  0.32291926672E+03  0.00000000000E+00 0. -1.
          6    2    1    2  501    0 -0.36726807164E+01 -0.79431457513E+02  0.16527088260E+03  0.25089265689E+03  0.17120109701E+03 0.  0.
         24    2    3    3    0    0 -0.38673555956E+02  0.61144395923E+01  0.11698191343E+03  0.14650359462E+03  0.79028506650E+02 0.  0.
         -6    2    1    2    0  502  0.36726807164E+01  0.79431457513E+02 -0.24802774732E+03  0.31218901183E+03  0.17210860129E+03 0.  0.
        -24    2    5    5    0    0  0.28085703631E+02  0.59572046818E+02 -0.25840995613E+03  0.27871854513E+03  0.81059770927E+02 0.  0.
          5    1    3    3  501    0  0.35000875240E+02 -0.85545897105E+02  0.48288969171E+02  0.10438906227E+03  0.47000000000E+01 0. -1.
        -11    1    4    4    0    0 -0.21668083768E+02  0.40803910087E+02  0.83276995539E+02  0.95234042856E+02  0.00000000000E+00 0.  1.
         12    1    4    4    0    0 -0.17005472188E+02 -0.34689470495E+02  0.33704917892E+02  0.51269551760E+02  0.00000000000E+00 0. -1.
         -5    1    5    5    0  502 -0.24413022915E+02  0.19859410694E+02  0.10382208810E+02  0.33470466694E+02  0.47000000000E+01 0.  1.
         11    1    6    6    0    0 -0.30440874571E+01 -0.12103598266E+02 -0.48492276939E+01  0.13389494712E+02  0.00000000000E+00 0. -1.
        -12    1    6    6    0    0  0.31129791088E+02  0.71675645084E+02 -0.25356072844E+03  0.26532905042E+03  0.00000000000E+00 0.  1.
</event>
<event>
12    1  0.9962621E-001  0.1735953E+03  0.7818608E-02  0.1174164E+00
         21   -1    0    0  501  502  0.00000000000E+00  0.00000000000E+00  0.76986763997E+02  0.76986763997E+02  0.00000000000E+00 0.  1.
         21   -1    0    0  502  503 -0.00000000000E+00 -0.00000000000E+00 -0.40890999477E+03  0.40890999477E+03  0.00000000000E+00 0.  1.
         -6    2    1    2    0  503  0.16550056608E+02 -0.11513937690E+02 -0.11557495117E+03  0.20854948150E+03  0.17242053752E+03 0.  0.
        -24    2    3    3    0    0  0.18835868914E+02  0.19408323022E+01  0.10925129193E+02  0.81228563712E+02  0.78231479131E+02 0.  0.
          6    2    1    2  501    0 -0.16550056608E+02  0.11513937690E+02 -0.21634827960E+03  0.27734727727E+03  0.17236141966E+03 0.  0.
         24    2    5    5    0    0  0.29518268922E+02  0.52084383998E+02 -0.79733211392E+02  0.12750062701E+03  0.79466430858E+02 0.  0.
          5    1    5    5  501    0 -0.46068325530E+02 -0.40570446309E+02 -0.13661506821E+03  0.14984665025E+03  0.47000000000E+01 0. -1.
        -13    1    6    6    0    0  0.12346849725E+02 -0.16136295318E+01  0.13614229998E+02  0.18449817258E+02  0.00000000000E+00 0.  1.
         14    1    6    6    0    0  0.17171419198E+02  0.53698013530E+02 -0.93347441390E+02  0.10905080976E+03  0.00000000000E+00 0. -1.
         -5    1    3    3    0  503 -0.22858123064E+01 -0.13454769992E+02 -0.12650008036E+03  0.12732091778E+03  0.47000000000E+01 0.  1.
         13    1    4    4    0    0 -0.18251264362E+02  0.20632242082E+02  0.25178630565E+02  0.37319720006E+02  0.00000000000E+00 0. -1.
        -14    1    4    4    0    0  0.37087133277E+02 -0.18691409780E+02 -0.14253501372E+02  0.43908843706E+02  0.00000000000E+00 0.  1.
</event>
<event>
12    1  0.9962621E-001  0.2592493E+03  0.7818608E-02  0.1107899E+00
         21   -1    0    0  501  502  0.00000000000E+00  0.00000000000E+00  0.15957240403E+04  0.15957240403E+04  0.00000000000E+00 0.  1.
         21   -1    0    0  502  503 -0.00000000000E+00 -0.00000000000E+00 -0.42185358174E+02  0.42185358174E+02  0.00000000000E+00 0.  1.
         -6    2    1    2    0  503  0.25919973176E+02  0.19151764080E+03  0.69483054697E+03  0.74092007072E+03  0.16977105306E+03 0.  0.
        -24    2    3    3    0    0  0.72357810363E+01  0.20714677356E+03  0.67037595091E+03  0.70608494341E+03  0.78675850343E+02 0.  0.
          6    2    1    2  501    0 -0.25919973176E+02 -0.19151764080E+03  0.85870813520E+03  0.89698932779E+03  0.17279855602E+03 0.  0.
         24    2    5    5    0    0 -0.83654359498E+02 -0.13510268291E+03  0.58257198907E+03  0.60925825885E+03  0.80961205074E+02 0.  0.
          5    1    5    5  501    0  0.57734386322E+02 -0.56414957894E+02  0.27613614612E+03  0.28773106894E+03  0.47000000000E+01 0. -1.
        -13    1    6    6    0    0  0.71487949411E+01  0.64395247928E+01  0.44134565107E+02  0.45171147714E+02  0.00000000000E+00 0.  1.
         14    1    6    6    0    0 -0.90803154439E+02 -0.14154220770E+03  0.53843742397E+03  0.56408711113E+03  0.00000000000E+00 0. -1.
         -5    1    3    3    0  503  0.18684192140E+02 -0.15629132761E+02  0.24454596060E+02  0.34835127318E+02  0.47000000000E+01 0.  1.
         13    1    4    4    0    0  0.14756515956E+02  0.10399003204E+03  0.45763824785E+03  0.46953641756E+03  0.00000000000E+00 0. -1.
        -14    1    4    4    0    0 -0.75207349195E+01  0.10315674152E+03  0.21273770306E+03  0.23654852584E+03  0.00000000000E+00 0.  1.
</event>
<event>
12    1  0.9962621E-001  0.2353363E+03  0.7818608E-02  0.1123173E+00
         21   -1    0    0  501  502  0.00000000000E+00  0.00000000000E+00  0.44465887024E+03  0.44465887024E+03  0.00000000000E+00 0.  1.
         21   -1    0    0  502  503 -0.00000000000E+00 -0.00000000000E+00 -0.12449790441E+03  0.12449790441E+03  0.00000000000E+00 0.  1.
         -6    2    1    2    0  503 -0.11663695062E+03  0.10865952496E+03  0.13973170947E+03  0.27369345900E+03  0.17312448773E+03 0.  0.
        -24    2    3    3    0    0 -0.96047356731E+02  0.14681069102E+03  0.12453811668E+03  0.22751577921E+03  0.73994685967E+02 0.  0.
          6    2    1    2  501    0  0.11663695062E+03 -0.10865952496E+03  0.18042925636E+03  0.29546331565E+03  0.17126816321E+03 0.  0.
         24    2    5    5    0    0  0.22136583794E+02 -0.11215654820E+03  0.10365914858E+03  0.17356873846E+03  0.79446637677E+02 0.  0.
          5    1    5    5  501    0  0.94500366824E+02  0.34970232366E+01  0.76770107779E+02  0.12189457720E+03  0.47000000000E+01 0. -1.
        -11    1    6    6    0    0 -0.11212729669E+02 -0.53150592684E+02  0.59392823940E+01  0.54644175212E+02  0.00000000000E+00 0.  1.
         12    1    6    6    0    0  0.33349313463E+02 -0.59005955516E+02  0.97719866189E+02  0.11892456324E+03  0.00000000000E+00 0. -1.
         -5    1    3    3    0  503 -0.20589593886E+02 -0.38151166062E+02  0.15193592792E+02  0.46177679784E+02  0.47000000000E+01 0.  1.
         13    1    4    4    0    0 -0.47337592243E+02  0.46458277649E+02  0.87873771071E+02  0.11009549874E+03  0.00000000000E+00 0. -1.
        -14    1    4    4    0    0 -0.48709764488E+02  0.10035241338E+03  0.36664345609E+02  0.11742028047E+03  0.00000000000E+00 0.  1.
</event>
<event>
12    1  0.9962621E-001  0.1966863E+03  0.7818608E-02  0.1152847E+00
         21   -1    0    0  503  502  0.00000000000E+00  0.00000000000E+00  0.50175698440E+03  0.50175698440E+03  0.00000000000E+00 0.  1.
         21   -1    0    0  501  503 -0.00000000000E+00 -0.00000000000E+00 -0.85603052846E+02  0.85603052846E+02  0.00000000000E+00 0.  1.
          6    2    1    2  501    0 -0.19228027759E+02  0.91932591466E+02  0.11340242470E+03  0.22703657686E+03  0.17281255417E+03 0.  0.
         24    2    3    3    0    0 -0.12649738100E+02 -0.16679624460E+02  0.23933649779E+02  0.86087511490E+02  0.80000089354E+02 0.  0.
         -6    2    1    2    0  502  0.19228027759E+02 -0.91932591466E+02  0.30275150685E+03  0.36032346038E+03  0.17132776417E+03 0.  0.
        -24    2    5    5    0    0  0.65030708222E+01  0.25782275608E+01  0.57360839753E+02  0.97012068792E+02  0.77923926792E+02 0.  0.
          5    1    3    3  501    0 -0.65782896587E+01  0.10861221593E+03  0.89468774921E+02  0.14094906537E+03  0.47000000000E+01 0. -1.
        -11    1    4    4    0    0 -0.34495186491E+02 -0.22895579745E+02  0.40545114179E+02  0.57948526700E+02  0.00000000000E+00 0.  1.
         12    1    4    4    0    0  0.21845448391E+02  0.62159552856E+01 -0.16611464400E+02  0.28138984790E+02  0.00000000000E+00 0. -1.
         -5    1    5    5    0  502  0.12724956936E+02 -0.94510819027E+02  0.24539066710E+03  0.26331139159E+03  0.47000000000E+01 0.  1.
         13    1    6    6    0    0 -0.29798058227E+02  0.20396255300E+02  0.37137238734E+02  0.51798706598E+02  0.00000000000E+00 0. -1.
        -14    1    6    6    0    0  0.36301129049E+02 -0.17818027740E+02  0.20223601019E+02  0.45213362195E+02  0.00000000000E+00 0.  1.
</event>
<event>
12    1  0.9962621E-001  0.1803515E+03  0.7818608E-02  0.1167741E+00
         21   -1    0    0  503  502  0.00000000000E+00  0.00000000000E+00  0.26473414500E+03  0.26473414500E+03  0.00000000000E+00 0.  1.
         21   -1    0    0  501  503 -0.00000000000E+00 -0.00000000000E+00 -0.12913222187E+03  0.12913222187E+03  0.00000000000E+00 0.  1.
          6    2    1    2  501    0 -0.46153825776E+01  0.51673983694E+02  0.11360356377E+03  0.21217815670E+03  0.17152929234E+03 0.  0.
         24    2    3    3    0    0  0.45634682717E+02  0.43245641899E+02  0.12747660252E+03  0.15916252493E+03  0.71622031135E+02 0.  0.
         -6    2    1    2    0  502  0.46153825776E+01 -0.51673983694E+02  0.21998359367E+02  0.18168821017E+03  0.17272861822E+03 0.  0.
        -24    2    5    5    0    0  0.26320160540E+02 -0.12533033934E+01  0.68325127372E+02  0.10970486611E+03  0.81685451567E+02 0.  0.
          5    1    3    3  501    0 -0.50250065294E+02  0.84283417956E+01 -0.13873038746E+02  0.53015631766E+02  0.47000000000E+01 0. -1.
        -11    1    4    4    0    0  0.25186867167E+02  0.62271893203E+02  0.94608649015E+02  0.11603001090E+03  0.00000000000E+00 0.  1.
         12    1    4    4    0    0  0.20447815550E+02 -0.19026251305E+02  0.32867953500E+02  0.43132514032E+02  0.00000000000E+00 0. -1.
         -5    1    5    5    0  502 -0.21704777963E+02 -0.50420680301E+02 -0.46326768006E+02  0.71983344061E+02  0.47000000000E+01 0.  1.
         11    1    6    6    0    0 -0.26226406040E+02 -0.16520278781E+02  0.22005743697E+02  0.38013112743E+02  0.00000000000E+00 0. -1.
        -12    1    6    6    0    0  0.52546566580E+02  0.15266975388E+02  0.46319383675E+02  0.71691753367E+02  0.00000000000E+00 0.  1.
</event>
<event>
12    1  0.9962621E-001  0.2877936E+03  0.7818608E-02  0.1091710E+00
         21   -1    0    0  501  502  0.00000000000E+00  0.00000000000E+00  0.27993748724E+03  0.27993748724E+03  0.00000000000E+00 0. -1.
         21   -1    0    0  502  503 -0.00000000000E+00 -0.00000000000E+00 -0.64092277608E+03  0.64092277608E+03  0.00000000000E+00 0. -1.
         -6    2    1    2    0  503 -0.21157900467E+01 -0.23040839538E+03  0.15789085884E+03  0.32826006179E+03  0.17243155059E+03 0.  0.
        -24    2    3    3    0    0  0.41628173750E+02 -0.19254525051E+03  0.71972823676E+02  0.22457230517E+03  0.80287325020E+02 0.  0.
          6    2    1    2  501    0  0.21157900467E+01  0.23040839538E+03 -0.51887614768E+03  0.59260020152E+03  0.16985298640E+03 0.  0.
         24    2    5    5    0    0  0.53849315895E+02  0.19278516482E+03 -0.34054724729E+03  0.40308726823E+03  0.80256149736E+02 0.  0.
          5    1    5    5  501    0 -0.51733525848E+02  0.37623230551E+02 -0.17832890038E+03  0.18951293329E+03  0.47000000000E+01 0. -1.
        -11    1    6    6    0    0 -0.10201038099E+02  0.11205468339E+03 -0.17212921280E+03  0.20564235738E+03  0.00000000000E+00 0.  1.
         12    1    6    6    0    0  0.64050353993E+02  0.80730481437E+02 -0.16841803449E+03  0.19744491085E+03  0.00000000000E+00 0. -1.
         -5    1    3    3    0  503 -0.43743963797E+02 -0.37863144870E+02  0.85918035160E+02  0.10368775663E+03  0.47000000000E+01 0.  1.
         13    1    4    4    0    0  0.54856885537E+02 -0.14738420550E+03  0.27160597293E+02  0.15959035048E+03  0.00000000000E+00 0. -1.
        -14    1    4    4    0    0 -0.13228711787E+02 -0.45161045007E+02  0.44812226383E+02  0.64981954688E+02  0.00000000000E+00 0.  1.
</event>
<event>
12    1  0.1119608E+000  0.3848598E+03  0.7818608E-02  0.1049435E+00
         21   -1    0    0  503  502  0.00000000000E+00  0.00000000000E+00  0.61590752359E+03  0.61590752359E+03  0.00000000000E+00 0.  1.
         21   -1    0    0  501  503 -0.00000000000E+00 -0.00000000000E+00 -0.34309767353E+03  0.34309767353E+03  0.00000000000E+00 0.  1.
          6    2    1    2  501    0 -0.12853041546E+03  0.31496224624E+03  0.40147427831E+03  0.55614623463E+03  0.17998820486E+03 0.  0.
         24    2    3    3    0    0 -0.98637464756E+02  0.32662679859E+03  0.38258497121E+03  0.51861563103E+03  0.78590696303E+02 0.  0.
         -6    2    1    2    0  502  0.12853041546E+03 -0.31496224624E+03 -0.12866442826E+03  0.40285896249E+03  0.17326143341E+03 0.  0.
        -24    2    5    5    0    0  0.11448848042E+03 -0.30634226086E+03 -0.15447562922E+03  0.37187851410E+03  0.86473789601E+02 0.  0.
          5    1    3    3  501    0 -0.29892950704E+02 -0.11664552351E+02  0.18889307109E+02  0.37530603598E+02  0.47000000000E+01 0. -1.
        -13    1    4    4    0    0  0.11180808490E+02  0.51764865138E+02  0.43631493965E+02  0.68617191773E+02  0.00000000000E+00 0.  1.
         14    1    4    4    0    0 -0.10981827325E+03  0.27486193345E+03  0.33895347724E+03  0.44999843926E+03  0.00000000000E+00 0. -1.
         -5    1    5    5    0  502  0.14041935041E+02 -0.86199853818E+01  0.25811200962E+02  0.30980448395E+02  0.47000000000E+01 0.  1.
         11    1    6    6    0    0  0.74172307961E+02 -0.90601790876E+02 -0.36179192014E+02  0.12255264058E+03  0.00000000000E+00 0. -1.
        -12    1    6    6    0    0  0.40316172458E+02 -0.21574046998E+03 -0.11829643721E+03  0.24932587352E+03  0.00000000000E+00 0.  1.
</event>
<event>
12    1  0.9962621E-001  0.2404392E+03  0.7818608E-02  0.1119721E+00
         21   -1    0    0  503  502  0.00000000000E+00  0.00000000000E+00  0.42925658883E+03  0.42925658883E+03  0.00000000000E+00 0. -1.
         21   -1    0    0  501  503 -0.00000000000E+00 -0.00000000000E+00 -0.14463075536E+03  0.14463075536E+03  0.00000000000E+00 0. -1.
          6    2    1    2  501    0  0.10971955838E+03 -0.12387842983E+03  0.21996925516E+03  0.32490644420E+03  0.17260787178E+03 0.  0.
         24    2    3    3    0    0 -0.34184505871E+01 -0.64634054878E+02  0.14546827556E+03  0.17697878959E+03  0.77273707803E+02 0.  0.
         -6    2    1    2    0  502 -0.10971955838E+03  0.12387842983E+03  0.64656578306E+02  0.24898089998E+03  0.17443270499E+03 0.  0.
        -24    2    5    5    0    0 -0.85631358072E+02  0.84171110825E+02 -0.26986314952E+02  0.14613430324E+03  0.78800177703E+02 0.  0.
          5    1    3    3  501    0  0.11313800897E+03 -0.59244374949E+02  0.74500979607E+02  0.14792765461E+03  0.47000000000E+01 0. -1.
        -11    1    4    4    0    0  0.23292294415E+02 -0.61406996768E+02  0.13073374732E+03  0.14630332505E+03  0.00000000000E+00 0.  1.
         12    1    4    4    0    0 -0.26710745003E+02 -0.32270581102E+01  0.14734528232E+02  0.30675464542E+02  0.00000000000E+00 0. -1.
         -5    1    5    5    0  502 -0.24088200311E+02  0.39707319002E+02  0.91642893258E+02  0.10284659674E+03  0.47000000000E+01 0.  1.
         11    1    6    6    0    0  0.12669301961E+02  0.27164698342E+02 -0.48412306011E+01  0.30362304950E+02  0.00000000000E+00 0. -1.
        -12    1    6    6    0    0 -0.98300660033E+02  0.57006412483E+02 -0.22145084350E+02  0.11577199829E+03  0.00000000000E+00 0.  1.
</event>
<event>
12    1  0.9962621E-001  0.1978526E+03  0.7818608E-02  0.1151977E+00
         21   -1    0    0  503  502  0.00000000000E+00  0.00000000000E+00  0.19082526898E+03  0.19082526898E+03  0.00000000000E+00 0.  1.
         21   -1    0    0  501  503 -0.00000000000E+00 -0.00000000000E+00 -0.20712642496E+03  0.20712642496E+03  0.00000000000E+00 0.  1.
          6    2    1    2  501    0  0.91654733407E+02 -0.24935935802E+02  0.19452355112E+02  0.19689457992E+03  0.17136712179E+03 0.  0.
         24    2    3    3    0    0  0.66008912052E+02 -0.81416279662E+02  0.24173898118E+02  0.13450771941E+03  0.80759904452E+02 0.  0.
         -6    2    1    2    0  502 -0.91654733407E+02  0.24935935802E+02 -0.35753511096E+02  0.20105711401E+03  0.17356053264E+03 0.  0.
        -24    2    5    5    0    0 -0.30247303407E+02  0.20606107781E+02  0.54198701135E+02  0.91955737511E+02  0.64644005253E+02 0.  0.
          5    1    3    3  501    0  0.25645821355E+02  0.56480343860E+02 -0.47215430058E+01  0.62386860507E+02  0.47000000000E+01 0. -1.
        -13    1    4    4    0    0  0.54316738801E+02 -0.14468978711E+02  0.34221151041E+02  0.65808408563E+02  0.00000000000E+00 0.  1.
         14    1    4    4    0    0  0.11692173250E+02 -0.66947300951E+02 -0.10047252924E+02  0.68699310850E+02  0.00000000000E+00 0. -1.
         -5    1    5    5    0  502 -0.61407429999E+02  0.43298280211E+01 -0.89952212231E+02  0.10910137650E+03  0.47000000000E+01 0.  1.
         11    1    6    6    0    0 -0.45132206950E+02  0.31899933593E+02  0.44172040849E+02  0.70750908546E+02  0.00000000000E+00 0. -1.
        -12    1    6    6    0    0  0.14884903542E+02 -0.11293825812E+02  0.10026660287E+02  0.21204828965E+02  0.00000000000E+00 0.  1.
</event>
<event>
12    1  0.9962621E-001  0.1745938E+03  0.7818608E-02  0.1173713E+00
         21   -1    0    0  503  502  0.00000000000E+00  0.00000000000E+00  0.22224314837E+03  0.22224314837E+03  0.00000000000E+00 0. -1.
         21   -1    0    0  501  503 -0.00000000000E+00 -0.00000000000E+00 -0.20240386567E+03  0.20240386567E+03  0.00000000000E+00 0. -1.
          6    2    1    2  501    0 -0.26749383286E+02  0.40364187836E+01 -0.11229214179E+03  0.20569104274E+03  0.17019828957E+03 0.  0.
         24    2    3    3    0    0  0.14079367373E+01 -0.22092449461E+02  0.28639410854E+01  0.84206204791E+02  0.81193744572E+02 0.  0.
         -6    2    1    2    0  502  0.26749383286E+02 -0.40364187836E+01  0.13213142450E+03  0.21895597130E+03  0.17248530908E+03 0.  0.
        -24    2    5    5    0    0 -0.19263992672E+02 -0.28731619092E+01  0.28147852422E+01  0.81611633518E+02  0.79203404198E+02 0.  0.
          5    1    3    3  501    0 -0.28157320023E+02  0.26128868245E+02 -0.11515608288E+03  0.12148483795E+03  0.47000000000E+01 0. -1.
        -13    1    4    4    0    0 -0.13692788898E+02 -0.47426257520E+02  0.16039804297E+02  0.51903927521E+02  0.00000000000E+00 0.  1.
         14    1    4    4    0    0  0.15100725635E+02  0.25333808059E+02 -0.13175863212E+02  0.32302277270E+02  0.00000000000E+00 0. -1.
         -5    1    5    5    0  502  0.46013375958E+02 -0.11632568744E+01  0.12931663925E+03  0.13734433778E+03  0.47000000000E+01 0.  1.
         11    1    6    6    0    0 -0.99549742282E+01  0.17482509544E+02  0.36201514179E+02  0.41416051003E+02  0.00000000000E+00 0. -1.
        -12    1    6    6    0    0 -0.93090184440E+01 -0.20355671453E+02 -0.33386728936E+02  0.40195582516E+02  0.00000000000E+00 0.  1.
</event>
<event>
12    1  0.9962621E-001  0.1948666E+03  0.7818608E-02  0.1154300E+00
         21   -1    0    0  503  502  0.00000000000E+00  0.00000000000E+00  0.20778809202E+03  0.20778809202E+03  0.00000000000E+00 0.  1.
         21   -1    0    0  501  503 -0.00000000000E+00 -0.00000000000E+00 -0.19836925208E+03  0.19836925208E+03  0.00000000000E+00 0.  1.
          6    2    1    2  501    0  0.54635424060E+02 -0.73725315819E+02  0.62909004075E+02  0.20476942779E+03  0.17190847567E+03 0.  0.
         24    2    3    3    0    0  0.62342385309E+02 -0.67797828537E+01 -0.14667772624E+02  0.10190374877E+03  0.78972729462E+02 0.  0.
         -6    2    1    2    0  502 -0.54635424060E+02  0.73725315819E+02 -0.53490164131E+02  0.20138791631E+03  0.17110068212E+03 0.  0.
        -24    2    5    5    0    0 -0.52471334725E+02  0.83357768916E+02  0.18612701711E+02  0.12846068753E+03  0.80336523254E+02 0.  0.
          5    1    3    3  501    0 -0.77069612494E+01 -0.66945532965E+02  0.77576776699E+02  0.10286567901E+03  0.47000000000E+01 0. -1.
        -11    1    4    4    0    0  0.36556716067E+02  0.13010258726E+02 -0.43615397188E+02  0.58377762835E+02  0.00000000000E+00 0.  1.
         12    1    4    4    0    0  0.25785669242E+02 -0.19790041580E+02  0.28947624564E+02  0.43525985938E+02  0.00000000000E+00 0. -1.
         -5    1    5    5    0  502 -0.21640893348E+01 -0.96324530975E+01 -0.72102865842E+02  0.72927228783E+02  0.47000000000E+01 0.  1.
         13    1    6    6    0    0 -0.40629671840E+02  0.79193610738E+02 -0.17074044282E+02  0.90630685773E+02  0.00000000000E+00 0. -1.
        -14    1    6    6    0    0 -0.11841662886E+02  0.41641581778E+01  0.35686745993E+02  0.37830001755E+02  0.00000000000E+00 0.  1.
</event>
<event>
12    1  0.9962621E-001  0.1764063E+03  0.7818608E-02  0.1171364E+00
         21   -1    0    0  501  502  0.00000000000E+00  0.00000000000E+00  0.12879921581E+03  0.12879921581E+03  0.00000000000E+00 0. -1.
         21   -1    0    0  502  503 -0.00000000000E+00 -0.00000000000E+00 -0.25505995896E+03  0.25505995896E+03  0.00000000000E+00 0. -1.
         -6    2    1    2    0  503  0.14492584580E+01 -0.30409986829E+02 -0.18697310641E+02  0.17724581580E+03  0.17360766730E+03 0.  0.
        -24    2    3    3    0    0 -0.62632007619E+02 -0.26512682499E+01  0.83963270611E+01  0.10219176645E+03  0.80267435621E+02 0.  0.
          6    2    1    2  501    0 -0.14492584580E+01  0.30409986829E+02 -0.10756343251E+03  0.20661335897E+03  0.17375937512E+03 0.  0.
         24    2    5    5    0    0 -0.14696796716E+02 -0.36902600017E+02 -0.10531716142E+03  0.13781207009E+03  0.79515183769E+02 0.  0.
          5    1    5    5  501    0  0.13247538258E+02  0.67312586846E+02 -0.22462710845E+01  0.68801288880E+02  0.47000000000E+01 0. -1.
        -13    1    6    6    0    0 -0.10188695849E+02  0.24557186481E+02 -0.39834256849E+02  0.47891888141E+02  0.00000000000E+00 0.  1.
         14    1    6    6    0    0 -0.45081008670E+01 -0.61459786498E+02 -0.65482904575E+02  0.89920181947E+02  0.00000000000E+00 0. -1.
         -5    1    3    3    0  503  0.64081266077E+02 -0.27758718579E+02 -0.27093637702E+02  0.75054049346E+02  0.47000000000E+01 0.  1.
         11    1    4    4    0    0 -0.14329139917E+02 -0.32768932575E+02  0.24118489909E+02  0.43137324307E+02  0.00000000000E+00 0. -1.
        -12    1    4    4    0    0 -0.48302867703E+02  0.30117664325E+02 -0.15722162847E+02  0.59054442147E+02  0.00000000000E+00 0.  1.
</event>
<event>
12    1  0.9962621E-001  0.1865086E+03  0.7818608E-02  0.1164074E+00
         21   -1    0    0  503  502  0.00000000000E+00  0.00000000000E+00  0.62397507960E+03  0.62397507960E+03  0.00000000000E+00 0.  1.
         21   -1    0    0  501  503 -0.00000000000E+00 -0.00000000000E+00 -0.67084914012E+02  0.67084914012E+02  0.00000000000E+00 0.  1.
          6    2    1    2  501    0 -0.12876990302E+02 -0.65295926327E+02  0.11258960872E+03  0.20920062904E+03  0.16327617194E+03 0.  0.
         24    2    3    3    0    0  0.26831799657E+02 -0.26446163202E+01  0.13031546654E+02  0.84959442760E+02  0.79506894277E+02 0.  0.
         -6    2    1    2    0  502  0.12876990302E+02  0.65295926327E+02  0.44430055686E+03  0.48185936457E+03  0.17422998456E+03 0.  0.
        -24    2    5    5    0    0  0.25620964195E+02  0.15997009633E+02  0.41467889680E+03  0.42276346959E+03  0.76537740045E+02 0.  0.
          5    1    3    3  501    0 -0.39708789959E+02 -0.62651310006E+02  0.99558062070E+02  0.12424118628E+03  0.47000000000E+01 0. -1.
        -13    1    4    4    0    0  0.12308090932E+02  0.22245313263E+02  0.38742680089E+02  0.46339382010E+02  0.00000000000E+00 0.  1.
         14    1    4    4    0    0  0.14523708724E+02 -0.24889929583E+02 -0.25711133435E+02  0.38620060750E+02  0.00000000000E+00 0. -1.
         -5    1    5    5    0  502 -0.12743973893E+02  0.49298916694E+02  0.29621660064E+02  0.59095894973E+02  0.47000000000E+01 0.  1.
         13    1    6    6    0    0  0.22205220287E+02 -0.20717955130E+02  0.31538818875E+03  0.31684699000E+03  0.00000000000E+00 0. -1.
        -14    1    6    6    0    0  0.34157439087E+01  0.36714964763E+02  0.99290708049E+02  0.10591647959E+03  0.00000000000E+00 0.  1.
</event>
<event>
12    1  0.9962621E-001  0.2767364E+03  0.7818608E-02  0.1097825E+00
         21   -1    0    0  503  502  0.00000000000E+00  0.00000000000E+00  0.32699934668E+03  0.32699934668E+03  0.00000000000E+00 0. -1.
         21   -1    0    0  501  503 -0.00000000000E+00 -0.00000000000E+00 -0.23270605868E+03  0.23270605868E+03  0.00000000000E+00 0. -1.
          6    2    1    2  501    0 -0.20916919939E+03 -0.35621022969E+02  0.61156360930E+02  0.28341334771E+03  0.17765813780E+03 0.  0.
         24    2    3    3    0    0 -0.17561097851E+03  0.33982990455E+02  0.22084290538E+02  0.19669778072E+03  0.78792395825E+02 0.  0.
         -6    2    1    2    0  502  0.20916919939E+03  0.35621022969E+02  0.33136927068E+02  0.27629205765E+03  0.17383507682E+03 0.  0.
        -24    2    5    5    0    0  0.49819166892E+02  0.50635402608E+02  0.48431392992E+02  0.11543847472E+03  0.77036019051E+02 0.  0.
          5    1    3    3  501    0 -0.33558220888E+02 -0.69604013424E+02  0.39072070392E+02  0.86715566991E+02  0.47000000000E+01 0. -1.
        -13    1    4    4    0    0 -0.52769496180E+02  0.12493451315E+02  0.44305746931E+02  0.70026461170E+02  0.00000000000E+00 0.  1.
         14    1    4    4    0    0 -0.12284148233E+03  0.21489539140E+02 -0.22221456394E+02  0.12667131955E+03  0.00000000000E+00 0. -1.
         -5    1    5    5    0  502  0.15935003250E+03 -0.15014379639E+02 -0.15294465924E+02  0.16085358293E+03  0.47000000000E+01 0.  1.
         11    1    6    6    0    0  0.37551444451E+02  0.66637177123E+02  0.55024382858E+02  0.94224768846E+02  0.00000000000E+00 0. -1.
        -12    1    6    6    0    0  0.12267722441E+02 -0.16001774514E+02 -0.65929898657E+01  0.21213705873E+02  0.00000000000E+00 0.  1.
</event>
<event>
12    1  0.9962621E-001  0.2867736E+03  0.7818608E-02  0.1092441E+00
         21   -1    0    0  503  502  0.00000000000E+00  0.00000000000E+00  0.87043893732E+02  0.87043893732E+02  0.00000000000E+00 0.  1.
         21   -1    0    0  501  503 -0.00000000000E+00 -0.00000000000E+00 -0.10433353702E+04  0.10433353702E+04  0.00000000000E+00 0.  1.
          6    2    1    2  501    0 -0.19030392945E+03  0.12740185434E+03 -0.65799121094E+03  0.71658930443E+03  0.16763346768E+03 0.  0.
         24    2    3    3    0    0 -0.12343651305E+03  0.55019409165E+02 -0.54863854910E+03  0.56931213580E+03  0.69630038594E+02 0.  0.
         -6    2    1    2    0  502  0.19030392945E+03 -0.12740185434E+03 -0.29830026548E+03  0.41378995946E+03  0.17260435716E+03 0.  0.
        -24    2    5    5    0    0  0.13087149806E+03 -0.13437508613E+03 -0.14988749008E+03  0.25369848010E+03  0.81930741156E+02 0.  0.
          5    1    3    3  501    0 -0.66867416399E+02  0.72382445175E+02 -0.10935266184E+03  0.14727716862E+03  0.47000000000E+01 0. -1.
        -13    1    4    4    0    0 -0.94293944008E+02  0.66172082493E+02 -0.35631219455E+03  0.37447092325E+03  0.00000000000E+00 0.  1.
         14    1    4    4    0    0 -0.29142569046E+02 -0.11152673328E+02 -0.19232635455E+03  0.19484121255E+03  0.00000000000E+00 0. -1.
         -5    1    5    5    0  502  0.59432431396E+02  0.69732317851E+01 -0.14841277540E+03  0.16009147936E+03  0.47000000000E+01 0.  1.
         13    1    6    6    0    0  0.13896734611E+03 -0.11525113954E+03 -0.14682573839E+03  0.23270699582E+03  0.00000000000E+00 0. -1.
        -14    1    6    6    0    0 -0.80958480546E+01 -0.19123946585E+02 -0.30617516917E+01  0.20991484277E+02  0.00000000000E+00 0.  1.
</event>
<event>
12    1  0.9962621E-001  0.2826148E+03  0.7818608E-02  0.1094373E+00
         21   -1    0    0  501  502  0.00000000000E+00  0.00000000000E+00  0.19863959689E+03  0.19863959689E+03  0.00000000000E+00 0. -1.
         21   -1    0    0  502  503 -0.00000000000E+00 -0.00000000000E+00 -0.43088574180E+03  0.43088574180E+03  0.00000000000E+00 0. -1.
         -6    2    1    2    0  503 -0.81945976134E+02 -0.20844454256E+03 -0.33086945638E+02  0.28378628496E+03  0.17110125433E+03 0.  0.
        -24    2    3    3    0    0 -0.33036041140E+02 -0.63118388307E+02 -0.66324613034E+02  0.12681907379E+03  0.81294601452E+02 0.  0.
          6    2    1    2  501    0  0.81945976134E+02  0.20844454256E+03 -0.19915919928E+03  0.34573905373E+03  0.17235671235E+03 0.  0.
         24    2    5    5    0    0  0.58488882192E+01  0.79096281377E+02 -0.37517364277E+02  0.12512193680E+03  0.89204905840E+02 0.  0.
          5    1    5    5  501    0  0.76097087915E+02  0.12934826118E+03 -0.16164183500E+03  0.22061711693E+03  0.47000000000E+01 0. -1.
        -11    1    6    6    0    0  0.42919840270E+02  0.67484157245E+02 -0.30779634000E+02  0.85694865873E+02  0.00000000000E+00 0.  1.
         12    1    6    6    0    0 -0.37070952051E+02  0.11612124132E+02 -0.67377302772E+01  0.39427070929E+02  0.00000000000E+00 0. -1.
         -5    1    3    3    0  503 -0.48909934994E+02 -0.14532615425E+03  0.33237667396E+02  0.15696721117E+03  0.47000000000E+01 0.  1.
         13    1    4    4    0    0  0.29771188739E+01 -0.71134471297E+02 -0.43332707622E+02  0.83346864328E+02  0.00000000000E+00 0. -1.
        -14    1    4    4    0    0 -0.36013160014E+02  0.80160829902E+01 -0.22991905411E+02  0.43472209458E+02  0.00000000000E+00 0.  1.
</event>
<event>
12    1  0.9962621E-001  0.1981570E+03  0.7818608E-02  0.1152423E+00
         21   -1    0    0  503  502  0.00000000000E+00  0.00000000000E+00  0.74452023469E+02  0.74452023469E+02  0.00000000000E+00 0. -1.
         21   -1    0    0  501  503 -0.00000000000E+00 -0.00000000000E+00 -0.58502228337E+03  0.58502228337E+03  0.00000000000E+00 0. -1.
          6    2    1    2  501    0 -0.79685316704E+02  0.20139791245E+02 -0.37334731228E+03  0.42267529081E+03  0.18030758438E+03 0.  0.
         24    2    3    3    0    0  0.18389441242E+02  0.40348647180E+02 -0.23668539424E+03  0.25318893193E+03  0.78220678380E+02 0.  0.
         -6    2    1    2    0  502  0.79685316704E+02 -0.20139791245E+02 -0.13722294761E+03  0.23679901602E+03  0.17460892230E+03 0.  0.
        -24    2    5    5    0    0  0.17533677774E+02 -0.57031421146E+02 -0.24255255679E+02  0.10260658703E+03  0.79873533909E+02 0.  0.
          5    1    3    3  501    0 -0.98074757946E+02 -0.20208855935E+02 -0.13666191804E+03  0.16948635888E+03  0.47000000000E+01 0. -1.
        -13    1    4    4    0    0  0.13171878104E+02 -0.10750538631E+02 -0.79713447167E+01  0.18778040106E+02  0.00000000000E+00 0.  1.
         14    1    4    4    0    0  0.52175631381E+01  0.51099185812E+02 -0.22871404952E+03  0.23441089182E+03  0.00000000000E+00 0. -1.
         -5    1    5    5    0  502  0.62151638930E+02  0.36891629901E+02 -0.11296769194E+03  0.13419242900E+03  0.47000000000E+01 0.  1.
         13    1    6    6    0    0 -0.28031284924E+02 -0.43865033093E+02 -0.16035707309E+02  0.54470523879E+02  0.00000000000E+00 0. -1.
        -14    1    6    6    0    0  0.45564962698E+02 -0.13166388053E+02 -0.82195483703E+01  0.48136063149E+02  0.00000000000E+00 0.  1.
</event>
<event>
12    1  0.9962621E-001  0.2504520E+03  0.7818608E-02  0.1114153E+00
         21   -1    0    0  501  502  0.00000000000E+00  0.00000000000E+00  0.13921905118E+04  0.13921905118E+04  0.00000000000E+00 0.  1.
         21   -1    0    0  502  503 -0.00000000000E+00 -0.00000000000E+00 -0.44846650102E+02  0.44846650102E+02  0.00000000000E+00 0.  1.
         -6    2    1    2    0  503 -0.11011083296E+03  0.14352873140E+03  0.79331738983E+03  0.83191267390E+03  0.17320890195E+03 0.  0.
        -24    2    3    3    0    0 -0.10449006124E+03  0.14000078214E+03  0.79915304071E+03  0.82190346204E+03  0.79757924609E+02 0.  0.
          6    2    1    2  501    0  0.11011083296E+03 -0.14352873140E+03  0.55402647183E+03  0.60512448797E+03  0.16280485918E+03 0.  0.
         24    2    5    5    0    0  0.72724863164E+02 -0.30696281296E+02  0.17601143960E+03  0.20883377760E+03  0.80002202386E+02 0.  0.
          5    1    5    5  501    0  0.37385969793E+02 -0.11283245011E+03  0.37801503223E+03  0.39629071037E+03  0.47000000000E+01 0. -1.
        -13    1    6    6    0    0  0.44602095510E+02 -0.42036888350E+02  0.49626776101E+02  0.78862309199E+02  0.00000000000E+00 0.  1.
         14    1    6    6    0    0  0.28122767655E+02  0.11340607054E+02  0.12638466350E+03  0.12997146840E+03  0.00000000000E+00 0. -1.
         -5    1    3    3    0  503 -0.56207717218E+01  0.35279492672E+01 -0.58356508839E+01  0.10009211858E+02  0.47000000000E+01 0.  1.
         13    1    4    4    0    0 -0.33459471330E+02  0.87760043908E+01  0.26681945862E+03  0.26905237031E+03  0.00000000000E+00 0. -1.
        -14    1    4    4    0    0 -0.71030589905E+02  0.13122477774E+03  0.53233358209E+03  0.55285109172E+03  0.00000000000E+00 0.  1.
</event>
<event>
12    1  0.9962621E-001  0.1985743E+03  0.7818608E-02  0.1151101E+00
         21   -1    0    0  501  502  0.00000000000E+00  0.00000000000E+00  0.16148262872E+04  0.16148262872E+04  0.00000000000E+00 0.  1.
         21   -1    0    0  502  503 -0.00000000000E+00 -0.00000000000E+00 -0.31977405666E+02  0.31977405666E+02  0.00000000000E+00 0.  1.
         -6    2    1    2    0  503  0.95421554295E+02  0.29469312278E+02  0.38985361829E+03  0.43751298831E+03  0.17163349864E+03 0.  0.
        -24    2    3    3    0    0 -0.18320557936E+02  0.72572540756E+01  0.13219627351E+03  0.15495318766E+03  0.78398501618E+02 0.  0.
          6    2    1    2  501    0 -0.95421554295E+02 -0.29469312278E+02  0.11929952632E+04  0.12092907045E+04  0.17079987299E+03 0.  0.
         24    2    5    5    0    0 -0.10885632887E+03 -0.32761104552E+02  0.11839323454E+04  0.11920989756E+04  0.80505768844E+02 0.  0.
          5    1    5    5  501    0  0.13434774577E+02  0.32917922744E+01  0.90629178048E+01  0.17191728925E+02  0.47000000000E+01 0. -1.
        -13    1    6    6    0    0  0.10078704276E+02 -0.15113877921E+02  0.20691244095E+03  0.20770837202E+03  0.00000000000E+00 0.  1.
         14    1    6    6    0    0 -0.11893503315E+03 -0.17647226631E+02  0.97701990444E+03  0.98439060357E+03  0.00000000000E+00 0. -1.
         -5    1    3    3    0  503  0.11374211223E+03  0.22212058202E+02  0.25765734478E+03  0.28255980065E+03  0.47000000000E+01 0.  1.
         13    1    4    4    0    0  0.15658767971E+02  0.33711806766E+02  0.70735940792E+02  0.79907798427E+02  0.00000000000E+00 0. -1.
        -14    1    4    4    0    0 -0.33979325907E+02 -0.26454552690E+02  0.61460332719E+02  0.75045389233E+02  0.00000000000E+00 0.  1.
</event>
<event>
12    1  0.9962621E-001  0.2496950E+03  0.7818608E-02  0.1113608E+00
         21   -1    0    0  501  502  0.00000000000E+00  0.00000000000E+00  0.19301703923E+04  0.19301703923E+04  0.00000000000E+00 0.  1.
         21   -1    0    0  502  503 -0.00000000000E+00 -0.00000000000E+00 -0.67832299040E+02  0.67832299040E+02  0.00000000000E+00 0.  1.
         -6    2    1    2    0  503 -0.73458211167E+02  0.16661005105E+03  0.16557131539E+04  0.16744353195E+04  0.17085834284E+03 0.  0.
        -24    2    3    3    0    0 -0.16929411261E+02  0.29732466372E+02  0.33657144298E+03  0.34699872144E+03  0.77182588242E+02 0.  0.
          6    2    1    2  501    0  0.73458211167E+02 -0.16661005105E+03  0.20662493937E+03  0.32356737184E+03  0.16984393028E+03 0.  0.
         24    2    5    5    0    0  0.77491446411E+02 -0.12035483543E+03  0.68271796779E+02  0.17755540650E+03  0.79841552237E+02 0.  0.
          5    1    5    5  501    0 -0.40332352437E+01 -0.46255215615E+02  0.13835314259E+03  0.14601196534E+03  0.47000000000E+01 0. -1.
        -13    1    6    6    0    0  0.42996862879E+02 -0.11170202839E+03  0.26307502633E+02  0.12254859469E+03  0.00000000000E+00 0.  1.
         14    1    6    6    0    0  0.34494583532E+02 -0.86528070354E+01  0.41964294147E+02  0.55006811814E+02  0.00000000000E+00 0. -1.
         -5    1    3    3    0  503 -0.56528799907E+02  0.13687758467E+03  0.13191417109E+04  0.13274365980E+04  0.47000000000E+01 0.  1.
         11    1    4    4    0    0 -0.40693016193E+02  0.23316129137E+01  0.24736663932E+03  0.25070223819E+03  0.00000000000E+00 0. -1.
        -12    1    4    4    0    0  0.23763604933E+02  0.27400853459E+02  0.89204803662E+02  0.96296483249E+02  0.00000000000E+00 0.  1.
</event>
<event>
12    1  0.9962621E-001  0.1776192E+03  0.7818608E-02  0.1170251E+00
         21   -1    0    0  501  502  0.00000000000E+00  0.00000000000E+00  0.10333001990E+04  0.10333001990E+04  0.00000000000E+00 0.  1.
         21   -1    0    0  502  503 -0.00000000000E+00 -0.00000000000E+00 -0.30746906258E+02  0.30746906258E+02  0.00000000000E+00 0.  1.
         -6    2    1    2    0  503 -0.43178889665E+02  0.34010542815E+01  0.55465189365E+03  0.58239787714E+03  0.17225730895E+03 0.  0.
        -24    2    3    3    0    0  0.14926068618E+02 -0.20163783259E+02  0.12914642786E+03  0.15227175707E+03  0.76671523360E+02 0.  0.
          6    2    1    2  501    0  0.43178889665E+02 -0.34010542815E+01  0.44790139905E+03  0.48164922807E+03  0.17173913925E+03 0.  0.
         24    2    5    5    0    0  0.27932805635E+02  0.31087420476E+02  0.43075770556E+03  0.43996116988E+03  0.79164138088E+02 0.  0.
          5    1    5    5  501    0  0.15246084030E+02 -0.34488474758E+02  0.17143693486E+02  0.41688058191E+02  0.47000000000E+01 0. -1.
        -11    1    6    6    0    0 -0.87765249994E+01  0.89650516979E+00  0.31087576485E+03  0.31100092007E+03  0.00000000000E+00 0.  1.
         12    1    6    6    0    0  0.36709330634E+02  0.30190915307E+02  0.11988194071E+03  0.12896024981E+03  0.00000000000E+00 0. -1.
         -5    1    3    3    0  503 -0.58104958283E+02  0.23564837541E+02  0.42550546579E+03  0.43012612007E+03  0.47000000000E+01 0.  1.
         11    1    4    4    0    0  0.28756022362E+02 -0.25316159888E+02  0.13181855536E+03  0.13727326146E+03  0.00000000000E+00 0. -1.
        -12    1    4    4    0    0 -0.13829953743E+02  0.51523766282E+01 -0.26721275017E+01  0.14998495619E+02  0.00000000000E+00 0.  1.
</event>
<event>
12    1  0.9962621E-001  0.2826168E+03  0.7818608E-02  0.1094467E+00
         21   -1    0    0  503  502  0.00000000000E+00  0.00000000000E+00  0.31820798758E+03  0.31820798758E+03  0.00000000000E+00 0. -1.
         21   -1    0    0  501  503 -0.00000000000E+00 -0.00000000000E+00 -0.25416721948E+03  0.25416721948E+03  0.00000000000E+00 0. -1.
          6    2    1    2  501    0 -0.21855380672E+03 -0.43581680176E+02  0.69872131176E+02  0.28969823253E+03  0.17139959724E+03 0.  0.
         24    2    3    3    0    0 -0.17233452969E+03 -0.80201894249E+02  0.92770203412E+02  0.22626580107E+03  0.80363972823E+02 0.  0.
         -6    2    1    2    0  502  0.21855380672E+03  0.43581680176E+02 -0.58313630795E+01  0.28267697453E+03  0.17380200763E+03 0.  0.
        -24    2    5    5    0    0  0.16368742195E+03  0.28488555784E+02  0.61652123268E+02  0.19427882121E+03  0.79612223624E+02 0.  0.
          5    1    3    3  501    0 -0.46219277033E+02  0.36620214073E+02 -0.22898072236E+02  0.63432431455E+02  0.47000000000E+01 0. -1.
        -13    1    4    4    0    0 -0.55406180500E+02 -0.13638206383E+02 -0.87342881804E+01  0.57724633399E+02  0.00000000000E+00 0.  1.
         14    1    4    4    0    0 -0.11692834919E+03 -0.66563687866E+02  0.10150449159E+03  0.16854116767E+03  0.00000000000E+00 0. -1.
         -5    1    5    5    0  502  0.54866384769E+02  0.15093124392E+02 -0.67483486347E+02  0.88398153324E+02  0.47000000000E+01 0.  1.
         13    1    6    6    0    0  0.86392666826E+02 -0.13423853968E+02  0.60542226460E+02  0.10634497600E+03  0.00000000000E+00 0. -1.
        -14    1    6    6    0    0  0.77294755129E+02  0.41912409752E+02  0.11098968075E+01  0.87933845205E+02  0.00000000000E+00 0.  1.
</event>
<event>
12    1  0.9962621E-001  0.2001775E+03  0.7818608E-02  0.1149652E+00
         21   -1    0    0  501  502  0.00000000000E+00  0.00000000000E+00  0.78071520958E+03  0.78071520958E+03  0.00000000000E+00 0. -1.
         21   -1    0    0  502  503 -0.00000000000E+00 -0.00000000000E+00 -0.51251359508E+02  0.51251359508E+02  0.00000000000E+00 0. -1.
         -6    2    1    2    0  503 -0.10098912785E+03 -0.15844573604E+02  0.36314255917E+03  0.41466074923E+03  0.17210800158E+03 0.  0.
        -24    2    3    3    0    0 -0.43465415595E+01 -0.16447371210E+01  0.70765411743E+02  0.10636233668E+03  0.79269196919E+02 0.  0.
          6    2    1    2  501    0  0.10098912785E+03  0.15844573604E+02  0.36632129090E+03  0.41730581986E+03  0.17176438708E+03 0.  0.
         24    2    5    5    0    0  0.56669743068E+02  0.34174630091E+02  0.88939162893E+02  0.13576872857E+03  0.78381170182E+02 0.  0.
          5    1    5    5  501    0  0.44319384785E+02 -0.18330056487E+02  0.27738212801E+03  0.28153709130E+03  0.47000000000E+01 0. -1.
        -11    1    6    6    0    0 -0.38130411720E+01 -0.19955424292E+02  0.26344008504E+02  0.33268078179E+02  0.00000000000E+00 0.  1.
         12    1    6    6    0    0  0.60482784240E+02  0.54130054382E+02  0.62595154390E+02  0.10250065039E+03  0.00000000000E+00 0. -1.
         -5    1    3    3    0  503 -0.96642586293E+02 -0.14199836483E+02  0.29237714743E+03  0.30829841255E+03  0.47000000000E+01 0.  1.
         13    1    4    4    0    0 -0.31932207935E+02 -0.27068705272E+02  0.35878053928E+02  0.55132707736E+02  0.00000000000E+00 0. -1.
        -14    1    4    4    0    0  0.27585666376E+02  0.25423968151E+02  0.34887357816E+02  0.51229628940E+02  0.00000000000E+00 0.  1.
</event>
<event>
12    1  0.1386057E+000  0.2146267E+03  0.7818608E-02  0.1138180E+00
         21   -1    0    0  501  502  0.00000000000E+00  0.00000000000E+00  0.33332805205E+03  0.33332805205E+03  0.00000000000E+00 0. -1.
         21   -1    0    0  502  503 -0.00000000000E+00 -0.00000000000E+00 -0.23897967500E+03  0.23897967500E+03  0.00000000000E+00 0. -1.
         -6    2    1    2    0  503 -0.12538894258E+03  0.17634476040E+02  0.23376977161E+03  0.31735300019E+03  0.17329529406E+03 0.  0.
        -24    2    3    3    0    0 -0.15034601862E+03  0.43575108688E+02  0.21088886375E+03  0.27444148645E+03  0.79632287536E+02 0.  0.
          6    2    1    2  501    0  0.12538894258E+03 -0.17634476040E+02 -0.13942139456E+03  0.25495472687E+03  0.17184360863E+03 0.  0.
         24    2    5    5    0    0  0.14591688955E+03 -0.10732583030E+02 -0.66179924902E+02  0.17843390871E+03  0.77794282074E+02 0.  0.
          5    1    5    5  501    0 -0.20527946973E+02 -0.69018930095E+01 -0.73241469654E+02  0.76520818155E+02  0.47000000000E+01 0. -1.
        -11    1    6    6    0    0  0.20729217812E+02 -0.52424891733E+01  0.17603962736E+02  0.27696275343E+02  0.00000000000E+00 0.  1.
         12    1    6    6    0    0  0.12518767174E+03 -0.54900938568E+01 -0.83783887639E+02  0.15073763337E+03  0.00000000000E+00 0. -1.
         -5    1    3    3    0  503  0.24957076042E+02 -0.25940632648E+02  0.22880907854E+02  0.42911513734E+02  0.47000000000E+01 0.  1.
         13    1    4    4    0    0 -0.29621659660E+02  0.22916782094E+01  0.10348479630E+03  0.10766521061E+03  0.00000000000E+00 0. -1.
        -14    1    4    4    0    0 -0.12072435896E+03  0.41283430478E+02  0.10740406745E+03  0.16677627584E+03  0.00000000000E+00 0.  1.
</event>
<event>
12    1  0.9962621E-001  0.1926062E+03  0.7818608E-02  0.1156373E+00
         21   -1    0    0  503  502  0.00000000000E+00  0.00000000000E+00  0.40171454608E+02  0.40171454608E+02  0.00000000000E+00 0.  1.
         21   -1    0    0  501  503 -0.00000000000E+00 -0.00000000000E+00 -0.94123601416E+03  0.94123601416E+03  0.00000000000E+00 0.  1.
          6    2    1    2  501    0  0.75270011330E+02  0.40297695297E+02 -0.52594043193E+03  0.55972599977E+03  0.17143622147E+03 0.  0.
         24    2    3    3    0    0  0.30577640529E+02 -0.17942927246E+02 -0.43231310850E+03  0.44065650824E+03  0.77631138924E+02 0.  0.
         -6    2    1    2    0  502 -0.75270011330E+02 -0.40297695297E+02 -0.37512412762E+03  0.42168146900E+03  0.17264898297E+03 0.  0.
        -24    2    5    5    0    0 -0.10589689359E+03 -0.89011655354E+01 -0.18434959701E+03  0.22587350305E+03  0.75767292704E+02 0.  0.
          5    1    3    3  501    0  0.44692370801E+02  0.58240622544E+02 -0.93627323425E+02  0.11906949153E+03  0.47000000000E+01 0. -1.
        -13    1    4    4    0    0  0.33422966092E+02 -0.45122026699E+02 -0.24446783158E+03  0.25083383470E+03  0.00000000000E+00 0.  1.
         14    1    4    4    0    0 -0.28453255626E+01  0.27179099453E+02 -0.18784527693E+03  0.18982267354E+03  0.00000000000E+00 0. -1.
         -5    1    5    5    0  502  0.30626882255E+02 -0.31396529762E+02 -0.19077453061E+03  0.19580796595E+03  0.47000000000E+01 0.  1.
         11    1    6    6    0    0 -0.83974969895E+02 -0.12726254311E+02 -0.18504872268E+03  0.20360938800E+03  0.00000000000E+00 0. -1.
        -12    1    6    6    0    0 -0.21921923690E+02  0.38250887758E+01  0.69912566266E+00  0.22264115053E+02  0.00000000000E+00 0.  1.
</event>
<event>
12    1  0.9962621E-001  0.2172933E+03  0.7818608E-02  0.1135994E+00
         21   -1    0    0  503  502  0.00000000000E+00  0.00000000000E+00  0.68241054162E+03  0.68241054162E+03  0.00000000000E+00 0. -1.
         21   -1    0    0  501  503 -0.00000000000E+00 -0.00000000000E+00 -0.13081289341E+03  0.13081289341E+03  0.00000000000E+00 0. -1.
          6    2    1    2  501    0 -0.10374633998E+03  0.82956989727E+02 -0.34339528132E+01  0.21732039223E+03  0.17196277400E+03 0.  0.
         24    2    3    3    0    0 -0.13585077071E+03  0.55339665111E+02  0.20494934889E+02  0.16845227626E+03  0.80238498138E+02 0.  0.
         -6    2    1    2    0  502  0.10374633998E+03 -0.82956989727E+02  0.55503160103E+03  0.59590304281E+03  0.17145026416E+03 0.  0.
        -24    2    5    5    0    0 -0.36872833761E+01 -0.23739379003E+02  0.32273564850E+03  0.33316323156E+03  0.79134606099E+02 0.  0.
          5    1    3    3  501    0  0.32104430732E+02  0.27617324616E+02 -0.23928887703E+02  0.48868115968E+02  0.47000000000E+01 0. -1.
        -13    1    4    4    0    0 -0.13272346555E+03  0.39667151920E+02 -0.47137764875E+01  0.13860454876E+03  0.00000000000E+00 0.  1.
         14    1    4    4    0    0 -0.31273051587E+01  0.15672513191E+02  0.25208711377E+02  0.29847727494E+02  0.00000000000E+00 0. -1.
         -5    1    5    5    0  502  0.10743362335E+03 -0.59217610725E+02  0.23229595254E+03  0.26273981124E+03  0.47000000000E+01 0.  1.
         13    1    6    6    0    0 -0.18042062130E+02 -0.37361676234E+02  0.84797394591E+02  0.94403437365E+02  0.00000000000E+00 0. -1.
        -14    1    6    6    0    0  0.14354778754E+02  0.13622297232E+02  0.23793825390E+03  0.23875979420E+03  0.00000000000E+00 0.  1.
</event>
<event>
12    1  0.9962621E-001  0.2677827E+03  0.7818608E-02  0.1102561E+00
         21   -1    0    0  503  502  0.00000000000E+00  0.00000000000E+00  0.10414215759E+03  0.10414215759E+03  0.00000000000E+00 0. -1.
         21   -1    0    0  501  503 -0.00000000000E+00 -0.00000000000E+00 -0.70973881971E+03  0.70973881971E+03  0.00000000000E+00 0. -1.
          6    2    1    2  501    0  0.19060403313E+03  0.74265904937E+02 -0.23234837620E+03  0.35453256967E+03  0.17280698178E+03 0.  0.
         24    2    3    3    0    0  0.20300308667E+03  0.33538967884E+02 -0.16973059115E+03  0.27866757817E+03  0.80697149818E+02 0.  0.
         -6    2    1    2    0  502 -0.19060403313E+03 -0.74265904937E+02 -0.37324828592E+03  0.45934840763E+03  0.17274650379E+03 0.  0.
        -24    2    5    5    0    0 -0.13732582060E+03  0.15911520733E+02 -0.18780989096E+03  0.24632253044E+03  0.79313784188E+02 0.  0.
          5    1    3    3  501    0 -0.12399053536E+02  0.40726937053E+02 -0.62617785053E+02  0.75864991500E+02  0.47000000000E+01 0. -1.
        -13    1    4    4    0    0  0.49574457461E+02 -0.26271267447E+02 -0.48808309239E+02  0.74364355551E+02  0.00000000000E+00 0.  1.
         14    1    4    4    0    0  0.15342862921E+03  0.59810235330E+02 -0.12092228191E+03  0.20430322262E+03  0.00000000000E+00 0. -1.
         -5    1    5    5    0  502 -0.53278212531E+02 -0.90177425670E+02 -0.18543839495E+03  0.21302587719E+03  0.47000000000E+01 0.  1.
         13    1    6    6    0    0 -0.98902556137E+02 -0.24672961599E+02 -0.10431601154E+03  0.14585026879E+03  0.00000000000E+00 0. -1.
        -14    1    6    6    0    0 -0.38423264463E+02  0.40584482331E+02 -0.83493879425E+02  0.10047226164E+03  0.00000000000E+00 0.  1.
</event>
<event>
12    1  0.9962621E-001  0.1945167E+03  0.7818608E-02  0.1154632E+00
         21   -1    0    0  501  502  0.00000000000E+00  0.00000000000E+00  0.48585162072E+03  0.48585162072E+03  0.00000000000E+00 0. -1.
         21   -1    0    0  502  503 -0.00000000000E+00 -0.00000000000E+00 -0.81796053373E+02  0.81796053373E+02  0.00000000000E+00 0. -1.
         -6    2    1    2    0  503 -0.86250959777E+02 -0.21044852662E+02  0.26632359411E+03  0.32930580382E+03  0.17213930916E+03 0.  0.
        -24    2    3    3    0    0 -0.40967197992E+02 -0.70868568899E+02  0.21681782474E+03  0.24560435232E+03  0.81307216062E+02 0.  0.
          6    2    1    2  501    0  0.86250959777E+02  0.21044852662E+02  0.13773197323E+03  0.23834187027E+03  0.17307407891E+03 0.  0.
         24    2    5    5    0    0  0.10779843851E+03  0.42530488833E+02  0.56927652952E+02  0.15187017215E+03  0.79965278042E+02 0.  0.
          5    1    5    5  501    0 -0.21547478731E+02 -0.21485636171E+02  0.80804320278E+02  0.86471698126E+02  0.47000000000E+01 0. -1.
        -13    1    6    6    0    0  0.26815763698E+02 -0.23062936332E+02  0.23342150844E+02  0.42377355049E+02  0.00000000000E+00 0.  1.
         14    1    6    6    0    0  0.80982674810E+02  0.65593425165E+02  0.33585502108E+02  0.10949281710E+03  0.00000000000E+00 0. -1.
         -5    1    3    3    0  503 -0.45283761785E+02  0.49823716237E+02  0.49505769373E+02  0.83701451495E+02  0.47000000000E+01 0.  1.
         13    1    4    4    0    0  0.23674313952E+02 -0.21900714997E+02  0.42543901858E+02  0.53386309516E+02  0.00000000000E+00 0. -1.
        -14    1    4    4    0    0 -0.64641511943E+02 -0.48967853903E+02  0.17427392288E+03  0.19221804280E+03  0.00000000000E+00 0.  1.
</event>
<event>
12    1  0.9962621E-001  0.2168355E+03  0.7818608E-02  0.1136355E+00
         21   -1    0    0  501  502  0.00000000000E+00  0.00000000000E+00  0.13100047188E+03  0.13100047188E+03  0.00000000000E+00 0. -1.
         21   -1    0    0  502  503 -0.00000000000E+00 -0.00000000000E+00 -0.37145567649E+03  0.37145567649E+03  0.00000000000E+00 0. -1.
         -6    2    1    2    0  503  0.96349753134E+02  0.89355652051E+02 -0.72514663867E+02  0.22819043980E+03  0.17188598797E+03 0.  0.
        -24    2    3    3    0    0  0.83809396341E+02  0.12505659686E+03 -0.36153526387E+02  0.17550229761E+03  0.82648724505E+02 0.  0.
          6    2    1    2  501    0 -0.96349753134E+02 -0.89355652051E+02 -0.16794054074E+03  0.27426570857E+03  0.17248172711E+03 0.  0.
         24    2    5    5    0    0 -0.47138453779E+02 -0.91368380456E+02 -0.18138776907E+03  0.22299465426E+03  0.79087788510E+02 0.  0.
          5    1    5    5  501    0 -0.49211299355E+02  0.20127284052E+01  0.13447228321E+02  0.51271054303E+02  0.47000000000E+01 0. -1.
        -13    1    6    6    0    0 -0.44550781187E+02 -0.19657492720E+02 -0.35008909177E+02  0.59973434504E+02  0.00000000000E+00 0.  1.
         14    1    6    6    0    0 -0.25876725915E+01 -0.71710887736E+02 -0.14637885989E+03  0.16302121976E+03  0.00000000000E+00 0. -1.
         -5    1    3    3    0  503  0.12540356793E+02 -0.35700944811E+02 -0.36361137480E+02  0.52688142193E+02  0.47000000000E+01 0.  1.
         13    1    4    4    0    0  0.36172085906E+02  0.10256722878E+03 -0.51917587329E+02  0.12051511147E+03  0.00000000000E+00 0. -1.
        -14    1    4    4    0    0  0.47637310435E+02  0.22489368081E+02  0.15764060942E+02  0.54987186140E+02  0.00000000000E+00 0.  1.
</event>
<event>
12    1  0.9962621E-001  0.2410782E+03  0.7818608E-02  0.1119101E+00
         21   -1    0    0  501  502  0.00000000000E+00  0.00000000000E+00  0.23619673116E+03  0.23619673116E+03  0.00000000000E+00 0.  1.
         21   -1    0    0  502  503 -0.00000000000E+00 -0.00000000000E+00 -0.25988475769E+03  0.25988475769E+03  0.00000000000E+00 0.  1.
         -6    2    1    2    0  503 -0.12906085611E+03  0.10777803478E+03  0.45672309622E+02  0.24522381666E+03  0.17255709499E+03 0.  0.
        -24    2    3    3    0    0 -0.70431826352E+02  0.29739354936E+02  0.87602051747E+02  0.13888665497E+03  0.75962570145E+02 0.  0.
          6    2    1    2  501    0  0.12906085611E+03 -0.10777803478E+03 -0.69360336149E+02  0.25085767219E+03  0.17275967731E+03 0.  0.
         24    2    5    5    0    0  0.14384427143E+03 -0.12671457470E+03 -0.37566604138E+02  0.21073195340E+03  0.79050291431E+02 0.  0.
          5    1    5    5  501    0 -0.14783415317E+02  0.18936539924E+02 -0.31793732011E+02  0.40125718784E+02  0.47000000000E+01 0. -1.
        -11    1    6    6    0    0  0.70704977212E+02 -0.17836899709E+02  0.43067753922E+01  0.73047225191E+02  0.00000000000E+00 0.  1.
         12    1    6    6    0    0  0.73139294214E+02 -0.10887767499E+03 -0.41873379530E+02  0.13768472821E+03  0.00000000000E+00 0. -1.
         -5    1    3    3    0  503 -0.58629029757E+02  0.78038679842E+02 -0.41929742125E+02  0.10633716169E+03  0.47000000000E+01 0.  1.
         13    1    4    4    0    0 -0.28444425629E+02  0.43743284927E+02  0.15763054392E+02  0.54507194106E+02  0.00000000000E+00 0. -1.
        -14    1    4    4    0    0 -0.41987400724E+02 -0.14003929991E+02  0.71838997355E+02  0.84379460864E+02  0.00000000000E+00 0.  1.
</event>
<event>
12    1  0.9962621E-001  0.1868839E+03  0.7818608E-02  0.1161555E+00
         21   -1    0    0  503  502  0.00000000000E+00  0.00000000000E+00  0.12481712019E+03  0.12481712019E+03  0.00000000000E+00 0. -1.
         21   -1    0    0  501  503 -0.00000000000E+00 -0.00000000000E+00 -0.36729076994E+03  0.36729076994E+03  0.00000000000E+00 0.  1.
          6    2    1    2  501    0 -0.66722375018E+01  0.71175384762E+02  0.22735770885E+00  0.18579207746E+03  0.17148816346E+03 0.  0.
         24    2    3    3    0    0 -0.16246118088E+02  0.11427943634E+03 -0.17548603133E+02  0.13796224121E+03  0.73497623112E+02 0.  0.
         -6    2    1    2    0  502  0.66722375018E+01 -0.71175384762E+02 -0.24270100746E+03  0.30631581266E+03  0.17267062262E+03 0.  0.
        -24    2    5    5    0    0 -0.58230800504E+02 -0.70293119604E+02 -0.16485270781E+03  0.20484842632E+03  0.80339988179E+02 0.  0.
          5    1    3    3  501    0  0.95738805858E+01 -0.43104051581E+02  0.17775960842E+02  0.47829836253E+02  0.47000000000E+01 0. -1.
        -11    1    4    4    0    0  0.62870541162E+01  0.11382702865E+03 -0.18040584772E+02  0.11541915872E+03  0.00000000000E+00 0.  1.
         12    1    4    4    0    0 -0.22533172204E+02  0.45240769818E+00  0.49198163977E+00  0.22543082492E+02  0.00000000000E+00 0. -1.
         -5    1    5    5    0  502  0.64903038006E+02 -0.88226515799E+00 -0.77848299645E+02  0.10146738635E+03  0.47000000000E+01 0.  1.
         13    1    6    6    0    0 -0.70962001362E+02 -0.34479867009E+02 -0.82524689435E+02  0.11417001022E+03  0.00000000000E+00 0. -1.
        -14    1    6    6    0    0  0.12731200858E+02 -0.35813252595E+02 -0.82328018378E+02  0.90678416102E+02  0.00000000000E+00 0.  1.
</event>
<event>
12    1  0.9962621E-001  0.2093434E+03  0.7818608E-02  0.1142394E+00
         21   -1    0    0  503  502  0.00000000000E+00  0.00000000000E+00  0.26448327549E+03  0.26448327549E+03  0.00000000000E+00 0.  1.
         21   -1    0    0  501  503 -0.00000000000E+00 -0.00000000000E+00 -0.17600336205E+03  0.17600336205E+03  0.00000000000E+00 0.  1.
          6    2    1    2  501    0 -0.87956394408E+02 -0.81687835446E+02 -0.11955502143E+02  0.20968450340E+03  0.17150926260E+03 0.  0.
         24    2    3    3    0    0  0.19956816914E+00 -0.22966919297E+02 -0.49767419126E+02  0.97116964575E+02  0.80171002192E+02 0.  0.
         -6    2    1    2    0  502  0.87956394408E+02  0.81687835446E+02  0.10043541559E+03  0.23080213414E+03  0.16962642083E+03 0.  0.
        -24    2    5    5    0    0  0.53016464655E+02  0.52629151312E+02  0.13521724051E+03  0.17338200562E+03  0.78721310016E+02 0.  0.
          5    1    3    3  501    0 -0.88155962577E+02 -0.58720916149E+02  0.37811916983E+02  0.11256753883E+03  0.47000000000E+01 0. -1.
        -11    1    4    4    0    0 -0.27103228506E+01  0.20541469501E+02  0.10101857110E+02  0.23050929185E+02  0.00000000000E+00 0.  1.
         12    1    4    4    0    0  0.29098910197E+01 -0.43508388798E+02 -0.59869276236E+02  0.74066035391E+02  0.00000000000E+00 0. -1.
         -5    1    5    5    0  502  0.34939929753E+02  0.29058684134E+02 -0.34781824917E+02  0.57420128520E+02  0.47000000000E+01 0.  1.
         11    1    6    6    0    0  0.72100286087E+02  0.35496971285E+02  0.84886015669E+02  0.11689363490E+03  0.00000000000E+00 0. -1.
        -12    1    6    6    0    0 -0.19083821432E+02  0.17132180027E+02  0.50331224838E+02  0.56488370720E+02  0.00000000000E+00 0.  1.
</event>
<event>
12    1  0.9962621E-001  0.4110316E+03  0.7818608E-02  0.1040050E+00
         21   -1    0    0  503  502  0.00000000000E+00  0.00000000000E+00  0.49475706558E+03  0.49475706558E+03  0.00000000000E+00 0.  1.
         21   -1    0    0  501  503 -0.00000000000E+00 -0.00000000000E+00 -0.44108082154E+03  0.44108082154E+03  0.00000000000E+00 0.  1.
          6    2    1    2  501    0 -0.24088951548E+03  0.28538025611E+03 -0.19579703512E+03  0.45502204526E+03  0.17099395741E+03 0.  0.
         24    2    3    3    0    0 -0.83902913746E+02  0.18050526093E+03 -0.14615058918E+03  0.25975193149E+03  0.80555713877E+02 0.  0.
         -6    2    1    2    0  502  0.24088951548E+03 -0.28538025611E+03  0.24947327916E+03  0.48081584185E+03  0.17168956729E+03 0.  0.
        -24    2    5    5    0    0  0.18452948170E+03 -0.10715032108E+03  0.16007198509E+03  0.27355502904E+03  0.60638210533E+02 0.  0.
          5    1    3    3  501    0 -0.15698660173E+03  0.10487499518E+03 -0.49646445938E+02  0.19527011377E+03  0.47000000000E+01 0. -1.
        -11    1    4    4    0    0  0.13429908841E+00 -0.49177485011E+01 -0.19232300133E+02  0.19851540367E+02  0.00000000000E+00 0.  1.
         12    1    4    4    0    0 -0.84037212834E+02  0.18542300943E+03 -0.12691828905E+03  0.23990039113E+03  0.00000000000E+00 0. -1.
         -5    1    5    5    0  502  0.56360033778E+02 -0.17822993503E+03  0.89401294065E+02  0.20726081281E+03  0.47000000000E+01 0.  1.
         11    1    6    6    0    0  0.49395870744E+02 -0.56394262077E+02  0.35790345988E+02  0.83073543970E+02  0.00000000000E+00 0. -1.
        -12    1    6    6    0    0  0.13513361096E+03 -0.50756059006E+02  0.12428163911E+03  0.19048148507E+03  0.00000000000E+00 0.  1.
</event>
<event>
12    1  0.9962621E-001  0.1854676E+03  0.7818608E-02  0.1164649E+00
         21   -1    0    0  501  502  0.00000000000E+00  0.00000000000E+00  0.17805069970E+04  0.17805069970E+04  0.00000000000E+00 0.  1.
         21   -1    0    0  502  503 -0.00000000000E+00 -0.00000000000E+00 -0.32358923966E+02  0.32358923966E+02  0.00000000000E+00 0.  1.
         -6    2    1    2    0  503  0.45968588037E+02 -0.10952357495E+02  0.14801668200E+04  0.14917412808E+04  0.17934650418E+03 0.  0.
        -24    2    3    3    0    0  0.14586866827E+02 -0.73302317682E+02  0.10853108652E+04  0.10907354891E+04  0.78855732237E+02 0.  0.
          6    2    1    2  501    0 -0.45968588037E+02  0.10952357495E+02  0.26798125303E+03  0.32112464017E+03  0.17051104753E+03 0.  0.
         24    2    5    5    0    0 -0.87889146746E+01 -0.47905414256E+02  0.21106952919E+03  0.23108242942E+03  0.80477135244E+02 0.  0.
          5    1    5    5  501    0 -0.37179673363E+02  0.58857771750E+02  0.56911723834E+02  0.90042210749E+02  0.47000000000E+01 0. -1.
        -11    1    6    6    0    0 -0.10487159240E+02 -0.40305672669E+02  0.33787611817E+02  0.53629567130E+02  0.00000000000E+00 0.  1.
         12    1    6    6    0    0  0.16982445650E+01 -0.75997415867E+01  0.17728191738E+03  0.17745286229E+03  0.00000000000E+00 0. -1.
         -5    1    3    3    0  503  0.31381721210E+02  0.62349960188E+02  0.39485595477E+03  0.40100579170E+03  0.47000000000E+01 0.  1.
         13    1    4    4    0    0  0.10856556877E+02 -0.22831015704E+02  0.83381115783E+03  0.83419432210E+03  0.00000000000E+00 0. -1.
        -14    1    4    4    0    0  0.37303099502E+01 -0.50471301979E+02  0.25149970738E+03  0.25654116697E+03  0.00000000000E+00 0.  1.
</event>
<event>
12    1  0.9962621E-001  0.1772644E+03  0.7818608E-02  0.1170641E+00
         21   -1    0    0  501  502  0.00000000000E+00  0.00000000000E+00  0.14532460988E+04  0.14532460988E+04  0.00000000000E+00 0. -1.
         21   -1    0    0  502  503 -0.00000000000E+00 -0.00000000000E+00 -0.23910483370E+02  0.23910483370E+02  0.00000000000E+00 0. -1.
         -6    2    1    2    0  503  0.11377906794E+01  0.42399164179E+02  0.94834448107E+03  0.96476936011E+03  0.17211530942E+03 0.  0.
        -24    2    3    3    0    0 -0.18101968051E+02  0.83086049338E+01  0.20918548119E+03  0.22455962520E+03  0.79194353127E+02 0.  0.
          6    2    1    2  501    0 -0.11377906794E+01 -0.42399164179E+02  0.48099113437E+03  0.51238722207E+03  0.17143281573E+03 0.  0.
         24    2    5    5    0    0 -0.18065968541E+01  0.40869234963E+02  0.20259506284E+03  0.22176627265E+03  0.80386329935E+02 0.  0.
          5    1    5    5  501    0  0.66880617471E+00 -0.83268399143E+02  0.27839607153E+03  0.29062094942E+03  0.47000000000E+01 0. -1.
        -13    1    6    6    0    0  0.31141420469E+02  0.31523502269E+02  0.57001863617E+02  0.72199250134E+02  0.00000000000E+00 0.  1.
         14    1    6    6    0    0 -0.32948017323E+02  0.93457326945E+01  0.14559319922E+03  0.14956702252E+03  0.00000000000E+00 0. -1.
         -5    1    3    3    0  503  0.19239758730E+02  0.34090559246E+02  0.73915899988E+03  0.74020973490E+03  0.47000000000E+01 0.  1.
         11    1    4    4    0    0  0.26951332926E+02 -0.11363592203E+02  0.11052181859E+03  0.11432662839E+03  0.00000000000E+00 0. -1.
        -12    1    4    4    0    0 -0.45053300977E+02  0.19672197137E+02  0.98663662603E+02  0.11023299682E+03  0.00000000000E+00 0.  1.
</event>
<event>
12    1  0.9962621E-001  0.6253586E+03  0.7818608E-02  0.9855152E-01
         21   -1    0    0  503  502  0.00000000000E+00  0.00000000000E+00  0.18857337669E+04  0.18857337669E+04  0.00000000000E+00 0. -1.
         21   -1    0    0  501  503 -0.00000000000E+00 -0.00000000000E+00 -0.30353540313E+03  0.30353540313E+03  0.00000000000E+00 0. -1.
          6    2    1    2  501    0 -0.44755951765E+03 -0.40144486058E+03  0.14084603696E+04  0.15402250204E+04  0.16451444576E+03 0.  0.
         24    2    3    3    0    0 -0.21939115492E+03 -0.19609178819E+03  0.54565782766E+03  0.62442973627E+03  0.74736620197E+02 0.  0.
         -6    2    1    2    0  502  0.44755951765E+03  0.40144486058E+03  0.17373799416E+03  0.64904414960E+03  0.17206370793E+03 0.  0.
        -24    2    5    5    0    0  0.45389497922E+03  0.36603392775E+03  0.15477113907E+03  0.60810634520E+03  0.76405059709E+02 0.  0.
          5    1    3    3  501    0 -0.22816836273E+03 -0.20535307240E+03  0.86280254196E+03  0.91579528417E+03  0.47000000000E+01 0. -1.
        -11    1    4    4    0    0 -0.90598300424E+02 -0.10934153706E+03  0.32441215873E+03  0.35412832773E+03  0.00000000000E+00 0.  1.
         12    1    4    4    0    0 -0.12879285449E+03 -0.86750251123E+02  0.22124566893E+03  0.27030140854E+03  0.00000000000E+00 0. -1.
         -5    1    5    5    0  502 -0.63354615746E+01  0.35410932834E+02  0.18966855082E+02  0.40937804401E+02  0.47000000000E+01 0.  1.
         11    1    6    6    0    0  0.79376132502E+02  0.48924395593E+02  0.51862614136E+02  0.10669534966E+03  0.00000000000E+00 0. -1.
        -12    1    6    6    0    0  0.37451884672E+03  0.31710953216E+03  0.10290852494E+03  0.50141099553E+03  0.00000000000E+00 0.  1.
</event>
<event>
12    1  0.9962621E-001  0.2733008E+03  0.7818608E-02  0.1099515E+00
         21   -1    0    0  503  502  0.00000000000E+00  0.00000000000E+00  0.12866108108E+03  0.12866108108E+03  0.00000000000E+00 0. -1.
         21   -1    0    0  501  503 -0.00000000000E+00 -0.00000000000E+00 -0.60089055745E+03  0.60089055745E+03  0.00000000000E+00 0. -1.
          6    2    1    2  501    0  0.57957519560E+02 -0.20197231268E+03 -0.16664514046E+03  0.32009991078E+03  0.17476115382E+03 0.  0.
         24    2    3    3    0    0 -0.28590603894E+02 -0.15420025427E+03 -0.10032707217E+03  0.20096585428E+03  0.75674382244E+02 0.  0.
         -6    2    1    2    0  502 -0.57957519560E+02  0.20197231268E+03 -0.30558433591E+03  0.40945172774E+03  0.17354262253E+03 0.  0.
        -24    2    5    5    0    0 -0.37568172146E+02  0.76817079091E+01 -0.10205549212E+03  0.12729814395E+03  0.65719995337E+02 0.  0.
          5    1    3    3  501    0  0.86548123454E+02 -0.47772058409E+02 -0.66318068286E+02  0.11913405650E+03  0.47000000000E+01 0. -1.
        -11    1    4    4    0    0 -0.16708965914E+02 -0.93330281235E+01 -0.38528938664E+02  0.43020623781E+02  0.00000000000E+00 0.  1.
         12    1    4    4    0    0 -0.11881637980E+02 -0.14486722615E+03 -0.61798133505E+02  0.15794523050E+03  0.00000000000E+00 0. -1.
         -5    1    5    5    0  502 -0.20389347415E+02  0.19429060477E+03 -0.20352884379E+03  0.28215358379E+03  0.47000000000E+01 0.  1.
         11    1    6    6    0    0 -0.46283842751E+02  0.87174010519E+01 -0.32574646928E+02  0.57265127288E+02  0.00000000000E+00 0. -1.
        -12    1    6    6    0    0  0.87156706048E+01 -0.10356931427E+01 -0.69480845195E+02  0.70033016666E+02  0.00000000000E+00 0.  1.
</event>
<event>
12    1  0.9962621E-001  0.3506046E+03  0.7818608E-02  0.1062384E+00
         21   -1    0    0  501  502  0.00000000000E+00  0.00000000000E+00  0.12627533473E+03  0.12627533473E+03  0.00000000000E+00 0. -1.
         21   -1    0    0  502  503 -0.00000000000E+00 -0.00000000000E+00 -0.10785414272E+04  0.10785414272E+04  0.00000000000E+00 0. -1.
         -6    2    1    2    0  503  0.26860225474E+03 -0.14602094827E+03 -0.28759987352E+03  0.45334833150E+03  0.17129429015E+03 0.  0.
        -24    2    3    3    0    0  0.12292826747E+03 -0.41555879483E+01 -0.12476921030E+03  0.19280542541E+03  0.80485702924E+02 0.  0.
          6    2    1    2  501    0 -0.26860225474E+03  0.14602094827E+03 -0.66466621899E+03  0.75146843046E+03  0.17162264049E+03 0.  0.
         24    2    5    5    0    0 -0.11040005583E+03  0.30853430300E+01 -0.29911323272E+03  0.32825501059E+03  0.78005989019E+02 0.  0.
          5    1    5    5  501    0 -0.15820219891E+03  0.14293560524E+03 -0.36555298627E+03  0.42321341987E+03  0.47000000000E+01 0. -1.
        -13    1    6    6    0    0  0.11150164778E+02  0.76097297445E+01 -0.26643621665E+02  0.29868323300E+02  0.00000000000E+00 0.  1.
         14    1    6    6    0    0 -0.12155022061E+03 -0.45243867145E+01 -0.27246961105E+03  0.29838668729E+03  0.00000000000E+00 0. -1.
         -5    1    3    3    0  503  0.14567398727E+03 -0.14186536033E+03 -0.16283066323E+03  0.26054290609E+03  0.47000000000E+01 0.  1.
         11    1    4    4    0    0  0.10346635166E+03  0.14357353561E+00 -0.13524922871E+03  0.17028699424E+03  0.00000000000E+00 0. -1.
        -12    1    4    4    0    0  0.19461915810E+02 -0.42991614839E+01  0.10480018416E+02  0.22518431173E+02  0.00000000000E+00 0.  1.
</event>
<event>
12    1  0.9962621E-001  0.2184743E+03  0.7818608E-02  0.1135581E+00
         21   -1    0    0  501  502  0.00000000000E+00  0.00000000000E+00  0.77124328608E+03  0.77124328608E+03  0.00000000000E+00 0.  1.
         21   -1    0    0  502  503 -0.00000000000E+00 -0.00000000000E+00 -0.87908833502E+02  0.87908833502E+02  0.00000000000E+00 0.  1.
         -6    2    1    2    0  503 -0.45925069809E+01 -0.13391210957E+03  0.10266514241E+03  0.23874267366E+03  0.16883242742E+03 0.  0.
        -24    2    3    3    0    0  0.36847352702E+02 -0.26409846903E+02  0.79166993914E+02  0.12106407989E+03  0.79585746834E+02 0.  0.
          6    2    1    2  501    0  0.45925069809E+01  0.13391210957E+03  0.58066931016E+03  0.62040944592E+03  0.17256155021E+03 0.  0.
         24    2    5    5    0    0  0.15686585685E+02 -0.84158401697E+00  0.19916892210E+03  0.21563015715E+03  0.81125383893E+02 0.  0.
          5    1    5    5  501    0 -0.11094078705E+02  0.13475369359E+03  0.38150038807E+03  0.40477928876E+03  0.47000000000E+01 0. -1.
        -11    1    6    6    0    0  0.30028595024E+02  0.18567193521E+02  0.35058945263E+02  0.49755269443E+02  0.00000000000E+00 0.  1.
         12    1    6    6    0    0 -0.14342009339E+02 -0.19408777538E+02  0.16410997683E+03  0.16587488771E+03  0.00000000000E+00 0. -1.
         -5    1    3    3    0  503 -0.41439859683E+02 -0.10750226267E+03  0.23498148498E+02  0.11767859377E+03  0.47000000000E+01 0.  1.
         13    1    4    4    0    0 -0.99468323106E+01  0.11174038436E+02  0.53910680240E+02  0.55947833308E+02  0.00000000000E+00 0. -1.
        -14    1    4    4    0    0  0.46794185013E+02 -0.37583885339E+02  0.25256313674E+02  0.65116246579E+02  0.00000000000E+00 0.  1.
</event>
<event>
12    1  0.9962621E-001  0.2286581E+03  0.7818608E-02  0.1129126E+00
         21   -1    0    0  503  502  0.00000000000E+00  0.00000000000E+00  0.22817344189E+03  0.22817344189E+03  0.00000000000E+00 0. -1.
         21   -1    0    0  501  503 -0.00000000000E+00 -0.00000000000E+00 -0.29828923555E+03  0.29828923555E+03  0.00000000000E+00 0. -1.
          6    2    1    2  501    0  0.13338472898E+03 -0.30494504804E+02 -0.16879941677E+03  0.27741856880E+03  0.17247150045E+03 0.  0.
         24    2    3    3    0    0  0.95011954088E+02 -0.22445569846E+01 -0.35243822121E+02  0.13553933753E+03  0.89980417672E+02 0.  0.
         -6    2    1    2    0  502 -0.13338472898E+03  0.30494504804E+02  0.98683623112E+02  0.24904410863E+03  0.18320237396E+03 0.  0.
        -24    2    5    5    0    0 -0.11195001405E+03 -0.48277397037E+02  0.77717649311E+02  0.16462775014E+03  0.78732143318E+02 0.  0.
          5    1    3    3  501    0  0.38372774896E+02 -0.28249947819E+02 -0.13355559465E+03  0.14187923127E+03  0.47000000000E+01 0. -1.
        -11    1    4    4    0    0  0.49725729104E+02 -0.10657230610E+02  0.27413706166E+02  0.57773142419E+02  0.00000000000E+00 0.  1.
         12    1    4    4    0    0  0.45286224985E+02  0.84126736258E+01 -0.62657528287E+02  0.77766195110E+02  0.00000000000E+00 0. -1.
         -5    1    5    5    0  502 -0.21434714934E+02  0.78771901841E+02  0.20965973801E+02  0.84416358494E+02  0.47000000000E+01 0.  1.
         13    1    6    6    0    0  0.11957887551E+02 -0.48413424241E+01  0.19874824838E+01  0.13052959732E+02  0.00000000000E+00 0. -1.
        -14    1    6    6    0    0 -0.12390790160E+03 -0.43436054613E+02  0.75730166827E+02  0.15157479041E+03  0.00000000000E+00 0.  1.
</event>
<event>
12    1  0.9962621E-001  0.2340100E+03  0.7818608E-02  0.1125149E+00
         21   -1    0    0  503  502  0.00000000000E+00  0.00000000000E+00  0.20026586942E+03  0.20026586942E+03  0.00000000000E+00 0.  1.
         21   -1    0    0  501  503 -0.00000000000E+00 -0.00000000000E+00 -0.26888428302E+03  0.26888428302E+03  0.00000000000E+00 0. -1.
          6    2    1    2  501    0 -0.12064463310E+03 -0.84280103105E+02 -0.60494018860E+01  0.23408821934E+03  0.18194074831E+03 0.  0.
         24    2    3    3    0    0 -0.26913139044E+02 -0.80232007731E+02 -0.55305251746E+02  0.12802121788E+03  0.78544695800E+02 0.  0.
         -6    2    1    2    0  502  0.12064463310E+03  0.84280103105E+02 -0.62569011712E+02  0.23506193309E+03  0.17228165278E+03 0.  0.
        -24    2    5    5    0    0  0.73490899263E+02  0.11851725722E+03 -0.17952171867E+02  0.16152004207E+03  0.79493339246E+02 0.  0.
          5    1    3    3  501    0 -0.93731494057E+02 -0.40480953739E+01  0.49255849860E+02  0.10606700147E+03  0.47000000000E+01 0. -1.
        -13    1    4    4    0    0  0.13238267629E+02 -0.34492316916E+02  0.10476917413E+02  0.38402310536E+02  0.00000000000E+00 0.  1.
         14    1    4    4    0    0 -0.40151406673E+02 -0.45739690815E+02 -0.65782169160E+02  0.89618907341E+02  0.00000000000E+00 0. -1.
         -5    1    5    5    0  502  0.47153733838E+02 -0.34237154111E+02 -0.44616839845E+02  0.73541891016E+02  0.47000000000E+01 0.  1.
         11    1    6    6    0    0  0.55346893928E+01  0.74847114022E+02  0.10700881764E+02  0.75810501480E+02  0.00000000000E+00 0. -1.
        -12    1    6    6    0    0  0.67956209870E+02  0.43670143193E+02 -0.28653053631E+02  0.85709540594E+02  0.00000000000E+00 0.  1.
</event>
<event>
12    1  0.9962621E-001  0.1894907E+03  0.7818608E-02  0.1159730E+00
         21   -1    0    0  503  502  0.00000000000E+00  0.00000000000E+00  0.18891688062E+04  0.18891688062E+04  0.00000000000E+00 0. -1.
         21   -1    0    0  501  503 -0.00000000000E+00 -0.00000000000E+00 -0.19396305881E+02  0.19396305881E+02  0.00000000000E+00 0. -1.
          6    2    1    2  501    0  0.36045267643E+02  0.70556898012E+02  0.73970328510E+03  0.76271906661E+03  0.16823164807E+03 0.  0.
         24    2    3    3    0    0  0.47490004733E+02  0.97206571999E+02  0.39225459872E+03  0.41403028447E+03  0.76504823682E+02 0.  0.
         -6    2    1    2    0  502 -0.36045267643E+02 -0.70556898012E+02  0.11300692152E+04  0.11458460455E+04  0.17213132066E+03 0.  0.
        -24    2    5    5    0    0 -0.47660287318E+02  0.64475134582E+01  0.36263680917E+03  0.37445822088E+03  0.80002689968E+02 0.  0.
          5    1    3    3  501    0 -0.11444737091E+02 -0.26649673987E+02  0.34744868638E+03  0.34868878215E+03  0.47000000000E+01 0. -1.
        -11    1    4    4    0    0  0.14274819411E+02  0.52451500003E+02  0.30962935838E+03  0.31436486746E+03  0.00000000000E+00 0.  1.
         12    1    4    4    0    0  0.33215185322E+02  0.44755071997E+02  0.82625240339E+02  0.99665417004E+02  0.00000000000E+00 0. -1.
         -5    1    5    5    0  502  0.11615019675E+02 -0.77004411471E+02  0.76743240608E+03  0.77138782462E+03  0.47000000000E+01 0.  1.
         11    1    6    6    0    0  0.74708076509E+01  0.29920751855E+02  0.84804363371E+02  0.90237710550E+02  0.00000000000E+00 0. -1.
        -12    1    6    6    0    0 -0.55131094969E+02 -0.23473238397E+02  0.27783244580E+03  0.28422051033E+03  0.00000000000E+00 0.  1.
</event>
<event>
12    1  0.9962621E-001  0.2242097E+03  0.7818608E-02  0.1130860E+00
         21   -1    0    0  501  502  0.00000000000E+00  0.00000000000E+00  0.75419236443E+02  0.75419236443E+02  0.00000000000E+00 0.  1.
         21   -1    0    0  502  503 -0.00000000000E+00 -0.00000000000E+00 -0.96661230549E+03  0.96661230549E+03  0.00000000000E+00 0.  1.
         -6    2    1    2    0  503 -0.10686106750E+03  0.96030687882E+02 -0.15498500022E+03  0.27256255401E+03  0.17213022627E+03 0.  0.
        -24    2    3    3    0    0 -0.84151905836E+02 -0.39332650501E+01 -0.10985143869E+03  0.16045712914E+03  0.81130375816E+02 0.  0.
          6    2    1    2  501    0  0.10686106750E+03 -0.96030687882E+02 -0.73620806883E+03  0.76946898792E+03  0.17157803472E+03 0.  0.
         24    2    5    5    0    0  0.32119307510E+02 -0.11511059041E+03 -0.53571404631E+03  0.55459619664E+03  0.79405944213E+02 0.  0.
          5    1    5    5  501    0  0.74741759986E+02  0.19079902524E+02 -0.20049402252E+03  0.21487279128E+03  0.47000000000E+01 0. -1.
        -13    1    6    6    0    0  0.20674476901E+02 -0.45972769633E+02 -0.38617486626E+03  0.38945084012E+03  0.00000000000E+00 0.  1.
         14    1    6    6    0    0  0.11444830609E+02 -0.69137820773E+02 -0.14953918005E+03  0.16514535652E+03  0.00000000000E+00 0. -1.
         -5    1    3    3    0  503 -0.22709161659E+02  0.99963952933E+02 -0.45133561525E+02  0.11210542487E+03  0.47000000000E+01 0.  1.
         11    1    4    4    0    0  0.32639050126E+01  0.22987249806E+02 -0.36279598117E+02  0.43072914564E+02  0.00000000000E+00 0. -1.
        -12    1    4    4    0    0 -0.87415810849E+02 -0.26920514856E+02 -0.73571840574E+02  0.11738421458E+03  0.00000000000E+00 0.  1.
</event>
<event>
12    1  0.9962621E-001  0.1990129E+03  0.7818608E-02  0.1151361E+00
         21   -1    0    0  503  502  0.00000000000E+00  0.00000000000E+00  0.95070449635E+03  0.95070449635E+03  0.00000000000E+00 0.  1.
         21   -1    0    0  501  503 -0.00000000000E+00 -0.00000000000E+00 -0.86215876119E+02  0.86215876119E+02  0.00000000000E+00 0.  1.
          6    2    1    2  501    0  0.85540922405E+02  0.26209626430E+02  0.81004315050E+03  0.83413191445E+03  0.17776937619E+03 0.  0.
         24    2    3    3    0    0  0.19536086977E+02 -0.30725247543E+02  0.60397823224E+03  0.61033946884E+03  0.79992891409E+02 0.  0.
         -6    2    1    2    0  502 -0.85540922405E+02 -0.26209626430E+02  0.54445469735E+02  0.20278845802E+03  0.17365095913E+03 0.  0.
        -24    2    5    5    0    0 -0.33682477880E+02 -0.41650602557E+02 -0.31748480335E+02  0.10091005481E+03  0.79407752446E+02 0.  0.
          5    1    3    3  501    0  0.66004835428E+02  0.56934873973E+02  0.20606491826E+03  0.22379244560E+03  0.47000000000E+01 0. -1.
        -13    1    4    4    0    0 -0.27458769664E+02  0.26785407220E+01  0.13198391564E+03  0.13483661446E+03  0.00000000000E+00 0.  1.
         14    1    4    4    0    0  0.46994856642E+02 -0.33403788265E+02  0.47199431660E+03  0.47550285438E+03  0.00000000000E+00 0. -1.
         -5    1    5    5    0  502 -0.51858444525E+02  0.15440976127E+02  0.86193950070E+02  0.10187840321E+03  0.47000000000E+01 0.  1.
         11    1    6    6    0    0 -0.23658761425E+02  0.11441292076E+02 -0.38337262248E+02  0.46479950874E+02  0.00000000000E+00 0. -1.
        -12    1    6    6    0    0 -0.10023716455E+02 -0.53091894633E+02  0.65887819135E+01  0.54430103935E+02  0.00000000000E+00 0.  1.
</event>
<event>
12    1  0.9962621E-001  0.1972933E+03  0.7818608E-02  0.1153632E+00
         21   -1    0    0  503  502  0.00000000000E+00  0.00000000000E+00  0.26261547506E+03  0.26261547506E+03  0.00000000000E+00 0. -1.
         21   -1    0    0  501  503 -0.00000000000E+00 -0.00000000000E+00 -0.15226873627E+03  0.15226873627E+03  0.00000000000E+00 0. -1.
          6    2    1    2  501    0  0.16726037786E+02 -0.78095377203E+02  0.25342264155E+01  0.19005497180E+03  0.17244077743E+03 0.  0.
         24    2    3    3    0    0  0.68017718622E+02 -0.88722886562E+02 -0.47906225809E+01  0.13695578263E+03  0.78966927785E+02 0.  0.
         -6    2    1    2    0  502 -0.16726037786E+02  0.78095377203E+02  0.10781251237E+03  0.22482923953E+03  0.18040510204E+03 0.  0.
        -24    2    5    5    0    0  0.34540597997E+02  0.40011191696E+02  0.20948318112E+02  0.11691190369E+03  0.10215484728E+03 0.  0.
          5    1    3    3  501    0 -0.51291680836E+02  0.10627509358E+02  0.73248489964E+01  0.53099189174E+02  0.47000000000E+01 0. -1.
        -11    1    4    4    0    0  0.61925712048E+02 -0.16188662521E+02  0.29259679540E-01  0.64006776696E+02  0.00000000000E+00 0.  1.
         12    1    4    4    0    0  0.60920065742E+01 -0.72534224040E+02 -0.48198822605E+01  0.72949005930E+02  0.00000000000E+00 0. -1.
         -5    1    5    5    0  502 -0.51266635783E+02  0.38084185507E+02  0.86864194258E+02  0.10791733584E+03  0.47000000000E+01 0.  1.
         11    1    6    6    0    0 -0.10344697720E+02  0.23795993969E+02 -0.34875170706E+02  0.43468835177E+02  0.00000000000E+00 0. -1.
        -12    1    6    6    0    0  0.44885295718E+02  0.16215197727E+02  0.55823488818E+02  0.73443068514E+02  0.00000000000E+00 0.  1.
</event>
<event>
12    1  0.9962621E-001  0.2621854E+03  0.7818608E-02  0.1105953E+00
         21   -1    0    0  503  502  0.00000000000E+00  0.00000000000E+00  0.22944327937E+03  0.22944327937E+03  0.00000000000E+00 0. -1.
         21   -1    0    0  501  503 -0.00000000000E+00 -0.00000000000E+00 -0.43316420507E+03  0.43316420507E+03  0.00000000000E+00 0.  1.
          6    2    1    2  501    0  0.15670421258E+03  0.12008090134E+03  0.82614603324E+02  0.27489339444E+03  0.17252701968E+03 0.  0.
         24    2    3    3    0    0  0.35126649937E+02  0.21867167086E+02 -0.15706102307E+02  0.90187973596E+02  0.78582023386E+02 0.  0.
         -6    2    1    2    0  502 -0.15670421258E+03 -0.12008090134E+03 -0.28633552902E+03  0.38771408999E+03  0.17134336079E+03 0.  0.
        -24    2    5    5    0    0 -0.34135442758E+02 -0.10510994634E+03 -0.10688823672E+03  0.16983647860E+03  0.72152650970E+02 0.  0.
          5    1    3    3  501    0  0.12157756264E+03  0.98213734259E+02  0.98320705631E+02  0.18470542085E+03  0.47000000000E+01 0. -1.
        -13    1    4    4    0    0  0.12331135667E+02 -0.29769275400E+02 -0.32501098802E+01  0.32385643099E+02  0.00000000000E+00 0.  1.
         14    1    4    4    0    0  0.22795514270E+02  0.51636442487E+02 -0.12455992426E+02  0.57802330497E+02  0.00000000000E+00 0. -1.
         -5    1    5    5    0  502 -0.12256876982E+03 -0.14970955002E+02 -0.17944729230E+03  0.21787761138E+03  0.47000000000E+01 0.  1.
         11    1    6    6    0    0 -0.32918958973E+02 -0.85703810061E+02 -0.39936807403E+02  0.10011867710E+03  0.00000000000E+00 0. -1.
        -12    1    6    6    0    0 -0.12164837849E+01 -0.19406136282E+02 -0.66951429322E+02  0.69717801503E+02  0.00000000000E+00 0.  1.
</event>
<event>
12    1  0.9962621E-001  0.2178014E+03  0.7818608E-02  0.1135904E+00
         21   -1    0    0  501  502  0.00000000000E+00  0.00000000000E+00  0.26846846640E+04  0.26846846640E+04  0.00000000000E+00 0. -1.
         21   -1    0    0  502  503 -0.00000000000E+00 -0.00000000000E+00 -0.21195773873E+02  0.21195773873E+02  0.00000000000E+00 0. -1.
         -6    2    1    2    0  503 -0.12808657569E+03 -0.11487834947E+02  0.76272171953E+03  0.79267546129E+03  0.17335461999E+03 0.  0.
        -24    2    3    3    0    0 -0.77110689091E+02 -0.13848012649E+02  0.71153316840E+03  0.72024294636E+03  0.79577799800E+02 0.  0.
          6    2    1    2  501    0  0.12808657569E+03  0.11487834947E+02  0.19007671706E+04  0.19132049766E+04  0.17578197964E+03 0.  0.
         24    2    5    5    0    0  0.11601177201E+03 -0.38999980239E+02  0.97393292378E+03  0.98490619309E+03  0.80716413756E+02 0.  0.
          5    1    5    5  501    0  0.12074803679E+02  0.50487815186E+02  0.92683424685E+03  0.92829878353E+03  0.47000000000E+01 0. -1.
        -13    1    6    6    0    0  0.30526505344E+01  0.19191700009E+02  0.14275832290E+03  0.14407490684E+03  0.00000000000E+00 0.  1.
         14    1    6    6    0    0  0.11295912148E+03 -0.58191680248E+02  0.83117460088E+03  0.84083128624E+03  0.00000000000E+00 0. -1.
         -5    1    3    3    0  503 -0.50975886597E+02  0.23601777017E+01  0.51188551135E+02  0.72432514939E+02  0.47000000000E+01 0.  1.
         13    1    4    4    0    0 -0.21500898686E+02 -0.43591984496E+02  0.31070725729E+03  0.31448616740E+03  0.00000000000E+00 0. -1.
        -14    1    4    4    0    0 -0.55609790406E+02  0.29743971847E+02  0.40082591111E+03  0.40575677895E+03  0.00000000000E+00 0.  1.
</event>
<event>
12    1  0.9962621E-001  0.3351664E+03  0.7818608E-02  0.1069213E+00
         21   -1    0    0  501  502  0.00000000000E+00  0.00000000000E+00  0.27183883413E+03  0.27183883413E+03  0.00000000000E+00 0.  1.
         21   -1    0    0  502  503 -0.00000000000E+00 -0.00000000000E+00 -0.48925085744E+03  0.48925085744E+03  0.00000000000E+00 0.  1.
         -6    2    1    2    0  503 -0.47318156313E+02  0.28040930600E+03  0.44592356788E+02  0.33811977004E+03  0.17739254156E+03 0.  0.
        -24    2    3    3    0    0 -0.21118575738E+02  0.27041724295E+03  0.78891929248E+02  0.29356856335E+03  0.79919242766E+02 0.  0.
          6    2    1    2  501    0  0.47318156313E+02 -0.28040930600E+03 -0.26200438010E+03  0.42296992153E+03  0.17143183053E+03 0.  0.
         24    2    5    5    0    0 -0.20300935471E+02 -0.12726572936E+03 -0.54595371582E+02  0.15638807021E+03  0.69770194603E+02 0.  0.
          5    1    5    5  501    0  0.67619091784E+02 -0.15314357664E+03 -0.20740900852E+03  0.26658185132E+03  0.47000000000E+01 0. -1.
        -11    1    6    6    0    0 -0.32173025785E+02 -0.12843760667E+03 -0.57107996709E+02  0.14419655226E+03  0.00000000000E+00 0.  1.
         12    1    6    6    0    0  0.11872090313E+02  0.11718773116E+01  0.25126251278E+01  0.12191517948E+02  0.00000000000E+00 0. -1.
         -5    1    3    3    0  503 -0.26199580575E+02  0.99920630488E+01 -0.34299572460E+02  0.44551206686E+02  0.47000000000E+01 0.  1.
         11    1    4    4    0    0  0.14346692101E+00  0.41507614209E+02  0.44946818275E+02  0.61181035404E+02  0.00000000000E+00 0. -1.
        -12    1    4    4    0    0 -0.21262042659E+02  0.22890962874E+03  0.33945110973E+02  0.23238752795E+03  0.00000000000E+00 0.  1.
</event>
<event>
12    1  0.9962621E-001  0.1727610E+03  0.7818608E-02  0.1175334E+00
         21   -1    0    0  501  502  0.00000000000E+00  0.00000000000E+00  0.31803464876E+03  0.31803464876E+03  0.00000000000E+00 0.  1.
         21   -1    0    0  502  503 -0.00000000000E+00 -0.00000000000E+00 -0.11734237118E+03  0.11734237118E+03  0.00000000000E+00 0.  1.
         -6    2    1    2    0  503 -0.57941288011E+01  0.10576567634E+02  0.19891175846E+03  0.26260680935E+03  0.17102927514E+03 0.  0.
        -24    2    3    3    0    0  0.27544463027E+02  0.33305704241E+02  0.20281259898E+03  0.22179771830E+03  0.78697586753E+02 0.  0.
          6    2    1    2  501    0  0.57941288011E+01 -0.10576567634E+02  0.17805191265E+01  0.17277021058E+03  0.17233960573E+03 0.  0.
         24    2    5    5    0    0 -0.32418675992E+02  0.32204196874E+02 -0.40961874854E+02  0.10108050068E+03  0.80320057129E+02 0.  0.
          5    1    5    5  501    0  0.38212804793E+02 -0.42780764509E+02  0.42742393981E+02  0.71689709898E+02  0.47000000000E+01 0. -1.
        -11    1    6    6    0    0  0.64900926193E+01  0.15574128838E+02  0.20444182874E+02  0.26507346239E+02  0.00000000000E+00 0.  1.
         12    1    6    6    0    0 -0.38908768611E+02  0.16630068037E+02 -0.61406057729E+02  0.74573154443E+02  0.00000000000E+00 0. -1.
         -5    1    3    3    0  503 -0.33338591828E+02 -0.22729136607E+02 -0.39008405218E+01  0.40809091055E+02  0.47000000000E+01 0.  1.
         11    1    4    4    0    0  0.44626015863E+02  0.17162200495E+02  0.18807265038E+03  0.19405500313E+03  0.00000000000E+00 0. -1.
        -12    1    4    4    0    0 -0.17081552837E+02  0.16143503746E+02  0.14739948597E+02  0.27742715172E+02  0.00000000000E+00 0.  1.
</event>
<event>
12    1  0.9962621E-001  0.2513488E+03  0.7818608E-02  0.1112646E+00
         21   -1    0    0  501  502  0.00000000000E+00  0.00000000000E+00  0.61794085775E+03  0.61794085775E+03  0.00000000000E+00 0.  1.
         21   -1    0    0  502  503 -0.00000000000E+00 -0.00000000000E+00 -0.12504888323E+03  0.12504888323E+03  0.00000000000E+00 0. -1.
         -6    2    1    2    0  503  0.86208607334E+02 -0.15936535376E+03  0.85588227801E+02  0.26437446100E+03  0.17245077829E+03 0.  0.
        -24    2    3    3    0    0  0.35123611752E+02 -0.16474996024E+03  0.97664558403E+02  0.21139712130E+03  0.82305281866E+02 0.  0.
          6    2    1    2  501    0 -0.86208607334E+02  0.15936535376E+03  0.40730374671E+03  0.47861527999E+03  0.17420391554E+03 0.  0.
         24    2    5    5    0    0 -0.81849874255E+02  0.55152178560E+02  0.30227087325E+03  0.33051606005E+03  0.90177715737E+02 0.  0.
          5    1    5    5  501    0 -0.43587330787E+01  0.10421317520E+03  0.10503287346E+03  0.14809921994E+03  0.47000000000E+01 0. -1.
        -11    1    6    6    0    0  0.31907093960E+01 -0.19918618790E+02  0.41598148780E+02  0.46231352813E+02  0.00000000000E+00 0.  1.
         12    1    6    6    0    0 -0.85040583651E+02  0.75070797350E+02  0.26067272447E+03  0.28428470723E+03  0.00000000000E+00 0. -1.
         -5    1    3    3    0  503  0.51084995582E+02  0.53846064829E+01 -0.12076330602E+02  0.52977339697E+02  0.47000000000E+01 0.  1.
         13    1    4    4    0    0  0.60385495287E+02 -0.10551983858E+03  0.50832879327E+02  0.13177566542E+03  0.00000000000E+00 0. -1.
        -14    1    4    4    0    0 -0.25261883535E+02 -0.59230121660E+02  0.46831679076E+02  0.79621455881E+02  0.00000000000E+00 0.  1.
</event>
<event>
12    1  0.9962621E-001  0.2279237E+03  0.7818608E-02  0.1128418E+00
         21   -1    0    0  503  502  0.00000000000E+00  0.00000000000E+00  0.82679328358E+03  0.82679328358E+03  0.00000000000E+00 0. -1.
         21   -1    0    0  501  503 -0.00000000000E+00 -0.00000000000E+00 -0.67796206582E+02  0.67796206582E+02  0.00000000000E+00 0. -1.
          6    2    1    2  501    0  0.76912529011E+02  0.12779005899E+03  0.50485598771E+03  0.55321447914E+03  0.17006132806E+03 0.  0.
         24    2    3    3    0    0  0.11968387173E+03  0.11125156963E+03  0.41609646048E+03  0.45319821514E+03  0.74506488900E+02 0.  0.
         -6    2    1    2    0  502 -0.76912529011E+02 -0.12779005899E+03  0.25414108929E+03  0.34137501103E+03  0.17234665240E+03 0.  0.
        -24    2    5    5    0    0  0.16962315257E+02 -0.53388852892E+02  0.16644080334E+03  0.19284401759E+03  0.79675494056E+02 0.  0.
          5    1    3    3  501    0 -0.42771342720E+02  0.16538489361E+02  0.88759527235E+02  0.10001626399E+03  0.47000000000E+01 0. -1.
        -13    1    4    4    0    0  0.38826231826E+02  0.86320861142E+01  0.16979820106E+03  0.17439443303E+03  0.00000000000E+00 0.  1.
         14    1    4    4    0    0  0.80857639905E+02  0.10261948352E+03  0.24629825942E+03  0.27880378211E+03  0.00000000000E+00 0. -1.
         -5    1    5    5    0  502 -0.93874844268E+02 -0.74401206099E+02  0.87700285949E+02  0.14853099344E+03  0.47000000000E+01 0.  1.
         13    1    6    6    0    0  0.11547124981E+02  0.94506117153E+00 -0.52205626873E+01  0.12707616249E+02  0.00000000000E+00 0. -1.
        -14    1    6    6    0    0  0.54151902758E+01 -0.54333914063E+02  0.17166136602E+03  0.18013640134E+03  0.00000000000E+00 0.  1.
</event>
<event>
12    1  0.9962621E-001  0.5363669E+03  0.7818608E-02  0.1004703E+00
         21   -1    0    0  501  502  0.00000000000E+00  0.00000000000E+00  0.10041668464E+04  0.10041668464E+04  0.00000000000E+00 0.  1.
         21   -1    0    0  502  503 -0.00000000000E+00 -0.00000000000E+00 -0.28974374015E+03  0.28974374015E+03  0.00000000000E+00 0. -1.
         -6    2    1    2    0  503  0.43727729787E+03  0.25885474021E+03  0.42598525085E+03  0.68490658778E+03  0.17151206455E+03 0.  0.
        -24    2    3    3    0    0  0.42384397154E+03  0.22918113426E+03  0.34383619915E+03  0.59641063397E+03  0.72901357701E+02 0.  0.
          6    2    1    2  501    0 -0.43727729787E+03 -0.25885474021E+03  0.28843785541E+03  0.60900399878E+03  0.17167487392E+03 0.  0.
         24    2    5    5    0    0 -0.29275691564E+03 -0.10591342112E+03  0.13903069544E+03  0.35089205133E+03  0.82894107063E+02 0.  0.
          5    1    5    5  501    0 -0.14452038223E+03 -0.15294131909E+03  0.14940715997E+03  0.25811194745E+03  0.47000000000E+01 0. -1.
        -13    1    6    6    0    0 -0.55776110552E+02 -0.69205398095E+01  0.59929245549E+02  0.82160713553E+02  0.00000000000E+00 0.  1.
         14    1    6    6    0    0 -0.23698080508E+03 -0.98992881306E+02  0.79101449895E+02  0.26873133778E+03  0.00000000000E+00 0. -1.
         -5    1    3    3    0  503  0.13433326326E+02  0.29673605946E+02  0.82149051691E+02  0.88495953804E+02  0.47000000000E+01 0.  1.
         13    1    4    4    0    0  0.26614717138E+03  0.18258597187E+03  0.22128759193E+03  0.39133125648E+03  0.00000000000E+00 0. -1.
        -14    1    4    4    0    0  0.15769680016E+03  0.46595162385E+02  0.12254860723E+03  0.20507937749E+03  0.00000000000E+00 0.  1.
</event>
<event>
12    1  0.9962621E-001  0.1882008E+03  0.7818608E-02  0.1160277E+00
         21   -1    0    0  503  502  0.00000000000E+00  0.00000000000E+00  0.55901373373E+02  0.55901373373E+02  0.00000000000E+00 0.  1.
         21   -1    0    0  501  503 -0.00000000000E+00 -0.00000000000E+00 -0.65597264295E+03  0.65597264295E+03  0.00000000000E+00 0.  1.
          6    2    1    2  501    0  0.69872379241E+02 -0.29105183343E+02 -0.37021772793E+03  0.41530797108E+03  0.17230868722E+03 0.  0.
         24    2    3    3    0    0 -0.13456375157E+02 -0.43944425603E+02 -0.12727314283E+03  0.15799872940E+03  0.81565673139E+02 0.  0.
         -6    2    1    2    0  502 -0.69872379241E+02  0.29105183343E+02 -0.22985354164E+03  0.29656604524E+03  0.17143368253E+03 0.  0.
        -24    2    5    5    0    0 -0.99850281255E+02  0.42388617164E+02 -0.11328846127E+03  0.17538588108E+03  0.78479668029E+02 0.  0.
          5    1    3    3  501    0  0.83328754398E+02  0.14839242260E+02 -0.24294458511E+03  0.25730924168E+03  0.47000000000E+01 0. -1.
        -13    1    4    4    0    0 -0.10796219920E+02  0.18841500618E+02 -0.79241436344E+01  0.23116067192E+02  0.00000000000E+00 0.  1.
         14    1    4    4    0    0 -0.26601552373E+01 -0.62785926221E+02 -0.11934899919E+03  0.13488266221E+03  0.00000000000E+00 0. -1.
         -5    1    5    5    0  502  0.29977902014E+02 -0.13283433821E+02 -0.11656508037E+03  0.12118016416E+03  0.47000000000E+01 0.  1.
         11    1    6    6    0    0 -0.33873313063E+02 -0.20190594324E+02 -0.16992549332E+02  0.42939587444E+02  0.00000000000E+00 0. -1.
        -12    1    6    6    0    0 -0.65976968192E+02  0.62579211488E+02 -0.96295911939E+02  0.13244629364E+03  0.00000000000E+00 0.  1.
</event>
<event>
12    1  0.9962621E-001  0.3561137E+03  0.7818608E-02  0.1060139E+00
         21   -1    0    0  501  502  0.00000000000E+00  0.00000000000E+00  0.25123447858E+03  0.25123447858E+03  0.00000000000E+00 0. -1.
         21   -1    0    0  502  503 -0.00000000000E+00 -0.00000000000E+00 -0.61909427143E+03  0.61909427143E+03  0.00000000000E+00 0. -1.
         -6    2    1    2    0  503 -0.73462716016E+01  0.31131283285E+03 -0.37098266060E+03  0.51420139245E+03  0.17264208621E+03 0.  0.
        -24    2    3    3    0    0 -0.59247938856E+02  0.27448354391E+03 -0.30891131902E+03  0.42517824359E+03  0.80615145398E+02 0.  0.
          6    2    1    2  501    0  0.73462716016E+01 -0.31131283285E+03  0.31228677588E+01  0.35612735755E+03  0.17276369669E+03 0.  0.
         24    2    5    5    0    0 -0.50278975080E+02 -0.13599596664E+03  0.28110066455E+02  0.16983961580E+03  0.83859650487E+02 0.  0.
          5    1    5    5  501    0  0.57625246681E+02 -0.17531686620E+03 -0.24987198696E+02  0.18628774176E+03  0.47000000000E+01 0. -1.
        -13    1    6    6    0    0  0.90620330772E+01 -0.60070668464E+02  0.40012471563E+02  0.72743408868E+02  0.00000000000E+00 0.  1.
         14    1    6    6    0    0 -0.59341008157E+02 -0.75925298180E+02 -0.11902405108E+02  0.97096206930E+02  0.00000000000E+00 0. -1.
         -5    1    3    3    0  503  0.51901667254E+02  0.36829288933E+02 -0.62071341586E+02  0.89023148862E+02  0.47000000000E+01 0.  1.
         11    1    4    4    0    0 -0.26217077661E+02  0.68889845120E+02 -0.36372793327E+02  0.82195656918E+02  0.00000000000E+00 0. -1.
        -12    1    4    4    0    0 -0.33030861195E+02  0.20559369879E+03 -0.27253852569E+03  0.34298258667E+03  0.00000000000E+00 0.  1.
</event>
<event>
12    1  0.9962621E-001  0.2072021E+03  0.7818608E-02  0.1144024E+00
         21   -1    0    0  501  502  0.00000000000E+00  0.00000000000E+00  0.82803131213E+02  0.82803131213E+02  0.00000000000E+00 0.  1.
         21   -1    0    0  502  503 -0.00000000000E+00 -0.00000000000E+00 -0.56748209491E+03  0.56748209491E+03  0.00000000000E+00 0.  1.
         -6    2    1    2    0  503 -0.89385485005E+02  0.74456450496E+02 -0.14356686450E+03  0.25117351216E+03  0.17012689580E+03 0.  0.
        -24    2    3    3    0    0 -0.24745283278E+02  0.52107709065E+02 -0.15375713168E+03  0.18186439683E+03  0.78140008327E+02 0.  0.
          6    2    1    2  501    0  0.89385485005E+02 -0.74456450496E+02 -0.34111209919E+03  0.39911171397E+03  0.17146185599E+03 0.  0.
         24    2    5    5    0    0  0.45488762102E+02 -0.35985098810E+01 -0.59643442069E+02  0.10552277519E+03  0.74131903731E+02 0.  0.
          5    1    5    5  501    0  0.43896722904E+02 -0.70857940615E+02 -0.28146865712E+03  0.29358893878E+03  0.47000000000E+01 0. -1.
        -11    1    6    6    0    0  0.59936653437E+02 -0.91569050061E+01 -0.65237497318E+02  0.89062800264E+02  0.00000000000E+00 0.  1.
         12    1    6    6    0    0 -0.14447891336E+02  0.55583951251E+01  0.55940552483E+01  0.16459974925E+02  0.00000000000E+00 0. -1.
         -5    1    3    3    0  503 -0.64640201728E+02  0.22348741431E+02  0.10190267177E+02  0.69309115332E+02  0.47000000000E+01 0.  1.
         13    1    4    4    0    0  0.54432755086E+01  0.55577445478E+02 -0.54385311294E+02  0.77950264776E+02  0.00000000000E+00 0. -1.
        -14    1    4    4    0    0 -0.30188558786E+02 -0.34697364136E+01 -0.99371820388E+02  0.10391413205E+03  0.00000000000E+00 0.  1.
</event>
<event>
12    1  0.9962621E-001  0.6186833E+03  0.7818608E-02  0.9867411E-01
         21   -1    0    0  501  502  0.00000000000E+00  0.00000000000E+00  0.50301083871E+03  0.50301083871E+03  0.00000000000E+00 0.  1.
         21   -1    0    0  502  503 -0.00000000000E+00 -0.00000000000E+00 -0.76279413066E+03  0.76279413066E+03  0.00000000000E+00 0. -1.
         -6    2    1    2    0  503  0.35467099256E+03  0.47682277822E+03 -0.16150276798E+03  0.63941548235E+03  0.17209747299E+03 0.  0.
        -24    2    3    3    0    0  0.22313544637E+03  0.40312897757E+03 -0.12695637633E+03  0.48466432939E+03  0.80493420281E+02 0.  0.
          6    2    1    2  501    0 -0.35467099256E+03 -0.47682277822E+03 -0.98280523963E+02  0.62638948702E+03  0.17191059672E+03 0.  0.
         24    2    5    5    0    0 -0.91874442044E+02 -0.91671651803E+02 -0.26801706260E+02  0.15465361969E+03  0.79717035697E+02 0.  0.
          5    1    5    5  501    0 -0.26279655052E+03 -0.38515112642E+03 -0.71478817703E+02  0.47173586733E+03  0.47000000000E+01 0. -1.
        -11    1    6    6    0    0 -0.91627635704E+01 -0.51734572873E+02 -0.33906368086E+02  0.62530505063E+02  0.00000000000E+00 0.  1.
         12    1    6    6    0    0 -0.82711678474E+02 -0.39937078929E+02  0.71046618258E+01  0.92123114630E+02  0.00000000000E+00 0. -1.
         -5    1    3    3    0  503  0.13153554619E+03  0.73693800649E+02 -0.34546391653E+02  0.15475115296E+03  0.47000000000E+01 0.  1.
         13    1    4    4    0    0  0.17396188409E+03  0.29510176693E+03 -0.58122824789E+02  0.34745654796E+03  0.00000000000E+00 0. -1.
        -14    1    4    4    0    0  0.49173562278E+02  0.10802721065E+03 -0.68833551543E+02  0.13720778143E+03  0.00000000000E+00 0.  1.
</event>
<event>
12    1  0.9962621E-001  0.2829655E+03  0.7818608E-02  0.1094181E+00
         21   -1    0    0  503  502  0.00000000000E+00  0.00000000000E+00  0.11382501949E+04  0.11382501949E+04  0.00000000000E+00 0. -1.
         21   -1    0    0  501  503 -0.00000000000E+00 -0.00000000000E+00 -0.80041753828E+02  0.80041753828E+02  0.00000000000E+00 0. -1.
          6    2    1    2  501    0  0.22467344123E+03 -0.22874843844E+01  0.74253407603E+03  0.79435824842E+03  0.17077700368E+03 0.  0.
         24    2    3    3    0    0  0.62591554852E+02  0.16196416052E+02  0.42683995050E+03  0.43897526717E+03  0.79541908529E+02 0.  0.
         -6    2    1    2    0  502 -0.22467344123E+03  0.22874843844E+01  0.31567436502E+03  0.42393370029E+03  0.17200607469E+03 0.  0.
        -24    2    5    5    0    0 -0.60112519098E+02  0.92155397217E+01  0.62472413078E+02  0.12183832874E+03  0.85107783602E+02 0.  0.
          5    1    3    3  501    0  0.16208188638E+03 -0.18483900437E+02  0.31569412554E+03  0.35538298125E+03  0.47000000000E+01 0. -1.
        -11    1    4    4    0    0  0.47035628110E+02 -0.27489069972E+02  0.26914543322E+03  0.27460383009E+03  0.00000000000E+00 0.  1.
         12    1    4    4    0    0  0.15555926742E+02  0.43685486024E+02  0.15769451728E+03  0.16437143707E+03  0.00000000000E+00 0. -1.
         -5    1    5    5    0  502 -0.16456092213E+03 -0.69280553373E+01  0.25320195194E+03  0.30209537155E+03  0.47000000000E+01 0.  1.
         11    1    6    6    0    0 -0.28630199557E+02  0.22639489620E+02  0.76569378832E+02  0.84823962367E+02  0.00000000000E+00 0. -1.
        -12    1    6    6    0    0 -0.31482319541E+02 -0.13423949898E+02 -0.14096965754E+02  0.37014366373E+02  0.00000000000E+00 0.  1.
</event>
<event>
12    1  0.9962621E-001  0.3439198E+03  0.7818608E-02  0.1065191E+00
         21   -1    0    0  501  502  0.00000000000E+00  0.00000000000E+00  0.11337411511E+03  0.11337411511E+03  0.00000000000E+00 0.  1.
         21   -1    0    0  502  503 -0.00000000000E+00 -0.00000000000E+00 -0.10439894809E+04  0.10439894809E+04  0.00000000000E+00 0.  1.
         -6    2    1    2    0  503 -0.26007376622E+03 -0.14400522750E+03 -0.43894061511E+03  0.55762863757E+03  0.17293051905E+03 0.  0.
        -24    2    3    3    0    0 -0.62663977305E+02 -0.11010924451E+02 -0.94569980520E+02  0.13897444450E+03  0.79513524010E+02 0.  0.
          6    2    1    2  501    0  0.26007376622E+03  0.14400522750E+03 -0.49167475070E+03  0.59973495848E+03  0.17193629785E+03 0.  0.
         24    2    5    5    0    0  0.11019296455E+03  0.10913814328E+03 -0.18373589706E+03  0.25545542692E+03  0.86284248366E+02 0.  0.
          5    1    5    5  501    0  0.14988080167E+03  0.34867084218E+02 -0.30793885364E+03  0.34427953156E+03  0.47000000000E+01 0. -1.
        -11    1    6    6    0    0  0.82321110166E+01  0.76714378435E+01  0.93833345616E+01  0.14651470161E+02  0.00000000000E+00 0.  1.
         12    1    6    6    0    0  0.10196085353E+03  0.10146670544E+03 -0.19311923163E+03  0.24080395675E+03  0.00000000000E+00 0. -1.
         -5    1    3    3    0  503 -0.19740978891E+03 -0.13299430305E+03 -0.34437063459E+03  0.41865419306E+03  0.47000000000E+01 0.  1.
         11    1    4    4    0    0 -0.40889115288E+02 -0.39827663763E+02 -0.28787887287E+02  0.63928905859E+02  0.00000000000E+00 0. -1.
        -12    1    4    4    0    0 -0.21774862017E+02  0.28816739311E+02 -0.65782093232E+02  0.75045538644E+02  0.00000000000E+00 0.  1.
</event>
<event>
12    1  0.9962621E-001  0.2548919E+03  0.7818608E-02  0.1110316E+00
         21   -1    0    0  501  502  0.00000000000E+00  0.00000000000E+00  0.69479643250E+03  0.69479643250E+03  0.00000000000E+00 0. -1.
         21   -1    0    0  502  503 -0.00000000000E+00 -0.00000000000E+00 -0.14603170864E+03  0.14603170864E+03  0.00000000000E+00 0. -1.
         -6    2    1    2    0  503  0.18692645992E+03 -0.22010590630E+02  0.52673570636E+03  0.58498611866E+03  0.17126671348E+03 0.  0.
        -24    2    3    3    0    0  0.12091628550E+03  0.33179883906E+02  0.20924436363E+03  0.25600865087E+03  0.77688949092E+02 0.  0.
          6    2    1    2  501    0 -0.18692645992E+03  0.22010590630E+02  0.22029017495E+02  0.25584202248E+03  0.17188337714E+03 0.  0.
         24    2    5    5    0    0 -0.17172173731E+03  0.21110439294E+02 -0.38108553446E+02  0.19362778536E+03  0.78137389930E+02 0.  0.
          5    1    5    5  501    0 -0.15204722607E+02  0.90015133611E+00  0.60137570942E+02  0.62214237123E+02  0.47000000000E+01 0. -1.
        -13    1    6    6    0    0 -0.11289406363E+03 -0.12010463220E+02  0.48043338820E+01  0.11363275256E+03  0.00000000000E+00 0.  1.
         14    1    6    6    0    0 -0.58827673676E+02  0.33120902514E+02 -0.42912887328E+02  0.79995032797E+02  0.00000000000E+00 0. -1.
         -5    1    3    3    0  503  0.66010174419E+02 -0.55190474535E+02  0.31749134273E+03  0.32897746779E+03  0.47000000000E+01 0.  1.
         13    1    4    4    0    0  0.25491690043E+02 -0.21014002321E+02  0.24503626434E+02  0.41132010202E+02  0.00000000000E+00 0. -1.
        -14    1    4    4    0    0  0.95424595452E+02  0.54193886226E+02  0.18474073720E+03  0.21487664066E+03  0.00000000000E+00 0.  1.
</event>
<event>
12    1  0.9962621E-001  0.1921769E+03  0.7818608E-02  0.1156534E+00
         21   -1    0    0  501  502  0.00000000000E+00  0.00000000000E+00  0.38922570641E+03  0.38922570641E+03  0.00000000000E+00 0.  1.
         21   -1    0    0  502  503 -0.00000000000E+00 -0.00000000000E+00 -0.12001355874E+03  0.12001355874E+03  0.00000000000E+00 0.  1.
         -6    2    1    2    0  503  0.85382125054E+02  0.15796786009E+02  0.25119917861E+03  0.31622001087E+03  0.17133132293E+03 0.  0.
        -24    2    3    3    0    0  0.36108773411E+02  0.71802345300E+02  0.17969209022E+03  0.21277998214E+03  0.80787704546E+02 0.  0.
          6    2    1    2  501    0 -0.85382125054E+02 -0.15796786009E+02  0.18012969068E+02  0.19301925428E+03  0.17144188444E+03 0.  0.
         24    2    5    5    0    0 -0.50150203084E+02  0.56623109573E+02  0.18836064054E+02  0.11234275778E+03  0.80900423419E+02 0.  0.
          5    1    5    5  501    0 -0.35231921969E+02 -0.72419895582E+02 -0.82309498599E+00  0.80676496498E+02  0.47000000000E+01 0. -1.
        -13    1    6    6    0    0  0.83036383350E+01  0.67626715327E+00 -0.20680674575E+02  0.22295695722E+02  0.00000000000E+00 0.  1.
         14    1    6    6    0    0 -0.58453841419E+02  0.55946842420E+02  0.39516738629E+02  0.90047062058E+02  0.00000000000E+00 0. -1.
         -5    1    3    3    0  503  0.49273351643E+02 -0.56005559291E+02  0.71507088391E+02  0.10344002873E+03  0.47000000000E+01 0.  1.
         13    1    4    4    0    0  0.40419439671E+01  0.79903186482E+02  0.11455920553E+03  0.13973069846E+03  0.00000000000E+00 0. -1.
        -14    1    4    4    0    0  0.32066829444E+02 -0.81008411821E+01  0.65132884689E+02  0.73049283682E+02  0.00000000000E+00 0.  1.
</event>
<event>
12    1  0.9962621E-001  0.2247331E+03  0.7818608E-02  0.1130932E+00
         21   -1    0    0  501  502  0.00000000000E+00  0.00000000000E+00  0.12175809498E+03  0.12175809498E+03  0.00000000000E+00 0. -1.
         21   -1    0    0  502  503 -0.00000000000E+00 -0.00000000000E+00 -0.58150137753E+03  0.58150137753E+03  0.00000000000E+00 0. -1.
         -6    2    1    2    0  503  0.26581953434E+02 -0.13770731069E+03 -0.39668212427E+02  0.22820723360E+03  0.17559917632E+03 0.  0.
        -24    2    3    3    0    0  0.11277620206E+02 -0.12174772118E+03  0.34245053793E+02  0.15091433589E+03  0.81564212357E+02 0.  0.
          6    2    1    2  501    0 -0.26581953434E+02  0.13770731069E+03 -0.42007507013E+03  0.47505223891E+03  0.17187687886E+03 0.  0.
         24    2    5    5    0    0 -0.18657306114E+00  0.56814277163E+02 -0.89084766790E+02  0.13326711653E+03  0.81216573276E+02 0.  0.
          5    1    5    5  501    0 -0.26395380373E+02  0.80893033528E+02 -0.33099030334E+03  0.34178512238E+03  0.47000000000E+01 0. -1.
        -11    1    6    6    0    0 -0.22361298727E+02  0.67805886629E+02 -0.50596301109E+02  0.87508008938E+02  0.00000000000E+00 0.  1.
         12    1    6    6    0    0  0.22174725666E+02 -0.10991609466E+02 -0.38488465681E+02  0.45759107590E+02  0.00000000000E+00 0. -1.
         -5    1    3    3    0  503  0.15304333228E+02 -0.15959589512E+02 -0.73913266220E+02  0.77292897709E+02  0.47000000000E+01 0.  1.
         13    1    4    4    0    0 -0.18024129406E+02 -0.11276117816E+03  0.16167722188E+02  0.11533146917E+03  0.00000000000E+00 0. -1.
        -14    1    4    4    0    0  0.29301749612E+02 -0.89865430197E+01  0.18077331604E+02  0.35582866715E+02  0.00000000000E+00 0.  1.
</event>
<event>
12    1  0.9962621E-001  0.3102088E+03  0.7818608E-02  0.1080264E+00
         21   -1    0    0  501  502  0.00000000000E+00  0.00000000000E+00  0.20604055015E+04  0.20604055015E+04  0.00000000000E+00 0.  1.
         21   -1    0    0  502  503 -0.00000000000E+00 -0.00000000000E+00 -0.47107873933E+02  0.47107873933E+02  0.00000000000E+00 0.  1.
         -6    2    1    2    0  503  0.13742375182E+03 -0.21893841105E+03  0.90606426426E+03  0.95764590066E+03  0.17121303886E+03 0.  0.
        -24    2    3    3    0    0  0.33884290948E+02 -0.16883686684E+03  0.47309294326E+03  0.50963157109E+03  0.79078268256E+02 0.  0.
          6    2    1    2  501    0 -0.13742375182E+03  0.21893841105E+03  0.11072333633E+04  0.11498674748E+04  0.17149394546E+03 0.  0.
         24    2    5    5    0    0 -0.56832953752E+02  0.36664029462E+02  0.28006123003E+03  0.29901222564E+03  0.79998642651E+02 0.  0.
          5    1    5    5  501    0 -0.80590798070E+02  0.18227438159E+03  0.82717213329E+03  0.85085524916E+03  0.47000000000E+01 0. -1.
        -13    1    6    6    0    0 -0.24593810967E+02  0.38972762952E+02  0.55508096057E+02  0.72144857876E+02  0.00000000000E+00 0.  1.
         14    1    6    6    0    0 -0.32239142785E+02 -0.23087334905E+01  0.22455313398E+03  0.22686736776E+03  0.00000000000E+00 0. -1.
         -5    1    3    3    0  503  0.10353946087E+03 -0.50101544215E+02  0.43297132100E+03  0.44801432957E+03  0.47000000000E+01 0.  1.
         11    1    4    4    0    0 -0.14090945954E+02 -0.87314349446E+02  0.16321667764E+03  0.18563952768E+03  0.00000000000E+00 0. -1.
        -12    1    4    4    0    0  0.47975236902E+02 -0.81522517392E+02  0.30987626562E+03  0.32399204341E+03  0.00000000000E+00 0.  1.
</event>
<event>
12    1  0.9962621E-001  0.1811535E+03  0.7818608E-02  0.1167350E+00
         21   -1    0    0  501  502  0.00000000000E+00  0.00000000000E+00  0.27910577803E+03  0.27910577803E+03  0.00000000000E+00 0. -1.
         21   -1    0    0  502  503 -0.00000000000E+00 -0.00000000000E+00 -0.19628436180E+03  0.19628436180E+03  0.00000000000E+00 0. -1.
         -6    2    1    2    0  503 -0.21006139191E+02 -0.45904693350E+02  0.19378267943E+03  0.26527026490E+03  0.17397726241E+03 0.  0.
        -24    2    3    3    0    0 -0.39979167776E+02  0.91560494790E+01  0.34785881062E+02  0.95878018600E+02  0.79374869015E+02 0.  0.
          6    2    1    2  501    0  0.21006139191E+02  0.45904693350E+02 -0.11096126320E+03  0.21011987493E+03  0.17114164062E+03 0.  0.
         24    2    5    5    0    0  0.78434274939E+02  0.41241571066E+02 -0.78552391963E+02  0.14384649853E+03  0.81661093466E+02 0.  0.
          5    1    5    5  501    0 -0.57428135748E+02  0.46631222841E+01 -0.32408871240E+02  0.66273376404E+02  0.47000000000E+01 0. -1.
        -13    1    6    6    0    0  0.60040722009E+02  0.59991943277E+02 -0.81181410581E+02  0.11744932091E+03  0.00000000000E+00 0.  1.
         14    1    6    6    0    0  0.18393552930E+02 -0.18750372211E+02  0.26290186177E+01  0.26397177620E+02  0.00000000000E+00 0. -1.
         -5    1    3    3    0  503  0.18973028585E+02 -0.55060742829E+02  0.15899679837E+03  0.16939224630E+03  0.47000000000E+01 0.  1.
         11    1    4    4    0    0 -0.18469357540E+02 -0.34418351969E+02  0.63448971722E+01  0.39572690587E+02  0.00000000000E+00 0. -1.
        -12    1    4    4    0    0 -0.21509810237E+02  0.43574401448E+02  0.28440983890E+02  0.56305328012E+02  0.00000000000E+00 0.  1.
</event>
<event>
12    1  0.9962621E-001  0.2092249E+03  0.7818608E-02  0.1142362E+00
         21   -1    0    0  503  502  0.00000000000E+00  0.00000000000E+00  0.44694011823E+03  0.44694011823E+03  0.00000000000E+00 0.  1.
         21   -1    0    0  501  503 -0.00000000000E+00 -0.00000000000E+00 -0.15839487077E+03  0.15839487077E+03  0.00000000000E+00 0.  1.
          6    2    1    2  501    0 -0.60051482254E+02  0.10197185111E+03  0.33209810719E+03  0.39251012332E+03  0.17254160417E+03 0.  0.
         24    2    3    3    0    0  0.29828118542E+02  0.80577113608E+02  0.18540300098E+03  0.21908111301E+03  0.78992869370E+02 0.  0.
         -6    2    1    2    0  502  0.60051482254E+02 -0.10197185111E+03 -0.43552859730E+02  0.21282486569E+03  0.17144425602E+03 0.  0.
        -24    2    5    5    0    0  0.51586793477E+02 -0.95821602453E+02 -0.91508212937E+02  0.16351682967E+03  0.80752856246E+02 0.  0.
          5    1    3    3  501    0 -0.89879600796E+02  0.21394737506E+02  0.14669510621E+03  0.17342901031E+03  0.47000000000E+01 0. -1.
        -13    1    4    4    0    0  0.43483445053E+02  0.10755242230E+02  0.84196102548E+02  0.95370167837E+02  0.00000000000E+00 0.  1.
         14    1    4    4    0    0 -0.13655326510E+02  0.69821871377E+02  0.10120689843E+03  0.12371094517E+03  0.00000000000E+00 0. -1.
         -5    1    5    5    0  502  0.84646887765E+01 -0.61502486605E+01  0.47955353207E+02  0.49308036018E+02  0.47000000000E+01 0.  1.
         13    1    6    6    0    0 -0.27070489769E+01 -0.45922816987E+02 -0.74947090880E+02  0.87939181629E+02  0.00000000000E+00 0. -1.
        -14    1    6    6    0    0  0.54293842454E+02 -0.49898785465E+02 -0.16561122057E+02  0.75577648039E+02  0.00000000000E+00 0.  1.
</event>
<event>
12    1  0.9962621E-001  0.2633655E+03  0.7818608E-02  0.1105188E+00
         21   -1    0    0  503  502  0.00000000000E+00  0.00000000000E+00  0.15898753043E+04  0.15898753043E+04  0.00000000000E+00 0. -1.
         21   -1    0    0  501  503 -0.00000000000E+00 -0.00000000000E+00 -0.67911377912E+02  0.67911377912E+02  0.00000000000E+00 0. -1.
          6    2    1    2  501    0 -0.16856507536E+03  0.10623213010E+03  0.12569075909E+04  0.12841341029E+04  0.17170978984E+03 0.  0.
         24    2    3    3    0    0 -0.18790773175E+03  0.12091739724E+03  0.11058206960E+04  0.11310356534E+04  0.80448149967E+02 0.  0.
         -6    2    1    2    0  502  0.16856507536E+03 -0.10623213010E+03  0.26505633551E+03  0.37365257940E+03  0.17222641782E+03 0.  0.
        -24    2    5    5    0    0  0.14945128859E+03 -0.40567168307E+02  0.11567175313E+03  0.20928996958E+03  0.80255554872E+02 0.  0.
          5    1    3    3  501    0  0.19342656394E+02 -0.14685267144E+02  0.15108689487E+03  0.15309844946E+03  0.47000000000E+01 0. -1.
        -11    1    4    4    0    0 -0.11803801084E+03  0.59423105962E+02  0.46225718012E+03  0.48077622456E+03  0.00000000000E+00 0.  1.
         12    1    4    4    0    0 -0.69869720912E+02  0.61494291282E+02  0.64356351592E+03  0.65025942884E+03  0.00000000000E+00 0. -1.
         -5    1    5    5    0  502  0.19113786766E+02 -0.65664961792E+02  0.14938458238E+03  0.16436260981E+03  0.47000000000E+01 0.  1.
         11    1    6    6    0    0  0.12878973786E+03 -0.60890558164E+02  0.80194313645E+02  0.16347961522E+03  0.00000000000E+00 0. -1.
        -12    1    6    6    0    0  0.20661550731E+02  0.20323389857E+02  0.35477439488E+02  0.45810354359E+02  0.00000000000E+00 0.  1.
</event>
<event>
12    1  0.9962621E-001  0.2019531E+03  0.7818608E-02  0.1148302E+00
         21   -1    0    0  501  502  0.00000000000E+00  0.00000000000E+00  0.11393980286E+03  0.11393980286E+03  0.00000000000E+00 0. -1.
         21   -1    0    0  502  503 -0.00000000000E+00 -0.00000000000E+00 -0.47742830617E+03  0.47742830617E+03  0.00000000000E+00 0. -1.
         -6    2    1    2    0  503 -0.10234761881E+03  0.26814757626E+02 -0.32459928872E+02  0.20359886998E+03  0.17089407999E+03 0.  0.
        -24    2    3    3    0    0 -0.60152555745E+02  0.36306289972E+02 -0.84432945903E+02  0.13582131446E+03  0.79887611395E+02 0.  0.
          6    2    1    2  501    0  0.10234761881E+03 -0.26814757626E+02 -0.33102857444E+03  0.38776923905E+03  0.17202034577E+03 0.  0.
         24    2    5    5    0    0  0.69412555898E+02  0.51476949150E+02 -0.18141988770E+03  0.21566706340E+03  0.78301515757E+02 0.  0.
          5    1    5    5  501    0  0.32935062908E+02 -0.78291706777E+02 -0.14960868674E+03  0.17210217566E+03  0.47000000000E+01 0. -1.
        -11    1    6    6    0    0  0.86016801677E+01  0.18635501849E+02  0.10453557267E+01  0.20551486551E+02  0.00000000000E+00 0.  1.
         12    1    6    6    0    0  0.60810875731E+02  0.32841447302E+02 -0.18246524343E+03  0.19511557684E+03  0.00000000000E+00 0. -1.
         -5    1    3    3    0  503 -0.42195063061E+02 -0.94915323453E+01  0.51973017031E+02  0.67777555520E+02  0.47000000000E+01 0.  1.
         11    1    4    4    0    0  0.37229972877E+01  0.35268498192E+02 -0.82749350696E+01  0.36417059518E+02  0.00000000000E+00 0. -1.
        -12    1    4    4    0    0 -0.63875553033E+02  0.10377917793E+01 -0.76158010833E+02  0.99404254945E+02  0.00000000000E+00 0.  1.
</event>
<event>
12    1  0.9962621E-001  0.3281331E+03  0.7818608E-02  0.1072104E+00
         21   -1    0    0  503  502  0.00000000000E+00  0.00000000000E+00  0.19814595463E+03  0.19814595463E+03  0.00000000000E+00 0.  1.
         21   -1    0    0  501  503 -0.00000000000E+00 -0.00000000000E+00 -0.72631970781E+03  0.72631970781E+03  0.00000000000E+00 0.  1.
          6    2    1    2  501    0  0.17974468567E+03  0.21218101278E+03 -0.49771866686E+03  0.59615030170E+03  0.17419063311E+03 0.  0.
         24    2    3    3    0    0  0.18782469061E+03  0.13179030162E+03 -0.31781301311E+03  0.39887869408E+03  0.73839713474E+02 0.  0.
         -6    2    1    2    0  502 -0.17974468567E+03 -0.21218101278E+03 -0.30455086322E+02  0.32831536074E+03  0.17185613054E+03 0.  0.
        -24    2    5    5    0    0 -0.14633803895E+02 -0.54643372802E+02 -0.15799022328E+02  0.99587134447E+02  0.80423515424E+02 0.  0.
          5    1    3    3  501    0 -0.80800049415E+01  0.80390711157E+02 -0.17990565376E+03  0.19727160762E+03  0.47000000000E+01 0. -1.
        -11    1    4    4    0    0  0.26635650828E+02 -0.20132907088E+01 -0.14909346216E+02  0.30590845674E+02  0.00000000000E+00 0.  1.
         12    1    4    4    0    0  0.16118903978E+03  0.13380359233E+03 -0.30290366689E+03  0.36828784841E+03  0.00000000000E+00 0. -1.
         -5    1    5    5    0  502 -0.16511088177E+03 -0.15753763998E+03 -0.14656063994E+02  0.22872822629E+03  0.47000000000E+01 0.  1.
         13    1    6    6    0    0 -0.41026879631E+02 -0.44215881298E+02 -0.30539910733E+02  0.67608691444E+02  0.00000000000E+00 0. -1.
        -14    1    6    6    0    0  0.26393075736E+02 -0.10427491504E+02  0.14740888406E+02  0.31978443002E+02  0.00000000000E+00 0.  1.
</event>
<event>
12    1  0.9962621E-001  0.3243078E+03  0.7818608E-02  0.1073795E+00
         21   -1    0    0  503  502  0.00000000000E+00  0.00000000000E+00  0.85910123832E+03  0.85910123832E+03  0.00000000000E+00 0.  1.
         21   -1    0    0  501  503 -0.00000000000E+00 -0.00000000000E+00 -0.18134323038E+03  0.18134323038E+03  0.00000000000E+00 0.  1.
          6    2    1    2  501    0  0.20688634551E+03 -0.18017832319E+03  0.41077051495E+02  0.32592489925E+03  0.17109508375E+03 0.  0.
         24    2    3    3    0    0  0.73876946711E+02 -0.90229662317E+02  0.64801304258E+02  0.16354512239E+03  0.94597054962E+02 0.  0.
         -6    2    1    2    0  502 -0.20688634551E+03  0.18017832319E+03  0.63668095645E+03  0.71451956945E+03  0.17294330494E+03 0.  0.
        -24    2    5    5    0    0 -0.12512075910E+03  0.29109174168E+02  0.28723207563E+03  0.32510448345E+03  0.81780874949E+02 0.  0.
          5    1    3    3  501    0  0.13300939880E+03 -0.89948660871E+02 -0.23724252763E+02  0.16237977686E+03  0.47000000000E+01 0. -1.
        -13    1    4    4    0    0  0.59851612246E+02 -0.10730803292E+02  0.55425220027E+02  0.82275881294E+02  0.00000000000E+00 0.  1.
         14    1    4    4    0    0  0.14025334466E+02 -0.79498859025E+02  0.93760842311E+01  0.81269241098E+02  0.00000000000E+00 0. -1.
         -5    1    5    5    0  502 -0.81765586417E+02  0.15106914902E+03  0.34944888081E+03  0.38941508601E+03  0.47000000000E+01 0.  1.
         11    1    6    6    0    0 -0.11440596216E+03  0.51158324177E+02  0.21540521408E+03  0.24920935890E+03  0.00000000000E+00 0. -1.
        -12    1    6    6    0    0 -0.10714796937E+02 -0.22049150009E+02  0.71826861557E+02  0.75895124551E+02  0.00000000000E+00 0.  1.
</event>
<event>
12    1  0.9962621E-001  0.2116135E+03  0.7818608E-02  0.1140874E+00
         21   -1    0    0  501  502  0.00000000000E+00  0.00000000000E+00  0.10303964581E+04  0.10303964581E+04  0.00000000000E+00 0.  1.
         21   -1    0    0  502  503 -0.00000000000E+00 -0.00000000000E+00 -0.63041820322E+02  0.63041820322E+02  0.00000000000E+00 0.  1.
         -6    2    1    2    0  503 -0.96069076037E+02  0.68257465058E+02  0.79531385753E+03  0.82298506768E+03  0.17576103307E+03 0.  0.
        -24    2    3    3    0    0 -0.79854685265E+02 -0.16945016932E+02  0.31888029742E+03  0.33869858573E+03  0.79800899332E+02 0.  0.
          6    2    1    2  501    0  0.96069076037E+02 -0.68257465058E+02  0.17204078023E+03  0.27045321072E+03  0.17221660843E+03 0.  0.
         24    2    5    5    0    0  0.48823978193E+02  0.39123559645E+01  0.21636880850E+02  0.97005797118E+02  0.80888087415E+02 0.  0.
          5    1    5    5  501    0  0.47245097844E+02 -0.72169821022E+02  0.15040389938E+03  0.17344741360E+03  0.47000000000E+01 0. -1.
        -11    1    6    6    0    0 -0.83665006602E+01 -0.22754031917E+02  0.23654710479E+02  0.33871664111E+02  0.00000000000E+00 0.  1.
         12    1    6    6    0    0  0.57190478853E+02  0.26666387882E+02 -0.20178296283E+01  0.63134133007E+02  0.00000000000E+00 0. -1.
         -5    1    3    3    0  503 -0.16214390773E+02  0.85202481990E+02  0.47643356011E+03  0.48428648195E+03  0.47000000000E+01 0.  1.
         11    1    4    4    0    0 -0.15362123751E+02 -0.14587446968E+02  0.10511462806E+02  0.23649086780E+02  0.00000000000E+00 0. -1.
        -12    1    4    4    0    0 -0.64492561514E+02 -0.23575699640E+01  0.30836883461E+03  0.31504949895E+03  0.00000000000E+00 0.  1.
</event>
<event>
12    1  0.9962621E-001  0.6066003E+03  0.7818608E-02  0.9891889E-01
         21   -1    0    0  503  502  0.00000000000E+00  0.00000000000E+00  0.10318834916E+04  0.10318834916E+04  0.00000000000E+00 0.  1.
         21   -1    0    0  501  503 -0.00000000000E+00 -0.00000000000E+00 -0.81954675421E+03  0.81954675421E+03  0.00000000000E+00 0. -1.
          6    2    1    2  501    0  0.56754858969E+03  0.12726518123E+03  0.80199242595E+03  0.10054646808E+04  0.17163783080E+03 0.  0.
         24    2    3    3    0    0  0.31489353620E+03  0.12173444361E+03  0.38492346629E+03  0.51778264067E+03  0.77172366672E+02 0.  0.
         -6    2    1    2    0  502 -0.56754858969E+03 -0.12726518123E+03 -0.58965568860E+03  0.84596556501E+03  0.17220940184E+03 0.  0.
        -24    2    5    5    0    0 -0.29902102231E+03 -0.79720319433E+02 -0.40724749027E+03  0.51784606065E+03  0.80901935006E+02 0.  0.
          5    1    3    3  501    0  0.25265505348E+03  0.55307376184E+01  0.41706895966E+03  0.48768204009E+03  0.47000000000E+01 0. -1.
        -13    1    4    4    0    0  0.19615530599E+03  0.11500332285E+03  0.25188536334E+03  0.33933597599E+03  0.00000000000E+00 0.  1.
         14    1    4    4    0    0  0.11873823021E+03  0.67311207598E+01  0.13303810295E+03  0.17844666469E+03  0.00000000000E+00 0. -1.
         -5    1    5    5    0  502 -0.26852756738E+03 -0.47544861793E+02 -0.18240819832E+03  0.32811950436E+03  0.47000000000E+01 0.  1.
         13    1    6    6    0    0 -0.26563617560E+03 -0.78409441790E+02 -0.31349264236E+03  0.41831597527E+03  0.00000000000E+00 0. -1.
        -14    1    6    6    0    0 -0.33384846708E+02 -0.13108776427E+01 -0.93754847912E+02  0.99530085386E+02  0.00000000000E+00 0.  1.
</event>
<event>
12    1  0.9962621E-001  0.2070442E+03  0.7818608E-02  0.1145251E+00
         21   -1    0    0  503  502  0.00000000000E+00  0.00000000000E+00  0.55937347842E+03  0.55937347842E+03  0.00000000000E+00 0.  1.
         21   -1    0    0  501  503 -0.00000000000E+00 -0.00000000000E+00 -0.83967938570E+02  0.83967938570E+02  0.00000000000E+00 0.  1.
          6    2    1    2  501    0 -0.11435894627E+03  0.17174633365E+02  0.12504737437E+03  0.23637931282E+03  0.16390667183E+03 0.  0.
         24    2    3    3    0    0 -0.23939169900E+01  0.29629965325E+02  0.33663489441E+02  0.91243488505E+02  0.79425927690E+02 0.  0.
         -6    2    1    2    0  502  0.11435894627E+03 -0.17174633365E+02  0.35035816548E+03  0.40696210417E+03  0.17173926019E+03 0.  0.
        -24    2    5    5    0    0  0.13939422164E+03 -0.31612731380E+02  0.22378638860E+03  0.27704779245E+03  0.79025424822E+02 0.  0.
          5    1    3    3  501    0 -0.11196502928E+03 -0.12455331960E+02  0.91383884930E+02  0.14513582432E+03  0.47000000000E+01 0. -1.
        -13    1    4    4    0    0 -0.50063416324E+01  0.42217412506E+01  0.56561958639E+02  0.56939807875E+02  0.00000000000E+00 0.  1.
         14    1    4    4    0    0  0.26124246424E+01  0.25408224074E+02 -0.22898469198E+02  0.34303680630E+02  0.00000000000E+00 0. -1.
         -5    1    5    5    0  502 -0.25035275371E+02  0.14438098015E+02  0.12657177688E+03  0.12991431172E+03  0.47000000000E+01 0.  1.
         13    1    6    6    0    0  0.12512286038E+03 -0.21192461037E+02  0.22604640233E+03  0.25923315104E+03  0.00000000000E+00 0. -1.
        -14    1    6    6    0    0  0.14271361261E+02 -0.10420270344E+02 -0.22600137346E+01  0.17814641404E+02  0.00000000000E+00 0.  1.
</event>
<event>
12    1  0.9962621E-001  0.2720780E+03  0.7818608E-02  0.1100097E+00
         21   -1    0    0  503  502  0.00000000000E+00  0.00000000000E+00  0.34085630448E+03  0.34085630448E+03  0.00000000000E+00 0.  1.
         21   -1    0    0  501  503 -0.00000000000E+00 -0.00000000000E+00 -0.22331305523E+03  0.22331305523E+03  0.00000000000E+00 0.  1.
          6    2    1    2  501    0  0.92210423686E+02 -0.18892408877E+03  0.10553749625E+03  0.29182661697E+03  0.17271229750E+03 0.  0.
         24    2    3    3    0    0  0.12273483410E+03 -0.19106622994E+03  0.98750170635E+02  0.26013298687E+03  0.79670765851E+02 0.  0.
         -6    2    1    2    0  502 -0.92210423686E+02  0.18892408877E+03  0.12005753006E+02  0.27234274274E+03  0.17271756675E+03 0.  0.
        -24    2    5    5    0    0 -0.14065062626E+02  0.17975854373E+03  0.20612696650E+02  0.19305293160E+03  0.65830016770E+02 0.  0.
          5    1    3    3  501    0 -0.30524410417E+02  0.21421411745E+01  0.67873256104E+01  0.31693630102E+02  0.47000000000E+01 0. -1.
        -11    1    4    4    0    0  0.42130841869E+02 -0.13307199245E+03  0.42014021795E+02  0.14576810707E+03  0.00000000000E+00 0.  1.
         12    1    4    4    0    0  0.80603992233E+02 -0.57994237486E+02  0.56736148840E+02  0.11436487980E+03  0.00000000000E+00 0. -1.
         -5    1    5    5    0  502 -0.78145361060E+02  0.91655450380E+01 -0.86069436446E+01  0.79289811136E+02  0.47000000000E+01 0.  1.
         11    1    6    6    0    0 -0.33478561264E+02  0.12004206588E+03  0.33290823608E+02  0.12899298656E+03  0.00000000000E+00 0. -1.
        -12    1    6    6    0    0  0.19413498638E+02  0.59716477849E+02 -0.12678126958E+02  0.64059945045E+02  0.00000000000E+00 0.  1.
</event>
<event>
12    1  0.9962621E-001  0.2286627E+03  0.7818608E-02  0.1128108E+00
         21   -1    0    0  503  502  0.00000000000E+00  0.00000000000E+00  0.84346805737E+03  0.84346805737E+03  0.00000000000E+00 0. -1.
         21   -1    0    0  501  503 -0.00000000000E+00 -0.00000000000E+00 -0.63474964261E+02  0.63474964261E+02  0.00000000000E+00 0. -1.
          6    2    1    2  501    0  0.49461593057E+02 -0.13957969021E+03  0.47831900616E+03  0.53016571495E+03  0.17423453889E+03 0.  0.
         24    2    3    3    0    0  0.72068477878E+02 -0.87155705411E+02  0.44143491582E+03  0.46203443326E+03  0.76295806746E+02 0.  0.
         -6    2    1    2    0  502 -0.49461593057E+02  0.13957969021E+03  0.30167408695E+03  0.37677730668E+03  0.17036708892E+03 0.  0.
        -24    2    5    5    0    0 -0.12144935766E+02  0.14051742015E+03  0.29229804605E+03  0.33800344446E+03  0.94422115570E+02 0.  0.
          5    1    3    3  501    0 -0.22606884821E+02 -0.52423984802E+02  0.36884090346E+02  0.68131281688E+02  0.47000000000E+01 0. -1.
        -13    1    4    4    0    0  0.45033559974E+02 -0.76834322404E+02  0.20077497929E+03  0.21964090451E+03  0.00000000000E+00 0.  1.
         14    1    4    4    0    0  0.27034917904E+02 -0.10321383007E+02  0.24065993653E+03  0.24239352875E+03  0.00000000000E+00 0. -1.
         -5    1    5    5    0  502 -0.37316657291E+02 -0.93772994033E+00  0.93760408953E+01  0.38773862223E+02  0.47000000000E+01 0.  1.
         13    1    6    6    0    0 -0.51897908924E+02  0.71829512547E+02  0.17821443230E+03  0.19903079084E+03  0.00000000000E+00 0. -1.
        -14    1    6    6    0    0  0.39752973159E+02  0.68687907607E+02  0.11408361375E+03  0.13897265362E+03  0.00000000000E+00 0.  1.
</event>
<event>
12    1  0.9962621E-001  0.1888568E+03  0.7818608E-02  0.1161808E+00
         21   -1    0    0  503  502  0.00000000000E+00  0.00000000000E+00  0.10944048812E+04  0.10944048812E+04  0.00000000000E+00 0.  1.
         21   -1    0    0  501  503 -0.00000000000E+00 -0.00000000000E+00 -0.45091463981E+02  0.45091463981E+02  0.00000000000E+00 0.  1.
          6    2    1    2  501    0 -0.41192943201E+02 -0.30668999339E+02  0.83446826420E+03  0.85344509069E+03  0.17144618041E+03 0.  0.
         24    2    3    3    0    0  0.35700796970E+02  0.16244354071E+02  0.42549570784E+03  0.43464424081E+03  0.79565022059E+02 0.  0.
         -6    2    1    2    0  502  0.41192943201E+02  0.30668999339E+02  0.21484515302E+03  0.28605125449E+03  0.18174001851E+03 0.  0.
        -24    2    5    5    0    0 -0.29670570713E+02  0.36158727039E+02  0.18858376289E+03  0.21013336907E+03  0.80027500682E+02 0.  0.
          5    1    3    3  501    0 -0.76893740170E+02 -0.46913353410E+02  0.40897255636E+03  0.41880084988E+03  0.47000000000E+01 0. -1.
        -11    1    4    4    0    0  0.23120869451E+01 -0.28451568430E+01 -0.28075093831E+01  0.46176587617E+01  0.00000000000E+00 0.  1.
         12    1    4    4    0    0  0.33388710024E+02  0.19089510914E+02  0.42830321723E+03  0.43002658205E+03  0.00000000000E+00 0. -1.
         -5    1    5    5    0  502  0.70863513914E+02 -0.54897277003E+01  0.26261390128E+02  0.75917885415E+02  0.47000000000E+01 0.  1.
         13    1    6    6    0    0 -0.20374604229E+02 -0.12384655247E+02  0.11863812613E+02  0.26631827440E+02  0.00000000000E+00 0. -1.
        -14    1    6    6    0    0 -0.92959664843E+01  0.48543382286E+02  0.17671995027E+03  0.18350154163E+03  0.00000000000E+00 0.  1.
</event>
<event>
12    1  0.9962621E-001  0.1803809E+03  0.7818608E-02  0.1167470E+00
         21   -1    0    0  501  502  0.00000000000E+00  0.00000000000E+00  0.34303694013E+03  0.34303694013E+03  0.00000000000E+00 0. -1.
         21   -1    0    0  502  503 -0.00000000000E+00 -0.00000000000E+00 -0.11162147900E+03  0.11162147900E+03  0.00000000000E+00 0. -1.
         -6    2    1    2    0  503  0.52348472968E+02  0.69614972209E+01  0.27350132911E+02  0.18229850113E+03  0.17232495083E+03 0.  0.
        -24    2    3    3    0    0  0.63340007691E+02  0.50597310152E+02  0.57610527107E+02  0.12786799991E+03  0.80369199317E+02 0.  0.
          6    2    1    2  501    0 -0.52348472968E+02 -0.69614972209E+01  0.20406532822E+03  0.27235991800E+03  0.17247736572E+03 0.  0.
         24    2    5    5    0    0 -0.36115448363E+02 -0.25763220924E+02  0.71645841829E+02  0.13754884175E+03  0.10871286977E+03 0.  0.
          5    1    5    5  501    0 -0.16233024605E+02  0.18801723703E+02  0.13241948639E+03  0.13481107625E+03  0.47000000000E+01 0. -1.
        -13    1    6    6    0    0 -0.26742534319E+02 -0.68185687805E+02  0.52254638209E+02  0.89972208918E+02  0.00000000000E+00 0.  1.
         14    1    6    6    0    0 -0.93729140446E+01  0.42422466881E+02  0.19391203620E+02  0.47576632834E+02  0.00000000000E+00 0. -1.
         -5    1    3    3    0  503 -0.10991534723E+02 -0.43635812931E+02 -0.30260394197E+02  0.54430501216E+02  0.47000000000E+01 0.  1.
         11    1    4    4    0    0  0.74066173969E+01 -0.46307143244E+01 -0.17239843019E+02  0.19326502108E+02  0.00000000000E+00 0. -1.
        -12    1    4    4    0    0  0.55933390294E+02  0.55228024477E+02  0.74850370126E+02  0.10854149780E+03  0.00000000000E+00 0.  1.
</event>
<event>
12    1  0.9962621E-001  0.1755241E+03  0.7818608E-02  0.1172963E+00
         21   -1    0    0  501  502  0.00000000000E+00  0.00000000000E+00  0.82717611657E+02  0.82717611657E+02  0.00000000000E+00 0.  1.
         21   -1    0    0  502  503 -0.00000000000E+00 -0.00000000000E+00 -0.36852411167E+03  0.36852411167E+03  0.00000000000E+00 0.  1.
         -6    2    1    2    0  503  0.54941164860E+01 -0.17457959619E+02 -0.12345543467E+03  0.21214636007E+03  0.17155135696E+03 0.  0.
        -24    2    3    3    0    0  0.19151496179E+02 -0.76730383886E+01 -0.15508468088E+03  0.17602478869E+03  0.80671015027E+02 0.  0.
          6    2    1    2  501    0 -0.54941164860E+01  0.17457959619E+02 -0.16235106534E+03  0.23909536325E+03  0.17456734700E+03 0.  0.
         24    2    5    5    0    0  0.43721598004E+01  0.90427622220E+01 -0.19086493279E+03  0.20742061635E+03  0.80579167204E+02 0.  0.
          5    1    5    5  501    0 -0.98662762864E+01  0.84151973965E+01  0.28513867443E+02  0.31674746905E+02  0.47000000000E+01 0. -1.
        -13    1    6    6    0    0  0.39079329254E+02  0.18754709595E+02 -0.12554753990E+03  0.13281987006E+03  0.00000000000E+00 0.  1.
         14    1    6    6    0    0 -0.34707169453E+02 -0.97119473728E+01 -0.65317392882E+02  0.74600746284E+02  0.00000000000E+00 0. -1.
         -5    1    3    3    0  503 -0.13657379693E+02 -0.97849212300E+01  0.31629246212E+02  0.36121571387E+02  0.47000000000E+01 0.  1.
         13    1    4    4    0    0 -0.10486674247E+02 -0.35851135414E+02 -0.10450916662E+03  0.11098396350E+03  0.00000000000E+00 0. -1.
        -14    1    4    4    0    0  0.29638170426E+02  0.28178097026E+02 -0.50575514256E+02  0.65040825182E+02  0.00000000000E+00 0.  1.
</event>
<event>
12    1  0.9962621E-001  0.2054806E+03  0.7818608E-02  0.1145488E+00
         21   -1    0    0  503  502  0.00000000000E+00  0.00000000000E+00  0.41513381831E+03  0.41513381831E+03  0.00000000000E+00 0.  1.
         21   -1    0    0  501  503 -0.00000000000E+00 -0.00000000000E+00 -0.14148820602E+03  0.14148820602E+03  0.00000000000E+00 0.  1.
          6    2    1    2  501    0  0.74499507906E+02  0.83702848511E+02  0.28604098593E+03  0.35219557770E+03  0.17223802075E+03 0.  0.
         24    2    3    3    0    0  0.12871696053E+02  0.10597370188E+03  0.23423421792E+03  0.26852951937E+03  0.76461283549E+02 0.  0.
         -6    2    1    2    0  502 -0.74499507906E+02 -0.83702848511E+02 -0.12395373641E+02  0.20442644663E+03  0.17052912733E+03 0.  0.
        -24    2    5    5    0    0 -0.57506247615E+02 -0.90539574934E+02 -0.64969885861E+02  0.14855444060E+03  0.79642655708E+02 0.  0.
          5    1    3    3  501    0  0.61627811853E+02 -0.22270853371E+02  0.51806768014E+02  0.83666058326E+02  0.47000000000E+01 0. -1.
        -11    1    4    4    0    0 -0.10921437343E+02  0.27373621441E+02  0.14203202823E+03  0.14505754026E+03  0.00000000000E+00 0.  1.
         12    1    4    4    0    0  0.23793133396E+02  0.78600080440E+02  0.92202189687E+02  0.12347197911E+03  0.00000000000E+00 0. -1.
         -5    1    5    5    0  502 -0.16993260291E+02  0.68367264229E+01  0.52574512220E+02  0.55872006038E+02  0.47000000000E+01 0.  1.
         13    1    6    6    0    0  0.32116806305E+01  0.21117724086E+01  0.12696667974E+02  0.13265739814E+02  0.00000000000E+00 0. -1.
        -14    1    6    6    0    0 -0.60717928245E+02 -0.92651347342E+02 -0.77666553835E+02  0.13528870078E+03  0.00000000000E+00 0.  1.
</event>
<event>
12    1  0.9962621E-001  0.2058243E+03  0.7818608E-02  0.1144917E+00
         21   -1    0    0  501  502  0.00000000000E+00  0.00000000000E+00  0.23507044781E+02  0.23507044781E+02  0.00000000000E+00 0. -1.
         21   -1    0    0  502  503 -0.00000000000E+00 -0.00000000000E+00 -0.22293913817E+04  0.22293913817E+04  0.00000000000E+00 0. -1.
         -6    2    1    2    0  503 -0.10603708178E+03  0.39298202861E+02 -0.60982121617E+03  0.64361911441E+03  0.17197510661E+03 0.  0.
        -24    2    3    3    0    0 -0.73534112080E+02  0.68618854084E+02 -0.56912937099E+03  0.58366863576E+03  0.81517008456E+02 0.  0.
          6    2    1    2  501    0  0.10603708178E+03 -0.39298202861E+02 -0.15960631207E+04  0.16092793121E+04  0.17197153065E+03 0.  0.
         24    2    5    5    0    0  0.12042125780E+03  0.14637418638E+02 -0.12784341759E+04  0.12867483951E+04  0.81313940035E+02 0.  0.
          5    1    5    5  501    0 -0.14384176020E+02 -0.53935621499E+02 -0.31762894484E+03  0.32253091695E+03  0.47000000000E+01 0. -1.
        -11    1    6    6    0    0  0.68222489624E+02 -0.31833719624E+02 -0.59271746984E+03  0.59747944973E+03  0.00000000000E+00 0.  1.
         12    1    6    6    0    0  0.52198768176E+02  0.46471138262E+02 -0.68571670608E+03  0.68926894539E+03  0.00000000000E+00 0. -1.
         -5    1    3    3    0  503 -0.32502969700E+02 -0.29320651223E+02 -0.40691845173E+02  0.59950478656E+02  0.47000000000E+01 0.  1.
         11    1    4    4    0    0 -0.47376043668E+02  0.45297594591E+01 -0.11761801710E+03  0.12688185915E+03  0.00000000000E+00 0. -1.
        -12    1    4    4    0    0 -0.26158068412E+02  0.64089094625E+02 -0.45151135389E+03  0.45678677661E+03  0.00000000000E+00 0.  1.
</event>
<event>
12    1  0.9962621E-001  0.8555788E+03  0.7818608E-02  0.9482884E-01
         21   -1    0    0  503  502  0.00000000000E+00  0.00000000000E+00  0.35280914226E+03  0.35280914226E+03  0.00000000000E+00 0.  1.
         21   -1    0    0  501  503 -0.00000000000E+00 -0.00000000000E+00 -0.20937692482E+04  0.20937692482E+04  0.00000000000E+00 0. -1.
          6    2    1    2  501    0 -0.68048800867E+03  0.48904413251E+03 -0.75401931327E+03  0.11404210874E+04  0.17258921857E+03 0.  0.
         24    2    3    3    0    0 -0.49959682589E+03  0.43350615047E+03 -0.59526226565E+03  0.89337457839E+03  0.79097417592E+02 0.  0.
         -6    2    1    2    0  502  0.68048800867E+03 -0.48904413251E+03 -0.98694079261E+03  0.13061573030E+04  0.17253022500E+03 0.  0.
        -24    2    5    5    0    0  0.19605190641E+03 -0.18498792149E+03 -0.27988992242E+03  0.39672256664E+03  0.79959646731E+02 0.  0.
          5    1    3    3  501    0 -0.18089118278E+03  0.55537982041E+02 -0.15875704763E+03  0.24704650904E+03  0.47000000000E+01 0. -1.
        -13    1    4    4    0    0 -0.29431934365E+03  0.20452579204E+03 -0.30841680285E+03  0.47283781568E+03  0.00000000000E+00 0.  1.
         14    1    4    4    0    0 -0.20527748224E+03  0.22898035842E+03 -0.28684546280E+03  0.42053676270E+03  0.00000000000E+00 0. -1.
         -5    1    5    5    0  502  0.48443610227E+03 -0.30405621102E+03 -0.70705087019E+03  0.90943473635E+03  0.47000000000E+01 0.  1.
         13    1    6    6    0    0  0.12182343889E+03 -0.11736197562E+03 -0.22739592038E+03  0.28341434013E+03  0.00000000000E+00 0. -1.
        -14    1    6    6    0    0  0.74228467519E+02 -0.67625945876E+02 -0.52494002042E+02  0.11330822652E+03  0.00000000000E+00 0.  1.
</event>
<event>
12    1  0.9962621E-001  0.2499781E+03  0.7818608E-02  0.1113432E+00
         21   -1    0    0  503  502  0.00000000000E+00  0.00000000000E+00  0.15378004508E+04  0.15378004508E+04  0.00000000000E+00 0. -1.
         21   -1    0    0  501  503 -0.00000000000E+00 -0.00000000000E+00 -0.47947164471E+02  0.47947164471E+02  0.00000000000E+00 0. -1.
          6    2    1    2  501    0  0.17305273266E+03  0.55019582442E+02  0.10560949439E+04  0.10851126529E+04  0.17075870706E+03 0.  0.
         24    2    3    3    0    0  0.31798285021E+02  0.56581734156E+02  0.34232891093E+03  0.35748685674E+03  0.79969656194E+02 0.  0.
         -6    2    1    2    0  502 -0.17305273266E+03 -0.55019582442E+02  0.43375834237E+03  0.50063496240E+03  0.17179832149E+03 0.  0.
        -24    2    5    5    0    0 -0.61102402504E+02 -0.74240636844E+02  0.30263375691E+03  0.32708937108E+03  0.78454382294E+02 0.  0.
          5    1    3    3  501    0  0.14125444764E+03 -0.15621517144E+01  0.71376603300E+03  0.72762579611E+03  0.47000000000E+01 0. -1.
        -11    1    4    4    0    0  0.56009120892E+02  0.37330721822E+02  0.27904243001E+03  0.28704578408E+03  0.00000000000E+00 0.  1.
         12    1    4    4    0    0 -0.24210835871E+02  0.19251012334E+02  0.63286480926E+02  0.70441072660E+02  0.00000000000E+00 0. -1.
         -5    1    5    5    0  502 -0.11195033015E+03  0.19221054402E+02  0.13112458546E+03  0.17354559132E+03  0.47000000000E+01 0.  1.
         11    1    6    6    0    0  0.41708319180E+01  0.75359900305E+01  0.21046983854E+01  0.88666081408E+01  0.00000000000E+00 0. -1.
        -12    1    6    6    0    0 -0.65273234422E+02 -0.81776626874E+02  0.30052905853E+03  0.31822276294E+03  0.00000000000E+00 0.  1.
</event>
<event>
12    1  0.9962621E-001  0.1954598E+03  0.7818608E-02  0.1153724E+00
         21   -1    0    0  501  502  0.00000000000E+00  0.00000000000E+00  0.75895628531E+02  0.75895628531E+02  0.00000000000E+00 0.  1.
         21   -1    0    0  502  503 -0.00000000000E+00 -0.00000000000E+00 -0.52797152795E+03  0.52797152795E+03  0.00000000000E+00 0.  1.
         -6    2    1    2    0  503 -0.56607840348E+01  0.92174825268E+02 -0.29293879816E+03  0.35216141987E+03  0.17226805651E+03 0.  0.
        -24    2    3    3    0    0  0.54225393467E+02  0.57713949688E+02 -0.24051596123E+03  0.26530435319E+03  0.79165516044E+02 0.  0.
          6    2    1    2  501    0  0.56607840348E+01 -0.92174825268E+02 -0.15913710127E+03  0.25170573661E+03  0.17176413466E+03 0.  0.
         24    2    5    5    0    0  0.62027113177E+02 -0.29232000941E+02 -0.64126313099E+02  0.12447326409E+03  0.81728433203E+02 0.  0.
          5    1    5    5  501    0 -0.56366329143E+02 -0.62942824327E+02 -0.95010788166E+02  0.12723247252E+03  0.47000000000E+01 0. -1.
        -11    1    6    6    0    0  0.52288651082E+02  0.12431975426E+02 -0.61398805543E+02  0.81599450777E+02  0.00000000000E+00 0.  1.
         12    1    6    6    0    0  0.97384620952E+01 -0.41663976367E+02 -0.27275075563E+01  0.42873813315E+02  0.00000000000E+00 0. -1.
         -5    1    3    3    0  503 -0.59886177502E+02  0.34460875579E+02 -0.52422836932E+02  0.86857066687E+02  0.47000000000E+01 0.  1.
         13    1    4    4    0    0  0.34116535095E+02 -0.78445845578E+00 -0.28539244634E+02  0.44486422943E+02  0.00000000000E+00 0. -1.
        -14    1    4    4    0    0  0.20108858372E+02  0.58498408144E+02 -0.21197671659E+03  0.22081793024E+03  0.00000000000E+00 0.  1.
</event>
<event>
12    1  0.9962621E-001  0.2237336E+03  0.7818608E-02  0.1131253E+00
         21   -1    0    0  503  502  0.00000000000E+00  0.00000000000E+00  0.63406509045E+03  0.63406509045E+03  0.00000000000E+00 0.  1.
         21   -1    0    0  501  503 -0.00000000000E+00 -0.00000000000E+00 -0.78707063126E+02  0.78707063126E+02  0.00000000000E+00 0.  1.
          6    2    1    2  501    0 -0.13773172203E+03 -0.37591918476E+02  0.27801233536E+03  0.35685792708E+03  0.17226009962E+03 0.  0.
         24    2    3    3    0    0 -0.16419777143E+03 -0.55260788511E+02  0.22855048287E+03  0.29785618481E+03  0.80425870962E+02 0.  0.
         -6    2    1    2    0  502  0.13773172203E+03  0.37591918476E+02  0.27734569197E+03  0.35591422650E+03  0.17138005772E+03 0.  0.
        -24    2    5    5    0    0  0.14536101996E+03  0.22024380259E+02  0.28938780542E+03  0.33428884952E+03  0.79930179163E+02 0.  0.
          5    1    3    3  501    0  0.26466049402E+02  0.17668870035E+02  0.49461852488E+02  0.59001742269E+02  0.47000000000E+01 0. -1.
        -11    1    4    4    0    0 -0.28068954858E+02 -0.98650825061E+01  0.21760570102E+01  0.29831548800E+02  0.00000000000E+00 0.  1.
         12    1    4    4    0    0 -0.13612881657E+03 -0.45395706005E+02  0.22637442586E+03  0.26802463601E+03  0.00000000000E+00 0. -1.
         -5    1    5    5    0  502 -0.76292979322E+01  0.15567538218E+02 -0.12042113448E+02  0.21625376977E+02  0.47000000000E+01 0.  1.
         13    1    6    6    0    0  0.11475822149E+03  0.46512277796E+02  0.24854390899E+03  0.27768132109E+03  0.00000000000E+00 0. -1.
        -14    1    6    6    0    0  0.30602798473E+02 -0.24487897537E+02  0.40843896426E+02  0.56607528434E+02  0.00000000000E+00 0.  1.
</event>
<event>
12    1  0.9962621E-001  0.3575469E+03  0.7818608E-02  0.1059665E+00
         21   -1    0    0  501  502  0.00000000000E+00  0.00000000000E+00  0.67573278980E+03  0.67573278980E+03  0.00000000000E+00 0. -1.
         21   -1    0    0  502  503 -0.00000000000E+00 -0.00000000000E+00 -0.20809374040E+03  0.20809374040E+03  0.00000000000E+00 0.  1.
         -6    2    1    2    0  503 -0.29482983459E+03  0.10255470813E+03  0.98979888360E+02  0.37099431588E+03  0.17434926037E+03 0.  0.
        -24    2    3    3    0    0 -0.17565764996E+03 -0.52212130160E+01  0.75188212811E+02  0.20849572329E+03  0.83272613924E+02 0.  0.
          6    2    1    2  501    0  0.29482983459E+03 -0.10255470813E+03  0.36865916104E+03  0.51283221433E+03  0.17217782526E+03 0.  0.
         24    2    5    5    0    0  0.11978056786E+03 -0.71838073122E+02  0.10264774676E+03  0.19287921782E+03  0.84603425254E+02 0.  0.
          5    1    5    5  501    0  0.17504926673E+03 -0.30716635003E+02  0.26601141428E+03  0.31995299651E+03  0.47000000000E+01 0. -1.
        -11    1    6    6    0    0  0.73188583840E+02 -0.35413629389E+02  0.10606189621E+03  0.13364063670E+03  0.00000000000E+00 0.  1.
         12    1    6    6    0    0  0.46591984023E+02 -0.36424443733E+02 -0.34141494464E+01  0.59238581119E+02  0.00000000000E+00 0. -1.
         -5    1    3    3    0  503 -0.11917218463E+03  0.10777592114E+03  0.23791675550E+02  0.16249859259E+03  0.47000000000E+01 0.  1.
         13    1    4    4    0    0 -0.16632762454E+03  0.14785860403E+02  0.48548288672E+02  0.17389777654E+03  0.00000000000E+00 0. -1.
        -14    1    4    4    0    0 -0.93300254202E+01 -0.20007073419E+02  0.26639924138E+02  0.34597946749E+02  0.00000000000E+00 0.  1.
</event>
<event>
12    1  0.9962621E-001  0.1909242E+03  0.7818608E-02  0.1157934E+00
         21   -1    0    0  503  502  0.00000000000E+00  0.00000000000E+00  0.14378896141E+03  0.14378896141E+03  0.00000000000E+00 0. -1.
         21   -1    0    0  501  503 -0.00000000000E+00 -0.00000000000E+00 -0.25174108879E+03  0.25174108879E+03  0.00000000000E+00 0. -1.
          6    2    1    2  501    0  0.80803914167E+02  0.11172524662E+02 -0.55515144648E+02  0.19753584743E+03  0.17112680059E+03 0.  0.
         24    2    3    3    0    0  0.61735120322E+02 -0.48872292855E+01 -0.10237593531E+03  0.14424834142E+03  0.80570725334E+02 0.  0.
         -6    2    1    2    0  502 -0.80803914167E+02 -0.11172524662E+02 -0.52436982725E+02  0.19799420277E+03  0.17262088322E+03 0.  0.
        -24    2    5    5    0    0 -0.21834639956E+02 -0.71305555634E+01 -0.91800188521E+02  0.12682352914E+03  0.84435399009E+02 0.  0.
          5    1    3    3  501    0  0.19068793845E+02  0.16059753948E+02  0.46860790658E+02  0.53287506009E+02  0.47000000000E+01 0. -1.
        -11    1    4    4    0    0  0.69272371465E+02  0.22563093187E+02 -0.78462488579E+02  0.10707061565E+03  0.00000000000E+00 0.  1.
         12    1    4    4    0    0 -0.75372511433E+01 -0.27450322472E+02 -0.23913446727E+02  0.37177725764E+02  0.00000000000E+00 0. -1.
         -5    1    5    5    0  502 -0.58969274210E+02 -0.40419690988E+01  0.39363205796E+02  0.71170673635E+02  0.47000000000E+01 0.  1.
         13    1    6    6    0    0  0.15998827121E+02  0.26417653626E+02 -0.13708075468E+02  0.33790031450E+02  0.00000000000E+00 0. -1.
        -14    1    6    6    0    0 -0.37833467077E+02 -0.33548209190E+02 -0.78092113053E+02  0.93033497688E+02  0.00000000000E+00 0.  1.
</event>
<event>
12    1  0.9962621E-001  0.3773802E+03  0.7818608E-02  0.1052091E+00
         21   -1    0    0  501  502  0.00000000000E+00  0.00000000000E+00  0.54339587877E+03  0.54339587877E+03  0.00000000000E+00 0. -1.
         21   -1    0    0  502  503 -0.00000000000E+00 -0.00000000000E+00 -0.33689190316E+03  0.33689190316E+03  0.00000000000E+00 0. -1.
         -6    2    1    2    0  503  0.33436957498E+03  0.19806450797E+02  0.31276265957E+03  0.49013904103E+03  0.17384041575E+03 0.  0.
        -24    2    3    3    0    0  0.15224883545E+03  0.65466573265E+02  0.19662359671E+03  0.26931516896E+03  0.80026503973E+02 0.  0.
          6    2    1    2  501    0 -0.33436957498E+03 -0.19806450797E+02 -0.10625868396E+03  0.39014874090E+03  0.16949874319E+03 0.  0.
         24    2    5    5    0    0 -0.13945015704E+03 -0.31845201610E+02  0.71852709790E+01  0.16425024174E+03  0.80411756778E+02 0.  0.
          5    1    5    5  501    0 -0.19491941795E+03  0.12038750813E+02 -0.11344395494E+03  0.22589849917E+03  0.47000000000E+01 0. -1.
        -13    1    6    6    0    0 -0.11221944652E+03  0.40533692995E+01 -0.16249719739E+02  0.11346227290E+03  0.00000000000E+00 0.  1.
         14    1    6    6    0    0 -0.27230710517E+02 -0.35898570909E+02  0.23434990718E+02  0.50787968837E+02  0.00000000000E+00 0. -1.
         -5    1    3    3    0  503  0.18212073953E+03 -0.45660122468E+02  0.11613906286E+03  0.22082387207E+03  0.47000000000E+01 0.  1.
         11    1    4    4    0    0 -0.96779926342E+01  0.21296713915E+01  0.14062248959E+02  0.17203077848E+02  0.00000000000E+00 0. -1.
        -12    1    4    4    0    0  0.16192682809E+03  0.63336901873E+02  0.18256134775E+03  0.25211209111E+03  0.00000000000E+00 0.  1.
</event>
<event>
12    1  0.9962621E-001  0.3023142E+03  0.7818608E-02  0.1084480E+00
         21   -1    0    0  501  502  0.00000000000E+00  0.00000000000E+00  0.14889049632E+03  0.14889049632E+03  0.00000000000E+00 0.  1.
         21   -1    0    0  502  503 -0.00000000000E+00 -0.00000000000E+00 -0.68408060566E+03  0.68408060566E+03  0.00000000000E+00 0. -1.
         -6    2    1    2    0  503 -0.91846079182E+02 -0.22693553407E+03 -0.40572680717E+03  0.50410241967E+03  0.17195804307E+03 0.  0.
        -24    2    3    3    0    0 -0.12519450829E+03 -0.14348614865E+03 -0.31018874894E+03  0.37285635984E+03  0.80887980209E+02 0.  0.
          6    2    1    2  501    0  0.91846079182E+02  0.22693553407E+03 -0.12946330218E+03  0.32886868232E+03  0.17736522972E+03 0.  0.
         24    2    5    5    0    0  0.57725185569E+02  0.17773035746E+03 -0.20765906777E+02  0.20468092707E+03  0.80887465091E+02 0.  0.
          5    1    5    5  501    0  0.34120893613E+02  0.49205176608E+02 -0.10869739540E+03  0.12418775525E+03  0.47000000000E+01 0. -1.
        -11    1    6    6    0    0  0.76716980428E+02  0.14167657678E+03 -0.27299210224E+02  0.16341050876E+03  0.00000000000E+00 0.  1.
         12    1    6    6    0    0 -0.18991794860E+02  0.36053780686E+02  0.65333034477E+01  0.41270418312E+02  0.00000000000E+00 0. -1.
         -5    1    3    3    0  503  0.33348429109E+02 -0.83449385420E+02 -0.95538058228E+02  0.13124605983E+03  0.47000000000E+01 0.  1.
         11    1    4    4    0    0 -0.12762666389E+02 -0.33690852947E+02 -0.12443300336E+03  0.12954355079E+03  0.00000000000E+00 0. -1.
        -12    1    4    4    0    0 -0.11243184190E+03 -0.10979529570E+03 -0.18575574558E+03  0.24331280905E+03  0.00000000000E+00 0.  1.
</event>
<event>
12    1  0.9962621E-001  0.2968880E+03  0.7818608E-02  0.1087365E+00
         21   -1    0    0  503  502  0.00000000000E+00  0.00000000000E+00  0.48098703973E+03  0.48098703973E+03  0.00000000000E+00 0.  1.
         21   -1    0    0  501  503 -0.00000000000E+00 -0.00000000000E+00 -0.18164414898E+03  0.18164414898E+03  0.00000000000E+00 0. -1.
          6    2    1    2  501    0  0.61707186568E+02  0.22823829250E+03  0.12304328981E+03  0.31734286040E+03  0.17223920821E+03 0.  0.
         24    2    3    3    0    0  0.37721675536E+02  0.20727249301E+03  0.41411373689E+02  0.22958906152E+03  0.81310664356E+02 0.  0.
         -6    2    1    2    0  502 -0.61707186568E+02 -0.22823829250E+03  0.17629960094E+03  0.34528832830E+03  0.17956053390E+03 0.  0.
        -24    2    5    5    0    0 -0.39085558113E+02 -0.23806570192E+03  0.11468653437E+03  0.27875580977E+03  0.79679614908E+02 0.  0.
          5    1    3    3  501    0  0.23985511032E+02  0.20965799490E+02  0.81631916125E+02  0.87753798881E+02  0.47000000000E+01 0. -1.
        -13    1    4    4    0    0 -0.76012404684E+01 -0.46521963140E+01  0.35335648723E+01  0.95868591264E+01  0.00000000000E+00 0.  1.
         14    1    4    4    0    0  0.45322916004E+02  0.21192468932E+03  0.37877808817E+02  0.22000220240E+03  0.00000000000E+00 0. -1.
         -5    1    5    5    0  502 -0.22621628455E+02  0.98274094249E+01  0.61613066570E+02  0.66532518531E+02  0.47000000000E+01 0.  1.
         13    1    6    6    0    0 -0.60031558456E+02 -0.13124004312E+03  0.76875947339E+02  0.16351650745E+03  0.00000000000E+00 0. -1.
        -14    1    6    6    0    0  0.20946000343E+02 -0.10682565880E+03  0.37810587028E+02  0.11523930232E+03  0.00000000000E+00 0.  1.
</event>
<event>
12    1  0.9962621E-001  0.1875241E+03  0.7818608E-02  0.1161071E+00
         21   -1    0    0  503  502  0.00000000000E+00  0.00000000000E+00  0.73189205705E+02  0.73189205705E+02  0.00000000000E+00 0.  1.
         21   -1    0    0  501  503 -0.00000000000E+00 -0.00000000000E+00 -0.48502017803E+03  0.48502017803E+03  0.00000000000E+00 0.  1.
          6    2    1    2  501    0  0.58839834377E+02 -0.36485112349E+02 -0.16809772847E+03  0.25068508753E+03  0.17260613332E+03 0.  0.
         24    2    3    3    0    0  0.95169507245E+02 -0.27173736934E+02 -0.17149250345E+03  0.21273562982E+03  0.77788960456E+02 0.  0.
         -6    2    1    2    0  502 -0.58839834377E+02  0.36485112349E+02 -0.24373324386E+03  0.30752429621E+03  0.17427566974E+03 0.  0.
        -24    2    5    5    0    0  0.12342355382E+02  0.36375792495E+02 -0.51697998900E+02  0.10266692779E+03  0.79951753920E+02 0.  0.
          5    1    3    3  501    0 -0.36329672869E+02 -0.93113754155E+01  0.33947749829E+01  0.37949457704E+02  0.47000000000E+01 0. -1.
        -13    1    4    4    0    0  0.28035602676E+01  0.21292646130E+02 -0.26206876450E+02  0.33882696213E+02  0.00000000000E+00 0.  1.
         14    1    4    4    0    0  0.92365946978E+02 -0.48466383064E+02 -0.14528562700E+03  0.17885293361E+03  0.00000000000E+00 0. -1.
         -5    1    5    5    0  502 -0.71182189758E+02  0.10931985407E+00 -0.19203524496E+03  0.20485736842E+03  0.47000000000E+01 0.  1.
         13    1    6    6    0    0  0.30763647998E+02 -0.13616762060E+02 -0.30219062552E+02  0.45221786659E+02  0.00000000000E+00 0. -1.
        -14    1    6    6    0    0 -0.18421292616E+02  0.49992554555E+02 -0.21478936348E+02  0.57445141128E+02  0.00000000000E+00 0.  1.
</event>
<event>
12    1  0.9962621E-001  0.3908877E+03  0.7818608E-02  0.1047312E+00
         21   -1    0    0  503  502  0.00000000000E+00  0.00000000000E+00  0.59482643389E+03  0.59482643389E+03  0.00000000000E+00 0. -1.
         21   -1    0    0  501  503 -0.00000000000E+00 -0.00000000000E+00 -0.31424216303E+03  0.31424216303E+03  0.00000000000E+00 0. -1.
          6    2    1    2  501    0 -0.16100806098E+03  0.30940078698E+03 -0.57432304041E+02  0.39508441864E+03  0.17646752000E+03 0.  0.
         24    2    3    3    0    0 -0.99004035152E+02  0.16823986296E+03 -0.10280122510E+03  0.23430091609E+03  0.78882044447E+02 0.  0.
         -6    2    1    2    0  502  0.16100806098E+03 -0.30940078698E+03  0.33801657489E+03  0.51398417828E+03  0.16814305795E+03 0.  0.
        -24    2    5    5    0    0  0.48476585935E+01 -0.10749349945E+03  0.11341830431E+03  0.17395609535E+03  0.76280135950E+02 0.  0.
          5    1    3    3  501    0 -0.62004025827E+02  0.14116092403E+03  0.45368921061E+02  0.16078350254E+03  0.47000000000E+01 0. -1.
        -11    1    4    4    0    0 -0.64516406547E+02  0.90320023085E+02 -0.15095415183E+02  0.11201760952E+03  0.00000000000E+00 0.  1.
         12    1    4    4    0    0 -0.34487628606E+02  0.77919839871E+02 -0.87705809918E+02  0.12228330657E+03  0.00000000000E+00 0. -1.
         -5    1    5    5    0  502  0.15616040239E+03 -0.20190728754E+03  0.22459827058E+03  0.34002808293E+03  0.47000000000E+01 0.  1.
         11    1    6    6    0    0 -0.76783752476E+01 -0.48910503227E+02  0.45813855089E+01  0.49721060583E+02  0.00000000000E+00 0. -1.
        -12    1    6    6    0    0  0.12526033841E+02 -0.58582996219E+02  0.10883691880E+03  0.12423503477E+03  0.00000000000E+00 0.  1.
</event>
<event>
12    1  0.9962621E-001  0.2945935E+03  0.7818608E-02  0.1088049E+00
         21   -1    0    0  503  502  0.00000000000E+00  0.00000000000E+00  0.87226396684E+03  0.87226396684E+03  0.00000000000E+00 0. -1.
         21   -1    0    0  501  503 -0.00000000000E+00 -0.00000000000E+00 -0.14281605261E+03  0.14281605261E+03  0.00000000000E+00 0.  1.
          6    2    1    2  501    0  0.88864615688E+02  0.22225940515E+03  0.64463715435E+03  0.70852141033E+03  0.17073185123E+03 0.  0.
         24    2    3    3    0    0  0.24438725280E+01  0.10024378499E+03  0.18522471191E+03  0.22536694364E+03  0.80170296502E+02 0.  0.
         -6    2    1    2    0  502 -0.88864615688E+02 -0.22225940515E+03  0.84810759878E+02  0.30655860911E+03  0.17172405984E+03 0.  0.
        -24    2    5    5    0    0 -0.10176141746E+03 -0.20263399790E+03  0.11738823278E+03  0.26612513478E+03  0.75011112360E+02 0.  0.
          5    1    3    3  501    0  0.86420743160E+02  0.12201562016E+03  0.45941244244E+03  0.48315446669E+03  0.47000000000E+01 0. -1.
        -13    1    4    4    0    0  0.31353385091E+02  0.83016028656E+02  0.99769969293E+02  0.13352431443E+03  0.00000000000E+00 0.  1.
         14    1    4    4    0    0 -0.28909512563E+02  0.17227756334E+02  0.85454742618E+02  0.91842629214E+02  0.00000000000E+00 0. -1.
         -5    1    5    5    0  502  0.12896801776E+02 -0.19625407250E+02 -0.32577472901E+02  0.40433474330E+02  0.47000000000E+01 0.  1.
         13    1    6    6    0    0 -0.49866863820E+01 -0.76802055898E+02  0.59034582537E+02  0.96997447217E+02  0.00000000000E+00 0. -1.
        -14    1    6    6    0    0 -0.96774731082E+02 -0.12583194200E+03  0.58353650242E+02  0.16912768756E+03  0.00000000000E+00 0.  1.
</event>
<event>
12    1  0.9962621E-001  0.1894279E+03  0.7818608E-02  0.1159194E+00
         21   -1    0    0  501  502  0.00000000000E+00  0.00000000000E+00  0.36614417771E+03  0.36614417771E+03  0.00000000000E+00 0.  1.
         21   -1    0    0  502  503 -0.00000000000E+00 -0.00000000000E+00 -0.10409099504E+03  0.10409099504E+03  0.00000000000E+00 0.  1.
         -6    2    1    2    0  503 -0.38955968285E+02  0.68374036604E+02  0.18983069181E+03  0.26750628738E+03  0.17126396553E+03 0.  0.
        -24    2    3    3    0    0 -0.35926350772E+01 -0.40453322209E+01  0.16464297958E+03  0.18293891090E+03  0.79561690899E+02 0.  0.
          6    2    1    2  501    0  0.38955968285E+02 -0.68374036604E+02  0.72222490868E+02  0.20272888537E+03  0.17230884025E+03 0.  0.
         24    2    5    5    0    0 -0.33232555964E+02  0.48178496582E+01  0.38001968262E+02  0.94279037904E+02  0.79478128722E+02 0.  0.
          5    1    5    5  501    0  0.72188524249E+02 -0.73191886262E+02  0.34220522607E+02  0.10844984747E+03  0.47000000000E+01 0. -1.
        -11    1    6    6    0    0 -0.38467069107E+02 -0.26271333964E+02  0.41720175234E+02  0.62533762205E+02  0.00000000000E+00 0.  1.
         12    1    6    6    0    0  0.52345131424E+01  0.31089183623E+02 -0.37182069722E+01  0.31745275700E+02  0.00000000000E+00 0. -1.
         -5    1    3    3    0  503 -0.35363333208E+02  0.72419368825E+02  0.25187712233E+02  0.84567376476E+02  0.47000000000E+01 0.  1.
         11    1    4    4    0    0 -0.22406213227E+02 -0.23869645055E+02  0.26503202121E+02  0.42121468028E+02  0.00000000000E+00 0. -1.
        -12    1    4    4    0    0  0.18813578149E+02  0.19824312834E+02  0.13813977745E+03  0.14081744287E+03  0.00000000000E+00 0.  1.
</event>
<event>
12    1  0.9962621E-001  0.9937300E+03  0.7818608E-02  0.9315461E-01
         21   -1    0    0  503  502  0.00000000000E+00  0.00000000000E+00  0.82751170633E+03  0.82751170633E+03  0.00000000000E+00 0. -1.
         21   -1    0    0  501  503 -0.00000000000E+00 -0.00000000000E+00 -0.13330860829E+04  0.13330860829E+04  0.00000000000E+00 0. -1.
          6    2    1    2  501    0  0.97851850625E+03 -0.17244964114E+02  0.97061655951E+02  0.99841470750E+03  0.17209040430E+03 0.  0.
         24    2    3    3    0    0  0.73842745967E+03 -0.18382334375E+02  0.13610532575E+03  0.75512166936E+03  0.77916958570E+02 0.  0.
         -6    2    1    2    0  502 -0.97851850625E+03  0.17244964114E+02 -0.60263603248E+03  0.11621830817E+04  0.17234695203E+03 0.  0.
        -24    2    5    5    0    0 -0.46563299619E+03  0.41661578348E+02 -0.22074091273E+03  0.52225051495E+03  0.73954550705E+02 0.  0.
          5    1    3    3  501    0  0.24009104658E+03  0.11373702612E+01 -0.39043669797E+02  0.24329303814E+03  0.47000000000E+01 0. -1.
        -13    1    4    4    0    0  0.38856051985E+03  0.96024352868E+01  0.10585624764E+03  0.40283623163E+03  0.00000000000E+00 0.  1.
         14    1    4    4    0    0  0.34986693982E+03 -0.27984769662E+02  0.30249078107E+02  0.35228543773E+03  0.00000000000E+00 0. -1.
         -5    1    5    5    0  502 -0.51288551006E+03 -0.24416614234E+02 -0.38189511976E+03  0.63993256674E+03  0.47000000000E+01 0.  1.
         13    1    6    6    0    0 -0.47332795812E+02  0.11817997934E+02 -0.98257144489E+00  0.48795738351E+02  0.00000000000E+00 0. -1.
        -14    1    6    6    0    0 -0.41830020037E+03  0.29843580414E+02 -0.21975834128E+03  0.47345477660E+03  0.00000000000E+00 0.  1.
</event>
<event>
12    1  0.9962621E-001  0.1946246E+03  0.7818608E-02  0.1154367E+00
         21   -1    0    0  501  502  0.00000000000E+00  0.00000000000E+00  0.63761087995E+02  0.63761087995E+02  0.00000000000E+00 0.  1.
         21   -1    0    0  502  503 -0.00000000000E+00 -0.00000000000E+00 -0.60488274039E+03  0.60488274039E+03  0.00000000000E+00 0.  1.
         -6    2    1    2    0  503 -0.91606421950E+02 -0.59490955764E+00 -0.22555543585E+03  0.29791605234E+03  0.17171671188E+03 0.  0.
        -24    2    3    3    0    0 -0.78316298356E+02 -0.23513337350E+02 -0.24140249492E+03  0.26668944511E+03  0.78496980576E+02 0.  0.
          6    2    1    2  501    0  0.91606421950E+02  0.59490955764E+00 -0.31556621654E+03  0.37072777604E+03  0.17165359434E+03 0.  0.
         24    2    5    5    0    0  0.93240150022E+02  0.15127349583E+02 -0.11117995146E+03  0.16576510570E+03  0.78705313543E+02 0.  0.
          5    1    5    5  501    0 -0.16337280718E+01 -0.14532440025E+02 -0.20438626508E+03  0.20496267035E+03  0.47000000000E+01 0. -1.
        -11    1    6    6    0    0  0.50801162126E+01  0.32617830850E+02 -0.27554402639E+02  0.42999715987E+02  0.00000000000E+00 0.  1.
         12    1    6    6    0    0  0.88160033809E+02 -0.17490481267E+02 -0.83625548817E+02  0.12276538971E+03  0.00000000000E+00 0. -1.
         -5    1    3    3    0  503 -0.13290123594E+02  0.22918427792E+02  0.15847059069E+02  0.31226607224E+02  0.47000000000E+01 0.  1.
         11    1    4    4    0    0 -0.77811751820E+02 -0.13942415259E+02 -0.11286643193E+03  0.13779655700E+03  0.00000000000E+00 0. -1.
        -12    1    4    4    0    0 -0.50454653614E+00 -0.95709220907E+01 -0.12853606299E+03  0.12889288812E+03  0.00000000000E+00 0.  1.
</event>
<event>
12    1  0.9962621E-001  0.2056728E+03  0.7818608E-02  0.1145556E+00
         21   -1    0    0  501  502  0.00000000000E+00  0.00000000000E+00  0.20818822536E+03  0.20818822536E+03  0.00000000000E+00 0. -1.
         21   -1    0    0  502  503 -0.00000000000E+00 -0.00000000000E+00 -0.20263025798E+03  0.20263025798E+03  0.00000000000E+00 0. -1.
         -6    2    1    2    0  503 -0.10207149949E+03 -0.19969498237E+02 -0.17242024789E+02  0.20639429156E+03  0.17743715592E+03 0.  0.
        -24    2    3    3    0    0 -0.10436089880E+03  0.62260842915E+01  0.44113455059E+02  0.13947617144E+03  0.81102676630E+02 0.  0.
          6    2    1    2  501    0  0.10207149949E+03  0.19969498237E+02  0.22799992174E+02  0.20442419179E+03  0.17450512507E+03 0.  0.
         24    2    5    5    0    0  0.40820799045E+02 -0.47272202467E+02 -0.18972624545E+02  0.10422371212E+03  0.81250371846E+02 0.  0.
          5    1    5    5  501    0  0.61250700440E+02  0.67241700703E+02  0.41772616719E+02  0.10020047967E+03  0.47000000000E+01 0. -1.
        -11    1    6    6    0    0  0.65159937975E+02 -0.34619872030E+02 -0.64438523484E+01  0.74066701624E+02  0.00000000000E+00 0.  1.
         12    1    6    6    0    0 -0.24339138930E+02 -0.12652330436E+02 -0.12528772197E+02  0.30157010496E+02  0.00000000000E+00 0. -1.
         -5    1    3    3    0  503  0.22893993192E+01 -0.26195582528E+02 -0.61355479848E+02  0.66918120122E+02  0.47000000000E+01 0.  1.
         11    1    4    4    0    0  0.44123250695E+01  0.59877851828E+00 -0.14932490583E+02  0.15582247054E+02  0.00000000000E+00 0. -1.
        -12    1    4    4    0    0 -0.10877322387E+03  0.56273057732E+01  0.59045945642E+02  0.12389392438E+03  0.00000000000E+00 0.  1.
</event>
<event>
12    1  0.9962621E-001  0.2063948E+03  0.7818608E-02  0.1145136E+00
         21   -1    0    0  501  502  0.00000000000E+00  0.00000000000E+00  0.62374182549E+03  0.62374182549E+03  0.00000000000E+00 0. -1.
         21   -1    0    0  502  503 -0.00000000000E+00 -0.00000000000E+00 -0.10430471844E+03  0.10430471844E+03  0.00000000000E+00 0. -1.
         -6    2    1    2    0  503 -0.83909691150E+02  0.63981991689E+02  0.43955810133E+02  0.21102352008E+03  0.17738173878E+03 0.  0.
        -24    2    3    3    0    0 -0.25268954341E+02  0.88142227153E+02  0.73335989538E+02  0.14096827093E+03  0.78014830560E+02 0.  0.
          6    2    1    2  501    0  0.83909691150E+02 -0.63981991689E+02  0.47548129691E+03  0.51702302385E+03  0.17348144554E+03 0.  0.
         24    2    5    5    0    0  0.94586776917E+02 -0.54295203441E+02  0.48190546108E+03  0.50055505760E+03  0.80173965751E+02 0.  0.
          5    1    5    5  501    0 -0.10677085768E+02 -0.96867882479E+01 -0.64241641700E+01  0.16467966248E+02  0.47000000000E+01 0. -1.
        -13    1    6    6    0    0  0.77824512159E+02 -0.70621401698E+02  0.31621673787E+03  0.33322224172E+03  0.00000000000E+00 0.  1.
         14    1    6    6    0    0  0.16762264759E+02  0.16326198257E+02  0.16568872321E+03  0.16733281588E+03  0.00000000000E+00 0. -1.
         -5    1    3    3    0  503 -0.58640736809E+02 -0.24160235465E+02 -0.29380179405E+02  0.70055249147E+02  0.47000000000E+01 0.  1.
         11    1    4    4    0    0 -0.42843216308E+02  0.86765806819E+02  0.43018266425E+02  0.10589814759E+03  0.00000000000E+00 0. -1.
        -12    1    4    4    0    0  0.17574261967E+02  0.13764203343E+01  0.30317723113E+02  0.35070123344E+02  0.00000000000E+00 0.  1.
</event>
<event>
12    1  0.9962621E-001  0.2466561E+03  0.7818608E-02  0.1115689E+00
         21   -1    0    0  503  502  0.00000000000E+00  0.00000000000E+00  0.64370299052E+03  0.64370299052E+03  0.00000000000E+00 0. -1.
         21   -1    0    0  501  503 -0.00000000000E+00 -0.00000000000E+00 -0.11555633295E+03  0.11555633295E+03  0.00000000000E+00 0. -1.
          6    2    1    2  501    0 -0.64400976090E+02 -0.16260508942E+03  0.42904311582E+03  0.49489110410E+03  0.17392903400E+03 0.  0.
         24    2    3    3    0    0 -0.64425017833E+02 -0.79303623654E+02  0.37094525811E+03  0.39322210270E+03  0.81139323946E+02 0.  0.
         -6    2    1    2    0  502  0.64400976090E+02  0.16260508942E+03  0.99103541751E+02  0.26436821936E+03  0.17170073557E+03 0.  0.
        -24    2    5    5    0    0  0.10650511343E+03  0.88878632613E+02  0.55909593931E+02  0.16899444968E+03  0.78679672132E+02 0.  0.
          5    1    3    3  501    0  0.24041743322E-01 -0.83301465764E+02  0.58097857704E+02  0.10166900140E+03  0.47000000000E+01 0. -1.
        -11    1    4    4    0    0 -0.28380426518E+02 -0.71082233487E+02  0.32678824548E+03  0.33563177726E+03  0.00000000000E+00 0.  1.
         12    1    4    4    0    0 -0.36044591315E+02 -0.82213901664E+01  0.44157012636E+02  0.57590325440E+02  0.00000000000E+00 0. -1.
         -5    1    5    5    0  502 -0.42104137345E+02  0.73726456805E+02  0.43193947820E+02  0.95373769680E+02  0.47000000000E+01 0.  1.
         11    1    6    6    0    0  0.29178128578E+02  0.42748446665E+01  0.45076372170E+02  0.53865729479E+02  0.00000000000E+00 0. -1.
        -12    1    6    6    0    0  0.77326984857E+02  0.84603787946E+02  0.10833221761E+02  0.11512872020E+03  0.00000000000E+00 0.  1.
</event>
<event>
12    1  0.9962621E-001  0.3074623E+03  0.7818608E-02  0.1081756E+00
         21   -1    0    0  501  502  0.00000000000E+00  0.00000000000E+00  0.95756075992E+03  0.95756075992E+03  0.00000000000E+00 0. -1.
         21   -1    0    0  502  503 -0.00000000000E+00 -0.00000000000E+00 -0.11708113939E+03  0.11708113939E+03  0.00000000000E+00 0. -1.
         -6    2    1    2    0  503 -0.24666672700E+03 -0.51819349568E+02  0.63496592653E+03  0.70481900748E+03  0.17337354545E+03 0.  0.
        -24    2    3    3    0    0 -0.76150972040E+02  0.27382547097E+02  0.15777552733E+03  0.19190446274E+03  0.73385498343E+02 0.  0.
          6    2    1    2  501    0  0.24666672700E+03  0.51819349568E+02  0.20551369401E+03  0.36982289183E+03  0.17607774902E+03 0.  0.
         24    2    5    5    0    0  0.20686709428E+03  0.81682473176E+01  0.21457999102E+03  0.30987527108E+03  0.84364661558E+02 0.  0.
          5    1    5    5  501    0  0.39799632717E+02  0.43651102250E+02 -0.90662970113E+01  0.59947620749E+02  0.47000000000E+01 0. -1.
        -11    1    6    6    0    0  0.60208739438E+02  0.17790458151E+02  0.19728302239E+02  0.65808803477E+02  0.00000000000E+00 0.  1.
         12    1    6    6    0    0  0.14665835484E+03 -0.96222108335E+01  0.19485168878E+03  0.24406646760E+03  0.00000000000E+00 0. -1.
         -5    1    3    3    0  503 -0.17051575496E+03 -0.79201896664E+02  0.47719039919E+03  0.51291454474E+03  0.47000000000E+01 0.  1.
         13    1    4    4    0    0 -0.10848574278E+02  0.26632202488E+01  0.10180548738E+03  0.10241651023E+03  0.00000000000E+00 0. -1.
        -14    1    4    4    0    0 -0.65302397762E+02  0.24719326848E+02  0.55970039951E+02  0.89487952515E+02  0.00000000000E+00 0.  1.
</event>
<event>
12    1  0.9962621E-001  0.3498631E+03  0.7818608E-02  0.1062701E+00
         21   -1    0    0  503  502  0.00000000000E+00  0.00000000000E+00  0.23608783811E+04  0.23608783811E+04  0.00000000000E+00 0.  1.
         21   -1    0    0  501  503 -0.00000000000E+00 -0.00000000000E+00 -0.72135317292E+02  0.72135317292E+02  0.00000000000E+00 0.  1.
          6    2    1    2  501    0  0.23542795442E+03 -0.19347834524E+03  0.49887073461E+03  0.60932437251E+03  0.17188365044E+03 0.  0.
         24    2    3    3    0    0  0.12430594204E+03 -0.13975053604E+03  0.40824121922E+03  0.45612326881E+03  0.80033516277E+02 0.  0.
         -6    2    1    2    0  502 -0.23542795442E+03  0.19347834524E+03  0.17898723292E+04  0.18236893259E+04  0.17128809268E+03 0.  0.
        -24    2    5    5    0    0 -0.12136206562E+03  0.95108358452E+02  0.60731652631E+03  0.63157020505E+03  0.79203598173E+02 0.  0.
          5    1    3    3  501    0  0.11112201238E+03 -0.53727809205E+02  0.90629515390E+02  0.15320110371E+03  0.47000000000E+01 0. -1.
        -11    1    4    4    0    0  0.11664531520E+03 -0.76242330454E+02  0.27248156306E+03  0.30604774908E+03  0.00000000000E+00 0.  1.
         12    1    4    4    0    0  0.76606268425E+01 -0.63508205582E+02  0.13575965616E+03  0.15007551972E+03  0.00000000000E+00 0. -1.
         -5    1    5    5    0  502 -0.11406588880E+03  0.98369986789E+02  0.11825558029E+04  0.11921191209E+04  0.47000000000E+01 0.  1.
         11    1    6    6    0    0 -0.96889527935E+02  0.10802797665E+03  0.52732039346E+03  0.54692268350E+03  0.00000000000E+00 0. -1.
        -12    1    6    6    0    0 -0.24472537688E+02 -0.12919618197E+02  0.79996132849E+02  0.84647521559E+02  0.00000000000E+00 0.  1.
</event>
<event>
12    1  0.9962621E-001  0.2481273E+03  0.7818608E-02  0.1114523E+00
         21   -1    0    0  503  502  0.00000000000E+00  0.00000000000E+00  0.17470043203E+03  0.17470043203E+03  0.00000000000E+00 0. -1.
         21   -1    0    0  501  503 -0.00000000000E+00 -0.00000000000E+00 -0.69443633418E+03  0.69443633418E+03  0.00000000000E+00 0. -1.
          6    2    1    2  501    0  0.17094534631E+03 -0.35414725295E+02  0.45270687943E+02  0.25204713983E+03  0.17607331233E+03 0.  0.
         24    2    3    3    0    0  0.11914893990E+03 -0.32171393147E+02 -0.39094629704E+02  0.15288573735E+03  0.81327671775E+02 0.  0.
         -6    2    1    2    0  502 -0.17094534631E+03  0.35414725295E+02 -0.56500659009E+03  0.61708962638E+03  0.17632539793E+03 0.  0.
        -24    2    5    5    0    0 -0.11360365687E+03  0.64377248301E+02 -0.23248373561E+03  0.27838557291E+03  0.79997618283E+02 0.  0.
          5    1    3    3  501    0  0.51796406409E+02 -0.32433321483E+01  0.84365317647E+02  0.99161402481E+02  0.47000000000E+01 0. -1.
        -11    1    4    4    0    0  0.92825363361E+02 -0.13799279753E+02  0.98418942112E+01  0.94360113853E+02  0.00000000000E+00 0.  1.
         12    1    4    4    0    0  0.26323576536E+02 -0.18372113394E+02 -0.48936523915E+02  0.58525623492E+02  0.00000000000E+00 0. -1.
         -5    1    5    5    0  502 -0.57341689440E+02 -0.28962523006E+02 -0.33252285448E+03  0.33870405347E+03  0.47000000000E+01 0.  1.
         13    1    6    6    0    0 -0.10869513954E+03  0.33396413205E+02 -0.21302231500E+03  0.24147144855E+03  0.00000000000E+00 0. -1.
        -14    1    6    6    0    0 -0.49085173213E+01  0.30980835096E+02 -0.19461420610E+02  0.36914124366E+02  0.00000000000E+00 0.  1.
</event>
<event>
12    1  0.9962621E-001  0.1754142E+03  0.7818608E-02  0.1172335E+00
         21   -1    0    0  503  502  0.00000000000E+00  0.00000000000E+00  0.51748802497E+02  0.51748802497E+02  0.00000000000E+00 0.  1.
         21   -1    0    0  501  503 -0.00000000000E+00 -0.00000000000E+00 -0.59655250236E+03  0.59655250236E+03  0.00000000000E+00 0.  1.
          6    2    1    2  501    0 -0.91030906809E+00  0.17274406550E+02 -0.25278230897E+03  0.30768335950E+03  0.17455921689E+03 0.  0.
         24    2    3    3    0    0 -0.35842019512E+02  0.26360071898E+02 -0.25570689752E+03  0.27116737769E+03  0.78525317774E+02 0.  0.
         -6    2    1    2    0  502  0.91030906809E+00 -0.17274406550E+02 -0.29202139089E+03  0.34061794535E+03  0.17448454996E+03 0.  0.
        -24    2    5    5    0    0 -0.20041405187E+02 -0.31174871536E+02 -0.59127762748E+02  0.10632383683E+03  0.80219295772E+02 0.  0.
          5    1    3    3  501    0  0.34931710444E+02 -0.90856653479E+01  0.29245885515E+01  0.36515981810E+02  0.47000000000E+01 0. -1.
        -13    1    4    4    0    0 -0.19374933077E+02  0.18458435419E+02 -0.16871533340E+02  0.31634640935E+02  0.00000000000E+00 0.  1.
         14    1    4    4    0    0 -0.16467086435E+02  0.79016364789E+01 -0.23883536418E+03  0.23953273676E+03  0.00000000000E+00 0. -1.
         -5    1    5    5    0  502  0.20951714255E+02  0.13900464986E+02 -0.23289362814E+03  0.23429410852E+03  0.47000000000E+01 0.  1.
         11    1    6    6    0    0 -0.12239688041E+02  0.21981482895E+02  0.16385987366E+01  0.25212706309E+02  0.00000000000E+00 0. -1.
        -12    1    6    6    0    0 -0.78017171453E+01 -0.53156354431E+02 -0.60766361484E+02  0.81111130524E+02  0.00000000000E+00 0.  1.
</event>
<event>
12    1  0.9962621E-001  0.2097716E+03  0.7818608E-02  0.1141762E+00
         21   -1    0    0  501  502  0.00000000000E+00  0.00000000000E+00  0.41865953535E+02  0.41865953535E+02  0.00000000000E+00 0.  1.
         21   -1    0    0  502  503 -0.00000000000E+00 -0.00000000000E+00 -0.16031802299E+04  0.16031802299E+04  0.00000000000E+00 0.  1.
         -6    2    1    2    0  503 -0.87652540271E+01 -0.12002363264E+03 -0.29770099090E+03  0.36413921984E+03  0.17172358420E+03 0.  0.
        -24    2    3    3    0    0  0.49276194252E+02 -0.10063587621E+03 -0.14944304145E+03  0.20367986551E+03  0.81219099187E+02 0.  0.
          6    2    1    2  501    0  0.87652540271E+01  0.12002363264E+03 -0.12636132854E+04  0.12809069636E+04  0.17181854418E+03 0.  0.
         24    2    5    5    0    0 -0.60033185346E+02  0.43859609760E+02 -0.58201299362E+03  0.59160642575E+03  0.75705941189E+02 0.  0.
          5    1    5    5  501    0  0.68798439373E+02  0.76164022878E+02 -0.68160029183E+03  0.68930053784E+03  0.47000000000E+01 0. -1.
        -13    1    6    6    0    0 -0.34168109547E+02  0.51758676924E+02 -0.21971544593E+03  0.22830089252E+03  0.00000000000E+00 0.  1.
         14    1    6    6    0    0 -0.25865075799E+02 -0.78990671647E+01 -0.36229754769E+03  0.36330553323E+03  0.00000000000E+00 0. -1.
         -5    1    3    3    0  503 -0.58041448279E+02 -0.19387756424E+02 -0.14825794945E+03  0.16045935433E+03  0.47000000000E+01 0.  1.
         13    1    4    4    0    0  0.15758873295E+02 -0.60409232824E+02 -0.22498972743E+02  0.66361293481E+02  0.00000000000E+00 0. -1.
        -14    1    4    4    0    0  0.33517320957E+02 -0.40226643389E+02 -0.12694406871E+03  0.13731857203E+03  0.00000000000E+00 0.  1.
</event>
<event>
12    1  0.9962621E-001  0.1798348E+03  0.7818608E-02  0.1168377E+00
         21   -1    0    0  501  502  0.00000000000E+00  0.00000000000E+00  0.49854390005E+03  0.49854390005E+03  0.00000000000E+00 0.  1.
         21   -1    0    0  502  503 -0.00000000000E+00 -0.00000000000E+00 -0.83088022281E+02  0.83088022281E+02  0.00000000000E+00 0.  1.
         -6    2    1    2    0  503  0.19977021443E+02  0.47381675486E+02  0.34693652454E+03  0.39077550300E+03  0.17232654216E+03 0.  0.
        -24    2    3    3    0    0  0.47268448292E+02 -0.28820874173E+02  0.18913937566E+03  0.21336727110E+03  0.81773711911E+02 0.  0.
          6    2    1    2  501    0 -0.19977021443E+02 -0.47381675486E+02  0.68519353230E+02  0.19085641932E+03  0.17054960121E+03 0.  0.
         24    2    5    5    0    0  0.91259470043E+01  0.24016754431E+02 -0.48193505241E+01  0.84341753500E+02  0.80188639107E+02 0.  0.
          5    1    5    5  501    0 -0.29102968448E+02 -0.71398429917E+02  0.73338703755E+02  0.10651466582E+03  0.47000000000E+01 0. -1.
        -11    1    6    6    0    0  0.19674152129E+02  0.37386807619E+02  0.25658432197E+02  0.49428744560E+02  0.00000000000E+00 0.  1.
         12    1    6    6    0    0 -0.10548205125E+02 -0.13370053188E+02 -0.30477782721E+02  0.34913008940E+02  0.00000000000E+00 0. -1.
         -5    1    3    3    0  503 -0.27291426849E+02  0.76202549660E+02  0.15779714888E+03  0.17740823191E+03  0.47000000000E+01 0.  1.
         13    1    4    4    0    0  0.64844218390E+02 -0.16832344389E+01  0.14303266840E+03  0.15705397215E+03  0.00000000000E+00 0. -1.
        -14    1    4    4    0    0 -0.17575770098E+02 -0.27137639734E+02  0.46106707254E+02  0.56313298950E+02  0.00000000000E+00 0.  1.
</event>
<event>
12    1  0.9962621E-001  0.2244382E+03  0.7818608E-02  0.1131162E+00
         21   -1    0    0  501  502  0.00000000000E+00  0.00000000000E+00  0.15118041899E+03  0.15118041899E+03  0.00000000000E+00 0.  1.
         21   -1    0    0  502  503 -0.00000000000E+00 -0.00000000000E+00 -0.36492680353E+03  0.36492680353E+03  0.00000000000E+00 0. -1.
         -6    2    1    2    0  503 -0.54112102987E+02  0.12976246733E+03 -0.26310639665E+02  0.22597511736E+03  0.17494595248E+03 0.  0.
        -24    2    3    3    0    0 -0.10222305582E+02  0.69413540039E+02 -0.81826336266E+02  0.13284945006E+03  0.77657530235E+02 0.  0.
          6    2    1    2  501    0  0.54112102987E+02 -0.12976246733E+03 -0.18743574487E+03  0.29013210516E+03  0.17110833520E+03 0.  0.
         24    2    5    5    0    0  0.10006912927E+03 -0.68809378061E+02 -0.11777786102E+03  0.18668338290E+03  0.78933514825E+02 0.  0.
          5    1    5    5  501    0 -0.45957026280E+02 -0.60953089268E+02 -0.69657883847E+02  0.10344872226E+03  0.47000000000E+01 0. -1.
        -11    1    6    6    0    0  0.77634486601E+02 -0.86044544883E+02 -0.10142883541E+03  0.15400839544E+03  0.00000000000E+00 0.  1.
         12    1    6    6    0    0  0.22434642665E+02  0.17235166822E+02 -0.16349025615E+02  0.32674987460E+02  0.00000000000E+00 0. -1.
         -5    1    3    3    0  503 -0.43889797404E+02  0.60348927289E+02  0.55515696601E+02  0.93125667301E+02  0.47000000000E+01 0.  1.
         11    1    4    4    0    0 -0.31729319398E+02  0.67663941713E+02 -0.82427542417E+02  0.11126301482E+03  0.00000000000E+00 0. -1.
        -12    1    4    4    0    0  0.21507013815E+02  0.17495983259E+01  0.60120615143E+00  0.21586435240E+02  0.00000000000E+00 0.  1.
</event>
<event>
12    1  0.9962621E-001  0.3235942E+03  0.7818608E-02  0.1074026E+00
         21   -1    0    0  503  502  0.00000000000E+00  0.00000000000E+00  0.29244685071E+03  0.29244685071E+03  0.00000000000E+00 0.  1.
         21   -1    0    0  501  503 -0.00000000000E+00 -0.00000000000E+00 -0.35840948867E+03  0.35840948867E+03  0.00000000000E+00 0. -1.
          6    2    1    2  501    0 -0.13685267600E+03  0.23831242675E+03 -0.45584216016E+02  0.32678913293E+03  0.17085593048E+03 0.  0.
         24    2    3    3    0    0 -0.24624102866E+02  0.61898368908E+02  0.22338208510E+02  0.10689661786E+03  0.80561385507E+02 0.  0.
         -6    2    1    2    0  502  0.13685267600E+03 -0.23831242675E+03 -0.20378421946E+02  0.32406720645E+03  0.17053681873E+03 0.  0.
        -24    2    5    5    0    0  0.11742393575E+03 -0.94863018955E+02  0.23942921135E+02  0.17260209497E+03  0.80192559891E+02 0.  0.
          5    1    3    3  501    0 -0.11222857313E+03  0.17641405784E+03 -0.67922424525E+02  0.21989251507E+03  0.47000000000E+01 0. -1.
        -11    1    4    4    0    0 -0.44777972544E+02  0.68177280912E+02  0.25702448981E+02  0.85520900026E+02  0.00000000000E+00 0.  1.
         12    1    4    4    0    0  0.20153869677E+02 -0.62789120035E+01 -0.33642404720E+01  0.21375717833E+02  0.00000000000E+00 0. -1.
         -5    1    5    5    0  502  0.19428740248E+02 -0.14344940780E+03 -0.44321343081E+02  0.15146511149E+03  0.47000000000E+01 0.  1.
         13    1    6    6    0    0 -0.64464590835E+01 -0.28786894247E+02 -0.29863996789E+01  0.29650644144E+02  0.00000000000E+00 0. -1.
        -14    1    6    6    0    0  0.12387039483E+03 -0.66076124708E+02  0.26929320814E+02  0.14295145082E+03  0.00000000000E+00 0.  1.
</event>
<event>
12    1  0.9962621E-001  0.1847034E+03  0.7818608E-02  0.1163601E+00
         21   -1    0    0  501  502  0.00000000000E+00  0.00000000000E+00  0.10688298831E+04  0.10688298831E+04  0.00000000000E+00 0. -1.
         21   -1    0    0  502  503 -0.00000000000E+00 -0.00000000000E+00 -0.32331311494E+02  0.32331311494E+02  0.00000000000E+00 0. -1.
         -6    2    1    2    0  503  0.21413272286E+02 -0.61474946236E+02  0.59573449401E+03  0.62371062656E+03  0.17285155797E+03 0.  0.
        -24    2    3    3    0    0  0.14091581899E+01  0.44860425646E+01  0.49623429999E+03  0.50257683592E+03  0.79453667122E+02 0.  0.
          6    2    1    2  501    0 -0.21413272286E+02  0.61474946236E+02  0.44076407762E+03  0.47745056805E+03  0.17160529004E+03 0.  0.
         24    2    5    5    0    0  0.53121042445E+01  0.70665853215E+02  0.43584493179E+03  0.44838157224E+03  0.77867506014E+02 0.  0.
          5    1    5    5  501    0 -0.26725376531E+02 -0.91909069787E+01  0.49191458246E+01  0.29068995811E+02  0.47000000000E+01 0. -1.
        -13    1    6    6    0    0  0.36626734272E+02  0.21669280545E+02  0.25174399977E+03  0.25531571985E+03  0.00000000000E+00 0.  1.
         14    1    6    6    0    0 -0.31314630027E+02  0.48996572670E+02  0.18410093203E+03  0.19306585239E+03  0.00000000000E+00 0. -1.
         -5    1    3    3    0  503  0.20004114096E+02 -0.65960988801E+02  0.99500194021E+02  0.12113379064E+03  0.47000000000E+01 0.  1.
         11    1    4    4    0    0 -0.81799802423E+01 -0.36387733390E+02  0.25579774171E+03  0.25850234792E+03  0.00000000000E+00 0. -1.
        -12    1    4    4    0    0  0.95891384322E+01  0.40873775954E+02  0.24043655828E+03  0.24407448800E+03  0.00000000000E+00 0.  1.
</event>
<event>
12    1  0.9962621E-001  0.1781297E+03  0.7818608E-02  0.1169734E+00
         21   -1    0    0  501  502  0.00000000000E+00  0.00000000000E+00  0.15789389661E+04  0.15789389661E+04  0.00000000000E+00 0.  1.
         21   -1    0    0  502  503 -0.00000000000E+00 -0.00000000000E+00 -0.22953424352E+02  0.22953424352E+02  0.00000000000E+00 0.  1.
         -6    2    1    2    0  503  0.34585803317E+02 -0.12484650751E+02  0.10622044772E+04  0.10769638742E+04  0.17384127971E+03 0.  0.
        -24    2    3    3    0    0  0.40832835274E+02 -0.48782117240E+02  0.99392897380E+03  0.99924537026E+03  0.80928917117E+02 0.  0.
          6    2    1    2  501    0 -0.34585803317E+02  0.12484650751E+02  0.49378106453E+03  0.52492851629E+03  0.17429332527E+03 0.  0.
         24    2    5    5    0    0 -0.60773330185E+02  0.10361954345E+02  0.48724968633E+03  0.49745050136E+03  0.79018837734E+02 0.  0.
          5    1    5    5  501    0  0.26187526867E+02  0.21226964056E+01  0.65313782044E+01  0.27478014934E+02  0.47000000000E+01 0. -1.
        -11    1    6    6    0    0  0.13023254311E+02  0.21904978426E+02  0.11752334166E+03  0.12025460102E+03  0.00000000000E+00 0.  1.
         12    1    6    6    0    0 -0.73796584495E+02 -0.11543024081E+02  0.36972634467E+03  0.37719590034E+03  0.00000000000E+00 0. -1.
         -5    1    3    3    0  503 -0.62470319568E+01  0.36297466490E+02  0.68275503419E+02  0.77718503903E+02  0.47000000000E+01 0.  1.
         11    1    4    4    0    0  0.77996334977E+01  0.16625610662E+02  0.68468325739E+02  0.70888340664E+02  0.00000000000E+00 0. -1.
        -12    1    4    4    0    0  0.33033201776E+02 -0.65407727902E+02  0.92546064806E+03  0.92835702960E+03  0.00000000000E+00 0.  1.
</event>
<event>
12    1  0.9962621E-001  0.1837137E+03  0.7818608E-02  0.1164717E+00
         21   -1    0    0  503  502  0.00000000000E+00  0.00000000000E+00  0.38099070763E+03  0.38099070763E+03  0.00000000000E+00 0.  1.
         21   -1    0    0  501  503 -0.00000000000E+00 -0.00000000000E+00 -0.93550438350E+02  0.93550438350E+02  0.00000000000E+00 0.  1.
          6    2    1    2  501    0 -0.53215231293E+02  0.19649226843E+02  0.20257759969E+03  0.27217414761E+03  0.17269374561E+03 0.  0.
         24    2    3    3    0    0 -0.99219760290E+01  0.44698598621E+01  0.19236434013E+02  0.83121794636E+02  0.80129689220E+02 0.  0.
         -6    2    1    2    0  502  0.53215231293E+02 -0.19649226843E+02  0.84862669589E+02  0.20236699837E+03  0.17473630528E+03 0.  0.
        -24    2    5    5    0    0  0.41082639448E+01  0.42882876852E+02  0.61770923642E+01  0.90405985968E+02  0.79241825251E+02 0.  0.
          5    1    3    3  501    0 -0.43293255264E+02  0.15179366981E+02  0.18334116568E+03  0.18905235297E+03  0.47000000000E+01 0. -1.
        -13    1    4    4    0    0 -0.13565502208E+02  0.36027175986E+02 -0.10187418535E+02  0.39821649339E+02  0.00000000000E+00 0.  1.
         14    1    4    4    0    0  0.36435261792E+01 -0.31557316124E+02  0.29423852548E+02  0.43300145297E+02  0.00000000000E+00 0. -1.
         -5    1    5    5    0  502  0.49106967348E+02 -0.62532103695E+02  0.78685577224E+02  0.11196101240E+03  0.47000000000E+01 0.  1.
         13    1    6    6    0    0  0.17966320711E+02 -0.48722171883E+01  0.29970704508E+02  0.35281302541E+02  0.00000000000E+00 0. -1.
        -14    1    6    6    0    0 -0.13858056766E+02  0.47755094040E+02 -0.23793612144E+02  0.55124683428E+02  0.00000000000E+00 0.  1.
</event>
<event>
12    1  0.9962621E-001  0.1890240E+03  0.7818608E-02  0.1160431E+00
         21   -1    0    0  503  502  0.00000000000E+00  0.00000000000E+00  0.50754122452E+03  0.50754122452E+03  0.00000000000E+00 0.  1.
         21   -1    0    0  501  503 -0.00000000000E+00 -0.00000000000E+00 -0.82507760148E+02  0.82507760148E+02  0.00000000000E+00 0.  1.
          6    2    1    2  501    0  0.70877053050E+02  0.80051736303E+01  0.93858717997E+02  0.21104395276E+03  0.17504985461E+03 0.  0.
         24    2    3    3    0    0  0.20422003277E+01 -0.15585051802E+02  0.10976945120E+03  0.13641167344E+03  0.79446509124E+02 0.  0.
         -6    2    1    2    0  502 -0.70877053050E+02 -0.80051736303E+01  0.33117474637E+03  0.37900503190E+03  0.16994252593E+03 0.  0.
        -24    2    5    5    0    0 -0.53983247346E+02 -0.66895083440E+02  0.24451160890E+03  0.27276939031E+03  0.85018058203E+02 0.  0.
          5    1    3    3  501    0  0.68834852722E+02  0.23590225433E+02 -0.15910733204E+02  0.74632279319E+02  0.47000000000E+01 0. -1.
        -11    1    4    4    0    0  0.23465450865E+02  0.10499612942E+02  0.96957239830E+02  0.10030740557E+03  0.00000000000E+00 0.  1.
         12    1    4    4    0    0 -0.21423250537E+02 -0.26084664745E+02  0.12812211371E+02  0.36104267873E+02  0.00000000000E+00 0. -1.
         -5    1    5    5    0  502 -0.16893805704E+02  0.58889909810E+02  0.86663137472E+02  0.10623564160E+03  0.47000000000E+01 0.  1.
         11    1    6    6    0    0 -0.60346781572E+02 -0.24100837888E+02  0.20167673957E+03  0.21188697864E+03  0.00000000000E+00 0. -1.
        -12    1    6    6    0    0  0.63635342265E+01 -0.42794245552E+02  0.42834869326E+02  0.60882411667E+02  0.00000000000E+00 0.  1.
</event>
<event>
12    1  0.9962621E-001  0.2886962E+03  0.7818608E-02  0.1091148E+00
         21   -1    0    0  503  502  0.00000000000E+00  0.00000000000E+00  0.73705774936E+03  0.73705774936E+03  0.00000000000E+00 0.  1.
         21   -1    0    0  501  503 -0.00000000000E+00 -0.00000000000E+00 -0.51846852719E+03  0.51846852719E+03  0.00000000000E+00 0.  1.
          6    2    1    2  501    0 -0.16020973069E+03  0.16799729208E+03 -0.44600468372E+03  0.53128681888E+03  0.17162534215E+03 0.  0.
         24    2    3    3    0    0 -0.13949777329E+03  0.13918792739E+03 -0.23278695767E+03  0.31508586288E+03  0.79097569147E+02 0.  0.
         -6    2    1    2    0  502  0.16020973069E+03 -0.16799729208E+03  0.66459390589E+03  0.72423945767E+03  0.17013960252E+03 0.  0.
        -24    2    5    5    0    0  0.15488198979E+03 -0.15760406362E+03  0.43053085046E+03  0.48983807555E+03  0.75875262330E+02 0.  0.
          5    1    3    3  501    0 -0.20711957397E+02  0.28809364690E+02 -0.21321772605E+03  0.21620095600E+03  0.47000000000E+01 0. -1.
        -11    1    4    4    0    0 -0.11129140427E+03  0.57400901605E+02 -0.14924370097E+03  0.19481869122E+03  0.00000000000E+00 0.  1.
         12    1    4    4    0    0 -0.28206369019E+02  0.81787025790E+02 -0.83543256698E+02  0.12026717167E+03  0.00000000000E+00 0. -1.
         -5    1    5    5    0  502  0.53277408985E+01 -0.10393228462E+02  0.23406305543E+03  0.23440138212E+03  0.47000000000E+01 0.  1.
         13    1    6    6    0    0  0.12787820888E+03 -0.84564180964E+02  0.31753491830E+03  0.35260794284E+03  0.00000000000E+00 0. -1.
        -14    1    6    6    0    0  0.27003780907E+02 -0.73039882658E+02  0.11299593216E+03  0.13723013272E+03  0.00000000000E+00 0.  1.
</event>
<event>
12    1  0.9962621E-001  0.1746385E+03  0.7818608E-02  0.1173536E+00
         21   -1    0    0  503  502  0.00000000000E+00  0.00000000000E+00  0.39698469891E+03  0.39698469891E+03  0.00000000000E+00 0.  1.
         21   -1    0    0  501  503 -0.00000000000E+00 -0.00000000000E+00 -0.76060818398E+02  0.76060818398E+02  0.00000000000E+00 0.  1.
          6    2    1    2  501    0  0.45332783087E+01 -0.13337438163E+02  0.15957515490E+03  0.23528087481E+03  0.17232069556E+03 0.  0.
         24    2    3    3    0    0 -0.58156919713E+02  0.17517939017E+02  0.11198062353E+03  0.15060830165E+03  0.80337382210E+02 0.  0.
         -6    2    1    2    0  502 -0.45332783087E+01  0.13337438163E+02  0.16134872561E+03  0.23776464250E+03  0.17406945769E+03 0.  0.
        -24    2    5    5    0    0 -0.43523045220E+02 -0.15700978675E+02  0.16455368005E+03  0.18881780083E+03  0.80208927775E+02 0.  0.
          5    1    3    3  501    0  0.62690198021E+02 -0.30855377179E+02  0.47594531368E+02  0.84672573156E+02  0.47000000000E+01 0. -1.
        -13    1    4    4    0    0 -0.18967848290E+02 -0.69192228246E+01 -0.82511763897E+01  0.21811392094E+02  0.00000000000E+00 0.  1.
         14    1    4    4    0    0 -0.39189071423E+02  0.24437161841E+02  0.12023179992E+03  0.12879690956E+03  0.00000000000E+00 0. -1.
         -5    1    5    5    0  502  0.38989766911E+02  0.29038416838E+02 -0.32049544480E+01  0.48946841668E+02  0.47000000000E+01 0.  1.
         11    1    6    6    0    0  0.11647837479E+02 -0.13615924985E+02  0.30990043816E+01  0.18184316300E+02  0.00000000000E+00 0. -1.
        -12    1    6    6    0    0 -0.55170882699E+02 -0.20850536894E+01  0.16145467567E+03  0.17063348453E+03  0.00000000000E+00 0.  1.
</event>
<event>
12    1  0.9962621E-001  0.2385976E+03  0.7818608E-02  0.1121449E+00
         21   -1    0    0  503  502  0.00000000000E+00  0.00000000000E+00  0.96128893697E+02  0.96128893697E+02  0.00000000000E+00 0. -1.
         21   -1    0    0  501  503 -0.00000000000E+00 -0.00000000000E+00 -0.73617060719E+03  0.73617060719E+03  0.00000000000E+00 0.  1.
          6    2    1    2  501    0  0.56896205022E+02 -0.15144476158E+03 -0.13168992669E+03  0.27252720091E+03  0.17537429825E+03 0.  0.
         24    2    3    3    0    0  0.84295714708E+02 -0.70907289130E+02 -0.12748481645E+03  0.18722309460E+03  0.81648622511E+02 0.  0.
         -6    2    1    2    0  502 -0.56896205022E+02  0.15144476158E+03 -0.50835178680E+03  0.55977229998E+03  0.16956059307E+03 0.  0.
        -24    2    5    5    0    0 -0.47739866587E+02  0.18665335185E+02 -0.26064857704E+03  0.27853719418E+03  0.83772299893E+02 0.  0.
          5    1    3    3  501    0 -0.27399509686E+02 -0.80537472453E+02 -0.42051102424E+01  0.85304106303E+02  0.47000000000E+01 0. -1.
        -13    1    4    4    0    0  0.53669681972E+02 -0.86441325164E+02 -0.10479711683E+03  0.14606496211E+03  0.00000000000E+00 0.  1.
         14    1    4    4    0    0  0.30626032736E+02  0.15534036034E+02 -0.22687699617E+02  0.41158132496E+02  0.00000000000E+00 0. -1.
         -5    1    5    5    0  502 -0.91563384355E+01  0.13277942640E+03 -0.24770320976E+03  0.28123510580E+03  0.47000000000E+01 0.  1.
         13    1    6    6    0    0 -0.19464582182E+02 -0.73873494606E+01 -0.69602854766E+01  0.21951958124E+02  0.00000000000E+00 0. -1.
        -14    1    6    6    0    0 -0.28275284404E+02  0.26052684646E+02 -0.25368829156E+03  0.25658523605E+03  0.00000000000E+00 0.  1.
</event>
<event>
12    1  0.9962621E-001  0.2666234E+03  0.7818608E-02  0.1103458E+00
         21   -1    0    0  503  502  0.00000000000E+00  0.00000000000E+00  0.15684035113E+04  0.15684035113E+04  0.00000000000E+00 0.  1.
         21   -1    0    0  501  503 -0.00000000000E+00 -0.00000000000E+00 -0.45261018318E+02  0.45261018318E+02  0.00000000000E+00 0.  1.
          6    2    1    2  501    0  0.16511212372E+03  0.11522637714E+03  0.70525498161E+03  0.75341573089E+03  0.17237036603E+03 0.  0.
         24    2    3    3    0    0  0.16426761244E+03  0.55407829941E+02  0.41388568094E+03  0.45593105707E+03  0.80733486224E+02 0.  0.
         -6    2    1    2    0  502 -0.16511212372E+03 -0.11522637714E+03  0.81788751138E+03  0.86024879873E+03  0.17478238774E+03 0.  0.
        -24    2    5    5    0    0 -0.13667439751E+03 -0.79681858745E+02  0.37192979036E+03  0.41194923818E+03  0.79632382402E+02 0.  0.
          5    1    3    3  501    0  0.84451127889E+00  0.59818547194E+02  0.29136930067E+03  0.29748467382E+03  0.47000000000E+01 0. -1.
        -13    1    4    4    0    0  0.46895460196E+02  0.46532657019E+02  0.92507866250E+02  0.11367575676E+03  0.00000000000E+00 0.  1.
         14    1    4    4    0    0  0.11737215224E+03  0.88751729223E+01  0.32137781469E+03  0.34225530031E+03  0.00000000000E+00 0. -1.
         -5    1    5    5    0  502 -0.28437726201E+02 -0.35544518391E+02  0.44595772102E+03  0.44829956056E+03  0.47000000000E+01 0.  1.
         13    1    6    6    0    0 -0.13824096992E+03 -0.51809403452E+02  0.33071197847E+03  0.36216735462E+03  0.00000000000E+00 0. -1.
        -14    1    6    6    0    0  0.15665724034E+01 -0.27872455293E+02  0.41217811888E+02  0.49781883552E+02  0.00000000000E+00 0.  1.
</event>
<event>
12    1  0.9962621E-001  0.2887279E+03  0.7818608E-02  0.1091222E+00
         21   -1    0    0  503  502  0.00000000000E+00  0.00000000000E+00  0.15941408440E+03  0.15941408440E+03  0.00000000000E+00 0. -1.
         21   -1    0    0  501  503 -0.00000000000E+00 -0.00000000000E+00 -0.54567529967E+03  0.54567529967E+03  0.00000000000E+00 0. -1.
          6    2    1    2  501    0 -0.23052331465E+03  0.10042600328E+01 -0.11629966965E+03  0.30981345837E+03  0.17122137334E+03 0.  0.
         24    2    3    3    0    0 -0.10564500177E+03 -0.53975681659E+02 -0.22640825784E+02  0.14424940414E+03  0.78873588694E+02 0.  0.
         -6    2    1    2    0  502  0.23052331465E+03 -0.10042600328E+01 -0.26996154562E+03  0.39527592571E+03  0.17384422395E+03 0.  0.
        -24    2    5    5    0    0  0.14191329019E+03 -0.55786060354E+02 -0.11061718800E+03  0.20484090691E+03  0.80449788067E+02 0.  0.
          5    1    3    3  501    0 -0.12487831288E+03  0.54979941692E+02 -0.93658843868E+02  0.16556405422E+03  0.47000000000E+01 0. -1.
        -11    1    4    4    0    0 -0.10891950605E+03 -0.57255380662E+02 -0.19717971548E+01  0.12306715808E+03  0.00000000000E+00 0.  1.
         12    1    4    4    0    0  0.32745042812E+01  0.32796990031E+01 -0.20669028629E+02  0.21182246064E+02  0.00000000000E+00 0. -1.
         -5    1    5    5    0  502  0.88610024461E+02  0.54781800322E+02 -0.15934435762E+03  0.19043501881E+03  0.47000000000E+01 0.  1.
         11    1    6    6    0    0  0.99817651150E+02 -0.29760928364E+02 -0.11499690549E+03  0.15515658094E+03  0.00000000000E+00 0. -1.
        -12    1    6    6    0    0  0.42095639040E+02 -0.26025131990E+02  0.43797174905E+01  0.49684325965E+02  0.00000000000E+00 0.  1.
</event>
<event>
12    1  0.9962621E-001  0.1775727E+03  0.7818608E-02  0.1172230E+00
         21   -1    0    0  503  502  0.00000000000E+00  0.00000000000E+00  0.56130078878E+03  0.56130078878E+03  0.00000000000E+00 0.  1.
         21   -1    0    0  501  503 -0.00000000000E+00 -0.00000000000E+00 -0.84068913707E+02  0.84068913707E+02  0.00000000000E+00 0.  1.
          6    2    1    2  501    0 -0.15793299037E+02 -0.23042385515E+02  0.48054962554E+02  0.18396016010E+03  0.17536157291E+03 0.  0.
         24    2    3    3    0    0  0.42356583993E+01 -0.77078779845E+01  0.99094865116E+02  0.12683338958E+03  0.78673783655E+02 0.  0.
         -6    2    1    2    0  502  0.15793299037E+02  0.23042385515E+02  0.42917691252E+03  0.46140954238E+03  0.16710943641E+03 0.  0.
        -24    2    5    5    0    0  0.17134093713E+02 -0.51930096376E+02  0.20214548718E+03  0.22226935575E+03  0.74502056628E+02 0.  0.
          5    1    3    3  501    0 -0.20028957436E+02 -0.15334507531E+02 -0.51039902562E+02  0.57126770526E+02  0.47000000000E+01 0. -1.
        -13    1    4    4    0    0  0.34069112681E+02 -0.19294262778E+02  0.25891892126E+02  0.46939994598E+02  0.00000000000E+00 0.  1.
         14    1    4    4    0    0 -0.29833454281E+02  0.11586384794E+02  0.73202972990E+02  0.79893394981E+02  0.00000000000E+00 0. -1.
         -5    1    5    5    0  502 -0.13407946768E+01  0.74972481891E+02  0.22703142533E+03  0.23914018663E+03  0.47000000000E+01 0.  1.
         13    1    6    6    0    0 -0.24099480588E+02  0.20143857068E+01  0.61762654235E+02  0.66328486886E+02  0.00000000000E+00 0. -1.
        -14    1    6    6    0    0  0.41233574301E+02 -0.53944482082E+02  0.14038283295E+03  0.15594086887E+03  0.00000000000E+00 0.  1.
</event>
<event>
12    1  0.9962621E-001  0.3498479E+03  0.7818608E-02  0.1062695E+00
         21   -1    0    0  503  502  0.00000000000E+00  0.00000000000E+00  0.29826391063E+03  0.29826391063E+03  0.00000000000E+00 0. -1.
         21   -1    0    0  501  503 -0.00000000000E+00 -0.00000000000E+00 -0.42878226283E+03  0.42878226283E+03  0.00000000000E+00 0. -1.
          6    2    1    2  501    0  0.14134319828E+03 -0.26868239514E+03  0.10538128490E+02  0.34983209876E+03  0.17350307207E+03 0.  0.
         24    2    3    3    0    0  0.69062412510E+02 -0.18971216251E+03  0.65073518870E+02  0.22959479824E+03  0.87857197177E+02 0.  0.
         -6    2    1    2    0  502 -0.14134319828E+03  0.26868239514E+03 -0.14105648069E+03  0.37721407470E+03  0.17385453187E+03 0.  0.
        -24    2    5    5    0    0 -0.72979553274E+02  0.25805716859E+03 -0.12297962964E+03  0.30555274662E+03  0.79491975738E+02 0.  0.
          5    1    3    3  501    0  0.72280785771E+02 -0.78970232631E+02 -0.54535390381E+02  0.12023730052E+03  0.47000000000E+01 0. -1.
        -11    1    4    4    0    0  0.69112260533E+01 -0.11057240481E+03  0.19460303997E+01  0.11080527418E+03  0.00000000000E+00 0.  1.
         12    1    4    4    0    0  0.62151186457E+02 -0.79139757693E+02  0.63127488471E+02  0.11878952406E+03  0.00000000000E+00 0. -1.
         -5    1    5    5    0  502 -0.68363645007E+02  0.10625226549E+02 -0.18076851046E+02  0.71661328076E+02  0.47000000000E+01 0.  1.
         11    1    6    6    0    0 -0.40668225035E+02  0.19773873342E+03 -0.12436702759E+03  0.23711108952E+03  0.00000000000E+00 0. -1.
        -12    1    6    6    0    0 -0.32311328239E+02  0.60318435172E+02  0.13873979511E+01  0.68441657105E+02  0.00000000000E+00 0.  1.
</event>
<event>
12    1  0.9962621E-001  0.2589680E+03  0.7818608E-02  0.1108130E+00
         21   -1    0    0  501  502  0.00000000000E+00  0.00000000000E+00  0.36150272536E+03  0.36150272536E+03  0.00000000000E+00 0.  1.
         21   -1    0    0  502  503 -0.00000000000E+00 -0.00000000000E+00 -0.18505020312E+03  0.18505020312E+03  0.00000000000E+00 0.  1.
         -6    2    1    2    0  503  0.19060522295E+03  0.37379843821E+02  0.11031441942E+03  0.27927275498E+03  0.16761979835E+03 0.  0.
        -24    2    3    3    0    0  0.16521582460E+03  0.57815034529E+01  0.13962187839E+03  0.22903239457E+03  0.75045815076E+02 0.  0.
          6    2    1    2  501    0 -0.19060522295E+03 -0.37379843821E+02  0.66138102822E+02  0.26728017350E+03  0.17128000106E+03 0.  0.
         24    2    5    5    0    0 -0.41872829833E+02  0.28832670543E+02  0.59626354478E+02  0.10427736774E+03  0.68802692574E+02 0.  0.
          5    1    5    5  501    0 -0.14873239312E+03 -0.66212514364E+02  0.65117483439E+01  0.16300280576E+03  0.47000000000E+01 0. -1.
        -13    1    6    6    0    0  0.16418147196E+02  0.20138901569E+02  0.24237958499E+02  0.35533217501E+02  0.00000000000E+00 0.  1.
         14    1    6    6    0    0 -0.58290977029E+02  0.86937689738E+01  0.35388395979E+02  0.68744150238E+02  0.00000000000E+00 0. -1.
         -5    1    3    3    0  503  0.25389398351E+02  0.31598340368E+02 -0.29307458961E+02  0.50240360403E+02  0.47000000000E+01 0.  1.
         13    1    4    4    0    0  0.76245489976E+02  0.21896879517E+02  0.10637194448E+03  0.13269453133E+03  0.00000000000E+00 0. -1.
        -14    1    4    4    0    0  0.88970334623E+02 -0.16115376064E+02  0.33249933908E+02  0.96337863239E+02  0.00000000000E+00 0.  1.
</event>
<event>
12    1  0.9962621E-001  0.4140128E+03  0.7818608E-02  0.1039049E+00
         21   -1    0    0  503  502  0.00000000000E+00  0.00000000000E+00  0.28134870806E+03  0.28134870806E+03  0.00000000000E+00 0. -1.
         21   -1    0    0  501  503 -0.00000000000E+00 -0.00000000000E+00 -0.62642347289E+03  0.62642347289E+03  0.00000000000E+00 0. -1.
          6    2    1    2  501    0  0.27671765436E+03  0.25502179351E+03 -0.96694237241E+02  0.42496841586E+03  0.17216156237E+03 0.  0.
         24    2    3    3    0    0  0.17296158717E+03  0.20649614796E+03 -0.84540105189E+01  0.28030160084E+03  0.77078838737E+02 0.  0.
         -6    2    1    2    0  502 -0.27671765436E+03 -0.25502179351E+03 -0.24838052759E+03  0.48280376510E+03  0.17262043246E+03 0.  0.
        -24    2    5    5    0    0 -0.13913285570E+03 -0.78641479053E+02 -0.17015636955E+03  0.24577908061E+03  0.76887792315E+02 0.  0.
          5    1    3    3  501    0  0.10375606720E+03  0.48525645555E+02 -0.88240226722E+02  0.14466681502E+03  0.47000000000E+01 0. -1.
        -13    1    4    4    0    0  0.33355929715E+02  0.96654966401E+02 -0.92157476889E+01  0.10266319001E+03  0.00000000000E+00 0.  1.
         14    1    4    4    0    0  0.13960565745E+03  0.10984118156E+03  0.76173716999E+00  0.17763841083E+03  0.00000000000E+00 0. -1.
         -5    1    5    5    0  502 -0.13758479866E+03 -0.17638031446E+03 -0.78224158047E+02  0.23702468448E+03  0.47000000000E+01 0.  1.
         11    1    6    6    0    0 -0.43699634138E+01  0.41330732736E+01 -0.41416832295E+02  0.41851318644E+02  0.00000000000E+00 0. -1.
        -12    1    6    6    0    0 -0.13476289228E+03 -0.82774552327E+02 -0.12873953725E+03  0.20392776197E+03  0.00000000000E+00 0.  1.
</event>
<event>
12    1  0.9962621E-001  0.2103871E+03  0.7818608E-02  0.1142864E+00
         21   -1    0    0  501  502  0.00000000000E+00  0.00000000000E+00  0.71123462633E+02  0.71123462633E+02  0.00000000000E+00 0. -1.
         21   -1    0    0  502  503 -0.00000000000E+00 -0.00000000000E+00 -0.72221284015E+03  0.72221284015E+03  0.00000000000E+00 0. -1.
         -6    2    1    2    0  503 -0.16905706530E+02  0.10806567493E+03 -0.49455283819E+03  0.53744326339E+03  0.17971855384E+03 0.  0.
        -24    2    3    3    0    0 -0.39542377531E+02  0.21446968554E+02 -0.12179764197E+03  0.15405867127E+03  0.82920664029E+02 0.  0.
          6    2    1    2  501    0  0.16905706530E+02 -0.10806567493E+03 -0.15653653933E+03  0.25589303939E+03  0.17033369147E+03 0.  0.
         24    2    5    5    0    0  0.56254347293E+02 -0.96623089796E+02 -0.59348169780E+02  0.15031407624E+03  0.81065055285E+02 0.  0.
          5    1    5    5  501    0 -0.39348640763E+02 -0.11442585137E+02 -0.97188369546E+02  0.10557896315E+03  0.47000000000E+01 0. -1.
        -11    1    6    6    0    0  0.63653524448E+02 -0.29594361114E+02 -0.24077140417E+02  0.74211226072E+02  0.00000000000E+00 0.  1.
         12    1    6    6    0    0 -0.73991771554E+01 -0.67028728682E+02 -0.35271029363E+02  0.76102850168E+02  0.00000000000E+00 0. -1.
         -5    1    3    3    0  503  0.22636671001E+02  0.86618706378E+02 -0.37275519622E+03  0.38338459213E+03  0.47000000000E+01 0.  1.
         11    1    4    4    0    0 -0.36421592606E+02 -0.92477584223E+01 -0.11693550618E+03  0.12282494067E+03  0.00000000000E+00 0. -1.
        -12    1    4    4    0    0 -0.31207849251E+01  0.30694726977E+02 -0.48621357828E+01  0.31233730599E+02  0.00000000000E+00 0.  1.
</event>
<event>
12    1  0.9962621E-001  0.3169258E+03  0.7818608E-02  0.1077103E+00
         21   -1    0    0  503  502  0.00000000000E+00  0.00000000000E+00  0.11774812987E+03  0.11774812987E+03  0.00000000000E+00 0.  1.
         21   -1    0    0  501  503 -0.00000000000E+00 -0.00000000000E+00 -0.94491604917E+03  0.94491604917E+03  0.00000000000E+00 0.  1.
          6    2    1    2  501    0  0.15239973717E+02  0.26645244940E+03 -0.57975585005E+03  0.66060111662E+03  0.17043422490E+03 0.  0.
         24    2    3    3    0    0 -0.48643283197E+02  0.92690291845E+02 -0.22681666345E+03  0.26202550603E+03  0.79081652685E+02 0.  0.
         -6    2    1    2    0  502 -0.15239973717E+02 -0.26645244940E+03 -0.24741206924E+03  0.40206306242E+03  0.17091755197E+03 0.  0.
        -24    2    5    5    0    0  0.52132971214E+02 -0.11202856668E+03 -0.12780380941E+03  0.19538922498E+03  0.81085689857E+02 0.  0.
          5    1    3    3  501    0  0.63883256914E+02  0.17376215755E+03 -0.35293918661E+03  0.39857561059E+03  0.47000000000E+01 0. -1.
        -13    1    4    4    0    0 -0.48428488946E+02  0.11463199147E+02 -0.93252905542E+02  0.10570159823E+03  0.00000000000E+00 0.  1.
         14    1    4    4    0    0 -0.21479425056E+00  0.81227092698E+02 -0.13356375791E+03  0.15632390780E+03  0.00000000000E+00 0. -1.
         -5    1    5    5    0  502 -0.67372944930E+02 -0.15442388272E+03 -0.11960825982E+03  0.20667383744E+03  0.47000000000E+01 0.  1.
         11    1    6    6    0    0 -0.20937368616E+02 -0.29269874578E+02 -0.20417838700E+02  0.41376165839E+02  0.00000000000E+00 0. -1.
        -12    1    6    6    0    0  0.73070339830E+02 -0.82758692097E+02 -0.10738597071E+03  0.15401305914E+03  0.00000000000E+00 0.  1.
</event>
<event>
12    1  0.9962621E-001  0.1833295E+03  0.7818608E-02  0.1166657E+00
         21   -1    0    0  501  502  0.00000000000E+00  0.00000000000E+00  0.70151483691E+03  0.70151483691E+03  0.00000000000E+00 0.  1.
         21   -1    0    0  502  503 -0.00000000000E+00 -0.00000000000E+00 -0.60314724736E+02  0.60314724736E+02  0.00000000000E+00 0.  1.
         -6    2    1    2    0  503 -0.59122580551E+02 -0.13652255794E+02  0.13907942423E+03  0.23011477573E+03  0.17299670559E+03 0.  0.
        -24    2    3    3    0    0 -0.36820651497E+02  0.33721875974E+02  0.14779269083E+03  0.17682598315E+03  0.83257573581E+02 0.  0.
          6    2    1    2  501    0  0.59122580551E+02  0.13652255794E+02  0.50212068794E+03  0.53171478591E+03  0.16405354213E+03 0.  0.
         24    2    5    5    0    0  0.61063002712E+02 -0.83896218154E+01  0.49853467590E+03  0.50881153092E+03  0.80952299977E+02 0.  0.
          5    1    5    5  501    0 -0.19404221617E+01  0.22041877610E+02  0.35860120366E+01  0.22903254988E+02  0.47000000000E+01 0. -1.
        -11    1    6    6    0    0  0.12363131383E+02  0.20125882234E+02  0.37384188254E+02  0.44220760788E+02  0.00000000000E+00 0.  1.
         12    1    6    6    0    0  0.48699871329E+02 -0.28515504049E+02  0.46115048765E+03  0.46459077014E+03  0.00000000000E+00 0. -1.
         -5    1    3    3    0  503 -0.22301929054E+02 -0.47374131768E+02 -0.87132665922E+01  0.53288792584E+02  0.47000000000E+01 0.  1.
         13    1    4    4    0    0  0.17168309528E+02  0.35938527574E+02  0.41109802133E+02  0.57239360999E+02  0.00000000000E+00 0. -1.
        -14    1    4    4    0    0 -0.53988961025E+02 -0.22166515996E+01  0.10668288869E+03  0.11958662215E+03  0.00000000000E+00 0.  1.
</event>
<event>
12    1  0.9962621E-001  0.2233909E+03  0.7818608E-02  0.1132152E+00
         21   -1    0    0  501  502  0.00000000000E+00  0.00000000000E+00  0.15190067264E+03  0.15190067264E+03  0.00000000000E+00 0.  1.
         21   -1    0    0  502  503 -0.00000000000E+00 -0.00000000000E+00 -0.32717584571E+03  0.32717584571E+03  0.00000000000E+00 0.  1.
         -6    2    1    2    0  503 -0.10590134023E+03  0.85735357954E+02 -0.11575041588E+03  0.24789111666E+03  0.17171546662E+03 0.  0.
        -24    2    3    3    0    0 -0.13708527657E+03  0.43036711403E+02 -0.10212733221E+03  0.19308882919E+03  0.78795763814E+02 0.  0.
          6    2    1    2  501    0  0.10590134023E+03 -0.85735357954E+02 -0.59524757188E+02  0.23118540169E+03  0.17702499194E+03 0.  0.
         24    2    5    5    0    0  0.63589189912E+02 -0.64637432359E+02 -0.10885967723E+03  0.16269113285E+03  0.79977450874E+02 0.  0.
          5    1    5    5  501    0  0.42312150315E+02 -0.21097925596E+02  0.49334920038E+02  0.68494268839E+02  0.47000000000E+01 0. -1.
        -13    1    6    6    0    0 -0.19256587057E+02 -0.12224477373E+02 -0.22627679525E+02  0.32128894671E+02  0.00000000000E+00 0.  1.
         14    1    6    6    0    0  0.82845776969E+02 -0.52412954985E+02 -0.86231997701E+02  0.13056223818E+03  0.00000000000E+00 0. -1.
         -5    1    3    3    0  503  0.31183936340E+02  0.42698646551E+02 -0.13623083671E+02  0.54802287468E+02  0.47000000000E+01 0.  1.
         11    1    4    4    0    0 -0.17979323889E+02  0.36777538162E+02 -0.93716897706E+01  0.41996094698E+02  0.00000000000E+00 0. -1.
        -12    1    4    4    0    0 -0.11910595268E+03  0.62591732414E+01 -0.92755642436E+02  0.15109273449E+03  0.00000000000E+00 0.  1.
</event>
<event>
12    1  0.9962621E-001  0.2905767E+03  0.7818608E-02  0.1090144E+00
         21   -1    0    0  503  502  0.00000000000E+00  0.00000000000E+00  0.16196847123E+04  0.16196847123E+04  0.00000000000E+00 0.  1.
         21   -1    0    0  501  503 -0.00000000000E+00 -0.00000000000E+00 -0.70205869022E+02  0.70205869022E+02  0.00000000000E+00 0.  1.
          6    2    1    2  501    0 -0.16827049518E+02 -0.23377380040E+03  0.12057421435E+04  0.12402616339E+04  0.17175990372E+03 0.  0.
         24    2    3    3    0    0 -0.29839362062E+01 -0.28015153504E+02  0.33239273420E+03  0.34288237555E+03  0.79307257015E+02 0.  0.
         -6    2    1    2    0  502  0.16827049518E+02  0.23377380040E+03  0.34373669973E+03  0.44962894739E+03  0.17052252707E+03 0.  0.
        -24    2    5    5    0    0  0.14537957365E+02  0.94365002907E+02  0.26369253962E+03  0.28878986529E+03  0.68918247697E+02 0.  0.
          5    1    3    3  501    0 -0.13843113312E+02 -0.20575864690E+03  0.87334940931E+03  0.89737925834E+03  0.47000000000E+01 0. -1.
        -13    1    4    4    0    0 -0.27641252542E+02 -0.44892415411E+02  0.24211290085E+03  0.24778624772E+03  0.00000000000E+00 0.  1.
         14    1    4    4    0    0  0.24657316336E+02  0.16877261907E+02  0.90279833352E+02  0.95096127831E+02  0.00000000000E+00 0. -1.
         -5    1    5    5    0  502  0.22890921528E+01  0.13940879750E+03  0.80044160108E+02  0.16083908210E+03  0.47000000000E+01 0.  1.
         13    1    6    6    0    0 -0.27559904071E+02  0.46065288476E+02  0.11935054062E+03  0.13086676683E+03  0.00000000000E+00 0. -1.
        -14    1    6    6    0    0  0.42097861436E+02  0.48299714431E+02  0.14434199901E+03  0.15792309847E+03  0.00000000000E+00 0.  1.
</event>
<event>
12    1  0.9962621E-001  0.7248220E+03  0.7818608E-02  0.9676200E-01
         21   -1    0    0  501  502  0.00000000000E+00  0.00000000000E+00  0.89071716925E+03  0.89071716925E+03  0.00000000000E+00 0. -1.
         21   -1    0    0  502  503 -0.00000000000E+00 -0.00000000000E+00 -0.64879945894E+03  0.64879945894E+03  0.00000000000E+00 0. -1.
         -6    2    1    2    0  503 -0.60692641995E+03  0.35503903201E+03  0.35488920225E+03  0.80594356316E+03  0.17083994741E+03 0.  0.
        -24    2    3    3    0    0 -0.52721413654E+02  0.56760949439E+02  0.28710329063E+02  0.97051645538E+02  0.50925298899E+02 0.  0.
          6    2    1    2  501    0  0.60692641995E+03 -0.35503903201E+03 -0.11297149194E+03  0.73357306503E+03  0.17593888215E+03 0.  0.
         24    2    5    5    0    0  0.54976219616E+03 -0.28225517589E+03 -0.13679646258E+03  0.63789152334E+03  0.79283458102E+02 0.  0.
          5    1    5    5  501    0  0.57164223790E+02 -0.72783856122E+02  0.23824970641E+02  0.95681541687E+02  0.47000000000E+01 0. -1.
        -11    1    6    6    0    0  0.44113724263E+03 -0.21233649612E+03 -0.77217155036E+02  0.49563226636E+03  0.00000000000E+00 0.  1.
         12    1    6    6    0    0  0.10862495353E+03 -0.69918679774E+02 -0.59579307541E+02  0.14225925698E+03  0.00000000000E+00 0. -1.
         -5    1    3    3    0  503 -0.55420500630E+03  0.29827808258E+03  0.32617887318E+03  0.70889191762E+03  0.47000000000E+01 0.  1.
         11    1    4    4    0    0 -0.32887581356E+02  0.46518199583E+02  0.42265367622E+02  0.70935866811E+02  0.00000000000E+00 0. -1.
        -12    1    4    4    0    0 -0.19833832297E+02  0.10242749855E+02 -0.13555038559E+02  0.26115778728E+02  0.00000000000E+00 0.  1.
</event>
<event>
12    1  0.9962621E-001  0.2147717E+03  0.7818608E-02  0.1138184E+00
         21   -1    0    0  501  502  0.00000000000E+00  0.00000000000E+00  0.53019878115E+03  0.53019878115E+03  0.00000000000E+00 0.  1.
         21   -1    0    0  502  503 -0.00000000000E+00 -0.00000000000E+00 -0.86670357390E+02  0.86670357390E+02  0.00000000000E+00 0.  1.
         -6    2    1    2    0  503  0.18696941767E+02  0.12463713879E+03  0.20023518078E+03  0.29234103680E+03  0.17171244038E+03 0.  0.
        -24    2    3    3    0    0  0.43647522392E+02  0.15056393607E+03  0.17567648342E+03  0.24852380381E+03  0.79544007801E+02 0.  0.
          6    2    1    2  501    0 -0.18696941767E+02 -0.12463713879E+03  0.24329324298E+03  0.32452810174E+03  0.17390484393E+03 0.  0.
         24    2    5    5    0    0 -0.58303344001E+02 -0.67959902701E+02  0.22117154624E+03  0.25177897353E+03  0.80361497922E+02 0.  0.
          5    1    5    5  501    0  0.39606402234E+02 -0.56677236084E+02  0.22121696736E+02  0.72749128205E+02  0.47000000000E+01 0. -1.
        -11    1    6    6    0    0 -0.46215796734E+02 -0.41194446360E+00  0.54038308074E+02  0.71107020086E+02  0.00000000000E+00 0.  1.
         12    1    6    6    0    0 -0.12087547267E+02 -0.67547958237E+02  0.16713323817E+03  0.18067195345E+03  0.00000000000E+00 0. -1.
         -5    1    3    3    0  503 -0.24950580625E+02 -0.25926797285E+02  0.24558697358E+02  0.43817232990E+02  0.47000000000E+01 0.  1.
         13    1    4    4    0    0  0.45656378275E+02  0.33258293780E+02  0.75233879853E+02  0.94078454813E+02  0.00000000000E+00 0. -1.
        -14    1    4    4    0    0 -0.20088558830E+01  0.11730564229E+03  0.10044260357E+03  0.15444534899E+03  0.00000000000E+00 0.  1.
</event>
<event>
12    1  0.9962621E-001  0.2413766E+03  0.7818608E-02  0.1119135E+00
         21   -1    0    0  503  502  0.00000000000E+00  0.00000000000E+00  0.10138920826E+03  0.10138920826E+03  0.00000000000E+00 0. -1.
         21   -1    0    0  501  503 -0.00000000000E+00 -0.00000000000E+00 -0.84077575177E+03  0.84077575177E+03  0.00000000000E+00 0.  1.
          6    2    1    2  501    0  0.77166103419E+02  0.14957636492E+03 -0.10203152567E+03  0.26063427421E+03  0.17085694660E+03 0.  0.
         24    2    3    3    0    0 -0.25148803308E+02  0.79224922243E+02 -0.60322766427E+02  0.12956415472E+03  0.78987235842E+02 0.  0.
         -6    2    1    2    0  502 -0.77166103419E+02 -0.14957636492E+03 -0.63735501783E+03  0.68153068582E+03  0.17301722604E+03 0.  0.
        -24    2    5    5    0    0 -0.36106303078E+02 -0.15696443268E+03 -0.33967176491E+03  0.38090151255E+03  0.61380421487E+02 0.  0.
          5    1    3    3  501    0  0.10231490673E+03  0.70351442673E+02 -0.41708759248E+02  0.13107011949E+03  0.47000000000E+01 0. -1.
        -11    1    4    4    0    0  0.23173896680E+02  0.49619841732E+02 -0.44939418698E+02  0.70842850972E+02  0.00000000000E+00 0.  1.
         12    1    4    4    0    0 -0.48322699988E+02  0.29605080511E+02 -0.15383347729E+02  0.58721303745E+02  0.00000000000E+00 0. -1.
         -5    1    5    5    0  502 -0.41059800341E+02  0.73880677642E+01 -0.29768325292E+03  0.30062917327E+03  0.47000000000E+01 0.  1.
         11    1    6    6    0    0  0.64164014504E+01  0.89712327828E-01 -0.32375315208E+01  0.71874798242E+01  0.00000000000E+00 0. -1.
        -12    1    6    6    0    0 -0.42522704529E+02 -0.15705414501E+03 -0.33643423339E+03  0.37371403273E+03  0.00000000000E+00 0.  1.
</event>
<event>
12    1  0.9962621E-001  0.1769984E+03  0.7818608E-02  0.1170949E+00
         21   -1    0    0  501  502  0.00000000000E+00  0.00000000000E+00  0.16226041933E+03  0.16226041933E+03  0.00000000000E+00 0.  1.
         21   -1    0    0  502  503 -0.00000000000E+00 -0.00000000000E+00 -0.20102509631E+03  0.20102509631E+03  0.00000000000E+00 0.  1.
         -6    2    1    2    0  503 -0.37639631871E+02  0.62710843793E+01  0.18817567050E+02  0.17715615730E+03  0.17197131985E+03 0.  0.
        -24    2    3    3    0    0  0.11857493624E+02  0.25999218518E+02  0.64166518068E+02  0.10702925755E+03  0.80754940487E+02 0.  0.
          6    2    1    2  501    0  0.37639631871E+02 -0.62710843793E+01 -0.57582244037E+02  0.18612935834E+03  0.17283620808E+03 0.  0.
         24    2    5    5    0    0  0.38142620877E+02 -0.69445655635E+02 -0.28906261642E+02  0.11659029438E+03  0.80499479294E+02 0.  0.
          5    1    5    5  501    0 -0.50298900592E+00  0.63174571256E+02 -0.28675982394E+02  0.69539063968E+02  0.47000000000E+01 0. -1.
        -13    1    6    6    0    0  0.35942471877E+02 -0.25214345893E+02 -0.50836997769E+02  0.67171607585E+02  0.00000000000E+00 0.  1.
         14    1    6    6    0    0  0.22001490005E+01 -0.44231309742E+02  0.21930736126E+02  0.49418686791E+02  0.00000000000E+00 0. -1.
         -5    1    3    3    0  503 -0.49497125496E+02 -0.19728134138E+02 -0.45348951018E+02  0.70126899741E+02  0.47000000000E+01 0.  1.
         11    1    4    4    0    0  0.10621099734E+02 -0.93878543237E+01 -0.14796357705E+02  0.20490772794E+02  0.00000000000E+00 0. -1.
        -12    1    4    4    0    0  0.12363938899E+01  0.35387072841E+02  0.78962875773E+02  0.86538484759E+02  0.00000000000E+00 0.  1.
</event>
<event>
12    1  0.9962621E-001  0.2488290E+03  0.7818608E-02  0.1114073E+00
         21   -1    0    0  503  502  0.00000000000E+00  0.00000000000E+00  0.83261331746E+03  0.83261331746E+03  0.00000000000E+00 0.  1.
         21   -1    0    0  501  503 -0.00000000000E+00 -0.00000000000E+00 -0.96031841239E+02  0.96031841239E+02  0.00000000000E+00 0.  1.
          6    2    1    2  501    0 -0.17418429877E+03  0.44947728521E+02  0.58900771080E+03  0.63934622919E+03  0.17167716552E+03 0.  0.
         24    2    3    3    0    0 -0.12713178705E+03 -0.23025403813E+02  0.27106911071E+03  0.31080197189E+03  0.80166966075E+02 0.  0.
         -6    2    1    2    0  502  0.17418429877E+03 -0.44947728521E+02  0.14757376542E+03  0.28929892951E+03  0.17191680005E+03 0.  0.
        -24    2    5    5    0    0  0.20120157081E+03 -0.45144493151E+02  0.12666425973E+03  0.25481314790E+03  0.79786015623E+02 0.  0.
          5    1    3    3  501    0 -0.47052511716E+02  0.67973132335E+02  0.31793860009E+03  0.32854425730E+03  0.47000000000E+01 0. -1.
        -11    1    4    4    0    0 -0.24829773490E+01 -0.24147507146E+02  0.24364227315E+02  0.34393063989E+02  0.00000000000E+00 0.  1.
         12    1    4    4    0    0 -0.12464880970E+03  0.11221033324E+01  0.24670488340E+03  0.27640890790E+03  0.00000000000E+00 0. -1.
         -5    1    5    5    0  502 -0.27017272046E+02  0.19676462987E+00  0.20909505694E+02  0.34485781613E+02  0.47000000000E+01 0.  1.
         11    1    6    6    0    0  0.53984619682E+02  0.72956226575E+01  0.13414162899E+01  0.54491877100E+02  0.00000000000E+00 0. -1.
        -12    1    6    6    0    0  0.14721695113E+03 -0.52440115809E+02  0.12532284344E+03  0.20032127080E+03  0.00000000000E+00 0.  1.
</event>
<event>
12    1  0.9962621E-001  0.4012205E+03  0.7818608E-02  0.1043423E+00
         21   -1    0    0  501  502  0.00000000000E+00  0.00000000000E+00  0.41358219317E+03  0.41358219317E+03  0.00000000000E+00 0. -1.
         21   -1    0    0  502  503 -0.00000000000E+00 -0.00000000000E+00 -0.39507796098E+03  0.39507796098E+03  0.00000000000E+00 0. -1.
         -6    2    1    2    0  503  0.19425390974E+03 -0.30578867396E+03  0.61437826568E+02  0.40514903771E+03  0.17067466610E+03 0.  0.
        -24    2    3    3    0    0  0.17678135001E+03 -0.16733818643E+03  0.67502557321E+02  0.26538960583E+03  0.81371575424E+02 0.  0.
          6    2    1    2  501    0 -0.19425390974E+03  0.30578867396E+03 -0.42933594382E+02  0.40351111644E+03  0.17244312971E+03 0.  0.
         24    2    5    5    0    0 -0.10908284630E+03  0.94062577613E+02 -0.59696004585E+02  0.17463316136E+03  0.78652986079E+02 0.  0.
          5    1    5    5  501    0 -0.85171063445E+02  0.21172609635E+03  0.16762410203E+02  0.22887795508E+03  0.47000000000E+01 0. -1.
        -13    1    6    6    0    0 -0.11027696543E+03  0.10444040142E+03 -0.48782726792E+02  0.15952605112E+03  0.00000000000E+00 0.  1.
         14    1    6    6    0    0  0.11941191332E+01 -0.10377823808E+02 -0.10913277793E+02  0.15107110236E+02  0.00000000000E+00 0. -1.
         -5    1    3    3    0  503  0.17472559735E+02 -0.13845048753E+03 -0.60647307530E+01  0.13975943188E+03  0.47000000000E+01 0.  1.
         11    1    4    4    0    0  0.67639754222E+02 -0.11977231502E+03  0.38874802521E+02  0.14293982674E+03  0.00000000000E+00 0. -1.
        -12    1    4    4    0    0  0.10914159579E+03 -0.47565871410E+02  0.28627754799E+02  0.12244977909E+03  0.00000000000E+00 0.  1.
</event>
<event>
12    1  0.9962621E-001  0.2333115E+03  0.7818608E-02  0.1124830E+00
         21   -1    0    0  503  502  0.00000000000E+00  0.00000000000E+00  0.23896977914E+03  0.23896977914E+03  0.00000000000E+00 0.  1.
         21   -1    0    0  501  503 -0.00000000000E+00 -0.00000000000E+00 -0.50480081180E+03  0.50480081180E+03  0.00000000000E+00 0.  1.
          6    2    1    2  501    0  0.10685340449E+02  0.15512459013E+03  0.14432055793E+03  0.27190346394E+03  0.17007426407E+03 0.  0.
         24    2    3    3    0    0  0.89323249854E+01  0.10215613749E+03  0.13251042174E+02  0.13044662247E+03  0.79530298244E+02 0.  0.
         -6    2    1    2    0  502 -0.10685340449E+02 -0.15512459013E+03 -0.41015159058E+03  0.47186712701E+03  0.17394379359E+03 0.  0.
        -24    2    5    5    0    0 -0.61493092895E+02 -0.70350449377E+02 -0.29985194270E+03  0.32369093131E+03  0.78320145983E+02 0.  0.
          5    1    3    3  501    0  0.17530154631E+01  0.52968452642E+02  0.13106951575E+03  0.14145684147E+03  0.47000000000E+01 0. -1.
        -13    1    4    4    0    0  0.40386061067E+02  0.44094656481E+02 -0.96217185554E+01  0.60563603977E+02  0.00000000000E+00 0.  1.
         14    1    4    4    0    0 -0.31453736082E+02  0.58061481008E+02  0.22872760730E+02  0.69883018493E+02  0.00000000000E+00 0. -1.
         -5    1    5    5    0  502  0.50807752446E+02 -0.84774140753E+02 -0.11029964788E+03  0.14817619570E+03  0.47000000000E+01 0.  1.
         13    1    6    6    0    0 -0.32763969556E+02 -0.64968436704E+02 -0.11187797577E+03  0.13345807181E+03  0.00000000000E+00 0. -1.
        -14    1    6    6    0    0 -0.28729123339E+02 -0.53820126732E+01 -0.18797396693E+03  0.19023285950E+03  0.00000000000E+00 0.  1.
</event>
<event>
12    1  0.9962621E-001  0.3236345E+03  0.7818608E-02  0.1074162E+00
         21   -1    0    0  501  502  0.00000000000E+00  0.00000000000E+00  0.24969772216E+03  0.24969772216E+03  0.00000000000E+00 0. -1.
         21   -1    0    0  502  503 -0.00000000000E+00 -0.00000000000E+00 -0.44366811235E+03  0.44366811235E+03  0.00000000000E+00 0. -1.
         -6    2    1    2    0  503 -0.14756393023E+03 -0.23095127420E+03 -0.12987266313E+02  0.32389493974E+03  0.17212105725E+03 0.  0.
        -24    2    3    3    0    0 -0.17271759091E+03 -0.21683994033E+03 -0.29533248781E+02  0.29031375565E+03  0.80987270633E+02 0.  0.
          6    2    1    2  501    0  0.14756393023E+03  0.23095127420E+03 -0.18098312388E+03  0.36947089477E+03  0.16923429439E+03 0.  0.
         24    2    5    5    0    0  0.17003211158E+02  0.13832195468E+03 -0.75061592374E+02  0.17746112149E+03  0.80225523719E+02 0.  0.
          5    1    5    5  501    0  0.13056071907E+03  0.92629319522E+02 -0.10592153150E+03  0.19200977328E+03  0.47000000000E+01 0. -1.
        -13    1    6    6    0    0  0.40375759534E+02  0.40903345178E+02 -0.44600253634E+02  0.72749352086E+02  0.00000000000E+00 0.  1.
         14    1    6    6    0    0 -0.23372548376E+02  0.97418609498E+02 -0.30461338739E+02  0.10471176941E+03  0.00000000000E+00 0. -1.
         -5    1    3    3    0  503  0.25153660682E+02 -0.14111333868E+02  0.16545982469E+02  0.33581184093E+02  0.47000000000E+01 0.  1.
         11    1    4    4    0    0 -0.31887891083E+02 -0.47327915995E+02 -0.39991707418E+02  0.69685765349E+02  0.00000000000E+00 0. -1.
        -12    1    4    4    0    0 -0.14082969982E+03 -0.16951202433E+03  0.10458458636E+02  0.22062799030E+03  0.00000000000E+00 0.  1.
</event>
<event>
12    1  0.9962621E-001  0.2123308E+03  0.7818608E-02  0.1139995E+00
         21   -1    0    0  503  502  0.00000000000E+00  0.00000000000E+00  0.52589100734E+02  0.52589100734E+02  0.00000000000E+00 0.  1.
         21   -1    0    0  501  503 -0.00000000000E+00 -0.00000000000E+00 -0.86167823879E+03  0.86167823879E+03  0.00000000000E+00 0.  1.
          6    2    1    2  501    0  0.11493153321E+03 -0.41762172369E+02 -0.35711887887E+03  0.41547354137E+03  0.17358292994E+03 0.  0.
         24    2    3    3    0    0  0.11539605216E+03  0.27121708647E+02 -0.25781113953E+03  0.29452180746E+03  0.78896612562E+02 0.  0.
         -6    2    1    2    0  502 -0.11493153321E+03  0.41762172369E+02 -0.45197025919E+03  0.49879379815E+03  0.17194418141E+03 0.  0.
        -24    2    5    5    0    0 -0.12629641798E+03  0.72190848167E+01 -0.43156454879E+03  0.45683109423E+03  0.80273211638E+02 0.  0.
          5    1    3    3  501    0 -0.46451894393E+00 -0.68883881016E+02 -0.99307739340E+02  0.12095173391E+03  0.47000000000E+01 0. -1.
        -13    1    4    4    0    0  0.62905881189E+02  0.22112736837E+02 -0.59653622011E+02  0.89468864068E+02  0.00000000000E+00 0.  1.
         14    1    4    4    0    0  0.52490170968E+02  0.50089718099E+01 -0.19815751752E+03  0.20505294339E+03  0.00000000000E+00 0. -1.
         -5    1    5    5    0  502  0.11364884768E+02  0.34543087553E+02 -0.20405710398E+02  0.41962703920E+02  0.47000000000E+01 0.  1.
         13    1    6    6    0    0 -0.48701021553E+02 -0.34111841622E+02 -0.13510453971E+03  0.14760976895E+03  0.00000000000E+00 0. -1.
        -14    1    6    6    0    0 -0.77595396428E+02  0.41330926439E+02 -0.29646000908E+03  0.30922132528E+03  0.00000000000E+00 0.  1.
</event>
<event>
12    1  0.9962621E-001  0.1885991E+03  0.7818608E-02  0.1160161E+00
         21   -1    0    0  501  502  0.00000000000E+00  0.00000000000E+00  0.22893213195E+03  0.22893213195E+03  0.00000000000E+00 0. -1.
         21   -1    0    0  502  503 -0.00000000000E+00 -0.00000000000E+00 -0.16679831918E+03  0.16679831918E+03  0.00000000000E+00 0. -1.
         -6    2    1    2    0  503 -0.66510998218E+02 -0.32798510065E+02 -0.24254213901E+02  0.18828768125E+03  0.17136081487E+03 0.  0.
        -24    2    3    3    0    0 -0.61321159260E+01 -0.31033561988E+02 -0.70927570594E+02  0.11180750936E+03  0.80433289516E+02 0.  0.
          6    2    1    2  501    0  0.66510998218E+02  0.32798510065E+02  0.86388026671E+02  0.20744276988E+03  0.17340748679E+03 0.  0.
         24    2    5    5    0    0 -0.26308057357E+02  0.21895977731E+02  0.70298617731E+02  0.11249435563E+03  0.80879766753E+02 0.  0.
          5    1    5    5  501    0  0.92819055574E+02  0.10902532333E+02  0.16089408941E+02  0.94948414252E+02  0.47000000000E+01 0. -1.
        -11    1    6    6    0    0  0.21761677431E+02  0.29360010476E+01  0.54027323431E+02  0.58319313987E+02  0.00000000000E+00 0.  1.
         12    1    6    6    0    0 -0.48069734787E+02  0.18959976684E+02  0.16271294300E+02  0.54175041639E+02  0.00000000000E+00 0. -1.
         -5    1    3    3    0  503 -0.60378882292E+02 -0.17649480764E+01  0.46673356693E+02  0.76480171898E+02  0.47000000000E+01 0.  1.
         11    1    4    4    0    0 -0.27470119522E+02  0.40352045309E+00  0.40331804539E+01  0.27767550124E+02  0.00000000000E+00 0. -1.
        -12    1    4    4    0    0  0.21338003596E+02 -0.31437082441E+02 -0.74960751048E+02  0.84039959231E+02  0.00000000000E+00 0.  1.
</event>
<event>
12    1  0.9962621E-001  0.2315338E+03  0.7818608E-02  0.1127612E+00
         21   -1    0    0  501  502  0.00000000000E+00  0.00000000000E+00  0.97092833191E+02  0.97092833191E+02  0.00000000000E+00 0.  1.
         21   -1    0    0  502  503 -0.00000000000E+00 -0.00000000000E+00 -0.52675066451E+03  0.52675066451E+03  0.00000000000E+00 0.  1.
         -6    2    1    2    0  503  0.13080410270E+03  0.34775784904E+02 -0.20350614066E+03  0.30825742591E+03  0.18785319492E+03 0.  0.
        -24    2    3    3    0    0  0.11490351592E+03  0.60493641551E+02 -0.64568602258E+02  0.16599019009E+03  0.80754815147E+02 0.  0.
          6    2    1    2  501    0 -0.13080410270E+03 -0.34775784904E+02 -0.22615169066E+03  0.31558607179E+03  0.17358258272E+03 0.  0.
         24    2    5    5    0    0 -0.44421121124E+02  0.30732835398E+02 -0.50483392505E+02  0.10910401491E+03  0.80233222400E+02 0.  0.
          5    1    5    5  501    0 -0.86382981574E+02 -0.65508620302E+02 -0.17566829815E+03  0.20648205689E+03  0.47000000000E+01 0. -1.
        -13    1    6    6    0    0  0.56143932072E+01 -0.19608296353E+02  0.24763625762E+01  0.20546023181E+02  0.00000000000E+00 0.  1.
         14    1    6    6    0    0 -0.50035514331E+02  0.50341131751E+02 -0.52959755081E+02  0.88557991727E+02  0.00000000000E+00 0. -1.
         -5    1    3    3    0  503  0.15900586781E+02 -0.25717856646E+02 -0.13893753840E+03  0.14226723582E+03  0.47000000000E+01 0.  1.
         11    1    4    4    0    0  0.11119212450E+03  0.65156958692E+02 -0.78455273099E+02  0.15087858593E+03  0.00000000000E+00 0. -1.
        -12    1    4    4    0    0  0.37113914183E+01 -0.46633171410E+01  0.13886670841E+02  0.15111604153E+02  0.00000000000E+00 0.  1.
</event>
<event>
12    1  0.9962621E-001  0.1918930E+03  0.7818608E-02  0.1157218E+00
         21   -1    0    0  503  502  0.00000000000E+00  0.00000000000E+00  0.26286309000E+03  0.26286309000E+03  0.00000000000E+00 0.  1.
         21   -1    0    0  501  503 -0.00000000000E+00 -0.00000000000E+00 -0.14218661564E+03  0.14218661564E+03  0.00000000000E+00 0.  1.
          6    2    1    2  501    0 -0.84065880960E+02  0.22166068969E+01  0.28525804180E+02  0.19400164787E+03  0.17248458536E+03 0.  0.
         24    2    3    3    0    0 -0.52625487330E+02 -0.58323178394E+02  0.49793185218E+02  0.12239190377E+03  0.79557411719E+02 0.  0.
         -6    2    1    2    0  502  0.84065880960E+02 -0.22166068969E+01  0.92150670180E+02  0.21104805777E+03  0.17022793832E+03 0.  0.
        -24    2    5    5    0    0  0.10297226611E+03  0.13321144506E+02  0.16943900418E+02  0.13182040264E+03  0.79427843432E+02 0.  0.
          5    1    3    3  501    0 -0.31440393630E+02  0.60539785291E+02 -0.21267381038E+02  0.71609744106E+02  0.47000000000E+01 0. -1.
        -11    1    4    4    0    0 -0.21618515322E+02 -0.55145422920E+02 -0.49069786691E+01  0.59434470751E+02  0.00000000000E+00 0.  1.
         12    1    4    4    0    0 -0.31006972008E+02 -0.31777554736E+01  0.54700163887E+02  0.62957433018E+02  0.00000000000E+00 0. -1.
         -5    1    5    5    0  502 -0.18906385154E+02 -0.15537751403E+02  0.75206769762E+02  0.79227655123E+02  0.47000000000E+01 0.  1.
         11    1    6    6    0    0  0.39257576999E+02  0.25570242685E+02 -0.26415262686E+02  0.53784391468E+02  0.00000000000E+00 0. -1.
        -12    1    6    6    0    0  0.63714689115E+02 -0.12249098179E+02  0.43359163104E+02  0.78036011177E+02  0.00000000000E+00 0.  1.
</event>
<event>
12    1  0.9962621E-001  0.2563146E+03  0.7818608E-02  0.1109427E+00
         21   -1    0    0  501  502  0.00000000000E+00  0.00000000000E+00  0.25036032695E+03  0.25036032695E+03  0.00000000000E+00 0. -1.
         21   -1    0    0  502  503 -0.00000000000E+00 -0.00000000000E+00 -0.27871730601E+03  0.27871730601E+03  0.00000000000E+00 0. -1.
         -6    2    1    2    0  503 -0.16962576198E+03 -0.84787606525E+02 -0.78818513977E+02  0.26815950264E+03  0.17243933241E+03 0.  0.
        -24    2    3    3    0    0 -0.13778533511E+03 -0.49636870980E+01 -0.12880021613E+02  0.15973604728E+03  0.79625831764E+02 0.  0.
          6    2    1    2  501    0  0.16962576198E+03  0.84787606525E+02  0.50461534910E+02  0.26091813032E+03  0.17195949197E+03 0.  0.
         24    2    5    5    0    0  0.26485107244E+02 -0.15095559398E+02  0.26432070071E+02  0.84664338722E+02  0.74431573298E+02 0.  0.
          5    1    5    5  501    0  0.14314065473E+03  0.99883165924E+02  0.24029464839E+02  0.17625379160E+03  0.47000000000E+01 0. -1.
        -11    1    6    6    0    0  0.28327602971E+02  0.14602077650E+02  0.40677530221E+02  0.51675286421E+02  0.00000000000E+00 0.  1.
         12    1    6    6    0    0 -0.18424957270E+01 -0.29697637049E+02 -0.14245460150E+02  0.32989052301E+02  0.00000000000E+00 0. -1.
         -5    1    3    3    0  503 -0.31840426869E+02 -0.79823919427E+02 -0.65938492364E+02  0.10842345536E+03  0.47000000000E+01 0.  1.
         11    1    4    4    0    0 -0.49769249225E+02  0.28643828611E+02 -0.28711244127E+02  0.64201110779E+02  0.00000000000E+00 0. -1.
        -12    1    4    4    0    0 -0.88016085885E+02 -0.33607515709E+02  0.15831222515E+02  0.95534936505E+02  0.00000000000E+00 0.  1.
</event>
<event>
12    1  0.9962621E-001  0.2176385E+03  0.7818608E-02  0.1137143E+00
         21   -1    0    0  501  502  0.00000000000E+00  0.00000000000E+00  0.31316171714E+03  0.31316171714E+03  0.00000000000E+00 0. -1.
         21   -1    0    0  502  503 -0.00000000000E+00 -0.00000000000E+00 -0.15115434988E+03  0.15115434988E+03  0.00000000000E+00 0. -1.
         -6    2    1    2    0  503 -0.11168483962E+03 -0.47310569431E+02  0.36475340434E+02  0.21306958513E+03  0.17133710710E+03 0.  0.
        -24    2    3    3    0    0 -0.47358704964E+02 -0.62322753500E+02  0.58131006394E+02  0.14339695681E+03  0.10514989670E+03 0.  0.
          6    2    1    2  501    0  0.11168483962E+03  0.47310569431E+02  0.12553202683E+03  0.25124648189E+03  0.18070614688E+03 0.  0.
         24    2    5    5    0    0  0.14485808615E+03  0.50276286144E+02  0.13198899926E+03  0.21699677745E+03  0.78453396512E+02 0.  0.
          5    1    5    5  501    0 -0.33173246535E+02 -0.29657167129E+01 -0.64569724266E+01  0.34249704440E+02  0.47000000000E+01 0. -1.
        -13    1    6    6    0    0  0.35392435041E+02  0.29961053771E+02  0.28040595627E+01  0.46455914061E+02  0.00000000000E+00 0.  1.
         14    1    6    6    0    0  0.10946565111E+03  0.20315232373E+02  0.12918493970E+03  0.17054086339E+03  0.00000000000E+00 0. -1.
         -5    1    3    3    0  503 -0.64326134653E+02  0.15012184069E+02 -0.21655665960E+02  0.69672628328E+02  0.47000000000E+01 0.  1.
         13    1    4    4    0    0 -0.35901114041E+02  0.18533606686E+02 -0.42603553369E+01  0.40626779268E+02  0.00000000000E+00 0. -1.
        -14    1    4    4    0    0 -0.11457590923E+02 -0.80856360186E+02  0.62391361731E+02  0.10277017754E+03  0.00000000000E+00 0.  1.
</event>
<event>
12    1  0.9962621E-001  0.1959190E+03  0.7818608E-02  0.1154882E+00
         21   -1    0    0  503  502  0.00000000000E+00  0.00000000000E+00  0.12481132154E+04  0.12481132154E+04  0.00000000000E+00 0.  1.
         21   -1    0    0  501  503 -0.00000000000E+00 -0.00000000000E+00 -0.50690538323E+02  0.50690538323E+02  0.00000000000E+00 0.  1.
          6    2    1    2  501    0  0.47939855550E+02  0.60354367353E+02  0.18658944935E+03  0.27055475162E+03  0.18012043639E+03 0.  0.
         24    2    3    3    0    0  0.10003943094E+03  0.65253088806E+02  0.12692579459E+03  0.19105503509E+03  0.78268868406E+02 0.  0.
         -6    2    1    2    0  502 -0.47939855550E+02 -0.60354367353E+02  0.10108332277E+04  0.10282490021E+04  0.17196312585E+03 0.  0.
        -24    2    5    5    0    0 -0.75905241086E+02 -0.46587418802E+02  0.96627910026E+03  0.97367105844E+03  0.80050216894E+02 0.  0.
          5    1    3    3  501    0 -0.52099575387E+02 -0.48987214531E+01  0.59663654763E+02  0.79499716522E+02  0.47000000000E+01 0. -1.
        -13    1    4    4    0    0  0.49078846555E+02 -0.10796269562E+02  0.56059010540E+02  0.75285491818E+02  0.00000000000E+00 0.  1.
         14    1    4    4    0    0  0.50960584382E+02  0.76049358367E+02  0.70866784050E+02  0.11576954328E+03  0.00000000000E+00 0. -1.
         -5    1    5    5    0  502  0.27965385536E+02 -0.13766948550E+02  0.44554127442E+02  0.54577943647E+02  0.47000000000E+01 0.  1.
         11    1    6    6    0    0 -0.42308251559E+02 -0.14937180702E+02  0.16286885667E+03  0.16893599969E+03  0.00000000000E+00 0. -1.
        -12    1    6    6    0    0 -0.33596989527E+02 -0.31650238100E+02  0.80341024359E+03  0.80473505875E+03  0.00000000000E+00 0.  1.
</event>
<event>
12    1  0.9962621E-001  0.1915219E+03  0.7818608E-02  0.1157440E+00
         21   -1    0    0  503  502  0.00000000000E+00  0.00000000000E+00  0.69600086327E+02  0.69600086327E+02  0.00000000000E+00 0.  1.
         21   -1    0    0  501  503 -0.00000000000E+00 -0.00000000000E+00 -0.54681209207E+03  0.54681209207E+03  0.00000000000E+00 0.  1.
          6    2    1    2  501    0  0.34566355138E+02 -0.74886564388E+02 -0.17494492549E+03  0.25939613158E+03  0.17285194732E+03 0.  0.
         24    2    3    3    0    0  0.44199675309E+02 -0.62618846799E+02 -0.31698513111E+02  0.11522636217E+03  0.79984920664E+02 0.  0.
         -6    2    1    2    0  502 -0.34566355138E+02  0.74886564388E+02 -0.30226708025E+03  0.35701604681E+03  0.17114975737E+03 0.  0.
        -24    2    5    5    0    0  0.35082788539E+02  0.71008205040E+02 -0.23354286163E+03  0.25897955815E+03  0.79089671145E+02 0.  0.
          5    1    3    3  501    0 -0.96333201713E+01 -0.12267717589E+02 -0.14324641238E+03  0.14416976941E+03  0.47000000000E+01 0. -1.
        -13    1    4    4    0    0  0.40950726575E+02 -0.27109666497E+02 -0.54138914452E+02  0.73095267170E+02  0.00000000000E+00 0.  1.
         14    1    4    4    0    0  0.32489487346E+01 -0.35509180302E+02  0.22440401341E+02  0.42131095001E+02  0.00000000000E+00 0. -1.
         -5    1    5    5    0  502 -0.69649143677E+02  0.38783593487E+01 -0.68724218615E+02  0.98036488669E+02  0.47000000000E+01 0.  1.
         13    1    6    6    0    0  0.26793677971E+02 -0.98406207476E+01 -0.84888435252E+02  0.89558837841E+02  0.00000000000E+00 0. -1.
        -14    1    6    6    0    0  0.82891105685E+01  0.80848825787E+02 -0.14865442638E+03  0.16942072030E+03  0.00000000000E+00 0.  1.
</event>
<event>
12    1  0.9962621E-001  0.8378021E+03  0.7818608E-02  0.9507176E-01
         21   -1    0    0  503  502  0.00000000000E+00  0.00000000000E+00  0.11736060718E+04  0.11736060718E+04  0.00000000000E+00 0.  1.
         21   -1    0    0  501  503 -0.00000000000E+00 -0.00000000000E+00 -0.94796217230E+03  0.94796217230E+03  0.00000000000E+00 0.  1.
          6    2    1    2  501    0  0.76258885687E+03  0.30125274420E+03 -0.53220474101E+03  0.99254933200E+03  0.17209680297E+03 0.  0.
         24    2    3    3    0    0  0.31561162021E+03  0.11792717759E+03 -0.15366223667E+03  0.37877948013E+03  0.79651098981E+02 0.  0.
         -6    2    1    2    0  502 -0.76258885687E+03 -0.30125274420E+03  0.75784864050E+03  0.11290189121E+04  0.16749376534E+03 0.  0.
        -24    2    5    5    0    0 -0.69185691048E+03 -0.31272665238E+03  0.67203023698E+03  0.10171191927E+04  0.80267484790E+02 0.  0.
          5    1    3    3  501    0  0.44697723666E+03  0.18332556661E+03 -0.37854250435E+03  0.61376985187E+03  0.47000000000E+01 0. -1.
        -13    1    4    4    0    0  0.51854257749E+01  0.15479974620E+01  0.82209635526E+01  0.98422140976E+01  0.00000000000E+00 0.  1.
         14    1    4    4    0    0  0.31042619443E+03  0.11637918013E+03 -0.16188320022E+03  0.36893726603E+03  0.00000000000E+00 0. -1.
         -5    1    5    5    0  502 -0.70731946389E+02  0.11473908183E+02  0.85818403517E+02  0.11189971935E+03  0.47000000000E+01 0.  1.
         13    1    6    6    0    0 -0.40424993265E+02 -0.31552337074E+02  0.25765901951E+02  0.57389997026E+02  0.00000000000E+00 0. -1.
        -14    1    6    6    0    0 -0.65143191722E+03 -0.28117431531E+03  0.64626433503E+03  0.95972919571E+03  0.00000000000E+00 0.  1.
</event>
<event>
12    1  0.9962621E-001  0.2332862E+03  0.7818608E-02  0.1125033E+00
         21   -1    0    0  501  502  0.00000000000E+00  0.00000000000E+00  0.47829325428E+03  0.47829325428E+03  0.00000000000E+00 0. -1.
         21   -1    0    0  502  503 -0.00000000000E+00 -0.00000000000E+00 -0.12335503728E+03  0.12335503728E+03  0.00000000000E+00 0. -1.
         -6    2    1    2    0  503  0.14475161721E+03  0.47409936233E+02  0.27059887572E+03  0.35727611163E+03  0.17669673360E+03 0.  0.
        -24    2    3    3    0    0  0.73564184990E+02  0.73752021662E+02  0.24311275680E+03  0.27641120760E+03  0.80301264966E+02 0.  0.
          6    2    1    2  501    0 -0.14475161721E+03 -0.47409936233E+02  0.84339341276E+02  0.24437217993E+03  0.17147566911E+03 0.  0.
         24    2    5    5    0    0 -0.26382609675E+02 -0.12046587972E+02 -0.13583449850E+02  0.86661205781E+02  0.80526344152E+02 0.  0.
          5    1    5    5  501    0 -0.11836900754E+03 -0.35363348261E+02  0.97922791126E+02  0.15771097415E+03  0.47000000000E+01 0. -1.
        -11    1    6    6    0    0  0.82588905028E+01 -0.46791399326E+01  0.29441888279E+02  0.30934259459E+02  0.00000000000E+00 0.  1.
         12    1    6    6    0    0 -0.34641500178E+02 -0.73674480390E+01 -0.43025338129E+02  0.55726946322E+02  0.00000000000E+00 0. -1.
         -5    1    3    3    0  503  0.71187432221E+02 -0.26342085429E+02  0.27486118917E+02  0.80864904032E+02  0.47000000000E+01 0.  1.
         11    1    4    4    0    0 -0.11067916967E+02  0.26328324203E+01  0.70650456831E+02  0.71560587218E+02  0.00000000000E+00 0. -1.
        -12    1    4    4    0    0  0.84632101957E+02  0.71119189242E+02  0.17246229997E+03  0.20485062038E+03  0.00000000000E+00 0.  1.
</event>
<event>
12    1  0.9962621E-001  0.2404097E+03  0.7818608E-02  0.1120578E+00
         21   -1    0    0  503  502  0.00000000000E+00  0.00000000000E+00  0.84154532817E+02  0.84154532817E+02  0.00000000000E+00 0. -1.
         21   -1    0    0  501  503 -0.00000000000E+00 -0.00000000000E+00 -0.67094567302E+03  0.67094567302E+03  0.00000000000E+00 0. -1.
          6    2    1    2  501    0 -0.15428218053E+03 -0.39743229855E+02 -0.27684280375E+03  0.36665890959E+03  0.18003972463E+03 0.  0.
         24    2    3    3    0    0 -0.14874718465E+03 -0.43991115556E+02 -0.29719166206E+03  0.34463967376E+03  0.79954221541E+02 0.  0.
         -6    2    1    2    0  502  0.15428218053E+03  0.39743229855E+02 -0.30994833644E+03  0.38844129624E+03  0.17156967627E+03 0.  0.
        -24    2    5    5    0    0  0.91210103505E+01  0.11681236856E+02 -0.15570658519E+03  0.17473156645E+03  0.77890535485E+02 0.  0.
          5    1    3    3  501    0 -0.55349958769E+01  0.42478857009E+01  0.20348858305E+02  0.22019235832E+02  0.47000000000E+01 0. -1.
        -11    1    4    4    0    0 -0.59827871894E+02 -0.31742764262E+02 -0.58025144617E+02  0.89184610478E+02  0.00000000000E+00 0.  1.
         12    1    4    4    0    0 -0.88919312756E+02 -0.12248351294E+02 -0.23916651744E+03  0.25545506328E+03  0.00000000000E+00 0. -1.
         -5    1    5    5    0  502  0.14516117018E+03  0.28061992999E+02 -0.15424175126E+03  0.21370972979E+03  0.47000000000E+01 0.  1.
         13    1    6    6    0    0 -0.12326296834E+02  0.14618880175E+02 -0.16848920704E+01  0.19196044189E+02  0.00000000000E+00 0. -1.
        -14    1    6    6    0    0  0.21447307184E+02 -0.29376433193E+01 -0.15402169312E+03  0.15553552226E+03  0.00000000000E+00 0.  1.
</event>
<event>
12    1  0.9962621E-001  0.1748744E+03  0.7818608E-02  0.1173229E+00
         21   -1    0    0  503  502  0.00000000000E+00  0.00000000000E+00  0.29085636014E+03  0.29085636014E+03  0.00000000000E+00 0. -1.
         21   -1    0    0  501  503 -0.00000000000E+00 -0.00000000000E+00 -0.10453056774E+03  0.10453056774E+03  0.00000000000E+00 0. -1.
          6    2    1    2  501    0 -0.22298059550E+02  0.18681876633E+01  0.83479421994E+02  0.19377787946E+03  0.17343690232E+03 0.  0.
         24    2    3    3    0    0  0.27934042341E+01  0.51677064658E+02  0.98703697267E+02  0.13577465248E+03  0.77550075975E+02 0.  0.
         -6    2    1    2    0  502  0.22298059550E+02 -0.18681876633E+01  0.10284637041E+03  0.20160904842E+03  0.17195388601E+03 0.  0.
        -24    2    5    5    0    0 -0.29282264067E+02 -0.44796408228E+02  0.92570671618E+02  0.13355728951E+03  0.80025315731E+02 0.  0.
          5    1    3    3  501    0 -0.25091463784E+02 -0.49808876995E+02 -0.15224275272E+02  0.58003226978E+02  0.47000000000E+01 0. -1.
        -13    1    4    4    0    0 -0.17729826334E+02 -0.45189001272E+01  0.64103256413E+02  0.66663293370E+02  0.00000000000E+00 0.  1.
         14    1    4    4    0    0  0.20523230568E+02  0.56195964785E+02  0.34600440854E+02  0.69111359113E+02  0.00000000000E+00 0. -1.
         -5    1    5    5    0  502  0.51580323617E+02  0.42928220565E+02  0.10275698791E+02  0.68051758911E+02  0.47000000000E+01 0.  1.
         13    1    6    6    0    0  0.23515250099E+01  0.12613288513E+02  0.58096089998E+02  0.59496053567E+02  0.00000000000E+00 0. -1.
        -14    1    6    6    0    0 -0.31633789077E+02 -0.57409696741E+02  0.34474581620E+02  0.74061235941E+02  0.00000000000E+00 0.  1.
</event>
<event>
12    1  0.9962621E-001  0.2247560E+03  0.7818608E-02  0.1130515E+00
         21   -1    0    0  503  502  0.00000000000E+00  0.00000000000E+00  0.88714276998E+03  0.88714276998E+03  0.00000000000E+00 0. -1.
         21   -1    0    0  501  503 -0.00000000000E+00 -0.00000000000E+00 -0.10182047683E+03  0.10182047683E+03  0.00000000000E+00 0. -1.
          6    2    1    2  501    0  0.97628214261E+02  0.10530139764E+03  0.72125754017E+03  0.75525494684E+03  0.17198239128E+03 0.  0.
         24    2    3    3    0    0  0.16726074296E+02  0.60383883170E+02  0.18422240178E+03  0.21028561814E+03  0.79725610511E+02 0.  0.
         -6    2    1    2    0  502 -0.97628214261E+02 -0.10530139764E+03  0.64064752990E+02  0.23370829997E+03  0.17290351163E+03 0.  0.
        -24    2    5    5    0    0 -0.12610496241E+03 -0.70060470406E+02  0.12025523055E+02  0.16454892180E+03  0.78235563540E+02 0.  0.
          5    1    3    3  501    0  0.80902139965E+02  0.44917514472E+02  0.53703513839E+03  0.54496932870E+03  0.47000000000E+01 0. -1.
        -11    1    4    4    0    0  0.35839714176E+02  0.53907077794E+02  0.17762541816E+03  0.18905355677E+03  0.00000000000E+00 0.  1.
         12    1    4    4    0    0 -0.19113639880E+02  0.64768053759E+01  0.65969836145E+01  0.21232061373E+02  0.00000000000E+00 0. -1.
         -5    1    5    5    0  502  0.28476748144E+02 -0.35240927237E+02  0.52039229935E+02  0.69159378175E+02  0.47000000000E+01 0.  1.
         13    1    6    6    0    0 -0.28409176389E+02  0.15084201858E+02 -0.86733979781E+01  0.33314295449E+02  0.00000000000E+00 0. -1.
        -14    1    6    6    0    0 -0.97695786016E+02 -0.85144672264E+02  0.20698921033E+02  0.13123462635E+03  0.00000000000E+00 0.  1.
</event>
<event>
12    1  0.9962621E-001  0.1865929E+03  0.7818608E-02  0.1164299E+00
         21   -1    0    0  501  502  0.00000000000E+00  0.00000000000E+00  0.17416387066E+03  0.17416387066E+03  0.00000000000E+00 0. -1.
         21   -1    0    0  502  503 -0.00000000000E+00 -0.00000000000E+00 -0.22773442723E+03  0.22773442723E+03  0.00000000000E+00 0. -1.
         -6    2    1    2    0  503  0.32432157320E+02  0.47338721051E+01  0.56572662163E+02  0.19498044320E+03  0.18369173295E+03 0.  0.
        -24    2    3    3    0    0  0.84414232311E+02  0.38899310638E+02  0.55547846188E+02  0.13259011095E+03  0.76522253767E+02 0.  0.
          6    2    1    2  501    0 -0.32432157320E+02 -0.47338721051E+01 -0.11014321874E+03  0.20691785468E+03  0.17207328549E+03 0.  0.
         24    2    5    5    0    0  0.37835070005E+02  0.63885331774E+01 -0.31159809174E+02  0.10051456469E+03  0.87521072479E+02 0.  0.
          5    1    5    5  501    0 -0.70267227325E+02 -0.11122405282E+02 -0.78983409562E+02  0.10640328999E+03  0.47000000000E+01 0. -1.
        -13    1    6    6    0    0 -0.24671838444E+01 -0.36074681079E+02 -0.18502815047E+02  0.40618022794E+02  0.00000000000E+00 0.  1.
         14    1    6    6    0    0  0.40302253850E+02  0.42463214256E+02 -0.12656994127E+02  0.59896541892E+02  0.00000000000E+00 0. -1.
         -5    1    3    3    0  503 -0.51982074992E+02 -0.34165438533E+02  0.10248159750E+01  0.62390332251E+02  0.47000000000E+01 0.  1.
         11    1    4    4    0    0  0.10795545851E+02  0.21827576583E+02 -0.15499101138E+02  0.28865360656E+02  0.00000000000E+00 0. -1.
        -12    1    4    4    0    0  0.73618686460E+02  0.17071734055E+02  0.71046947326E+02  0.10372475030E+03  0.00000000000E+00 0.  1.
</event>
<event>
12    1  0.9962621E-001  0.2009124E+03  0.7818608E-02  0.1149020E+00
         21   -1    0    0  501  502  0.00000000000E+00  0.00000000000E+00  0.12847175969E+03  0.12847175969E+03  0.00000000000E+00 0.  1.
         21   -1    0    0  502  503 -0.00000000000E+00 -0.00000000000E+00 -0.61763797697E+03  0.61763797697E+03  0.00000000000E+00 0.  1.
         -6    2    1    2    0  503  0.99403709504E+02 -0.39386506441E+02  0.16981696005E+02  0.20162874667E+03  0.17009814559E+03 0.  0.
        -24    2    3    3    0    0  0.85901330574E+02  0.37018678733E+02  0.18459958816E+01  0.12243754781E+03  0.78981796918E+02 0.  0.
          6    2    1    2  501    0 -0.99403709504E+02  0.39386506441E+02 -0.50614791329E+03  0.54448099000E+03  0.16982768912E+03 0.  0.
         24    2    5    5    0    0  0.14865953190E+02  0.14485607260E+02 -0.19424025299E+03  0.21133524240E+03  0.80637952702E+02 0.  0.
          5    1    5    5  501    0 -0.11426966269E+03  0.24900899181E+02 -0.31190766030E+03  0.33314574760E+03  0.47000000000E+01 0. -1.
        -13    1    6    6    0    0 -0.20847807159E+01 -0.20316970439E+02 -0.15454698517E+03  0.15589065470E+03  0.00000000000E+00 0.  1.
         14    1    6    6    0    0  0.16950733906E+02  0.34802577699E+02 -0.39693267817E+02  0.55444587693E+02  0.00000000000E+00 0. -1.
         -5    1    3    3    0  503  0.13502378930E+02 -0.76405185175E+02  0.15135700124E+02  0.79191198858E+02  0.47000000000E+01 0.  1.
         11    1    4    4    0    0 -0.69346488345E+01 -0.14134206122E+02  0.46125890334E+01  0.16405520862E+02  0.00000000000E+00 0. -1.
        -12    1    4    4    0    0  0.92835979408E+02  0.51152884856E+02 -0.27665931518E+01  0.10603202695E+03  0.00000000000E+00 0.  1.
</event>
<event>
12    1  0.9962621E-001  0.3187846E+03  0.7818608E-02  0.1076225E+00
         21   -1    0    0  501  502  0.00000000000E+00  0.00000000000E+00  0.22400077738E+04  0.22400077738E+04  0.00000000000E+00 0. -1.
         21   -1    0    0  502  503 -0.00000000000E+00 -0.00000000000E+00 -0.67491661094E+02  0.67491661094E+02  0.00000000000E+00 0. -1.
         -6    2    1    2    0  503  0.16089227216E+03 -0.21495623568E+03  0.17469557280E+04  0.17757802731E+04  0.17160639877E+03 0.  0.
        -24    2    3    3    0    0  0.10645187969E+03 -0.91318432563E+02  0.12640216291E+04  0.12742850123E+04  0.79878375696E+02 0.  0.
          6    2    1    2  501    0 -0.16089227216E+03  0.21495623568E+03  0.42556038469E+03  0.53171916181E+03  0.17184620893E+03 0.  0.
         24    2    5    5    0    0 -0.52979246860E+02  0.11208125242E+03  0.11222596524E+03  0.18469029900E+03  0.78401731684E+02 0.  0.
          5    1    5    5  501    0 -0.10791302530E+03  0.10287498327E+03  0.31333441945E+03  0.34702886281E+03  0.47000000000E+01 0. -1.
        -13    1    6    6    0    0 -0.41748606741E+02  0.65043954908E+02  0.18881103394E+02  0.79562291950E+02  0.00000000000E+00 0.  1.
         14    1    6    6    0    0 -0.11230640119E+02  0.47037297507E+02  0.93344861842E+02  0.10512800705E+03  0.00000000000E+00 0. -1.
         -5    1    3    3    0  503  0.54440392472E+02 -0.12363780312E+03  0.48293409890E+03  0.50149526077E+03  0.47000000000E+01 0.  1.
         13    1    4    4    0    0 -0.60478749392E+01 -0.13255814316E+00  0.23982035681E+03  0.23989664005E+03  0.00000000000E+00 0. -1.
        -14    1    4    4    0    0  0.11249975463E+03 -0.91185874420E+02  0.10242012723E+04  0.10343883723E+04  0.00000000000E+00 0.  1.
</event>
<event>
12    1  0.9962621E-001  0.2532261E+03  0.7818608E-02  0.1111524E+00
         21   -1    0    0  503  502  0.00000000000E+00  0.00000000000E+00  0.39059193859E+03  0.39059193859E+03  0.00000000000E+00 0. -1.
         21   -1    0    0  501  503 -0.00000000000E+00 -0.00000000000E+00 -0.16744091162E+03  0.16744091162E+03  0.00000000000E+00 0. -1.
          6    2    1    2  501    0 -0.59653307685E+02  0.17501690259E+03  0.15647683335E+03  0.29767173712E+03  0.17301453811E+03 0.  0.
         24    2    3    3    0    0  0.14771251953E+02  0.73477737771E+02 -0.24610504037E+01  0.94860105400E+02  0.58096600548E+02 0.  0.
         -6    2    1    2    0  502  0.59653307685E+02 -0.17501690259E+03  0.66674193622E+02  0.26036111309E+03  0.17074257759E+03 0.  0.
        -24    2    5    5    0    0  0.68150070600E+02 -0.13265653659E+03 -0.11997311674E+02  0.17048402294E+03  0.81723177663E+02 0.  0.
          5    1    3    3  501    0 -0.74424559638E+02  0.10153916482E+03  0.15893788376E+03  0.20281163172E+03  0.47000000000E+01 0. -1.
        -11    1    4    4    0    0 -0.18515454921E+02  0.14941640522E+02  0.10962902260E+02  0.26196563103E+02  0.00000000000E+00 0.  1.
         12    1    4    4    0    0  0.33286706874E+02  0.58536097249E+02 -0.13423952664E+02  0.68663542297E+02  0.00000000000E+00 0. -1.
         -5    1    5    5    0  502 -0.84967629153E+01 -0.42360365998E+02  0.78671505296E+02  0.89877090145E+02  0.47000000000E+01 0.  1.
         11    1    6    6    0    0  0.44789418359E+02 -0.25463126708E+02  0.21421954467E+02  0.55797517435E+02  0.00000000000E+00 0. -1.
        -12    1    6    6    0    0  0.23360652241E+02 -0.10719340988E+03 -0.33419266141E+02  0.11468650550E+03  0.00000000000E+00 0.  1.
</event>
<event>
12    1  0.9962621E-001  0.2313177E+03  0.7818608E-02  0.1127169E+00
         21   -1    0    0  503  502  0.00000000000E+00  0.00000000000E+00  0.37870032941E+02  0.37870032941E+02  0.00000000000E+00 0.  1.
         21   -1    0    0  501  503 -0.00000000000E+00 -0.00000000000E+00 -0.17604610930E+04  0.17604610930E+04  0.00000000000E+00 0.  1.
          6    2    1    2  501    0 -0.12055947166E+03  0.10217490393E+03 -0.12762232680E+04  0.12955865834E+04  0.15755782467E+03 0.  0.
         24    2    3    3    0    0 -0.77255377462E+02  0.89321768653E+02 -0.55238930027E+03  0.57032928389E+03  0.78706933034E+02 0.  0.
         -6    2    1    2    0  502  0.12055947166E+03 -0.10217490393E+03 -0.44636779205E+03  0.50274454253E+03  0.16891883276E+03 0.  0.
        -24    2    5    5    0    0  0.12574716980E+03 -0.12752924243E+03 -0.42730530149E+03  0.47026034269E+03  0.80491681797E+02 0.  0.
          5    1    3    3  501    0 -0.43304094193E+02  0.12853135279E+02 -0.72383396775E+03  0.72525729953E+03  0.47000000000E+01 0. -1.
        -13    1    4    4    0    0  0.12654858008E+02  0.30203537483E+02 -0.96203640004E+02  0.10162450225E+03  0.00000000000E+00 0.  1.
         14    1    4    4    0    0 -0.89910235471E+02  0.59118231170E+02 -0.45618566027E+03  0.46870478164E+03  0.00000000000E+00 0. -1.
         -5    1    5    5    0  502 -0.51876981401E+01  0.25354338497E+02 -0.19062490555E+02  0.32484199833E+02  0.47000000000E+01 0.  1.
         13    1    6    6    0    0  0.25525369737E+02 -0.16823907993E+02 -0.20229320667E+02  0.36658065892E+02  0.00000000000E+00 0. -1.
        -14    1    6    6    0    0  0.10022180006E+03 -0.11070533444E+03 -0.40707598083E+03  0.43360227680E+03  0.00000000000E+00 0.  1.
</event>
<event>
12    1  0.9962621E-001  0.3037011E+03  0.7818608E-02  0.1083445E+00
         21   -1    0    0  501  502  0.00000000000E+00  0.00000000000E+00  0.94274832281E+03  0.94274832281E+03  0.00000000000E+00 0. -1.
         21   -1    0    0  502  503 -0.00000000000E+00 -0.00000000000E+00 -0.16695024295E+03  0.16695024295E+03  0.00000000000E+00 0. -1.
         -6    2    1    2    0  503  0.15268310862E+02  0.24937148229E+03  0.30509912086E+02  0.30490740008E+03  0.17210000115E+03 0.  0.
        -24    2    3    3    0    0  0.31803985493E+02  0.21315138317E+03 -0.30200687883E+02  0.23215308018E+03  0.80857686398E+02 0.  0.
          6    2    1    2  501    0 -0.15268310862E+02 -0.24937148229E+03  0.74528816778E+03  0.80479116568E+03  0.17267052391E+03 0.  0.
         24    2    5    5    0    0  0.39877212327E+02 -0.18863109173E+03  0.41579553161E+03  0.46520625573E+03  0.79743685862E+02 0.  0.
          5    1    5    5  501    0 -0.55145523189E+02 -0.60740390556E+02  0.32949263617E+03  0.33958490995E+03  0.47000000000E+01 0. -1.
        -11    1    6    6    0    0  0.25148876863E+02 -0.74456301735E+01  0.41330056463E+02  0.48949739360E+02  0.00000000000E+00 0.  1.
         12    1    6    6    0    0  0.14728335464E+02 -0.18118546156E+03  0.37446547515E+03  0.41625651637E+03  0.00000000000E+00 0. -1.
         -5    1    3    3    0  503 -0.16535674631E+02  0.36220099123E+02  0.60710599969E+02  0.72754319903E+02  0.47000000000E+01 0.  1.
         11    1    4    4    0    0  0.12556368032E+01 -0.62585779716E+01  0.46563105304E+01  0.79011169947E+01  0.00000000000E+00 0. -1.
        -12    1    4    4    0    0  0.30548348689E+02  0.21940996114E+03 -0.34856998413E+02  0.22425196318E+03  0.00000000000E+00 0.  1.
</event>
<event>
12    1  0.9962621E-001  0.1990278E+03  0.7818608E-02  0.1150635E+00
         21   -1    0    0  503  502  0.00000000000E+00  0.00000000000E+00  0.14335268380E+04  0.14335268380E+04  0.00000000000E+00 0. -1.
         21   -1    0    0  501  503 -0.00000000000E+00 -0.00000000000E+00 -0.40755439310E+02  0.40755439310E+02  0.00000000000E+00 0. -1.
          6    2    1    2  501    0 -0.35794926465E+02  0.91206554522E+02  0.27775024419E+03  0.34169760763E+03  0.17324013555E+03 0.  0.
         24    2    3    3    0    0 -0.37163775456E+02  0.12109614927E+03  0.15708372139E+03  0.21728795629E+03  0.80581243783E+02 0.  0.
         -6    2    1    2    0  502  0.35794926465E+02 -0.91206554522E+02  0.11150211545E+04  0.11325846697E+04  0.17284659865E+03 0.  0.
        -24    2    5    5    0    0 -0.33257535780E+02 -0.86873401040E+02  0.80120997162E+03  0.81120239379E+03  0.86364654578E+02 0.  0.
          5    1    3    3  501    0  0.13688489910E+01 -0.29889594745E+02  0.12066652280E+03  0.12440965134E+03  0.47000000000E+01 0. -1.
        -13    1    4    4    0    0  0.24217598525E+02  0.44303463365E+02  0.67418939109E+02  0.84229462156E+02  0.00000000000E+00 0.  1.
         14    1    4    4    0    0 -0.61381373981E+02  0.76792685902E+02  0.89664782278E+02  0.13305849413E+03  0.00000000000E+00 0. -1.
         -5    1    5    5    0  502  0.69052462245E+02 -0.43331534821E+01  0.31381118288E+03  0.32138227590E+03  0.47000000000E+01 0.  1.
         13    1    6    6    0    0  0.21027926592E+02 -0.13046887251E+02  0.34463213529E+03  0.34551946926E+03  0.00000000000E+00 0. -1.
        -14    1    6    6    0    0 -0.54285462372E+02 -0.73826513789E+02  0.45657783633E+03  0.46568292452E+03  0.00000000000E+00 0.  1.
</event>
<event>
12    1  0.9962621E-001  0.2536220E+03  0.7818608E-02  0.1111060E+00
         21   -1    0    0  503  502  0.00000000000E+00  0.00000000000E+00  0.59877942302E+03  0.59877942302E+03  0.00000000000E+00 0.  1.
         21   -1    0    0  501  503 -0.00000000000E+00 -0.00000000000E+00 -0.10938137583E+03  0.10938137583E+03  0.00000000000E+00 0.  1.
          6    2    1    2  501    0  0.19302957625E+02  0.18554279545E+03  0.19665737132E+03  0.32093338059E+03  0.17182950843E+03 0.  0.
         24    2    3    3    0    0  0.20385920719E+02  0.23265265919E+02  0.10277920634E+03  0.13339573301E+03  0.79208572569E+02 0.  0.
         -6    2    1    2    0  502 -0.19302957625E+02 -0.18554279545E+03  0.29274067588E+03  0.38722741826E+03  0.17160780001E+03 0.  0.
        -24    2    5    5    0    0 -0.80442540723E+02 -0.79028314546E+02  0.16120470541E+03  0.20720746161E+03  0.65049967295E+02 0.  0.
          5    1    3    3  501    0 -0.10829630933E+01  0.16227752953E+03  0.93878164976E+02  0.18753764757E+03  0.47000000000E+01 0. -1.
        -11    1    4    4    0    0  0.43056284781E+02  0.12918970637E+02  0.98280633119E+02  0.10807324511E+03  0.00000000000E+00 0.  1.
         12    1    4    4    0    0 -0.22670364062E+02  0.10346295282E+02  0.44985732205E+01  0.25322487907E+02  0.00000000000E+00 0. -1.
         -5    1    5    5    0  502  0.61139583097E+02 -0.10651448090E+03  0.13153597047E+03  0.18001995665E+03  0.47000000000E+01 0.  1.
         13    1    6    6    0    0 -0.31327455540E+02 -0.72347883759E+02  0.11510480514E+03  0.13951609914E+03  0.00000000000E+00 0. -1.
        -14    1    6    6    0    0 -0.49115085182E+02 -0.66804307870E+01  0.46099900271E+02  0.67691362469E+02  0.00000000000E+00 0.  1.
</event>
<event>
12    1  0.9962621E-001  0.1968954E+03  0.7818608E-02  0.1152434E+00
         21   -1    0    0  501  502  0.00000000000E+00  0.00000000000E+00  0.76323207692E+02  0.76323207692E+02  0.00000000000E+00 0.  1.
         21   -1    0    0  502  503 -0.00000000000E+00 -0.00000000000E+00 -0.53118048357E+03  0.53118048357E+03  0.00000000000E+00 0.  1.
         -6    2    1    2    0  503  0.92361373318E+00 -0.95767693938E+02 -0.16298432584E+03  0.25542754059E+03  0.17177611522E+03 0.  0.
        -24    2    3    3    0    0 -0.14288554097E+02 -0.67655359740E+02 -0.21643176277E+02  0.11044090692E+03  0.83350803010E+02 0.  0.
          6    2    1    2  501    0 -0.92361373318E+00  0.95767693938E+02 -0.29187295004E+03  0.35207615067E+03  0.17203340560E+03 0.  0.
         24    2    5    5    0    0 -0.41765564723E+02  0.99711950266E+02 -0.13734650543E+03  0.19212573897E+03  0.79758395164E+02 0.  0.
          5    1    5    5  501    0  0.40841950989E+02 -0.39442563279E+01 -0.15452644462E+03  0.15995041170E+03  0.47000000000E+01 0. -1.
        -13    1    6    6    0    0 -0.47458921968E+02  0.24719890670E+02 -0.85191461511E+02  0.10060321756E+03  0.00000000000E+00 0.  1.
         14    1    6    6    0    0  0.56933572459E+01  0.74992059596E+02 -0.52155043918E+02  0.91522521410E+02  0.00000000000E+00 0. -1.
         -5    1    3    3    0  503  0.15212167830E+02 -0.28112334198E+02 -0.14134114956E+03  0.14498663367E+03  0.47000000000E+01 0.  1.
         13    1    4    4    0    0  0.33521864585E+02 -0.16993037778E+02 -0.14996906851E+02  0.40464625950E+02  0.00000000000E+00 0. -1.
        -14    1    4    4    0    0 -0.47810418682E+02 -0.50662321962E+02 -0.66462694257E+01  0.69976280970E+02  0.00000000000E+00 0.  1.
</event>
<event>
12    1  0.9962621E-001  0.1829986E+03  0.7818608E-02  0.1164998E+00
         21   -1    0    0  503  502  0.00000000000E+00  0.00000000000E+00  0.57872105246E+02  0.57872105246E+02  0.00000000000E+00 0. -1.
         21   -1    0    0  501  503 -0.00000000000E+00 -0.00000000000E+00 -0.67517570391E+03  0.67517570391E+03  0.00000000000E+00 0. -1.
          6    2    1    2  501    0  0.83077781659E+01 -0.60727593477E+02 -0.16964576614E+03  0.24953595115E+03  0.17242866686E+03 0.  0.
         24    2    3    3    0    0  0.15777185656E+02 -0.10399075418E+03 -0.95233652716E+02  0.16300996807E+03  0.80248392740E+02 0.  0.
         -6    2    1    2    0  502 -0.83077781659E+01  0.60727593477E+02 -0.44765783252E+03  0.48351185801E+03  0.17213169967E+03 0.  0.
        -24    2    5    5    0    0  0.13231592387E+02  0.49830045470E+02 -0.44883403338E+03  0.45889124704E+03  0.80443014751E+02 0.  0.
          5    1    3    3  501    0 -0.74694074897E+01  0.43263160708E+02 -0.74412113427E+02  0.86525983077E+02  0.47000000000E+01 0. -1.
        -11    1    4    4    0    0  0.40230948719E+02 -0.25297411259E+02 -0.50099774608E+02  0.69054150252E+02  0.00000000000E+00 0.  1.
         12    1    4    4    0    0 -0.24453763063E+02 -0.78693342926E+02 -0.45133878108E+02  0.93955817818E+02  0.00000000000E+00 0. -1.
         -5    1    5    5    0  502 -0.21539370552E+02  0.10897548007E+02  0.11762008522E+01  0.24620610975E+02  0.47000000000E+01 0.  1.
         13    1    6    6    0    0  0.30158302872E+02  0.59019984727E+02 -0.23429207059E+03  0.24348645994E+03  0.00000000000E+00 0. -1.
        -14    1    6    6    0    0 -0.16926710485E+02 -0.91899392577E+01 -0.21454196278E+03  0.21540478710E+03  0.00000000000E+00 0.  1.
</event>
<event>
12    1  0.9962621E-001  0.4048694E+03  0.7818608E-02  0.1042843E+00
         21   -1    0    0  501  502  0.00000000000E+00  0.00000000000E+00  0.27707818580E+03  0.27707818580E+03  0.00000000000E+00 0. -1.
         21   -1    0    0  502  503 -0.00000000000E+00 -0.00000000000E+00 -0.60046951146E+03  0.60046951146E+03  0.00000000000E+00 0.  1.
         -6    2    1    2    0  503 -0.35658614456E+03 -0.38285496545E+01 -0.24596173371E+03  0.47372611784E+03  0.19170530507E+03 0.  0.
        -24    2    3    3    0    0 -0.14843958739E+03 -0.89863925974E+01 -0.19746561194E+03  0.25989076896E+03  0.80221428165E+02 0.  0.
          6    2    1    2  501    0  0.35658614456E+03  0.38285496545E+01 -0.77429591948E+02  0.40382157942E+03  0.17293984506E+03 0.  0.
         24    2    5    5    0    0  0.34635443148E+03  0.53679490044E+01 -0.32472218119E+02  0.35745011012E+03  0.82011762533E+02 0.  0.
          5    1    5    5  501    0  0.10231713080E+02 -0.15393993500E+01 -0.44957373829E+02  0.46371469295E+02  0.47000000000E+01 0. -1.
        -13    1    6    6    0    0  0.17482282968E+02 -0.66551650097E+01 -0.21049181796E+02  0.28160069130E+02  0.00000000000E+00 0.  1.
         14    1    6    6    0    0  0.32887214851E+03  0.12023114014E+02 -0.11423036322E+02  0.32929004099E+03  0.00000000000E+00 0. -1.
         -5    1    3    3    0  503 -0.20814655717E+03  0.51578429430E+01 -0.48496121773E+02  0.21383534888E+03  0.47000000000E+01 0.  1.
         11    1    4    4    0    0 -0.99920094482E+01  0.19573548081E+02 -0.77572517100E+01  0.23305342551E+02  0.00000000000E+00 0. -1.
        -12    1    4    4    0    0 -0.13844757795E+03 -0.28559940679E+02 -0.18970836023E+03  0.23658542641E+03  0.00000000000E+00 0.  1.
</event>
<event>
12    1  0.9962621E-001  0.3527061E+03  0.7818608E-02  0.1062587E+00
         21   -1    0    0  503  502  0.00000000000E+00  0.00000000000E+00  0.12909122561E+04  0.12909122561E+04  0.00000000000E+00 0. -1.
         21   -1    0    0  501  503 -0.00000000000E+00 -0.00000000000E+00 -0.11613097924E+03  0.11613097924E+03  0.00000000000E+00 0. -1.
          6    2    1    2  501    0 -0.16727269625E+03 -0.24455992447E+03  0.27000756361E+03  0.43595257481E+03  0.17135008465E+03 0.  0.
         24    2    3    3    0    0 -0.53796909006E+02 -0.14554182243E+03  0.74378186411E+02  0.18902286407E+03  0.78236813795E+02 0.  0.
         -6    2    1    2    0  502  0.16727269625E+03  0.24455992447E+03  0.90477371322E+03  0.97109066051E+03  0.19134232993E+03 0.  0.
        -24    2    5    5    0    0  0.19343031402E+02  0.16354804982E+03  0.45852016761E+03  0.49400531537E+03  0.81721417300E+02 0.  0.
          5    1    3    3  501    0 -0.11347578724E+03 -0.99018102043E+02  0.19562937720E+03  0.24692971074E+03  0.47000000000E+01 0. -1.
        -11    1    4    4    0    0 -0.56828509754E+02 -0.53052540579E+02  0.52869390631E+02  0.94017147630E+02  0.00000000000E+00 0.  1.
         12    1    4    4    0    0  0.30316007484E+01 -0.92489281852E+02  0.21508795780E+02  0.95005716441E+02  0.00000000000E+00 0. -1.
         -5    1    5    5    0  502  0.14792966485E+03  0.81011874658E+02  0.44625354561E+03  0.47708534514E+03  0.47000000000E+01 0.  1.
         11    1    6    6    0    0 -0.94188881326E+01  0.56995749024E+01  0.10740125282E+03  0.10796402046E+03  0.00000000000E+00 0. -1.
        -12    1    6    6    0    0  0.28761919535E+02  0.15784847491E+03  0.35111891479E+03  0.38604129491E+03  0.00000000000E+00 0.  1.
</event>
<event>
12    1  0.9962621E-001  0.1919889E+03  0.7818608E-02  0.1157053E+00
         21   -1    0    0  501  502  0.00000000000E+00  0.00000000000E+00  0.54359205237E+03  0.54359205237E+03  0.00000000000E+00 0.  1.
         21   -1    0    0  502  503 -0.00000000000E+00 -0.00000000000E+00 -0.77437081136E+02  0.77437081136E+02  0.00000000000E+00 0.  1.
         -6    2    1    2    0  503  0.52202935300E+02 -0.61849253988E+02  0.34675176655E+03  0.39635404077E+03  0.17409555238E+03 0.  0.
        -24    2    3    3    0    0  0.89882869286E+02 -0.71034095668E+02  0.32002222160E+03  0.34901803634E+03  0.79212337665E+02 0.  0.
          6    2    1    2  501    0 -0.52202935300E+02  0.61849253988E+02  0.11940320468E+03  0.22467509273E+03  0.17225357858E+03 0.  0.
         24    2    5    5    0    0 -0.14731959852E+01  0.93684695409E+02  0.41831017889E+02  0.12656018079E+03  0.74085442864E+02 0.  0.
          5    1    5    5  501    0 -0.50729739315E+02 -0.31835441421E+02  0.77572186788E+02  0.98114911937E+02  0.47000000000E+01 0. -1.
        -13    1    6    6    0    0 -0.80637987920E+01 -0.10842040631E+02  0.10881139473E+02  0.17348599143E+02  0.00000000000E+00 0.  1.
         14    1    6    6    0    0  0.65906028068E+01  0.10452673604E+03  0.30949878417E+02  0.10921158165E+03  0.00000000000E+00 0. -1.
         -5    1    3    3    0  503 -0.37679933986E+02  0.91848416792E+01  0.26729544955E+02  0.47336004429E+02  0.47000000000E+01 0.  1.
         13    1    4    4    0    0 -0.60504824067E+01 -0.20762727142E+02  0.11631249025E+03  0.11830593631E+03  0.00000000000E+00 0. -1.
        -14    1    4    4    0    0  0.95933351692E+02 -0.50271368526E+02  0.20370973134E+03  0.23071210004E+03  0.00000000000E+00 0.  1.
</event>
<event>
12    1  0.9962621E-001  0.2027660E+03  0.7818608E-02  0.1148734E+00
         21   -1    0    0  503  502  0.00000000000E+00  0.00000000000E+00  0.16666634223E+03  0.16666634223E+03  0.00000000000E+00 0.  1.
         21   -1    0    0  501  503 -0.00000000000E+00 -0.00000000000E+00 -0.28368602423E+03  0.28368602423E+03  0.00000000000E+00 0.  1.
          6    2    1    2  501    0  0.39319068952E+02 -0.99498287402E+02  0.29893436700E+02  0.20495771004E+03  0.17224443959E+03 0.  0.
         24    2    3    3    0    0 -0.15801390277E+01 -0.49329366351E+02  0.83941908670E+02  0.12050066075E+03  0.70980856477E+02 0.  0.
         -6    2    1    2    0  502 -0.39319068952E+02  0.99498287402E+02 -0.14691311870E+03  0.24539465642E+03  0.16489140237E+03 0.  0.
        -24    2    5    5    0    0 -0.76817629401E+02  0.59668511940E+02 -0.53800406460E+02  0.13729923455E+03  0.80593526842E+02 0.  0.
          5    1    3    3  501    0  0.40899207980E+02 -0.50168921051E+02 -0.54048471969E+02  0.84457049292E+02  0.47000000000E+01 0. -1.
        -13    1    4    4    0    0 -0.34694094577E+01  0.18282410236E+02  0.14798183302E+02  0.23775398105E+02  0.00000000000E+00 0.  1.
         14    1    4    4    0    0  0.18892704300E+01 -0.67611776587E+02  0.69143725368E+02  0.96725262645E+02  0.00000000000E+00 0. -1.
         -5    1    5    5    0  502  0.37498560449E+02  0.39829775462E+02 -0.93112712240E+02  0.10809542187E+03  0.47000000000E+01 0.  1.
         13    1    6    6    0    0  0.75986732078E+01 -0.10870728115E+02 -0.16432396431E+02  0.21117201915E+02  0.00000000000E+00 0. -1.
        -14    1    6    6    0    0 -0.84416302609E+02  0.70539240055E+02 -0.37368010029E+02  0.11618203264E+03  0.00000000000E+00 0.  1.
</event>
<event>
12    1  0.9962621E-001  0.1736201E+03  0.7818608E-02  0.1174203E+00
         21   -1    0    0  503  502  0.00000000000E+00  0.00000000000E+00  0.47153931791E+03  0.47153931791E+03  0.00000000000E+00 0. -1.
         21   -1    0    0  501  503 -0.00000000000E+00 -0.00000000000E+00 -0.64403847848E+02  0.64403847848E+02  0.00000000000E+00 0. -1.
          6    2    1    2  501    0  0.15291339349E+02 -0.12320551572E+02  0.22940530178E+03  0.28769903921E+03  0.17250601041E+03 0.  0.
         24    2    3    3    0    0 -0.31751690210E+02 -0.49870900256E+01  0.22728227487E+03  0.23980933748E+03  0.69413579177E+02 0.  0.
         -6    2    1    2    0  502 -0.15291339349E+02  0.12320551572E+02  0.17773016829E+03  0.24824412655E+03  0.17219614571E+03 0.  0.
        -24    2    5    5    0    0 -0.36622239190E+02  0.10631772021E+02  0.21203027592E+02  0.90191302981E+02  0.78934655094E+02 0.  0.
          5    1    3    3  501    0  0.47043029560E+02 -0.73334615462E+01  0.21230269068E+01  0.47889701728E+02  0.47000000000E+01 0. -1.
        -13    1    4    4    0    0 -0.12281833090E+02  0.29531232535E+02  0.61076097242E+02  0.68943649261E+02  0.00000000000E+00 0.  1.
         14    1    4    4    0    0 -0.19469857121E+02 -0.34518322561E+02  0.16620617763E+03  0.17086568822E+03  0.00000000000E+00 0. -1.
         -5    1    5    5    0  502  0.21330899841E+02  0.16887795503E+01  0.15652714069E+03  0.15805282357E+03  0.47000000000E+01 0.  1.
         13    1    6    6    0    0 -0.46245833969E+02  0.24065010885E+02  0.39596466464E+02  0.65465120979E+02  0.00000000000E+00 0. -1.
        -14    1    6    6    0    0  0.96235947787E+01 -0.13433238864E+02 -0.18393438872E+02  0.24726182002E+02  0.00000000000E+00 0.  1.
</event>
<event>
12    1  0.9962621E-001  0.2376284E+03  0.7818608E-02  0.1121441E+00
         21   -1    0    0  501  502  0.00000000000E+00  0.00000000000E+00  0.29442757909E+03  0.29442757909E+03  0.00000000000E+00 0. -1.
         21   -1    0    0  502  503 -0.00000000000E+00 -0.00000000000E+00 -0.19306185235E+03  0.19306185235E+03  0.00000000000E+00 0. -1.
         -6    2    1    2    0  503 -0.15409643082E+03  0.52324552458E+02  0.72513876072E+02  0.24811586569E+03  0.17268367555E+03 0.  0.
        -24    2    3    3    0    0 -0.57961192734E+02  0.82347546654E+02  0.94474381903E+01  0.12919223570E+03  0.80378861487E+02 0.  0.
          6    2    1    2  501    0  0.15409643082E+03 -0.52324552458E+02  0.28851850670E+02  0.23937356576E+03  0.17315803740E+03 0.  0.
         24    2    5    5    0    0  0.14952201777E+03 -0.84301580795E+02  0.57281327803E+02  0.19608637636E+03  0.75532285531E+02 0.  0.
          5    1    5    5  501    0  0.45744130521E+01  0.31977028338E+02 -0.28429477134E+02  0.43287189400E+02  0.47000000000E+01 0. -1.
        -11    1    6    6    0    0  0.14362388064E+03 -0.59194153845E+02  0.29392766396E+02  0.15810028987E+03  0.00000000000E+00 0.  1.
         12    1    6    6    0    0  0.58981371255E+01 -0.25107426950E+02  0.27888561408E+02  0.37986086492E+02  0.00000000000E+00 0. -1.
         -5    1    3    3    0  503 -0.96135238084E+02 -0.30022994197E+02  0.63066437881E+02  0.11892362999E+03  0.47000000000E+01 0.  1.
         11    1    4    4    0    0 -0.26389230899E+02  0.50569850541E+02  0.44472827990E+02  0.72329342044E+02  0.00000000000E+00 0. -1.
        -12    1    4    4    0    0 -0.31571961835E+02  0.31777696113E+02 -0.35025389799E+02  0.56862893656E+02  0.00000000000E+00 0.  1.
</event>
<event>
12    1  0.9962621E-001  0.2492205E+03  0.7818608E-02  0.1113853E+00
         21   -1    0    0  501  502  0.00000000000E+00  0.00000000000E+00  0.82782320346E+02  0.82782320346E+02  0.00000000000E+00 0. -1.
         21   -1    0    0  502  503 -0.00000000000E+00 -0.00000000000E+00 -0.17784344096E+04  0.17784344096E+04  0.00000000000E+00 0. -1.
         -6    2    1    2    0  503  0.16627059523E+03  0.69501413331E+02 -0.13964669418E+03  0.28537929412E+03  0.17165018213E+03 0.  0.
        -24    2    3    3    0    0  0.96246590377E+02  0.28532928858E+02 -0.15604515288E+03  0.20247707809E+03  0.81051485018E+02 0.  0.
          6    2    1    2  501    0 -0.16627059523E+03 -0.69501413331E+02 -0.15560053951E+04  0.15758374358E+04  0.17214667390E+03 0.  0.
         24    2    5    5    0    0 -0.14981640020E+03 -0.51132328321E+01 -0.85586885251E+03  0.87253817764E+03  0.79625874066E+02 0.  0.
          5    1    5    5  501    0 -0.16454195028E+02 -0.64388180499E+02 -0.70013654259E+03  0.70329925821E+03  0.47000000000E+01 0. -1.
        -13    1    6    6    0    0 -0.13983151636E+03 -0.98311724560E+01 -0.84658266195E+03  0.85810938023E+03  0.00000000000E+00 0.  1.
         14    1    6    6    0    0 -0.99848838423E+01  0.47179396239E+01 -0.92861905611E+01  0.14428797413E+02  0.00000000000E+00 0. -1.
         -5    1    3    3    0  503  0.70024004855E+02  0.40968484473E+02  0.16398458708E+02  0.82902216038E+02  0.47000000000E+01 0.  1.
         11    1    4    4    0    0 -0.76755737074E+01  0.72409311618E+01 -0.54898857125E+02  0.55903756846E+02  0.00000000000E+00 0. -1.
        -12    1    4    4    0    0  0.10392216408E+03  0.21291997696E+02 -0.10114629576E+03  0.14657332124E+03  0.00000000000E+00 0.  1.
</event>
<event>
12    1  0.1056670E+000  0.1856972E+03  0.7818608E-02  0.1162684E+00
         21   -1    0    0  501  502  0.00000000000E+00  0.00000000000E+00  0.70293805944E+03  0.70293805944E+03  0.00000000000E+00 0.  1.
         21   -1    0    0  502  503 -0.00000000000E+00 -0.00000000000E+00 -0.15152091690E+03  0.15152091690E+03  0.00000000000E+00 0.  1.
         -6    2    1    2    0  503  0.22115608746E+02 -0.61154124086E+02  0.62729345483E+03  0.65385818847E+03  0.17263987115E+03 0.  0.
        -24    2    3    3    0    0  0.68203675716E+02  0.16216714127E+01  0.30972541214E+03  0.32684677865E+03  0.79022873809E+02 0.  0.
          6    2    1    2  501    0 -0.22115608746E+02  0.61154124086E+02 -0.75876312293E+02  0.20060078788E+03  0.17393830598E+03 0.  0.
         24    2    5    5    0    0  0.14309500237E+02  0.10006733455E+03 -0.53666644843E+02  0.14266646436E+03  0.85178506927E+02 0.  0.
          5    1    5    5  501    0 -0.36425108983E+02 -0.38913210466E+02 -0.22209667450E+02  0.57934323518E+02  0.47000000000E+01 0. -1.
        -11    1    6    6    0    0  0.12703885407E+02  0.22053475211E+02 -0.59201151232E+02  0.64440055715E+02  0.00000000000E+00 0.  1.
         12    1    6    6    0    0  0.16056148305E+01  0.78013859341E+02  0.55345063889E+01  0.78226408643E+02  0.00000000000E+00 0. -1.
         -5    1    3    3    0  503 -0.46088066971E+02 -0.62775795499E+02  0.31756804269E+03  0.32701140982E+03  0.47000000000E+01 0.  1.
         11    1    4    4    0    0  0.56458335671E+02 -0.23186444039E+02  0.11496620965E+03  0.13016291414E+03  0.00000000000E+00 0. -1.
        -12    1    4    4    0    0  0.11745340045E+02  0.24808115452E+02  0.19475920249E+03  0.19668386451E+03  0.00000000000E+00 0.  1.
</event>
<event>
12    1  0.9962621E-001  0.3556815E+03  0.7818608E-02  0.1060383E+00
         21   -1    0    0  501  502  0.00000000000E+00  0.00000000000E+00  0.24501258905E+03  0.24501258905E+03  0.00000000000E+00 0. -1.
         21   -1    0    0  502  503 -0.00000000000E+00 -0.00000000000E+00 -0.53358087498E+03  0.53358087498E+03  0.00000000000E+00 0.  1.
         -6    2    1    2    0  503  0.28431788239E+03 -0.12626255972E+03 -0.21629762429E+03  0.41564391695E+03  0.17086928100E+03 0.  0.
        -24    2    3    3    0    0  0.21779757215E+03 -0.13499761393E+03 -0.10848147163E+03  0.28857045151E+03  0.76449575497E+02 0.  0.
          6    2    1    2  501    0 -0.28431788239E+03  0.12626255972E+03 -0.72270661641E+02  0.36294954708E+03  0.17242515174E+03 0.  0.
         24    2    5    5    0    0 -0.10616251205E+03  0.63955022099E+02  0.26715220681E+02  0.14977858253E+03  0.79744573183E+02 0.  0.
          5    1    5    5  501    0 -0.17815537034E+03  0.62307537625E+02 -0.98985882321E+02  0.21317096455E+03  0.47000000000E+01 0. -1.
        -13    1    6    6    0    0 -0.76214110046E+02  0.15278845090E+02 -0.14817016196E+02  0.79130131090E+02  0.00000000000E+00 0.  1.
         14    1    6    6    0    0 -0.29948402005E+02  0.48676177009E+02  0.41532236877E+02  0.70648451440E+02  0.00000000000E+00 0. -1.
         -5    1    3    3    0  503  0.66520310239E+02  0.87350542068E+01 -0.10781615265E+03  0.12707346544E+03  0.47000000000E+01 0.  1.
         13    1    4    4    0    0  0.16898710951E+03 -0.89898654153E+02 -0.11244567726E+03  0.22199648992E+03  0.00000000000E+00 0. -1.
        -14    1    4    4    0    0  0.48810462640E+02 -0.45098959777E+02  0.39642056258E+01  0.66573961595E+02  0.00000000000E+00 0.  1.
</event>
<event>
12    1  0.9962621E-001  0.1752526E+03  0.7818608E-02  0.1172555E+00
         21   -1    0    0  503  502  0.00000000000E+00  0.00000000000E+00  0.16646471619E+03  0.16646471619E+03  0.00000000000E+00 0.  1.
         21   -1    0    0  501  503 -0.00000000000E+00 -0.00000000000E+00 -0.18650153633E+03  0.18650153633E+03  0.00000000000E+00 0.  1.
          6    2    1    2  501    0  0.26116332740E+02 -0.22398568541E+02 -0.29690548876E+02  0.17744795062E+03  0.17152984516E+03 0.  0.
         24    2    3    3    0    0 -0.52596183537E+02 -0.89417630774E+01  0.95136346664E+01  0.88364821812E+02  0.69796266660E+02 0.  0.
         -6    2    1    2    0  502 -0.26116332740E+02  0.22398568541E+02  0.96537287297E+01  0.17551830190E+03  0.17184214010E+03 0.  0.
        -24    2    5    5    0    0  0.30534344820E+02 -0.34600127875E+02 -0.88028642592E+01  0.92929643559E+02  0.80180503679E+02 0.  0.
          5    1    3    3  501    0  0.78712516276E+02 -0.13456805463E+02 -0.39204183543E+02  0.89083128813E+02  0.47000000000E+01 0. -1.
        -13    1    4    4    0    0  0.10743791236E+02 -0.13530335889E+02  0.17219762957E+02  0.24393016945E+02  0.00000000000E+00 0.  1.
         14    1    4    4    0    0 -0.63339974773E+02  0.45885728111E+01 -0.77061282904E+01  0.63971804867E+02  0.00000000000E+00 0. -1.
         -5    1    5    5    0  502 -0.56650677560E+02  0.56998696416E+02  0.18456592989E+02  0.82588658336E+02  0.47000000000E+01 0.  1.
         11    1    6    6    0    0  0.32164271516E+02 -0.42609433181E+02  0.24427021738E+02  0.58709313989E+02  0.00000000000E+00 0. -1.
        -12    1    6    6    0    0 -0.16299266958E+01  0.80093053055E+01 -0.33229885997E+02  0.34220329570E+02  0.00000000000E+00 0.  1.
</event>
<event>
12    1  0.9962621E-001  0.2101136E+03  0.7818608E-02  0.1141593E+00
         21   -1    0    0  503  502  0.00000000000E+00  0.00000000000E+00  0.44245080829E+03  0.44245080829E+03  0.00000000000E+00 0. -1.
         21   -1    0    0  501  503 -0.00000000000E+00 -0.00000000000E+00 -0.13770646903E+03  0.13770646903E+03  0.00000000000E+00 0. -1.
          6    2    1    2  501    0 -0.67279737386E+02  0.99319239819E+02  0.30532288555E+03  0.37063428506E+03  0.17250169379E+03 0.  0.
         24    2    3    3    0    0 -0.68939347365E+02  0.63685697226E+02  0.90623601392E+02  0.15294097722E+03  0.79811050213E+02 0.  0.
         -6    2    1    2    0  502  0.67279737386E+02 -0.99319239819E+02 -0.57854629723E+00  0.20952299226E+03  0.17178089273E+03 0.  0.
        -24    2    5    5    0    0 -0.18569661118E+02 -0.50308017641E+02 -0.37265697783E+02  0.10397558013E+03  0.80910197622E+02 0.  0.
          5    1    3    3  501    0  0.16596099795E+01  0.35633542593E+02  0.21469928416E+03  0.21769330785E+03  0.47000000000E+01 0. -1.
        -13    1    4    4    0    0 -0.29081879651E+02  0.35785460747E+02  0.93448892275E+02  0.10420676750E+03  0.00000000000E+00 0.  1.
         14    1    4    4    0    0 -0.39857467714E+02  0.27900236479E+02 -0.28252908839E+01  0.48734209717E+02  0.00000000000E+00 0. -1.
         -5    1    5    5    0  502  0.85849398504E+02 -0.49011222178E+02  0.36687151485E+02  0.10554741213E+03  0.47000000000E+01 0.  1.
         11    1    6    6    0    0  0.10961990240E+02  0.14253239736E+02 -0.26712555464E+02  0.32200631863E+02  0.00000000000E+00 0. -1.
        -12    1    6    6    0    0 -0.29531651358E+02 -0.64561257377E+02 -0.10553142319E+02  0.71774948268E+02  0.00000000000E+00 0.  1.
</event>
<event>
12    1  0.9962621E-001  0.2712535E+03  0.7818608E-02  0.1100598E+00
         21   -1    0    0  503  502  0.00000000000E+00  0.00000000000E+00  0.35651925860E+03  0.35651925860E+03  0.00000000000E+00 0. -1.
         21   -1    0    0  501  503 -0.00000000000E+00 -0.00000000000E+00 -0.35936262742E+03  0.35936262742E+03  0.00000000000E+00 0. -1.
          6    2    1    2  501    0 -0.20617671478E+03 -0.37913944434E+02  0.23225779992E+03  0.35692364843E+03  0.17176874072E+03 0.  0.
         24    2    3    3    0    0 -0.17588578735E+03 -0.15792068789E+02  0.98104214621E+02  0.21754577317E+03  0.80725007687E+02 0.  0.
         -6    2    1    2    0  502  0.20617671478E+03  0.37913944434E+02 -0.23510116873E+03  0.35895823759E+03  0.17213991952E+03 0.  0.
        -24    2    5    5    0    0  0.12557056040E+03 -0.14585620902E+02 -0.21281047085E+03  0.26010217204E+03  0.79900797350E+02 0.  0.
          5    1    3    3  501    0 -0.30290927427E+02 -0.22121875645E+02  0.13415358529E+03  0.13937787527E+03  0.47000000000E+01 0. -1.
        -11    1    4    4    0    0 -0.59242682877E+02 -0.44441181141E+02  0.37160238066E+02  0.82858900238E+02  0.00000000000E+00 0.  1.
         12    1    4    4    0    0 -0.11664310448E+03  0.28649112351E+02  0.60943976555E+02  0.13468687293E+03  0.00000000000E+00 0. -1.
         -5    1    5    5    0  502  0.80606154377E+02  0.52499565337E+02 -0.22290697877E+02  0.98856065549E+02  0.47000000000E+01 0.  1.
         11    1    6    6    0    0  0.60615632125E+02 -0.31644137556E+01 -0.17235669850E+03  0.18273231759E+03  0.00000000000E+00 0. -1.
        -12    1    6    6    0    0  0.64954928279E+02 -0.11421207147E+02 -0.40453772352E+02  0.77369854452E+02  0.00000000000E+00 0.  1.
</event>
<event>
12    1  0.9962621E-001  0.3250214E+03  0.7818608E-02  0.1073402E+00
         21   -1    0    0  503  502  0.00000000000E+00  0.00000000000E+00  0.62639715115E+03  0.62639715115E+03  0.00000000000E+00 0. -1.
         21   -1    0    0  501  503 -0.00000000000E+00 -0.00000000000E+00 -0.19785989518E+03  0.19785989518E+03  0.00000000000E+00 0. -1.
          6    2    1    2  501    0  0.22672859733E+03  0.15719069748E+03  0.55497187968E+02  0.32972546028E+03  0.17182598484E+03 0.  0.
         24    2    3    3    0    0  0.17280973013E+03  0.53857712683E+02  0.75362825563E+02  0.21139675056E+03  0.79026417286E+02 0.  0.
         -6    2    1    2    0  502 -0.22672859733E+03 -0.15719069748E+03  0.37304006800E+03  0.49453158606E+03  0.17113686059E+03 0.  0.
        -24    2    5    5    0    0 -0.75474390033E+02 -0.13103262646E+03  0.20191198239E+03  0.26459900553E+03  0.79863961488E+02 0.  0.
          5    1    3    3  501    0  0.53918867201E+02  0.10333298479E+03 -0.19865637595E+02  0.11832870972E+03  0.47000000000E+01 0. -1.
        -11    1    4    4    0    0  0.72344115373E+02  0.58376984595E+02  0.15162898819E+02  0.94188411496E+02  0.00000000000E+00 0.  1.
         12    1    4    4    0    0  0.10046561475E+03 -0.45192719119E+01  0.60199926744E+02  0.11720833907E+03  0.00000000000E+00 0. -1.
         -5    1    5    5    0  502 -0.15125420730E+03 -0.26158071015E+02  0.17112808561E+03  0.22993258053E+03  0.47000000000E+01 0.  1.
         13    1    6    6    0    0 -0.11167871954E+02  0.61034835731E+01  0.43938519096E+02  0.45744588052E+02  0.00000000000E+00 0. -1.
        -14    1    6    6    0    0 -0.64306518079E+02 -0.13713611003E+03  0.15797346330E+03  0.21885441747E+03  0.00000000000E+00 0.  1.
</event>
<event>
12    1  0.9962621E-001  0.1810143E+03  0.7818608E-02  0.1167117E+00
         21   -1    0    0  501  502  0.00000000000E+00  0.00000000000E+00  0.14445432240E+03  0.14445432240E+03  0.00000000000E+00 0.  1.
         21   -1    0    0  502  503 -0.00000000000E+00 -0.00000000000E+00 -0.22631334727E+03  0.22631334727E+03  0.00000000000E+00 0.  1.
         -6    2    1    2    0  503 -0.15614757316E+02 -0.47841073010E+02 -0.53411454178E+02  0.18872982144E+03  0.17387804103E+03 0.  0.
        -24    2    3    3    0    0 -0.46123960000E+02 -0.51238172862E+02  0.21541826527E+02  0.10759760821E+03  0.79752272432E+02 0.  0.
          6    2    1    2  501    0  0.15614757316E+02  0.47841073010E+02 -0.28447570689E+02  0.18203784822E+03  0.17261496168E+03 0.  0.
         24    2    5    5    0    0  0.11087649659E+01  0.85648419606E+02 -0.62041566786E+02  0.12921298812E+03  0.74229099079E+02 0.  0.
          5    1    5    5  501    0  0.14505992350E+02 -0.37807346596E+02  0.33593996097E+02  0.52824860099E+02  0.47000000000E+01 0. -1.
        -13    1    6    6    0    0  0.75577920565E+01  0.34494496960E-01  0.13096372553E+02  0.15120726989E+02  0.00000000000E+00 0.  1.
         14    1    6    6    0    0 -0.64490270906E+01  0.85613925109E+02 -0.75137939339E+02  0.11409226114E+03  0.00000000000E+00 0. -1.
         -5    1    3    3    0  503  0.30509202684E+02  0.33970998521E+01 -0.74953280705E+02  0.81132213234E+02  0.47000000000E+01 0.  1.
         11    1    4    4    0    0  0.31149025612E+01 -0.11304466757E+02  0.39907171434E+02  0.41594181306E+02  0.00000000000E+00 0. -1.
        -12    1    4    4    0    0 -0.49238862561E+02 -0.39933706105E+02 -0.18365344906E+02  0.66003426904E+02  0.00000000000E+00 0.  1.
</event>
<event>
12    1  0.9962621E-001  0.2099350E+03  0.7818608E-02  0.1141663E+00
         21   -1    0    0  503  502  0.00000000000E+00  0.00000000000E+00  0.11238331852E+03  0.11238331852E+03  0.00000000000E+00 0. -1.
         21   -1    0    0  501  503 -0.00000000000E+00 -0.00000000000E+00 -0.40598029283E+03  0.40598029283E+03  0.00000000000E+00 0. -1.
          6    2    1    2  501    0 -0.11459181856E+03 -0.37182734984E+02 -0.19543002945E+03  0.28681981819E+03  0.17192693516E+03 0.  0.
         24    2    3    3    0    0 -0.11430339349E+03  0.27871619500E+02 -0.14354972692E+03  0.20347830383E+03  0.83395462049E+02 0.  0.
         -6    2    1    2    0  502  0.11459181856E+03  0.37182734984E+02 -0.98166944855E+02  0.23154379316E+03  0.17164480308E+03 0.  0.
        -24    2    5    5    0    0  0.16613091910E+02  0.44444412156E+02 -0.96518546209E+02  0.13317016839E+03  0.78531289250E+02 0.  0.
          5    1    3    3  501    0 -0.28842507020E+00 -0.65054354485E+02 -0.51880302530E+02  0.83341514367E+02  0.47000000000E+01 0. -1.
        -13    1    4    4    0    0 -0.30926809731E+02 -0.27211978702E+02 -0.62293305029E+02  0.74682094215E+02  0.00000000000E+00 0.  1.
         14    1    4    4    0    0 -0.83376583762E+02  0.55083598203E+02 -0.81256421895E+02  0.12879620961E+03  0.00000000000E+00 0. -1.
         -5    1    5    5    0  502  0.97978726653E+02 -0.72616771713E+01 -0.16483986467E+01  0.98373624768E+02  0.47000000000E+01 0.  1.
         13    1    6    6    0    0 -0.37182814780E+01  0.28948179423E+02  0.39937403391E+01  0.29457981447E+02  0.00000000000E+00 0. -1.
        -14    1    6    6    0    0  0.20331373388E+02  0.15496232733E+02 -0.10051228655E+03  0.10371218694E+03  0.00000000000E+00 0.  1.
</event>
<event>
12    1  0.9962621E-001  0.1907045E+03  0.7818608E-02  0.1157902E+00
         21   -1    0    0  501  502  0.00000000000E+00  0.00000000000E+00  0.70952554345E+02  0.70952554345E+02  0.00000000000E+00 0. -1.
         21   -1    0    0  502  503 -0.00000000000E+00 -0.00000000000E+00 -0.57529207723E+03  0.57529207723E+03  0.00000000000E+00 0.  1.
         -6    2    1    2    0  503 -0.67877787465E+02  0.45496156654E+02 -0.35981721868E+03  0.40723045594E+03  0.17231053098E+03 0.  0.
        -24    2    3    3    0    0 -0.27784522763E+02  0.94204337507E+02 -0.25445472397E+03  0.28433496356E+03  0.80328874273E+02 0.  0.
          6    2    1    2  501    0  0.67877787465E+02 -0.45496156654E+02 -0.14452230421E+03  0.23901417563E+03  0.17194122670E+03 0.  0.
         24    2    5    5    0    0  0.16636061183E+02  0.28174399482E+02 -0.26387782278E+02  0.90586009085E+02  0.80243097339E+02 0.  0.
          5    1    5    5  501    0  0.51241726282E+02 -0.73670556136E+02 -0.11813452193E+03  0.14842816655E+03  0.47000000000E+01 0. -1.
        -13    1    6    6    0    0 -0.20826857907E+02  0.13563181296E+02 -0.40880356427E+02  0.47842673826E+02  0.00000000000E+00 0.  1.
         14    1    6    6    0    0  0.37462919090E+02  0.14611218186E+02  0.14492574149E+02  0.42743335260E+02  0.00000000000E+00 0. -1.
         -5    1    3    3    0  503 -0.40093264702E+02 -0.48708180853E+02 -0.10536249471E+03  0.12289549238E+03  0.47000000000E+01 0.  1.
         13    1    4    4    0    0 -0.73783343488E+01  0.33304642689E+02 -0.16553865840E+02  0.37916612674E+02  0.00000000000E+00 0. -1.
        -14    1    4    4    0    0 -0.20406188414E+02  0.60899694818E+02 -0.23790085813E+03  0.24641835089E+03  0.00000000000E+00 0.  1.
</event>
<event>
12    1  0.9962621E-001  0.2850765E+03  0.7818608E-02  0.1092965E+00
         21   -1    0    0  503  502  0.00000000000E+00  0.00000000000E+00  0.10910257060E+04  0.10910257060E+04  0.00000000000E+00 0. -1.
         21   -1    0    0  501  503 -0.00000000000E+00 -0.00000000000E+00 -0.77625274098E+02  0.77625274098E+02  0.00000000000E+00 0. -1.
          6    2    1    2  501    0 -0.10069238564E+03  0.20320205442E+03  0.62466500730E+03  0.68658892950E+03  0.17253392510E+03 0.  0.
         24    2    3    3    0    0 -0.83062940276E+02  0.16940771109E+03  0.61406343631E+03  0.64674751521E+03  0.74900066711E+02 0.  0.
         -6    2    1    2    0  502  0.10069238564E+03 -0.20320205442E+03  0.38873542462E+03  0.48206205063E+03  0.17273841163E+03 0.  0.
        -24    2    5    5    0    0  0.43881261889E+02 -0.26505301639E+02  0.17165232475E+03  0.19641119998E+03  0.80527900291E+02 0.  0.
          5    1    3    3  501    0 -0.17629445363E+02  0.33794343326E+02  0.10601570993E+02  0.39841414284E+02  0.47000000000E+01 0. -1.
        -11    1    4    4    0    0 -0.16237915779E+02  0.11687214820E+03  0.35622236091E+03  0.37525609835E+03  0.00000000000E+00 0.  1.
         12    1    4    4    0    0 -0.66825024496E+02  0.52535562890E+02  0.25784107540E+03  0.27149141686E+03  0.00000000000E+00 0. -1.
         -5    1    5    5    0  502  0.56811123749E+02 -0.17669675278E+03  0.21708309987E+03  0.28565085064E+03  0.47000000000E+01 0.  1.
         13    1    6    6    0    0  0.99737560393E+01  0.26912541030E+02  0.31358893255E+02  0.42510479419E+02  0.00000000000E+00 0. -1.
        -14    1    6    6    0    0  0.33907505850E+02 -0.53417842669E+02  0.14029343150E+03  0.15390072056E+03  0.00000000000E+00 0.  1.
</event>
<event>
12    1  0.9962621E-001  0.2407678E+03  0.7818608E-02  0.1119341E+00
         21   -1    0    0  503  502  0.00000000000E+00  0.00000000000E+00  0.20484784290E+04  0.20484784290E+04  0.00000000000E+00 0.  1.
         21   -1    0    0  501  503 -0.00000000000E+00 -0.00000000000E+00 -0.33962980304E+02  0.33962980304E+02  0.00000000000E+00 0. -1.
          6    2    1    2  501    0 -0.16200826711E+03  0.45040907207E+02  0.58109041647E+03  0.62899539961E+03  0.17231882858E+03 0.  0.
         24    2    3    3    0    0 -0.15721707521E+03 -0.17939863866E+02  0.43808049494E+03  0.47258740524E+03  0.79907997712E+02 0.  0.
         -6    2    1    2    0  502  0.16200826711E+03 -0.45040907207E+02  0.14334250323E+04  0.14534460097E+04  0.17182147174E+03 0.  0.
        -24    2    5    5    0    0  0.51173311508E+02 -0.10496478140E+02  0.10073785559E+04  0.10118405354E+04  0.79251689362E+02 0.  0.
          5    1    3    3  501    0 -0.47911919053E+01  0.62980771073E+02  0.14300992153E+03  0.15640799436E+03  0.47000000000E+01 0. -1.
        -13    1    4    4    0    0 -0.17023025468E+02 -0.32043770537E+02  0.84009471795E+02  0.91510534791E+02  0.00000000000E+00 0.  1.
         14    1    4    4    0    0 -0.14019404974E+03  0.14103906671E+02  0.35407102314E+03  0.38107687045E+03  0.00000000000E+00 0. -1.
         -5    1    5    5    0  502  0.11083495560E+03 -0.34544429067E+02  0.42604647633E+03  0.44160547432E+03  0.47000000000E+01 0.  1.
         13    1    6    6    0    0  0.49818367112E+02  0.18268271902E+01  0.28309223339E+03  0.28744811637E+03  0.00000000000E+00 0. -1.
        -14    1    6    6    0    0  0.13549443955E+01 -0.12323305330E+02  0.72428632254E+03  0.72439241903E+03  0.00000000000E+00 0.  1.
</event>
<event>
12    1  0.9962621E-001  0.2976212E+03  0.7818608E-02  0.1086835E+00
         21   -1    0    0  501  502  0.00000000000E+00  0.00000000000E+00  0.67464324251E+02  0.67464324251E+02  0.00000000000E+00 0. -1.
         21   -1    0    0  502  503 -0.00000000000E+00 -0.00000000000E+00 -0.22720802233E+04  0.22720802233E+04  0.00000000000E+00 0. -1.
         -6    2    1    2    0  503 -0.22171022848E+03  0.10231633061E+03 -0.33348408347E+03  0.44489084953E+03  0.16459701440E+03 0.  0.
        -24    2    3    3    0    0 -0.14706782278E+03  0.83675217616E+01 -0.14804291196E+03  0.22396465031E+03  0.80898089530E+02 0.  0.
          6    2    1    2  501    0  0.22171022848E+03 -0.10231633061E+03 -0.18711318156E+04  0.18946536981E+04  0.17015965214E+03 0.  0.
         24    2    5    5    0    0  0.21931065163E+03 -0.13161149710E+03 -0.16878792891E+04  0.17089993331E+04  0.79520298670E+02 0.  0.
          5    1    5    5  501    0  0.23995768451E+01  0.29295166492E+02 -0.18325252655E+03  0.18565436498E+03  0.47000000000E+01 0. -1.
        -13    1    6    6    0    0  0.25037016351E+02 -0.43925742549E+02 -0.45853975201E+03  0.46131879131E+03  0.00000000000E+00 0.  1.
         14    1    6    6    0    0  0.19427363528E+03 -0.87685754554E+02 -0.12293395371E+04  0.12476805418E+04  0.00000000000E+00 0. -1.
         -5    1    3    3    0  503 -0.74642405702E+02  0.93948808850E+02 -0.18544117151E+03  0.22092619923E+03  0.47000000000E+01 0.  1.
         13    1    4    4    0    0 -0.39429409409E+02 -0.51648834479E+01  0.80891846788E+00  0.39774472925E+02  0.00000000000E+00 0. -1.
        -14    1    4    4    0    0 -0.10763841337E+03  0.13532405209E+02 -0.14885183043E+03  0.18419017738E+03  0.00000000000E+00 0.  1.
</event>
<event>
12    1  0.9962621E-001  0.1753307E+03  0.7818608E-02  0.1172454E+00
         21   -1    0    0  501  502  0.00000000000E+00  0.00000000000E+00  0.51886131147E+02  0.51886131147E+02  0.00000000000E+00 0. -1.
         21   -1    0    0  502  503 -0.00000000000E+00 -0.00000000000E+00 -0.76476029368E+03  0.76476029368E+03  0.00000000000E+00 0. -1.
         -6    2    1    2    0  503  0.21188469614E+02 -0.30717288566E+02 -0.16205268591E+03  0.23859353158E+03  0.17109441031E+03 0.  0.
        -24    2    3    3    0    0  0.46236174850E+02  0.39601215344E+02 -0.89230085067E+02  0.13420339448E+03  0.79639832298E+02 0.  0.
          6    2    1    2  501    0 -0.21188469614E+02  0.30717288566E+02 -0.55082147662E+03  0.57805289324E+03  0.17131358737E+03 0.  0.
         24    2    5    5    0    0 -0.51699482974E+02  0.71784488795E+02 -0.44282985234E+03  0.45846310360E+03  0.79147266984E+02 0.  0.
          5    1    5    5  501    0  0.30511013361E+02 -0.41067200229E+02 -0.10799162428E+03  0.11958978964E+03  0.47000000000E+01 0. -1.
        -11    1    6    6    0    0 -0.32067575114E+02  0.86777321387E+02 -0.31663232596E+03  0.32987067576E+03  0.00000000000E+00 0.  1.
         12    1    6    6    0    0 -0.19631907860E+02 -0.14992832592E+02 -0.12619752638E+03  0.12859242785E+03  0.00000000000E+00 0. -1.
         -5    1    3    3    0  503 -0.25047705237E+02 -0.70318503910E+02 -0.72822600842E+02  0.10439013710E+03  0.47000000000E+01 0.  1.
         13    1    4    4    0    0 -0.16473459169E+02  0.28922415299E+02 -0.15183010148E+02  0.36584214640E+02  0.00000000000E+00 0. -1.
        -14    1    4    4    0    0  0.62709634019E+02  0.10678800046E+02 -0.74047074919E+02  0.97619179844E+02  0.00000000000E+00 0.  1.
</event>
<event>
12    1  0.9962621E-001  0.1882927E+03  0.7818608E-02  0.1160112E+00
         21   -1    0    0  503  502  0.00000000000E+00  0.00000000000E+00  0.26226610135E+03  0.26226610135E+03  0.00000000000E+00 0. -1.
         21   -1    0    0  501  503 -0.00000000000E+00 -0.00000000000E+00 -0.22240288956E+03  0.22240288956E+03  0.00000000000E+00 0. -1.
          6    2    1    2  501    0 -0.66338028813E+02  0.38750340309E+02 -0.13211740592E+03  0.22965628078E+03  0.17141958878E+03 0.  0.
         24    2    3    3    0    0 -0.46553070620E+02  0.76795167640E+01 -0.49984102180E+00  0.92900608010E+02  0.80025681913E+02 0.  0.
         -6    2    1    2    0  502  0.66338028813E+02 -0.38750340309E+02  0.17198061771E+03  0.25501271013E+03  0.17190644700E+03 0.  0.
        -24    2    5    5    0    0 -0.41778678997E+00  0.59708598700E+01  0.18059280041E+02  0.81317019767E+02  0.79060068269E+02 0.  0.
          5    1    3    3  501    0 -0.19784958192E+02  0.31070823545E+02 -0.13161756490E+03  0.13675567277E+03  0.47000000000E+01 0. -1.
        -13    1    4    4    0    0 -0.15447226670E+02  0.14514788449E+02 -0.38115769049E+02  0.43613160235E+02  0.00000000000E+00 0.  1.
         14    1    4    4    0    0 -0.31105843950E+02 -0.68352716851E+01  0.37615928027E+02  0.49287447775E+02  0.00000000000E+00 0. -1.
         -5    1    5    5    0  502  0.66755815603E+02 -0.44721200179E+02  0.15392133767E+03  0.17369569037E+03  0.47000000000E+01 0.  1.
         13    1    6    6    0    0 -0.41445057507E+01 -0.92084017899E+01 -0.29539422870E+02  0.31217768898E+02  0.00000000000E+00 0. -1.
        -14    1    6    6    0    0  0.37267189607E+01  0.15179261660E+02  0.47598702912E+02  0.50099250869E+02  0.00000000000E+00 0.  1.
</event>
<event>
12    1  0.9962621E-001  0.3057149E+03  0.7818608E-02  0.1082571E+00
         21   -1    0    0  501  502  0.00000000000E+00  0.00000000000E+00  0.40526436924E+03  0.40526436924E+03  0.00000000000E+00 0.  1.
         21   -1    0    0  502  503 -0.00000000000E+00 -0.00000000000E+00 -0.43255244844E+03  0.43255244844E+03  0.00000000000E+00 0.  1.
         -6    2    1    2    0  503  0.11701903854E+02 -0.25102251247E+03  0.27325989721E+03  0.40910865217E+03  0.17190020808E+03 0.  0.
        -24    2    3    3    0    0 -0.24641973783E+02 -0.22846395717E+03  0.16990006563E+03  0.29714834383E+03  0.81413139874E+02 0.  0.
          6    2    1    2  501    0 -0.11701903854E+02  0.25102251247E+03 -0.30054797641E+03  0.42870816550E+03  0.17410447647E+03 0.  0.
         24    2    5    5    0    0 -0.17640296426E+02  0.14417817709E+03 -0.80509630939E+02  0.18398395341E+03  0.79181864284E+02 0.  0.
          5    1    5    5  501    0  0.59383925723E+01  0.10684433538E+03 -0.22003834547E+03  0.24472421209E+03  0.47000000000E+01 0. -1.
        -11    1    6    6    0    0 -0.32774067395E+02  0.35512625110E+02 -0.73072014575E+00  0.48330321618E+02  0.00000000000E+00 0.  1.
         12    1    6    6    0    0  0.15133770969E+02  0.10866555198E+03 -0.79778910794E+02  0.13565363179E+03  0.00000000000E+00 0. -1.
         -5    1    3    3    0  503  0.36343877637E+02 -0.22558555297E+02  0.10335983158E+03  0.11196030834E+03  0.47000000000E+01 0.  1.
         13    1    4    4    0    0 -0.28746068081E+01 -0.22005779126E+03  0.15826180708E+03  0.27107285817E+03  0.00000000000E+00 0. -1.
        -14    1    4    4    0    0 -0.21767366975E+02 -0.84061659121E+01  0.11638258549E+02  0.26075485660E+02  0.00000000000E+00 0.  1.
</event>
<event>
12    1  0.9962621E-001  0.2333734E+03  0.7818608E-02  0.1124349E+00
         21   -1    0    0  501  502  0.00000000000E+00  0.00000000000E+00  0.18100003930E+04  0.18100003930E+04  0.00000000000E+00 0. -1.
         21   -1    0    0  502  503 -0.00000000000E+00 -0.00000000000E+00 -0.35436883980E+02  0.35436883980E+02  0.00000000000E+00 0. -1.
         -6    2    1    2    0  503 -0.14304049972E+03 -0.67819626954E+02  0.12478020181E+04  0.12694380640E+04  0.17147313412E+03 0.  0.
        -24    2    3    3    0    0 -0.72840603117E+02  0.15468853946E+02  0.37388978873E+03  0.38875101909E+03  0.76083781557E+02 0.  0.
          6    2    1    2  501    0  0.14304049972E+03  0.67819626954E+02  0.52676149090E+03  0.57599921291E+03  0.17098929386E+03 0.  0.
         24    2    5    5    0    0  0.11782632306E+02  0.56489098396E+02  0.26735876519E+03  0.28502005087E+03  0.80161533241E+02 0.  0.
          5    1    5    5  501    0  0.13125786741E+03  0.11330528558E+02  0.25940272571E+03  0.29097916204E+03  0.47000000000E+01 0. -1.
        -11    1    6    6    0    0  0.31211418827E+02  0.68725571443E+02  0.19467869952E+03  0.20879931245E+03  0.00000000000E+00 0.  1.
         12    1    6    6    0    0 -0.19428786521E+02 -0.12236473047E+02  0.72680065677E+02  0.76220738419E+02  0.00000000000E+00 0. -1.
         -5    1    3    3    0  503 -0.70199896603E+02 -0.83288480900E+02  0.87391222935E+03  0.88068704494E+03  0.47000000000E+01 0.  1.
         13    1    4    4    0    0 -0.59814899894E+02  0.37607274686E+02  0.33337424523E+03  0.34077927862E+03  0.00000000000E+00 0. -1.
        -14    1    4    4    0    0 -0.13025703224E+02 -0.22138420740E+02  0.40515543508E+02  0.47971740464E+02  0.00000000000E+00 0.  1.
</event>
<event>
12    1  0.9962621E-001  0.1737800E+03  0.7818608E-02  0.1173995E+00
         21   -1    0    0  503  502  0.00000000000E+00  0.00000000000E+00  0.31474584422E+02  0.31474584422E+02  0.00000000000E+00 0.  1.
         21   -1    0    0  501  503 -0.00000000000E+00 -0.00000000000E+00 -0.11009282620E+04  0.11009282620E+04  0.00000000000E+00 0.  1.
          6    2    1    2  501    0  0.12620458720E+02 -0.24848069063E+02 -0.73801009074E+03  0.75816451993E+03  0.17139965792E+03 0.  0.
         24    2    3    3    0    0 -0.79178857636E+01 -0.46063854456E+02 -0.21041588617E+03  0.22972373059E+03  0.79458011816E+02 0.  0.
         -6    2    1    2    0  502 -0.12620458720E+02  0.24848069063E+02 -0.33144358680E+03  0.37423832645E+03  0.17153067142E+03 0.  0.
        -24    2    5    5    0    0  0.53442263468E+02  0.35107568138E+02 -0.15334265395E+03  0.18394494016E+03  0.78950330111E+02 0.  0.
          5    1    3    3  501    0  0.20538344484E+02  0.21215785393E+02 -0.52759420457E+03  0.52844078934E+03  0.47000000000E+01 0. -1.
        -11    1    4    4    0    0  0.31337072367E+02 -0.42381454778E+02 -0.11663422710E+03  0.12799118229E+03  0.00000000000E+00 0.  1.
         12    1    4    4    0    0 -0.39254958131E+02 -0.36823996781E+01 -0.93781659067E+02  0.10173254830E+03  0.00000000000E+00 0. -1.
         -5    1    5    5    0  502 -0.66062722188E+02 -0.10259499076E+02 -0.17810093285E+03  0.19029338629E+03  0.47000000000E+01 0.  1.
         13    1    6    6    0    0  0.32295013854E+02 -0.60232545939E+01 -0.12601264211E+03  0.13022455025E+03  0.00000000000E+00 0. -1.
        -14    1    6    6    0    0  0.21147249614E+02  0.41130822732E+02 -0.27330011836E+02  0.53720389907E+02  0.00000000000E+00 0.  1.
</event>
<event>
12    1  0.9962621E-001  0.1953406E+03  0.7818608E-02  0.1153935E+00
         21   -1    0    0  503  502  0.00000000000E+00  0.00000000000E+00  0.20554510615E+04  0.20554510615E+04  0.00000000000E+00 0. -1.
         21   -1    0    0  501  503 -0.00000000000E+00 -0.00000000000E+00 -0.20547230005E+02  0.20547230005E+02  0.00000000000E+00 0. -1.
          6    2    1    2  501    0 -0.76122933876E+02  0.49220334100E+02  0.13448646801E+04  0.13588428257E+04  0.17197521615E+03 0.  0.
         24    2    3    3    0    0 -0.85530561485E+02  0.74698062603E+02  0.12895517497E+04  0.12970429198E+04  0.80506789231E+02 0.  0.
         -6    2    1    2    0  502  0.76122933876E+02 -0.49220334100E+02  0.69003915143E+03  0.71715546579E+03  0.17303349170E+03 0.  0.
        -24    2    5    5    0    0 -0.22590739802E+02 -0.49583290671E+02  0.36251891749E+03  0.37505005111E+03  0.79206887726E+02 0.  0.
          5    1    3    3  501    0  0.94076276095E+01 -0.25477728503E+02  0.55312930322E+02  0.61799905888E+02  0.47000000000E+01 0. -1.
        -11    1    4    4    0    0  0.94604948149E+01  0.31401666574E+02  0.41212858436E+03  0.41343141593E+03  0.00000000000E+00 0.  1.
         12    1    4    4    0    0 -0.94991056300E+02  0.43296396029E+02  0.87742316537E+03  0.88361150390E+03  0.00000000000E+00 0. -1.
         -5    1    5    5    0  502  0.98713673678E+02  0.36295657122E+00  0.32752023395E+03  0.34210541468E+03  0.47000000000E+01 0.  1.
         11    1    6    6    0    0 -0.20352976725E+02  0.48244755479E+01  0.22588273903E+02  0.30785537900E+02  0.00000000000E+00 0. -1.
        -12    1    6    6    0    0 -0.22377630776E+01 -0.54407766219E+02  0.33993064359E+03  0.34426451321E+03  0.00000000000E+00 0.  1.
</event>
<event>
12    1  0.9962621E-001  0.2045848E+03  0.7818608E-02  0.1145998E+00
         21   -1    0    0  503  502  0.00000000000E+00  0.00000000000E+00  0.94965466970E+02  0.94965466970E+02  0.00000000000E+00 0.  1.
         21   -1    0    0  501  503 -0.00000000000E+00 -0.00000000000E+00 -0.44774942925E+03  0.44774942925E+03  0.00000000000E+00 0. -1.
          6    2    1    2  501    0  0.10654130927E+03 -0.36082413453E+02 -0.21225367997E+03  0.29479922729E+03  0.17088583502E+03 0.  0.
         24    2    3    3    0    0  0.20639105830E+02 -0.70891384225E+02 -0.13470751425E+03  0.17385977625E+03  0.81422026225E+02 0.  0.
         -6    2    1    2    0  502 -0.10654130927E+03  0.36082413453E+02 -0.14053028231E+03  0.24791566893E+03  0.17047119262E+03 0.  0.
        -24    2    5    5    0    0 -0.69477991516E+02  0.63858685560E+02 -0.28242718827E+02  0.12635992974E+03  0.79145799963E+02 0.  0.
          5    1    3    3  501    0  0.85902203437E+02  0.34808970772E+02 -0.77546165715E+02  0.12093945104E+03  0.47000000000E+01 0. -1.
        -11    1    4    4    0    0  0.27824951736E+01  0.17514233556E+02 -0.36136583034E+02  0.40253487922E+02  0.00000000000E+00 0.  1.
         12    1    4    4    0    0  0.17856610657E+02 -0.88405617781E+02 -0.98570931216E+02  0.13360628833E+03  0.00000000000E+00 0. -1.
         -5    1    5    5    0  502 -0.37063317752E+02 -0.27776272107E+02 -0.11228756349E+03  0.12155573918E+03  0.47000000000E+01 0.  1.
         13    1    6    6    0    0  0.81871880882E+01  0.72444545551E+01 -0.28205869794E+02  0.30250343162E+02  0.00000000000E+00 0. -1.
        -14    1    6    6    0    0 -0.77665179604E+02  0.56614231005E+02 -0.36849033637E-01  0.96109586582E+02  0.00000000000E+00 0.  1.
</event>
<event>
12    1  0.9962621E-001  0.2283936E+03  0.7818608E-02  0.1127814E+00
         21   -1    0    0  501  502  0.00000000000E+00  0.00000000000E+00  0.98844390647E+03  0.98844390647E+03  0.00000000000E+00 0.  1.
         21   -1    0    0  502  503 -0.00000000000E+00 -0.00000000000E+00 -0.11089286593E+03  0.11089286593E+03  0.00000000000E+00 0.  1.
         -6    2    1    2    0  503  0.12359165695E+03 -0.84477964289E+02  0.83678110774E+03  0.86733287868E+03  0.17219836251E+03 0.  0.
        -24    2    3    3    0    0  0.49133983565E+02  0.11964473141E+02  0.23572350221E+03  0.25403244331E+03  0.80060076191E+02 0.  0.
          6    2    1    2  501    0 -0.12359165695E+03  0.84477964289E+02  0.40769932802E+02  0.23200389372E+03  0.17248824645E+03 0.  0.
         24    2    5    5    0    0 -0.80949773824E+02  0.12044011198E+03  0.53753731794E+02  0.17453846673E+03  0.80718809638E+02 0.  0.
          5    1    5    5  501    0 -0.42641883126E+02 -0.35962147695E+02 -0.12983798991E+02  0.57465426994E+02  0.47000000000E+01 0. -1.
        -13    1    6    6    0    0 -0.38097144476E+01 -0.56970415984E+00 -0.14947075833E+02  0.15435464456E+02  0.00000000000E+00 0.  1.
         14    1    6    6    0    0 -0.77140059376E+02  0.12100981614E+03  0.68700807627E+02  0.15910300227E+03  0.00000000000E+00 0. -1.
         -5    1    3    3    0  503  0.74457673385E+02 -0.96442437430E+02  0.60105760553E+03  0.61330043537E+03  0.47000000000E+01 0.  1.
         11    1    4    4    0    0  0.49528312625E+02 -0.21639201773E+02  0.18833655367E+03  0.19593867983E+03  0.00000000000E+00 0. -1.
        -12    1    4    4    0    0 -0.39432905997E+00  0.33603674913E+02  0.47386948540E+02  0.58093763478E+02  0.00000000000E+00 0.  1.
</event>
<event>
12    1  0.9962621E-001  0.2568773E+03  0.7818608E-02  0.1109105E+00
         21   -1    0    0  503  502  0.00000000000E+00  0.00000000000E+00  0.41143156522E+03  0.41143156522E+03  0.00000000000E+00 0.  1.
         21   -1    0    0  501  503 -0.00000000000E+00 -0.00000000000E+00 -0.20249413687E+03  0.20249413687E+03  0.00000000000E+00 0.  1.
          6    2    1    2  501    0  0.97532316549E+02  0.16281905683E+03  0.24501065587E+03  0.35498755179E+03  0.17309922701E+03 0.  0.
         24    2    3    3    0    0  0.55562402789E+02  0.15319774521E+03  0.25254700060E+03  0.31102245438E+03  0.79989060959E+02 0.  0.
         -6    2    1    2    0  502 -0.97532316549E+02 -0.16281905683E+03 -0.36073227519E+02  0.25893815031E+03  0.17240965722E+03 0.  0.
        -24    2    5    5    0    0 -0.70567107442E+02 -0.11423663560E+03  0.43587431920E+02  0.16169986146E+03  0.78849574573E+02 0.  0.
          5    1    3    3  501    0  0.41969913760E+02  0.96213116213E+01 -0.75363447280E+01  0.43965097409E+02  0.47000000000E+01 0. -1.
        -13    1    4    4    0    0  0.47553975274E+01  0.32015503002E+02  0.12036015311E+03  0.12463616127E+03  0.00000000000E+00 0.  1.
         14    1    4    4    0    0  0.50807005262E+02  0.12118224221E+03  0.13218684749E+03  0.18638629311E+03  0.00000000000E+00 0. -1.
         -5    1    5    5    0  502 -0.26965209107E+02 -0.48582421237E+02 -0.79660659439E+02  0.97238288846E+02  0.47000000000E+01 0.  1.
         11    1    6    6    0    0 -0.18261324976E+02 -0.73715534597E+02  0.56028465921E+02  0.94375023307E+02  0.00000000000E+00 0. -1.
        -12    1    6    6    0    0 -0.52305782466E+02 -0.40521101000E+02 -0.12441034001E+02  0.67324838155E+02  0.00000000000E+00 0.  1.
</event>
<event>
12    1  0.9962621E-001  0.2616600E+03  0.7818608E-02  0.1106290E+00
         21   -1    0    0  501  502  0.00000000000E+00  0.00000000000E+00  0.58631764465E+03  0.58631764465E+03  0.00000000000E+00 0.  1.
         21   -1    0    0  502  503 -0.00000000000E+00 -0.00000000000E+00 -0.27450418969E+03  0.27450418969E+03  0.00000000000E+00 0. -1.
         -6    2    1    2    0  503 -0.83552347762E+02  0.17774307644E+03  0.48271880784E+03  0.54907504325E+03  0.17289407058E+03 0.  0.
        -24    2    3    3    0    0 -0.79127626650E+02  0.40895673719E+02  0.17768387859E+03  0.21468726260E+03  0.81150616651E+02 0.  0.
          6    2    1    2  501    0  0.83552347762E+02 -0.17774307644E+03 -0.17090535288E+03  0.31174679110E+03  0.17147543870E+03 0.  0.
         24    2    5    5    0    0  0.54792408547E+02 -0.20157713338E+03 -0.14953747559E+03  0.26845854149E+03  0.77929347213E+02 0.  0.
          5    1    5    5  501    0  0.28759939215E+02  0.23834056941E+02 -0.21367877289E+02  0.43288249604E+02  0.47000000000E+01 0. -1.
        -13    1    6    6    0    0  0.12101240944E+02 -0.10068168176E+03 -0.28782448033E+02  0.10541190819E+03  0.00000000000E+00 0.  1.
         14    1    6    6    0    0  0.42691167603E+02 -0.10089545162E+03 -0.12075502756E+03  0.16304663330E+03  0.00000000000E+00 0. -1.
         -5    1    3    3    0  503 -0.44247211117E+01  0.13684740272E+03  0.30503492925E+03  0.33438778065E+03  0.47000000000E+01 0.  1.
         13    1    4    4    0    0 -0.28027137520E+02  0.42179240369E+02  0.31059061241E+02  0.59407693448E+02  0.00000000000E+00 0. -1.
        -14    1    4    4    0    0 -0.51100489130E+02 -0.12835666499E+01  0.14662481735E+03  0.15527956915E+03  0.00000000000E+00 0.  1.
</event>
<event>
12    1  0.9962621E-001  0.2863901E+03  0.7818608E-02  0.1092254E+00
         21   -1    0    0  503  502  0.00000000000E+00  0.00000000000E+00  0.17738046379E+03  0.17738046379E+03  0.00000000000E+00 0. -1.
         21   -1    0    0  501  503 -0.00000000000E+00 -0.00000000000E+00 -0.66702070516E+03  0.66702070516E+03  0.00000000000E+00 0.  1.
          6    2    1    2  501    0  0.22343707369E+03  0.49106726955E+02 -0.10932169525E+02  0.28656543016E+03  0.17223425008E+03 0.  0.
         24    2    3    3    0    0  0.23952394564E+03  0.63932954017E+02 -0.24334028917E+02  0.26048278664E+03  0.76157691847E+02 0.  0.
         -6    2    1    2    0  502 -0.22343707369E+03 -0.49106726955E+02 -0.47870807184E+03  0.55783573879E+03  0.17228957279E+03 0.  0.
        -24    2    5    5    0    0 -0.22444165286E+03 -0.18415584188E+00 -0.36192304393E+03  0.43112638678E+03  0.67138529885E+02 0.  0.
          5    1    3    3  501    0 -0.16086871946E+02 -0.14826227062E+02  0.13401859392E+02  0.26082643521E+02  0.47000000000E+01 0. -1.
        -13    1    4    4    0    0  0.15544917590E+03  0.11036589272E+02 -0.37484941448E+02  0.16028528762E+03  0.00000000000E+00 0.  1.
         14    1    4    4    0    0  0.84074769740E+02  0.52896364745E+02  0.13150912531E+02  0.10019749902E+03  0.00000000000E+00 0. -1.
         -5    1    5    5    0  502  0.10045791676E+01 -0.48922571113E+02 -0.11678502791E+03  0.12670935201E+03  0.47000000000E+01 0.  1.
         13    1    6    6    0    0 -0.75358943680E+02 -0.29968256766E+02 -0.10619089876E+03  0.13361726605E+03  0.00000000000E+00 0. -1.
        -14    1    6    6    0    0 -0.14908270918E+03  0.29784100924E+02 -0.25573214517E+03  0.29750912073E+03  0.00000000000E+00 0.  1.
</event>
<event>
12    1  0.9962621E-001  0.1752599E+03  0.7818608E-02  0.1172498E+00
         21   -1    0    0  501  502  0.00000000000E+00  0.00000000000E+00  0.31669670051E+02  0.31669670051E+02  0.00000000000E+00 0. -1.
         21   -1    0    0  502  503 -0.00000000000E+00 -0.00000000000E+00 -0.10477640381E+04  0.10477640381E+04  0.00000000000E+00 0. -1.
         -6    2    1    2    0  503 -0.27393606362E+02  0.19629525291E+02 -0.65588648358E+03  0.67889845444E+03  0.17198925596E+03 0.  0.
        -24    2    3    3    0    0  0.18174208347E+02  0.49220376877E+02 -0.24168059347E+03  0.26111782584E+03  0.83785812405E+02 0.  0.
          6    2    1    2  501    0  0.27393606362E+02 -0.19629525291E+02 -0.36020788448E+03  0.40053525372E+03  0.17188089335E+03 0.  0.
         24    2    5    5    0    0  0.62123159037E+01 -0.64955912757E+02 -0.13542549243E+03  0.17020431303E+03  0.79822181767E+02 0.  0.
          5    1    5    5  501    0  0.21181290459E+02  0.45326387466E+02 -0.22478239204E+03  0.23033094069E+03  0.47000000000E+01 0. -1.
        -13    1    6    6    0    0  0.84172083944E+01  0.74372652463E+01  0.49276751830E+01  0.12265573538E+02  0.00000000000E+00 0.  1.
         14    1    6    6    0    0 -0.22048924908E+01 -0.72393178003E+02 -0.14035316762E+03  0.15793873949E+03  0.00000000000E+00 0. -1.
         -5    1    3    3    0  503 -0.45567814710E+02 -0.29590851586E+02 -0.41420589011E+03  0.41778062860E+03  0.47000000000E+01 0.  1.
         13    1    4    4    0    0 -0.33102003252E+01  0.41290936794E+02 -0.38186688251E+02  0.56339347237E+02  0.00000000000E+00 0. -1.
        -14    1    4    4    0    0  0.21484408672E+02  0.79294400828E+01 -0.20349390522E+03  0.20477847860E+03  0.00000000000E+00 0.  1.
</event>
<event>
12    1  0.9962621E-001  0.1857512E+03  0.7818608E-02  0.1162605E+00
         21   -1    0    0  503  502  0.00000000000E+00  0.00000000000E+00  0.30197418332E+03  0.30197418332E+03  0.00000000000E+00 0.  1.
         21   -1    0    0  501  503 -0.00000000000E+00 -0.00000000000E+00 -0.17284346519E+03  0.17284346519E+03  0.00000000000E+00 0.  1.
          6    2    1    2  501    0  0.43076385939E+02 -0.51088563358E+02 -0.74566360071E+02  0.19914388876E+03  0.17214101791E+03 0.  0.
         24    2    3    3    0    0  0.14486373893E+02  0.42141605589E+01  0.22707200102E+02  0.83558355195E+02  0.78985869677E+02 0.  0.
         -6    2    1    2    0  502 -0.43076385939E+02  0.51088563358E+02  0.20369707821E+03  0.27567375975E+03  0.17331447087E+03 0.  0.
        -24    2    5    5    0    0 -0.11437787739E+02 -0.18186889316E+02  0.17379390024E+03  0.19372024065E+03  0.82834931929E+02 0.  0.
          5    1    3    3  501    0  0.28590012046E+02 -0.55302723917E+02 -0.97273560173E+02  0.11558553357E+03  0.47000000000E+01 0. -1.
        -13    1    4    4    0    0 -0.23877452789E+02  0.25781523704E+02  0.27896473841E+01  0.35250558133E+02  0.00000000000E+00 0.  1.
         14    1    4    4    0    0  0.38363826682E+02 -0.21567363145E+02  0.19917552718E+02  0.48307797062E+02  0.00000000000E+00 0. -1.
         -5    1    5    5    0  502 -0.31638598200E+02  0.69275452674E+02  0.29903177969E+02  0.81953519094E+02  0.47000000000E+01 0.  1.
         11    1    6    6    0    0  0.31951674846E+01  0.11923775750E+02  0.15467651684E+03  0.15516832919E+03  0.00000000000E+00 0. -1.
        -12    1    6    6    0    0 -0.14632955223E+02 -0.30110665066E+02  0.19117383401E+02  0.38551911462E+02  0.00000000000E+00 0.  1.
</event>
<event>
12    1  0.9962621E-001  0.3068690E+03  0.7818608E-02  0.1082011E+00
         21   -1    0    0  503  502  0.00000000000E+00  0.00000000000E+00  0.15979441187E+03  0.15979441187E+03  0.00000000000E+00 0.  1.
         21   -1    0    0  501  503 -0.00000000000E+00 -0.00000000000E+00 -0.74906569762E+03  0.74906569762E+03  0.00000000000E+00 0. -1.
          6    2    1    2  501    0  0.20524011913E+03 -0.15013700441E+03 -0.82693614650E+02  0.31658522116E+03  0.16947962048E+03 0.  0.
         24    2    3    3    0    0  0.18318700199E+03 -0.17821089824E+03 -0.64708418374E+02  0.27633549103E+03  0.82810157874E+02 0.  0.
         -6    2    1    2    0  502 -0.20524011913E+03  0.15013700441E+03 -0.50657767110E+03  0.59227488833E+03  0.17176722588E+03 0.  0.
        -24    2    5    5    0    0 -0.72722718285E+02  0.13082834651E+03 -0.23109347003E+03  0.28592978744E+03  0.77116803928E+02 0.  0.
          5    1    3    3  501    0  0.22053117148E+02  0.28073893828E+02 -0.17985196276E+02  0.40249730132E+02  0.47000000000E+01 0. -1.
        -13    1    4    4    0    0  0.31271076803E+02 -0.76858465026E+02 -0.39782435896E+02  0.92020356967E+02  0.00000000000E+00 0.  1.
         14    1    4    4    0    0  0.15191592518E+03 -0.10135243321E+03 -0.24925982478E+02  0.18431513406E+03  0.00000000000E+00 0. -1.
         -5    1    5    5    0  502 -0.13251740085E+03  0.19308657894E+02 -0.27548420107E+03  0.30634510088E+03  0.47000000000E+01 0.  1.
         11    1    6    6    0    0 -0.84651902748E+02  0.11389667687E+03 -0.22160322601E+03  0.26314708324E+03  0.00000000000E+00 0. -1.
        -12    1    6    6    0    0  0.11929184464E+02  0.16931669649E+02 -0.94902440216E+01  0.22782704200E+02  0.00000000000E+00 0.  1.
</event>
<event>
12    1  0.9962621E-001  0.1733135E+03  0.7818608E-02  0.1174496E+00
         21   -1    0    0  501  502  0.00000000000E+00  0.00000000000E+00  0.25287906091E+03  0.25287906091E+03  0.00000000000E+00 0.  1.
         21   -1    0    0  502  503 -0.00000000000E+00 -0.00000000000E+00 -0.14339653360E+03  0.14339653360E+03  0.00000000000E+00 0.  1.
         -6    2    1    2    0  503 -0.10226247634E+02 -0.21934304599E+02  0.13713177404E+03  0.22100380469E+03  0.17161546660E+03 0.  0.
        -24    2    3    3    0    0  0.52418317763E+02  0.15693478020E+02  0.92754071910E+02  0.13537867961E+03  0.82037209526E+02 0.  0.
          6    2    1    2  501    0  0.10226247634E+02  0.21934304599E+02 -0.27649246736E+02  0.17527178982E+03  0.17137686426E+03 0.  0.
         24    2    5    5    0    0  0.48739997892E+02  0.66337934592E+02 -0.10433984293E+02  0.11384340406E+03  0.77943207916E+02 0.  0.
          5    1    5    5  501    0 -0.38513750258E+02 -0.44403629993E+02 -0.17215262442E+02  0.61428385755E+02  0.47000000000E+01 0. -1.
        -11    1    6    6    0    0  0.65348240654E+01 -0.97629579204E+01  0.18692281055E+02  0.22077605032E+02  0.00000000000E+00 0.  1.
         12    1    6    6    0    0  0.42205173826E+02  0.76100892512E+02 -0.29126265348E+02  0.91765799032E+02  0.00000000000E+00 0. -1.
         -5    1    3    3    0  503 -0.62644565397E+02 -0.37627782619E+02  0.44377702134E+02  0.85625125082E+02  0.47000000000E+01 0.  1.
         13    1    4    4    0    0  0.16285458693E+01 -0.10869171860E+01  0.80473137445E+02  0.80496952742E+02  0.00000000000E+00 0. -1.
        -14    1    4    4    0    0  0.50789771894E+02  0.16780395206E+02  0.12280934465E+02  0.54881726865E+02  0.00000000000E+00 0.  1.
</event>
<event>
12    1  0.9962621E-001  0.1891713E+03  0.7818608E-02  0.1160508E+00
         21   -1    0    0  501  502  0.00000000000E+00  0.00000000000E+00  0.30159217635E+03  0.30159217635E+03  0.00000000000E+00 0. -1.
         21   -1    0    0  502  503 -0.00000000000E+00 -0.00000000000E+00 -0.11540653462E+03  0.11540653462E+03  0.00000000000E+00 0. -1.
         -6    2    1    2    0  503 -0.23044227522E+02 -0.70717266919E+02  0.10430267223E+03  0.21602042092E+03  0.17393621405E+03 0.  0.
        -24    2    3    3    0    0  0.26864748873E+01  0.20156187748E+02  0.87776097274E+02  0.12002421532E+03  0.79294892388E+02 0.  0.
          6    2    1    2  501    0  0.23044227522E+02  0.70717266919E+02  0.81882969502E+02  0.20097829005E+03  0.16779595977E+03 0.  0.
         24    2    5    5    0    0  0.61675010773E+02  0.65077848659E+02  0.13477456118E+02  0.12207616895E+03  0.81743598297E+02 0.  0.
          5    1    5    5  501    0 -0.38630783251E+02  0.56394182598E+01  0.68405513384E+02  0.78902121101E+02  0.47000000000E+01 0. -1.
        -13    1    6    6    0    0  0.44973833225E+02  0.36567204418E+01  0.32540198990E+02  0.55631662115E+02  0.00000000000E+00 0.  1.
         14    1    6    6    0    0  0.16701177548E+02  0.61421128217E+02 -0.19062742872E+02  0.66444506836E+02  0.00000000000E+00 0. -1.
         -5    1    3    3    0  503 -0.25730702409E+02 -0.90873454667E+02  0.16526574952E+02  0.95996205598E+02  0.47000000000E+01 0.  1.
         13    1    4    4    0    0  0.20131315007E+02 -0.15236624495E+02  0.74067411770E+02  0.78252195216E+02  0.00000000000E+00 0. -1.
        -14    1    4    4    0    0 -0.17444840120E+02  0.35392812243E+02  0.13708685504E+02  0.41772020104E+02  0.00000000000E+00 0.  1.
</event>
<event>
12    1  0.9962621E-001  0.1920838E+03  0.7818608E-02  0.1157129E+00
         21   -1    0    0  501  502  0.00000000000E+00  0.00000000000E+00  0.80124402373E+03  0.80124402373E+03  0.00000000000E+00 0.  1.
         21   -1    0    0  502  503 -0.00000000000E+00 -0.00000000000E+00 -0.45802953958E+02  0.45802953958E+02  0.00000000000E+00 0.  1.
         -6    2    1    2    0  503 -0.63419415632E+02  0.51965532115E+02  0.41571041343E+03  0.45794251798E+03  0.17370596745E+03 0.  0.
        -24    2    3    3    0    0 -0.10626941372E+03  0.17585863236E+02  0.25954616927E+03  0.29233018412E+03  0.80562222478E+02 0.  0.
          6    2    1    2  501    0  0.63419415632E+02 -0.51965532115E+02  0.33973065634E+03  0.38910445971E+03  0.17106409004E+03 0.  0.
         24    2    5    5    0    0  0.10311773601E+03 -0.84538784282E+01  0.24168165986E+03  0.27462775310E+03  0.79408075884E+02 0.  0.
          5    1    5    5  501    0 -0.39698320379E+02 -0.43511653686E+02  0.98048996480E+02  0.11447670662E+03  0.47000000000E+01 0. -1.
        -11    1    6    6    0    0  0.49015491623E+02 -0.43810863551E+02  0.11800778069E+03  0.13508421998E+03  0.00000000000E+00 0.  1.
         12    1    6    6    0    0  0.54102244387E+02  0.35356985122E+02  0.12367387917E+03  0.13954353311E+03  0.00000000000E+00 0. -1.
         -5    1    3    3    0  503  0.42849998090E+02  0.34379668878E+02  0.15616424416E+03  0.16561233385E+03  0.47000000000E+01 0.  1.
         13    1    4    4    0    0 -0.81322968987E+01 -0.11716549637E+02  0.10699334799E+01  0.14302326590E+02  0.00000000000E+00 0. -1.
        -14    1    4    4    0    0 -0.98137116823E+02  0.29302412873E+02  0.25847623579E+03  0.27802785753E+03  0.00000000000E+00 0.  1.
</event>
<event>
12    1  0.9962621E-001  0.3397425E+03  0.7818608E-02  0.1066911E+00
         21   -1    0    0  501  502  0.00000000000E+00  0.00000000000E+00  0.38241838761E+03  0.38241838761E+03  0.00000000000E+00 0. -1.
         21   -1    0    0  502  503 -0.00000000000E+00 -0.00000000000E+00 -0.30254950515E+03  0.30254950515E+03  0.00000000000E+00 0. -1.
         -6    2    1    2    0  503 -0.19965098480E+02 -0.29249039384E+03  0.22693312536E+02  0.34049958633E+03  0.17168502034E+03 0.  0.
        -24    2    3    3    0    0 -0.33707801423E+01 -0.55221625904E+02  0.33861552303E+02  0.10234279088E+03  0.79162187905E+02 0.  0.
          6    2    1    2  501    0  0.19965098480E+02  0.29249039384E+03  0.57175569926E+02  0.34446830642E+03  0.17158127137E+03 0.  0.
         24    2    5    5    0    0  0.66085305755E+02  0.18477775626E+03  0.76471921671E+02  0.22562586870E+03  0.80925836271E+02 0.  0.
          5    1    5    5  501    0 -0.46120207275E+02  0.10771263758E+03 -0.19296351744E+02  0.11884243773E+03  0.47000000000E+01 0. -1.
        -13    1    6    6    0    0  0.15488413328E+02  0.93289886534E+02 -0.25070373308E+01  0.94600101021E+02  0.00000000000E+00 0.  1.
         14    1    6    6    0    0  0.50596892427E+02  0.91487869727E+02  0.78978959002E+02  0.13102576768E+03  0.00000000000E+00 0. -1.
         -5    1    3    3    0  503 -0.16594318338E+02 -0.23726876794E+03 -0.11168239767E+02  0.23815679545E+03  0.47000000000E+01 0.  1.
         13    1    4    4    0    0 -0.63857181005E+00 -0.42914326715E+01 -0.24473549013E+02  0.24855155795E+02  0.00000000000E+00 0. -1.
        -14    1    4    4    0    0 -0.27322083322E+01 -0.50930193232E+02  0.58335101316E+02  0.77487635082E+02  0.00000000000E+00 0.  1.
</event>
<event>
12    1  0.9962621E-001  0.2725709E+03  0.7818608E-02  0.1099878E+00
         21   -1    0    0  503  502  0.00000000000E+00  0.00000000000E+00  0.59094448374E+03  0.59094448374E+03  0.00000000000E+00 0.  1.
         21   -1    0    0  501  503 -0.00000000000E+00 -0.00000000000E+00 -0.13110421735E+03  0.13110421735E+03  0.00000000000E+00 0. -1.
          6    2    1    2  501    0 -0.82907034704E+02 -0.19300643784E+03  0.15527526379E+03  0.31332542500E+03  0.17302413980E+03 0.  0.
         24    2    3    3    0    0 -0.10946380835E+03 -0.16743972488E+03  0.80816828173E+02  0.23010843351E+03  0.80000904058E+02 0.  0.
         -6    2    1    2    0  502  0.82907034704E+02  0.19300643784E+03  0.30456500260E+03  0.40872327609E+03  0.17369460026E+03 0.  0.
        -24    2    5    5    0    0  0.27373461120E+02  0.54986042072E+02  0.41201816868E+02  0.10620738388E+03  0.76221043556E+02 0.  0.
          5    1    3    3  501    0  0.26556773643E+02 -0.25566712955E+02  0.74458435620E+02  0.83216991490E+02  0.47000000000E+01 0. -1.
        -11    1    4    4    0    0 -0.42159557176E+02 -0.69097126295E+02  0.75706971069E+02  0.11083044073E+03  0.00000000000E+00 0.  1.
         12    1    4    4    0    0 -0.67304251171E+02 -0.98342598587E+02  0.51098571042E+01  0.11927799278E+03  0.00000000000E+00 0. -1.
         -5    1    5    5    0  502  0.55533573584E+02  0.13802039577E+03  0.26336318573E+03  0.30251589221E+03  0.47000000000E+01 0.  1.
         11    1    6    6    0    0  0.20940339960E+02  0.36145331012E+02 -0.16693175207E+02  0.44984940703E+02  0.00000000000E+00 0. -1.
        -12    1    6    6    0    0  0.64331211601E+01  0.18840711060E+02  0.57894992074E+02  0.61222443176E+02  0.00000000000E+00 0.  1.
</event>
<event>
12    1  0.9962621E-001  0.7843733E+03  0.7818608E-02  0.9583002E-01
         21   -1    0    0  501  502  0.00000000000E+00  0.00000000000E+00  0.10412627256E+04  0.10412627256E+04  0.00000000000E+00 0. -1.
         21   -1    0    0  502  503 -0.00000000000E+00 -0.00000000000E+00 -0.62435502629E+03  0.62435502629E+03  0.00000000000E+00 0. -1.
         -6    2    1    2    0  503  0.52448379833E+03  0.55781243399E+03  0.15030830632E+02  0.78428552854E+03  0.16923326557E+03 0.  0.
        -24    2    3    3    0    0  0.87123556419E+02  0.62411426569E+02 -0.99431759953E+01  0.12295964036E+03  0.59451712844E+02 0.  0.
          6    2    1    2  501    0 -0.52448379833E+03 -0.55781243399E+03  0.40187686867E+03  0.88133222335E+03  0.17030415177E+03 0.  0.
         24    2    5    5    0    0 -0.50177797535E+03 -0.56470204001E+03  0.39403267536E+03  0.85590305826E+03  0.81478619024E+02 0.  0.
          5    1    5    5  501    0 -0.22705822982E+02  0.68896060135E+01  0.78441933120E+01  0.25429165087E+02  0.47000000000E+01 0. -1.
        -11    1    6    6    0    0 -0.34767376954E+03 -0.37439794092E+03  0.30672764745E+03  0.59593012837E+03  0.00000000000E+00 0.  1.
         12    1    6    6    0    0 -0.15410420581E+03 -0.19030409909E+03  0.87305027908E+02  0.25997292989E+03  0.00000000000E+00 0. -1.
         -5    1    3    3    0  503  0.43736024191E+03  0.49540100742E+03  0.24974006627E+02  0.66132588818E+03  0.47000000000E+01 0.  1.
         11    1    4    4    0    0  0.20733567260E+02 -0.97567343896E+01  0.58153933435E+01  0.23640928007E+02  0.00000000000E+00 0. -1.
        -12    1    4    4    0    0  0.66389989159E+02  0.72168160958E+02 -0.15758569339E+02  0.99318712357E+02  0.00000000000E+00 0.  1.
</event>
<event>
12    1  0.9962621E-001  0.3889683E+03  0.7818608E-02  0.1047793E+00
         21   -1    0    0  501  502  0.00000000000E+00  0.00000000000E+00  0.56288118443E+03  0.56288118443E+03  0.00000000000E+00 0.  1.
         21   -1    0    0  502  503 -0.00000000000E+00 -0.00000000000E+00 -0.28916469323E+03  0.28916469323E+03  0.00000000000E+00 0. -1.
         -6    2    1    2    0  503 -0.30371184034E+03 -0.16901138620E+03  0.25280277985E+03  0.46390253524E+03  0.17461553790E+03 0.  0.
        -24    2    3    3    0    0 -0.31689785109E+03 -0.15212035690E+03  0.25514771774E+03  0.44183975019E+03  0.80976267949E+02 0.  0.
          6    2    1    2  501    0  0.30371184034E+03  0.16901138620E+03  0.20913711346E+02  0.38814334242E+03  0.17149968022E+03 0.  0.
         24    2    5    5    0    0  0.15352893997E+03  0.22272674321E+02  0.24922999660E+02  0.17808307126E+03  0.83816567144E+02 0.  0.
          5    1    5    5  501    0  0.15018290037E+03  0.14673871188E+03 -0.40092883137E+01  0.21006027116E+03  0.47000000000E+01 0. -1.
        -13    1    6    6    0    0  0.61409783892E+02 -0.25748807526E+02 -0.12329172679E+02  0.67721275428E+02  0.00000000000E+00 0.  1.
         14    1    6    6    0    0  0.92119156079E+02  0.48021481848E+02  0.37252172339E+02  0.11036179583E+03  0.00000000000E+00 0. -1.
         -5    1    3    3    0  503  0.13186010754E+02 -0.16891029299E+02 -0.23449378889E+01  0.22062785048E+02  0.47000000000E+01 0.  1.
         11    1    4    4    0    0 -0.79983971175E+02 -0.19766616024E+02  0.25248166873E+02  0.86172064408E+02  0.00000000000E+00 0. -1.
        -12    1    4    4    0    0 -0.23691387992E+03 -0.13235374088E+03  0.22989955087E+03  0.35566768579E+03  0.00000000000E+00 0.  1.
</event>
<event>
12    1  0.9962621E-001  0.2152453E+03  0.7818608E-02  0.1138437E+00
         21   -1    0    0  501  502  0.00000000000E+00  0.00000000000E+00  0.43958656540E+02  0.43958656540E+02  0.00000000000E+00 0.  1.
         21   -1    0    0  502  503 -0.00000000000E+00 -0.00000000000E+00 -0.12036418498E+04  0.12036418498E+04  0.00000000000E+00 0.  1.
         -6    2    1    2    0  503  0.10213420836E+03  0.67990793197E+02 -0.33710121064E+03  0.39732310986E+03  0.17080480948E+03 0.  0.
        -24    2    3    3    0    0  0.11958877291E+03  0.80655164724E+02 -0.33659981293E+03  0.37524620951E+03  0.81875231204E+02 0.  0.
          6    2    1    2  501    0 -0.10213420836E+03 -0.67990793197E+02 -0.82258198261E+03  0.85027739647E+03  0.17685131706E+03 0.  0.
         24    2    5    5    0    0 -0.26619003796E+02 -0.10235909676E+03 -0.51963967598E+03  0.53614389371E+03  0.78986871374E+02 0.  0.
          5    1    5    5  501    0 -0.75515204567E+02  0.34368303563E+02 -0.30294230663E+03  0.31413350276E+03  0.47000000000E+01 0. -1.
        -11    1    6    6    0    0  0.13223740714E+02 -0.52407920972E+02 -0.36255086039E+03  0.36655774970E+03  0.00000000000E+00 0.  1.
         12    1    6    6    0    0 -0.39842744510E+02 -0.49951175788E+02 -0.15708881559E+03  0.16958614400E+03  0.00000000000E+00 0. -1.
         -5    1    3    3    0  503 -0.17454564546E+02 -0.12664371527E+02 -0.50139770932E+00  0.22076900356E+02  0.47000000000E+01 0.  1.
         11    1    4    4    0    0  0.61601756327E+02  0.70280771589E+02 -0.27301507174E+03  0.28856783021E+03  0.00000000000E+00 0. -1.
        -12    1    4    4    0    0  0.57987016582E+02  0.10374393135E+02 -0.63584741188E+02  0.86678379294E+02  0.00000000000E+00 0.  1.
</event>
<event>
12    1  0.9962621E-001  0.1797729E+03  0.7818608E-02  0.1168320E+00
         21   -1    0    0  501  502  0.00000000000E+00  0.00000000000E+00  0.26309433345E+03  0.26309433345E+03  0.00000000000E+00 0. -1.
         21   -1    0    0  502  503 -0.00000000000E+00 -0.00000000000E+00 -0.27832703795E+03  0.27832703795E+03  0.00000000000E+00 0. -1.
         -6    2    1    2    0  503  0.49201601554E+02 -0.64360242041E+01  0.19524950505E+03  0.26540663568E+03  0.17278915776E+03 0.  0.
        -24    2    3    3    0    0 -0.40966719113E+02 -0.64337361366E+01  0.98274099653E+02  0.13290514396E+03  0.79286276190E+02 0.  0.
          6    2    1    2  501    0 -0.49201601554E+02  0.64360242041E+01 -0.21048220956E+03  0.27601473572E+03  0.17152012649E+03 0.  0.
         24    2    5    5    0    0 -0.36090017109E+02  0.56542472814E+02 -0.72856680876E+02  0.12889082201E+03  0.82493681477E+02 0.  0.
          5    1    5    5  501    0 -0.13111584445E+02 -0.50106448610E+02 -0.13762552868E+03  0.14712391371E+03  0.47000000000E+01 0. -1.
        -11    1    6    6    0    0  0.24250333258E+02  0.21691321161E+01 -0.10613999167E+02  0.26560135082E+02  0.00000000000E+00 0.  1.
         12    1    6    6    0    0 -0.60340350367E+02  0.54373340698E+02 -0.62242681709E+02  0.10233068693E+03  0.00000000000E+00 0. -1.
         -5    1    3    3    0  503  0.90168320668E+02 -0.22880674339E-02  0.96975405400E+02  0.13250149173E+03  0.47000000000E+01 0.  1.
         11    1    4    4    0    0  0.13792660530E+02  0.21165470979E+02  0.45312181903E+02  0.51878786369E+02  0.00000000000E+00 0. -1.
        -12    1    4    4    0    0 -0.54759379643E+02 -0.27599207116E+02  0.52961917750E+02  0.81026357588E+02  0.00000000000E+00 0.  1.
</event>
<event>
12    1  0.9962621E-001  0.1941850E+03  0.7818608E-02  0.1155163E+00
         21   -1    0    0  503  502  0.00000000000E+00  0.00000000000E+00  0.75320349661E+02  0.75320349661E+02  0.00000000000E+00 0. -1.
         21   -1    0    0  501  503 -0.00000000000E+00 -0.00000000000E+00 -0.11541626253E+04  0.11541626253E+04  0.00000000000E+00 0. -1.
          6    2    1    2  501    0 -0.88665833989E+02 -0.25153432613E+01 -0.73945674671E+02  0.20599628363E+03  0.17058296808E+03 0.  0.
         24    2    3    3    0    0 -0.43950446231E+02 -0.45101267459E+02 -0.96323847652E+02  0.14014873646E+03  0.79985115208E+02 0.  0.
         -6    2    1    2    0  502  0.88665833989E+02  0.25153432613E+01 -0.10048966010E+04  0.10234866913E+04  0.17274221148E+03 0.  0.
        -24    2    5    5    0    0  0.31924176988E+02 -0.37966452776E+02 -0.83156662561E+03  0.83660768821E+03  0.77128247310E+02 0.  0.
          5    1    3    3  501    0 -0.44715387758E+02  0.42585924198E+02  0.22378172981E+02  0.65847547168E+02  0.47000000000E+01 0. -1.
        -13    1    4    4    0    0 -0.40331443902E+02 -0.67692780717E+02 -0.71690684183E+02  0.10652930173E+03  0.00000000000E+00 0.  1.
         14    1    4    4    0    0 -0.36190023287E+01  0.22591513258E+02 -0.24633163470E+02  0.33619434731E+02  0.00000000000E+00 0. -1.
         -5    1    5    5    0  502  0.56741657002E+02  0.40481796037E+02 -0.17332997535E+03  0.18687900311E+03  0.47000000000E+01 0.  1.
         13    1    6    6    0    0 -0.98380304535E+01 -0.19217413613E+02 -0.61458705436E+02  0.65140373833E+02  0.00000000000E+00 0. -1.
        -14    1    6    6    0    0  0.41762207441E+02 -0.18749039163E+02 -0.77010792017E+03  0.77146731437E+03  0.00000000000E+00 0.  1.
</event>
<event>
12    1  0.9962621E-001  0.2284635E+03  0.7818608E-02  0.1127816E+00
         21   -1    0    0  503  502  0.00000000000E+00  0.00000000000E+00  0.42689881515E+03  0.42689881515E+03  0.00000000000E+00 0. -1.
         21   -1    0    0  501  503 -0.00000000000E+00 -0.00000000000E+00 -0.12443160994E+03  0.12443160994E+03  0.00000000000E+00 0.  1.
          6    2    1    2  501    0 -0.14693954190E+03 -0.32177756750E+02  0.11249438439E+03  0.25420207884E+03  0.17128068591E+03 0.  0.
         24    2    3    3    0    0 -0.25302994536E+02 -0.18199747788E+01  0.97560084749E+02  0.12786060550E+03  0.78656280498E+02 0.  0.
         -6    2    1    2    0  502  0.14693954190E+03  0.32177756750E+02  0.18997282082E+03  0.29712834625E+03  0.17195622842E+03 0.  0.
        -24    2    5    5    0    0  0.76569477068E+02 -0.47295697005E+02  0.94361406579E+02  0.15418916894E+03  0.82282786744E+02 0.  0.
          5    1    3    3  501    0 -0.12163654736E+03 -0.30357781971E+02  0.14934299643E+02  0.12634147334E+03  0.47000000000E+01 0. -1.
        -11    1    4    4    0    0 -0.26063932131E+02  0.35637043513E+02  0.42648248906E+02  0.61385670667E+02  0.00000000000E+00 0.  1.
         12    1    4    4    0    0  0.76093759585E+00 -0.37457018292E+02  0.54911835843E+02  0.66474934832E+02  0.00000000000E+00 0. -1.
         -5    1    5    5    0  502  0.70370064830E+02  0.79473453755E+02  0.95611414242E+02  0.14293917731E+03  0.47000000000E+01 0.  1.
         11    1    6    6    0    0 -0.13414068643E+02 -0.22021235624E+02  0.34975339744E+02  0.43452807115E+02  0.00000000000E+00 0. -1.
        -12    1    6    6    0    0  0.89983545712E+02 -0.25274461381E+02  0.59386066835E+02  0.11073636183E+03  0.00000000000E+00 0.  1.
</event>
<event>
12    1  0.9962621E-001  0.1994785E+03  0.7818608E-02  0.1151664E+00
         21   -1    0    0  503  502  0.00000000000E+00  0.00000000000E+00  0.41388271409E+02  0.41388271409E+02  0.00000000000E+00 0. -1.
         21   -1    0    0  501  503 -0.00000000000E+00 -0.00000000000E+00 -0.95706972683E+03  0.95706972683E+03  0.00000000000E+00 0. -1.
          6    2    1    2  501    0 -0.71216821213E+01  0.85109932899E+02 -0.55183031971E+03  0.58677794289E+03  0.18026989068E+03 0.  0.
         24    2    3    3    0    0 -0.14383429522E+02 -0.10184926827E+02 -0.25936607715E+03  0.27905848228E+03  0.10145077022E+03 0.  0.
         -6    2    1    2    0  502  0.71216821213E+01 -0.85109932899E+02 -0.36385113572E+03  0.41168005535E+03  0.17262213061E+03 0.  0.
        -24    2    5    5    0    0 -0.37209620110E+02 -0.90253959862E+02 -0.33550746771E+03  0.35860295212E+03  0.80625574612E+02 0.  0.
          5    1    3    3  501    0  0.72617474004E+01  0.95294859726E+02 -0.29246424256E+03  0.30771946062E+03  0.47000000000E+01 0. -1.
        -13    1    4    4    0    0 -0.13897149557E+02  0.22045422917E+00 -0.26622423687E+03  0.26658680324E+03  0.00000000000E+00 0.  1.
         14    1    4    4    0    0 -0.48627996502E+00 -0.10405381056E+02  0.68581597246E+01  0.12471679034E+02  0.00000000000E+00 0. -1.
         -5    1    5    5    0  502  0.44331302232E+02  0.51440269637E+01 -0.28343668010E+02  0.53077103229E+02  0.47000000000E+01 0.  1.
         11    1    6    6    0    0 -0.48232366341E+02 -0.99679398722E+02 -0.31099278134E+03  0.33011945374E+03  0.00000000000E+00 0. -1.
        -12    1    6    6    0    0  0.11022746231E+02  0.94254388594E+01 -0.24514686362E+02  0.28483498373E+02  0.00000000000E+00 0.  1.
</event>
<event>
12    1  0.9962621E-001  0.2071606E+03  0.7818608E-02  0.1144601E+00
         21   -1    0    0  503  502  0.00000000000E+00  0.00000000000E+00  0.37199878591E+02  0.37199878591E+02  0.00000000000E+00 0. -1.
         21   -1    0    0  501  503 -0.00000000000E+00 -0.00000000000E+00 -0.12293105055E+04  0.12293105055E+04  0.00000000000E+00 0. -1.
          6    2    1    2  501    0  0.40538149235E+02  0.10132755633E+03 -0.42364146323E+03  0.47157991010E+03  0.17608210309E+03 0.  0.
         24    2    3    3    0    0  0.36373685010E+02 -0.68206301466E+01 -0.27119920918E+03  0.28456626402E+03  0.77842029792E+02 0.  0.
         -6    2    1    2    0  502 -0.40538149235E+02 -0.10132755633E+03 -0.76846916368E+03  0.79493047399E+03  0.17163620755E+03 0.  0.
        -24    2    5    5    0    0 -0.15865821457E+01 -0.23074711621E+02 -0.16294215035E+03  0.18310877925E+03  0.80272791899E+02 0.  0.
          5    1    3    3  501    0  0.41644642251E+01  0.10814818647E+03 -0.15244225404E+03  0.18701364607E+03  0.47000000000E+01 0. -1.
        -13    1    4    4    0    0  0.52207852288E+02  0.18521467440E+02 -0.15558118536E+03  0.16514905339E+03  0.00000000000E+00 0.  1.
         14    1    4    4    0    0 -0.15834167278E+02 -0.25342097587E+02 -0.11561802382E+03  0.11941721063E+03  0.00000000000E+00 0. -1.
         -5    1    5    5    0  502 -0.38951567089E+02 -0.78252844704E+02 -0.60552701333E+03  0.61182169474E+03  0.47000000000E+01 0.  1.
         11    1    6    6    0    0 -0.13750848668E+02  0.26737951246E+02 -0.81498105228E+02  0.86867399130E+02  0.00000000000E+00 0. -1.
        -12    1    6    6    0    0  0.12164266523E+02 -0.49812662867E+02 -0.81444045120E+02  0.96241380120E+02  0.00000000000E+00 0.  1.
</event>
<event>
12    1  0.9962621E-001  0.1838247E+03  0.7818608E-02  0.1165690E+00
         21   -1    0    0  503  502  0.00000000000E+00  0.00000000000E+00  0.53107946641E+03  0.53107946641E+03  0.00000000000E+00 0. -1.
         21   -1    0    0  501  503 -0.00000000000E+00 -0.00000000000E+00 -0.92542758063E+02  0.92542758063E+02  0.00000000000E+00 0. -1.
          6    2    1    2  501    0  0.33776841685E+02  0.25072855633E+02  0.39746848333E+03  0.43526588358E+03  0.17235333197E+03 0.  0.
         24    2    3    3    0    0 -0.21145216165E+02  0.19546400157E+02  0.88838607745E+02  0.12170334715E+03  0.78039890794E+02 0.  0.
         -6    2    1    2    0  502 -0.33776841685E+02 -0.25072855633E+02  0.41068225017E+02  0.18835634090E+03  0.17894688856E+03 0.  0.
        -24    2    5    5    0    0  0.77102815212E+01  0.40058936274E+02 -0.15859593841E+02  0.92303239598E+02  0.81266195351E+02 0.  0.
          5    1    3    3  501    0  0.54922057850E+02  0.55264554767E+01  0.30862987559E+03  0.31356253643E+03  0.47000000000E+01 0. -1.
        -13    1    4    4    0    0  0.10069075400E+02  0.28473244516E+02  0.35067082808E+01  0.30404094060E+02  0.00000000000E+00 0.  1.
         14    1    4    4    0    0 -0.31214291566E+02 -0.89268443587E+01  0.85331899464E+02  0.91299253087E+02  0.00000000000E+00 0. -1.
         -5    1    5    5    0  502 -0.41487123206E+02 -0.65131791908E+02  0.56927818858E+02  0.96053101298E+02  0.47000000000E+01 0.  1.
         11    1    6    6    0    0 -0.27326225646E+02  0.43425135733E+02  0.47307311913E+01  0.51525186454E+02  0.00000000000E+00 0. -1.
        -12    1    6    6    0    0  0.35036507167E+02 -0.33661994592E+01 -0.20590325032E+02  0.40778053144E+02  0.00000000000E+00 0.  1.
</event>
<event>
12    1  0.9962621E-001  0.1835383E+03  0.7818608E-02  0.1165276E+00
         21   -1    0    0  503  502  0.00000000000E+00  0.00000000000E+00  0.34797759850E+03  0.34797759850E+03  0.00000000000E+00 0. -1.
         21   -1    0    0  501  503 -0.00000000000E+00 -0.00000000000E+00 -0.21929452736E+03  0.21929452736E+03  0.00000000000E+00 0. -1.
          6    2    1    2  501    0 -0.98034565021E+01 -0.65453493551E+02 -0.14898032996E+03  0.23639259701E+03  0.17119010961E+03 0.  0.
         24    2    3    3    0    0 -0.10871197358E+02 -0.71978082961E+02 -0.27241690021E+02  0.11438400390E+03  0.83919981621E+02 0.  0.
         -6    2    1    2    0  502  0.98034565021E+01  0.65453493551E+02  0.27766340109E+03  0.33087952885E+03  0.16734404897E+03 0.  0.
        -24    2    5    5    0    0 -0.16703791311E+00 -0.21385159555E+02  0.18882517696E+03  0.20616111601E+03  0.79938134528E+02 0.  0.
          5    1    3    3  501    0  0.10677408560E+01  0.65245894102E+01 -0.12173863994E+03  0.12200859311E+03  0.47000000000E+01 0. -1.
        -13    1    4    4    0    0  0.23562901063E+02 -0.48644676480E+02 -0.43844443666E+02  0.69597773648E+02  0.00000000000E+00 0.  1.
         14    1    4    4    0    0 -0.34434098421E+02 -0.23333406481E+02  0.16602753645E+02  0.44786230257E+02  0.00000000000E+00 0. -1.
         -5    1    5    5    0  502  0.99704944152E+01  0.86838653106E+02  0.88838224138E+02  0.12471841283E+03  0.47000000000E+01 0.  1.
         11    1    6    6    0    0 -0.20411771734E+02 -0.45771843885E+02  0.13027884885E+03  0.13958610452E+03  0.00000000000E+00 0. -1.
        -12    1    6    6    0    0  0.20244733821E+02  0.24386684330E+02  0.58546328107E+02  0.66575011491E+02  0.00000000000E+00 0.  1.
</event>
<event>
12    1  0.9962621E-001  0.2210113E+03  0.7818608E-02  0.1133168E+00
         21   -1    0    0  503  502  0.00000000000E+00  0.00000000000E+00  0.11908922370E+03  0.11908922370E+03  0.00000000000E+00 0.  1.
         21   -1    0    0  501  503 -0.00000000000E+00 -0.00000000000E+00 -0.56745538764E+03  0.56745538764E+03  0.00000000000E+00 0.  1.
          6    2    1    2  501    0  0.10290893516E+03 -0.92132873484E+02 -0.43317894662E+02  0.22521641675E+03  0.17253196534E+03 0.  0.
         24    2    3    3    0    0 -0.12470080268E+02 -0.60039656647E+02 -0.32850206726E+02  0.10490866862E+03  0.78526615856E+02 0.  0.
         -6    2    1    2    0  502 -0.10290893516E+03  0.92132873484E+02 -0.40504826928E+03  0.46132819460E+03  0.17228141911E+03 0.  0.
        -24    2    5    5    0    0 -0.35627399534E+02  0.12659679162E+03 -0.29320477504E+03  0.32625183140E+03  0.56348541632E+02 0.  0.
          5    1    3    3  501    0  0.11537901543E+03 -0.32093216837E+02 -0.10467687936E+02  0.12030774813E+03  0.47000000000E+01 0. -1.
        -13    1    4    4    0    0 -0.93703487604E+01  0.13460524869E+02  0.10544392677E+02  0.19498035351E+02  0.00000000000E+00 0.  1.
         14    1    4    4    0    0 -0.30997315080E+01 -0.73500181516E+02 -0.43394599403E+02  0.85410633270E+02  0.00000000000E+00 0. -1.
         -5    1    5    5    0  502 -0.67281535628E+02 -0.34463918133E+02 -0.11184349424E+03  0.13507636320E+03  0.47000000000E+01 0.  1.
         13    1    6    6    0    0  0.12805232892E+02  0.11432333762E+02 -0.24413240373E+02  0.29844238141E+02  0.00000000000E+00 0. -1.
        -14    1    6    6    0    0 -0.48432632426E+02  0.11516445785E+03 -0.26879153466E+03  0.29640759326E+03  0.00000000000E+00 0.  1.
</event>
<event>
12    1  0.9962621E-001  0.2069039E+03  0.7818608E-02  0.1144221E+00
         21   -1    0    0  503  502  0.00000000000E+00  0.00000000000E+00  0.43523364863E+02  0.43523364863E+02  0.00000000000E+00 0. -1.
         21   -1    0    0  501  503 -0.00000000000E+00 -0.00000000000E+00 -0.10009422741E+04  0.10009422741E+04  0.00000000000E+00 0. -1.
          6    2    1    2  501    0  0.89818427539E+02 -0.68191446446E+02 -0.55436602225E+03  0.59140842756E+03  0.17240886947E+03 0.  0.
         24    2    3    3    0    0  0.71592738693E+02 -0.11366717518E+03 -0.40525618256E+03  0.43438597080E+03  0.80080279534E+02 0.  0.
         -6    2    1    2    0  502 -0.89818427539E+02  0.68191446446E+02 -0.40305288697E+03  0.45305721138E+03  0.17346983541E+03 0.  0.
        -24    2    5    5    0    0 -0.11282200825E+03  0.66439650049E+02 -0.40155930336E+03  0.42946580811E+03  0.77768718508E+02 0.  0.
          5    1    3    3  501    0  0.18225688846E+02  0.45475728737E+02 -0.14910983968E+03  0.15702245677E+03  0.47000000000E+01 0. -1.
        -11    1    4    4    0    0  0.71033929619E+02 -0.89804411268E+02 -0.38901275799E+03  0.40551396686E+03  0.00000000000E+00 0.  1.
         12    1    4    4    0    0  0.55880907355E+00 -0.23862763915E+02 -0.16243424571E+02  0.28872003931E+02  0.00000000000E+00 0. -1.
         -5    1    5    5    0  502  0.23003580712E+02  0.17517963969E+01 -0.14935836082E+01  0.23591403269E+02  0.47000000000E+01 0.  1.
         13    1    6    6    0    0 -0.23745034910E+02 -0.60951835307E+01 -0.22121486440E+02  0.33020268131E+02  0.00000000000E+00 0. -1.
        -14    1    6    6    0    0 -0.89076973341E+02  0.72534833580E+02 -0.37943781692E+03  0.39644553998E+03  0.00000000000E+00 0.  1.
</event>
<event>
12    1  0.9962621E-001  0.2057203E+03  0.7818608E-02  0.1145171E+00
         21   -1    0    0  503  502  0.00000000000E+00  0.00000000000E+00  0.24770336454E+03  0.24770336454E+03  0.00000000000E+00 0. -1.
         21   -1    0    0  501  503 -0.00000000000E+00 -0.00000000000E+00 -0.17184099717E+03  0.17184099717E+03  0.00000000000E+00 0. -1.
          6    2    1    2  501    0 -0.88995830448E+02  0.70409387875E+02  0.17252125536E+02  0.20644241431E+03  0.17158990312E+03 0.  0.
         24    2    3    3    0    0 -0.73947245197E+02  0.51627933326E+02  0.75431240230E+02  0.14330682736E+03  0.81934950991E+02 0.  0.
         -6    2    1    2    0  502  0.88995830448E+02 -0.70409387875E+02  0.58610241836E+02  0.21310194740E+03  0.17058587222E+03 0.  0.
        -24    2    5    5    0    0  0.12846096117E+02  0.25370325670E+00 -0.15981070167E+02  0.85125354568E+02  0.82618671231E+02 0.  0.
          5    1    3    3  501    0 -0.15048585251E+02  0.18781454550E+02 -0.58179114694E+02  0.63135586950E+02  0.47000000000E+01 0. -1.
        -11    1    4    4    0    0 -0.68438579796E+02  0.18582684769E+01  0.26853692294E+02  0.73541914281E+02  0.00000000000E+00 0.  1.
         12    1    4    4    0    0 -0.55086654009E+01  0.49769664849E+02  0.48577547936E+02  0.69764913080E+02  0.00000000000E+00 0. -1.
         -5    1    5    5    0  502  0.76149734331E+02 -0.70663091132E+02  0.74591312003E+02  0.12797659283E+03  0.47000000000E+01 0.  1.
         13    1    6    6    0    0  0.14071084345E+02  0.36325299054E+02  0.10517205025E+02  0.40350147057E+02  0.00000000000E+00 0. -1.
        -14    1    6    6    0    0 -0.12249882285E+01 -0.36071595797E+02 -0.26498275192E+02  0.44775207511E+02  0.00000000000E+00 0.  1.
</event>
<event>
12    1  0.1705330E+000  0.2670280E+03  0.7818608E-02  0.1103141E+00
         21   -1    0    0  501  502  0.00000000000E+00  0.00000000000E+00  0.39556521938E+03  0.39556521938E+03  0.00000000000E+00 0.  1.
         21   -1    0    0  502  503 -0.00000000000E+00 -0.00000000000E+00 -0.51820859479E+03  0.51820859479E+03  0.00000000000E+00 0.  1.
         -6    2    1    2    0  503  0.19823490652E+03 -0.47191008024E+02  0.30805583813E+03  0.40701372808E+03  0.17099036827E+03 0.  0.
        -24    2    3    3    0    0  0.80972358662E+02  0.16137519769E+02  0.69666866944E+02  0.13386102510E+03  0.79046564003E+02 0.  0.
          6    2    1    2  501    0 -0.19823490652E+03  0.47191008024E+02 -0.43069921354E+03  0.50676008609E+03  0.17256854552E+03 0.  0.
         24    2    5    5    0    0 -0.18475233429E+03  0.90503601617E+02 -0.36933144607E+03  0.43030190535E+03  0.80185321326E+02 0.  0.
          5    1    5    5  501    0 -0.13482572231E+02 -0.43312593593E+02 -0.61367767469E+02  0.76458180739E+02  0.47000000000E+01 0. -1.
        -11    1    6    6    0    0 -0.13048261376E+02  0.33489919191E+02 -0.35062367284E+02  0.50211566515E+02  0.00000000000E+00 0.  1.
         12    1    6    6    0    0 -0.17170407292E+03  0.57013682425E+02 -0.33426907879E+03  0.38009033883E+03  0.00000000000E+00 0. -1.
         -5    1    3    3    0  503  0.11726254786E+03 -0.63328527792E+02  0.23838897118E+03  0.27315270298E+03  0.47000000000E+01 0.  1.
         11    1    4    4    0    0  0.78004116781E+02 -0.28459382370E+01  0.80229224135E+02  0.11193511515E+03  0.00000000000E+00 0. -1.
        -12    1    4    4    0    0  0.29682418815E+01  0.18983458006E+02 -0.10562357191E+02  0.21925909951E+02  0.00000000000E+00 0.  1.
</event>
<event>
12    1  0.9962621E-001  0.1796198E+03  0.7818608E-02  0.1169657E+00
         21   -1    0    0  503  502  0.00000000000E+00  0.00000000000E+00  0.18289678771E+03  0.18289678771E+03  0.00000000000E+00 0.  1.
         21   -1    0    0  501  503 -0.00000000000E+00 -0.00000000000E+00 -0.18636660590E+03  0.18636660590E+03  0.00000000000E+00 0.  1.
          6    2    1    2  501    0 -0.11369019058E+02 -0.15607409536E+02  0.52023804944E+02  0.18700202410E+03  0.17857893188E+03 0.  0.
         24    2    3    3    0    0  0.33037817258E+02  0.25525574259E+02  0.79612204123E+02  0.12031544947E+03  0.79966568169E+02 0.  0.
         -6    2    1    2    0  502  0.11369019058E+02  0.15607409536E+02 -0.55493623134E+02  0.18226136951E+03  0.17253063143E+03 0.  0.
        -24    2    5    5    0    0 -0.47649951646E+02  0.29616943639E+01  0.14124843969E+02  0.90001009785E+02  0.74975869584E+02 0.  0.
          5    1    3    3  501    0 -0.44406836315E+02 -0.41132983795E+02 -0.27588399178E+02  0.66686574636E+02  0.47000000000E+01 0. -1.
        -11    1    4    4    0    0  0.28542660448E+01  0.21627388527E+02  0.86418528524E+02  0.89129416252E+02  0.00000000000E+00 0.  1.
         12    1    4    4    0    0  0.30183551213E+02  0.38981857325E+01 -0.68063244014E+01  0.31186033215E+02  0.00000000000E+00 0. -1.
         -5    1    5    5    0  502  0.59018970704E+02  0.12645715172E+02 -0.69618467102E+02  0.92260359726E+02  0.47000000000E+01 0.  1.
         13    1    6    6    0    0  0.27783832914E+01  0.17076225612E+02  0.30558919909E+02  0.35116441746E+02  0.00000000000E+00 0. -1.
        -14    1    6    6    0    0 -0.50428334937E+02 -0.14114531248E+02 -0.16434075940E+02  0.54884568040E+02  0.00000000000E+00 0.  1.
</event>
<event>
12    1  0.9962621E-001  0.2167078E+03  0.7818608E-02  0.1136392E+00
         21   -1    0    0  501  502  0.00000000000E+00  0.00000000000E+00  0.64662715341E+03  0.64662715341E+03  0.00000000000E+00 0.  1.
         21   -1    0    0  502  503 -0.00000000000E+00 -0.00000000000E+00 -0.76390837559E+02  0.76390837559E+02  0.00000000000E+00 0.  1.
         -6    2    1    2    0  503 -0.16018663762E+01 -0.13104147508E+03  0.36583469484E+03  0.42512153472E+03  0.17239159250E+03 0.  0.
        -24    2    3    3    0    0  0.42336011837E+02 -0.31942020599E+02  0.99190136740E+02  0.13724543397E+03  0.78644741336E+02 0.  0.
          6    2    1    2  501    0  0.16018663762E+01  0.13104147508E+03  0.20440162101E+03  0.29789645625E+03  0.17259154616E+03 0.  0.
         24    2    5    5    0    0  0.58576288620E+02  0.12206854980E+03  0.16619685045E+03  0.22855460257E+03  0.79271059142E+02 0.  0.
          5    1    5    5  501    0 -0.56974422244E+02  0.89729252845E+01  0.38204770555E+02  0.69341853677E+02  0.47000000000E+01 0. -1.
        -11    1    6    6    0    0  0.67314631467E+02  0.10286304704E+03  0.16708556126E+03  0.20743589573E+03  0.00000000000E+00 0.  1.
         12    1    6    6    0    0 -0.87383428472E+01  0.19205502756E+02 -0.88871080214E+00  0.21118706843E+02  0.00000000000E+00 0. -1.
         -5    1    3    3    0  503 -0.43937878214E+02 -0.99099454481E+02  0.26664455810E+03  0.28787610075E+03  0.47000000000E+01 0.  1.
         13    1    4    4    0    0  0.47929466440E+02 -0.31216436778E+02  0.11060127987E+03  0.12451643582E+03  0.00000000000E+00 0. -1.
        -14    1    4    4    0    0 -0.55934546022E+01 -0.72558382153E+00 -0.11411143135E+02  0.12728998150E+02  0.00000000000E+00 0.  1.
</event>
<event>
12    1  0.9962621E-001  0.1828932E+03  0.7818608E-02  0.1166186E+00
         21   -1    0    0  501  502  0.00000000000E+00  0.00000000000E+00  0.25752490748E+02  0.25752490748E+02  0.00000000000E+00 0. -1.
         21   -1    0    0  502  503 -0.00000000000E+00 -0.00000000000E+00 -0.14730244024E+04  0.14730244024E+04  0.00000000000E+00 0. -1.
         -6    2    1    2    0  503 -0.17632091373E+02  0.42226841050E+02 -0.10134755970E+04  0.10298459688E+04  0.17707607670E+03 0.  0.
        -24    2    3    3    0    0  0.48662824567E+02 -0.85099193875E+01 -0.68838846718E+03  0.69417802763E+03  0.74591977284E+02 0.  0.
          6    2    1    2  501    0  0.17632091373E+02 -0.42226841050E+02 -0.43379631466E+03  0.46893092438E+03  0.17211325480E+03 0.  0.
         24    2    5    5    0    0 -0.91048939907E+00  0.11008568286E+02 -0.91908281492E+02  0.12239470213E+03  0.80070677127E+02 0.  0.
          5    1    5    5  501    0  0.18542580772E+02 -0.53235409337E+02 -0.34188803317E+03  0.34653622225E+03  0.47000000000E+01 0. -1.
        -13    1    6    6    0    0 -0.19318772399E+02 -0.27398784076E+02 -0.61562479871E+02  0.70098839246E+02  0.00000000000E+00 0.  1.
         14    1    6    6    0    0  0.18408283000E+02  0.38407352363E+02 -0.30345801622E+02  0.52295862882E+02  0.00000000000E+00 0. -1.
         -5    1    3    3    0  503 -0.66294915940E+02  0.50736760438E+02 -0.32508712983E+03  0.33566794115E+03  0.47000000000E+01 0.  1.
         13    1    4    4    0    0  0.31806925656E+01  0.15010488182E+02 -0.45411594500E+03  0.45437509072E+03  0.00000000000E+00 0. -1.
        -14    1    4    4    0    0  0.45482132001E+02 -0.23520407570E+02 -0.23427252218E+03  0.23980293691E+03  0.00000000000E+00 0.  1.
</event>
<event>
12    1  0.9962621E-001  0.2459326E+03  0.7818608E-02  0.1116151E+00
         21   -1    0    0  503  502  0.00000000000E+00  0.00000000000E+00  0.35977866841E+03  0.35977866841E+03  0.00000000000E+00 0.  1.
         21   -1    0    0  501  503 -0.00000000000E+00 -0.00000000000E+00 -0.16709251340E+03  0.16709251340E+03  0.00000000000E+00 0. -1.
          6    2    1    2  501    0 -0.13757637138E+03  0.10429818740E+03  0.92542409350E+02  0.26133091699E+03  0.17298664916E+03 0.  0.
         24    2    3    3    0    0 -0.40177955456E+02  0.10985828987E+03  0.80710835314E+02  0.16294676019E+03  0.79713836702E+02 0.  0.
         -6    2    1    2    0  502  0.13757637138E+03 -0.10429818740E+03  0.10014374566E+03  0.26554026482E+03  0.17514991461E+03 0.  0.
        -24    2    5    5    0    0  0.78676167190E+02 -0.22139503057E+01  0.33570294188E+01  0.11296181301E+03  0.80958388645E+02 0.  0.
          5    1    3    3  501    0 -0.97398415927E+02 -0.55601024716E+01  0.11831574036E+02  0.98384156798E+02  0.47000000000E+01 0. -1.
        -13    1    4    4    0    0 -0.61453282794E+02  0.99066344796E+02  0.74305067520E+02  0.13824575833E+03  0.00000000000E+00 0.  1.
         14    1    4    4    0    0  0.21275327338E+02  0.10791945074E+02  0.64057677944E+01  0.24701001860E+02  0.00000000000E+00 0. -1.
         -5    1    5    5    0  502  0.58900204193E+02 -0.10208423709E+03  0.96786716245E+02  0.15257845182E+03  0.47000000000E+01 0.  1.
         13    1    6    6    0    0 -0.87181821977E+01 -0.20225874811E+02 -0.70503974017E+01  0.23125760879E+02  0.00000000000E+00 0. -1.
        -14    1    6    6    0    0  0.87394349387E+02  0.18011924505E+02  0.10407426821E+02  0.89836052130E+02  0.00000000000E+00 0.  1.
</event>
<event>
12    1  0.1055893E+000  0.2523260E+03  0.7818608E-02  0.1113450E+00
         21   -1    0    0  503  502  0.00000000000E+00  0.00000000000E+00  0.19638202795E+03  0.19638202795E+03  0.00000000000E+00 0. -1.
         21   -1    0    0  501  503 -0.00000000000E+00 -0.00000000000E+00 -0.13959729773E+04  0.13959729773E+04  0.00000000000E+00 0.  1.
          6    2    1    2  501    0  0.94830764784E+02  0.14125625739E+03  0.10467426498E+03  0.26390622589E+03  0.17246330078E+03 0.  0.
         24    2    3    3    0    0  0.67977639679E+02  0.52897225034E+02  0.12345305912E+03  0.16954976328E+03  0.78021718206E+02 0.  0.
         -6    2    1    2    0  502 -0.94830764784E+02 -0.14125625739E+03 -0.13042652143E+04  0.13284487793E+04  0.18633895418E+03 0.  0.
        -24    2    5    5    0    0 -0.28819137949E+02  0.62233236739E+01 -0.59496048049E+03  0.60095784666E+03  0.79391987258E+02 0.  0.
          5    1    3    3  501    0  0.26853125104E+02  0.88359032353E+02 -0.18778794138E+02  0.94356462606E+02  0.47000000000E+01 0. -1.
        -13    1    4    4    0    0 -0.15202980526E+02 -0.12193346046E+01  0.77103724807E+01  0.17089974768E+02  0.00000000000E+00 0.  1.
         14    1    4    4    0    0  0.83180620206E+02  0.54116559639E+02  0.11574268664E+03  0.15245978852E+03  0.00000000000E+00 0. -1.
         -5    1    5    5    0  502 -0.66011626835E+02 -0.14747958106E+03 -0.70930473381E+03  0.72749093266E+03  0.47000000000E+01 0.  1.
         13    1    6    6    0    0  0.20482173158E+01 -0.19800247096E+02 -0.41503787992E+02  0.46030526794E+02  0.00000000000E+00 0. -1.
        -14    1    6    6    0    0 -0.30867355265E+02  0.26023570770E+02 -0.55345669250E+03  0.55492731986E+03  0.00000000000E+00 0.  1.
</event>
<event>
12    1  0.9962621E-001  0.2546767E+03  0.7818608E-02  0.1110589E+00
         21   -1    0    0  503  502  0.00000000000E+00  0.00000000000E+00  0.35759896918E+03  0.35759896918E+03  0.00000000000E+00 0.  1.
         21   -1    0    0  501  503 -0.00000000000E+00 -0.00000000000E+00 -0.19223533500E+03  0.19223533500E+03  0.00000000000E+00 0. -1.
          6    2    1    2  501    0  0.17846636502E+03 -0.54588674092E+02  0.15098927714E+03  0.29607090728E+03  0.17329181614E+03 0.  0.
         24    2    3    3    0    0  0.11218236693E+03  0.16713060774E+02  0.13819480049E+03  0.19776885018E+03  0.84560660874E+02 0.  0.
         -6    2    1    2    0  502 -0.17846636502E+03  0.54588674092E+02  0.14374357038E+02  0.25376339690E+03  0.17134489396E+03 0.  0.
        -24    2    5    5    0    0 -0.11248617172E+03  0.74654333358E+02 -0.43457361185E+02  0.16363784990E+03  0.81623497613E+02 0.  0.
          5    1    3    3  501    0  0.66283998082E+02 -0.71301734867E+02  0.12794476655E+02  0.98302057098E+02  0.47000000000E+01 0. -1.
        -13    1    4    4    0    0  0.54698461971E+02 -0.89854256149E+01  0.12006632593E+03  0.13224440342E+03  0.00000000000E+00 0.  1.
         14    1    4    4    0    0  0.57483904963E+02  0.25698486389E+02  0.18128474561E+02  0.65524446754E+02  0.00000000000E+00 0. -1.
         -5    1    5    5    0  502 -0.65980193299E+02 -0.20065659265E+02  0.57831718224E+02  0.90125547001E+02  0.47000000000E+01 0.  1.
         13    1    6    6    0    0 -0.10090582900E+03  0.43173310877E+02 -0.12970259170E+01  0.10976157512E+03  0.00000000000E+00 0. -1.
        -14    1    6    6    0    0 -0.11580342721E+02  0.31481022480E+02 -0.42160335268E+02  0.53876274777E+02  0.00000000000E+00 0.  1.
</event>
<event>
12    1  0.9962621E-001  0.1931848E+03  0.7818608E-02  0.1156141E+00
         21   -1    0    0  501  502  0.00000000000E+00  0.00000000000E+00  0.23475798953E+04  0.23475798953E+04  0.00000000000E+00 0. -1.
         21   -1    0    0  502  503 -0.00000000000E+00 -0.00000000000E+00 -0.36365219139E+02  0.36365219139E+02  0.00000000000E+00 0. -1.
         -6    2    1    2    0  503  0.67081294407E+02  0.49301451550E+02  0.20509973765E+04  0.20598565341E+04  0.17172119650E+03 0.  0.
        -24    2    3    3    0    0  0.64779652338E+02  0.97065050113E+02  0.16386334562E+04  0.16447026449E+04  0.79430215431E+02 0.  0.
          6    2    1    2  501    0 -0.67081294407E+02 -0.49301451550E+02  0.26021729965E+03  0.32408858037E+03  0.17432679571E+03 0.  0.
         24    2    5    5    0    0 -0.58169211892E+02 -0.91606792509E+02  0.23935818909E+03  0.27585623042E+03  0.83838270071E+02 0.  0.
          5    1    5    5  501    0 -0.89120825147E+01  0.42305340959E+02  0.20859110561E+02  0.48232349951E+02  0.47000000000E+01 0. -1.
        -11    1    6    6    0    0 -0.73764309275E+02 -0.70859105471E+02  0.22256084620E+03  0.24493982202E+03  0.00000000000E+00 0.  1.
         12    1    6    6    0    0  0.15595097382E+02 -0.20747687038E+02  0.16797342891E+02  0.30916408394E+02  0.00000000000E+00 0. -1.
         -5    1    3    3    0  503  0.23016420689E+01 -0.47763598562E+02  0.41236392029E+03  0.41515388914E+03  0.47000000000E+01 0.  1.
         13    1    4    4    0    0 -0.93469562794E+01  0.41383435510E+02  0.76206823829E+03  0.76324829128E+03  0.00000000000E+00 0. -1.
        -14    1    4    4    0    0  0.74126608618E+02  0.55681614603E+02  0.87656521792E+03  0.88145435366E+03  0.00000000000E+00 0.  1.
</event>
<event>
12    1  0.9962621E-001  0.2227095E+03  0.7818608E-02  0.1131992E+00
         21   -1    0    0  501  502  0.00000000000E+00  0.00000000000E+00  0.30686445231E+02  0.30686445231E+02  0.00000000000E+00 0.  1.
         21   -1    0    0  502  503 -0.00000000000E+00 -0.00000000000E+00 -0.16672856920E+04  0.16672856920E+04  0.00000000000E+00 0.  1.
         -6    2    1    2    0  503  0.14154760679E+03  0.15697017120E+02 -0.97414483312E+03  0.99927856755E+03  0.17122318287E+03 0.  0.
        -24    2    3    3    0    0  0.13413148903E+03  0.38280223539E+02 -0.95476593338E+03  0.96825225985E+03  0.80484901089E+02 0.  0.
          6    2    1    2  501    0 -0.14154760679E+03 -0.15697017120E+02 -0.66245441363E+03  0.69869356965E+03  0.17042515309E+03 0.  0.
         24    2    5    5    0    0 -0.13767178782E+03 -0.26500511909E+02 -0.66606164436E+03  0.68577692977E+03  0.83642602936E+02 0.  0.
          5    1    5    5  501    0 -0.38758189625E+01  0.10803494789E+02  0.36072307313E+01  0.12916639882E+02  0.47000000000E+01 0. -1.
        -13    1    6    6    0    0  0.49920013388E+01  0.13801303377E+02 -0.48564114830E+02  0.50733315498E+02  0.00000000000E+00 0.  1.
         14    1    6    6    0    0 -0.14266378916E+03 -0.40301815286E+02 -0.61749752953E+03  0.63504361427E+03  0.00000000000E+00 0. -1.
         -5    1    3    3    0  503  0.74161177524E+01 -0.22583206419E+02 -0.19378899743E+02  0.31026307707E+02  0.47000000000E+01 0.  1.
         11    1    4    4    0    0  0.57249315287E+02  0.32805888019E+01 -0.18045070049E+03  0.18934281521E+03  0.00000000000E+00 0. -1.
        -12    1    4    4    0    0  0.76882173748E+02  0.34999634737E+02 -0.77431523288E+03  0.77890944464E+03  0.00000000000E+00 0.  1.
</event>
<event>
12    1  0.9962621E-001  0.2841122E+03  0.7818608E-02  0.1093708E+00
         21   -1    0    0  501  502  0.00000000000E+00  0.00000000000E+00  0.61282182898E+03  0.61282182898E+03  0.00000000000E+00 0.  1.
         21   -1    0    0  502  503 -0.00000000000E+00 -0.00000000000E+00 -0.13108195907E+03  0.13108195907E+03  0.00000000000E+00 0.  1.
         -6    2    1    2    0  503 -0.70176249616E+02 -0.21517310012E+03  0.22692012160E+03  0.36361034971E+03  0.17174276056E+03 0.  0.
        -24    2    3    3    0    0 -0.36137790847E+02 -0.14930092931E+03  0.64996035551E+02  0.18545519484E+03  0.81070569491E+02 0.  0.
          6    2    1    2  501    0  0.70176249616E+02  0.21517310012E+03  0.25481974831E+03  0.38029343834E+03  0.16871818542E+03 0.  0.
         24    2    5    5    0    0  0.78613350187E+02  0.14868233219E+03  0.10116733318E+03  0.21259322498E+03  0.81697951459E+02 0.  0.
          5    1    5    5  501    0 -0.84371005704E+01  0.66490767932E+02  0.15365241512E+03  0.16770021335E+03  0.47000000000E+01 0. -1.
        -11    1    6    6    0    0  0.11784685727E+02  0.38866462657E+02 -0.10899843115E+02  0.42051008515E+02  0.00000000000E+00 0.  1.
         12    1    6    6    0    0  0.66828664460E+02  0.10981586953E+03  0.11206717630E+03  0.17054221647E+03  0.00000000000E+00 0. -1.
         -5    1    3    3    0  503 -0.34038458769E+02 -0.65872170815E+02  0.16192408605E+03  0.17815515487E+03  0.47000000000E+01 0.  1.
         11    1    4    4    0    0 -0.48751310017E+02 -0.86408930504E+02  0.69529299393E+02  0.12115080261E+03  0.00000000000E+00 0. -1.
        -12    1    4    4    0    0  0.12613519170E+02 -0.62891998803E+02 -0.45332638419E+01  0.64304392232E+02  0.00000000000E+00 0.  1.
</event>
<event>
12    1  0.9962621E-001  0.5194334E+03  0.7818608E-02  0.1008829E+00
         21   -1    0    0  501  502  0.00000000000E+00  0.00000000000E+00  0.39250353503E+03  0.39250353503E+03  0.00000000000E+00 0.  1.
         21   -1    0    0  502  503 -0.00000000000E+00 -0.00000000000E+00 -0.70295613393E+03  0.70295613393E+03  0.00000000000E+00 0. -1.
         -6    2    1    2    0  503 -0.40288054308E+03 -0.27862038373E+03 -0.73690880938E+02  0.52463458927E+03  0.17282666489E+03 0.  0.
        -24    2    3    3    0    0 -0.20175751330E+03 -0.17119907630E+03 -0.10249120130E+03  0.29476210537E+03  0.79781166450E+02 0.  0.
          6    2    1    2  501    0  0.40288054308E+03  0.27862038373E+03 -0.23676171796E+03  0.57082507969E+03  0.17275158549E+03 0.  0.
         24    2    5    5    0    0  0.38747915021E+03  0.20510439761E+03 -0.20895117301E+03  0.49059217168E+03  0.69369881406E+02 0.  0.
          5    1    5    5  501    0  0.15401392870E+02  0.73515986115E+02 -0.27810544951E+02  0.80232908007E+02  0.47000000000E+01 0. -1.
        -13    1    6    6    0    0  0.24288928413E+03  0.11918189290E+03 -0.92134258519E+02  0.28581156298E+03  0.00000000000E+00 0.  1.
         14    1    6    6    0    0  0.14458986608E+03  0.85922504718E+02 -0.11681691449E+03  0.20478060870E+03  0.00000000000E+00 0. -1.
         -5    1    3    3    0  503 -0.20112302978E+03 -0.10742130743E+03  0.28800320365E+02  0.22987248389E+03  0.47000000000E+01 0.  1.
         11    1    4    4    0    0 -0.16194285246E+03 -0.16502408854E+03 -0.66110176746E+02  0.24047659497E+03  0.00000000000E+00 0. -1.
        -12    1    4    4    0    0 -0.39814660839E+02 -0.61749877663E+01 -0.36381024558E+02  0.54285510402E+02  0.00000000000E+00 0.  1.
</event>
<event>
12    1  0.9962621E-001  0.2401120E+03  0.7818608E-02  0.1119758E+00
         21   -1    0    0  503  502  0.00000000000E+00  0.00000000000E+00  0.11102332231E+04  0.11102332231E+04  0.00000000000E+00 0. -1.
         21   -1    0    0  501  503 -0.00000000000E+00 -0.00000000000E+00 -0.62324565854E+02  0.62324565854E+02  0.00000000000E+00 0. -1.
          6    2    1    2  501    0 -0.12522847525E+03 -0.10955734150E+03  0.76420177844E+03  0.80103566111E+03  0.17311496212E+03 0.  0.
         24    2    3    3    0    0 -0.17081914678E+02 -0.13715841328E+02  0.41490562055E+03  0.42299972680E+03  0.79386263243E+02 0.  0.
         -6    2    1    2    0  502  0.12522847525E+03  0.10955734150E+03  0.28370687879E+03  0.37152212783E+03  0.17278343759E+03 0.  0.
        -24    2    5    5    0    0  0.54186951610E+02  0.13262907536E+03  0.21412313711E+03  0.26933020011E+03  0.78506951875E+02 0.  0.
          5    1    3    3  501    0 -0.10814656057E+03 -0.95841500169E+02  0.34929615788E+03  0.37803593431E+03  0.47000000000E+01 0. -1.
        -11    1    4    4    0    0 -0.11022595158E+02 -0.20357226952E+02  0.41320147267E+03  0.41384945488E+03  0.00000000000E+00 0.  1.
         12    1    4    4    0    0 -0.60593195199E+01  0.66413856235E+01  0.17041478836E+01  0.91502719114E+01  0.00000000000E+00 0. -1.
         -5    1    5    5    0  502  0.71041523638E+02 -0.23071733859E+02  0.69583741690E+02  0.10219192772E+03  0.47000000000E+01 0.  1.
         13    1    6    6    0    0 -0.13100158308E+02  0.29819071367E+02  0.85294356014E+02  0.91301250444E+02  0.00000000000E+00 0. -1.
        -14    1    6    6    0    0  0.67287109918E+02  0.10281000399E+03  0.12882878109E+03  0.17802894967E+03  0.00000000000E+00 0.  1.
</event>
<event>
12    1  0.9962621E-001  0.3203321E+03  0.7818608E-02  0.1075557E+00
         21   -1    0    0  501  502  0.00000000000E+00  0.00000000000E+00  0.97155639530E+03  0.97155639530E+03  0.00000000000E+00 0.  1.
         21   -1    0    0  502  503 -0.00000000000E+00 -0.00000000000E+00 -0.12593930920E+03  0.12593930920E+03  0.00000000000E+00 0.  1.
         -6    2    1    2    0  503  0.58468186535E+02  0.26274288312E+03  0.20114728615E+03  0.37780552608E+03  0.17269751979E+03 0.  0.
        -24    2    3    3    0    0  0.96803620455E+02  0.23500460986E+03  0.19466140534E+03  0.32981413157E+03  0.79285503491E+02 0.  0.
          6    2    1    2  501    0 -0.58468186535E+02 -0.26274288312E+03  0.64446979995E+03  0.71969017842E+03  0.17366714829E+03 0.  0.
         24    2    5    5    0    0 -0.77967676183E+02 -0.27422126329E+03  0.59943123010E+03  0.66906858143E+03  0.84016113145E+02 0.  0.
          5    1    5    5  501    0  0.19499489648E+02  0.11478380161E+02  0.45038569846E+02  0.50621596986E+02  0.47000000000E+01 0. -1.
        -11    1    6    6    0    0 -0.94422298736E+02 -0.23005643292E+03  0.47815220000E+03  0.53895367072E+03  0.00000000000E+00 0.  1.
         12    1    6    6    0    0  0.16454622553E+02 -0.44164830370E+02  0.12127903011E+03  0.13011491071E+03  0.00000000000E+00 0. -1.
         -5    1    3    3    0  503 -0.38335433920E+02  0.27738273259E+02  0.64858808151E+01  0.47991394512E+02  0.47000000000E+01 0.  1.
         11    1    4    4    0    0  0.23358817378E+02  0.93023222381E+02  0.30409576956E+02  0.10061658224E+03  0.00000000000E+00 0. -1.
        -12    1    4    4    0    0  0.73444803077E+02  0.14198138748E+03  0.16425182838E+03  0.22919754933E+03  0.00000000000E+00 0.  1.
</event>
<event>
12    1  0.9962621E-001  0.3678589E+03  0.7818608E-02  0.1055523E+00
         21   -1    0    0  501  502  0.00000000000E+00  0.00000000000E+00  0.14833904721E+04  0.14833904721E+04  0.00000000000E+00 0.  1.
         21   -1    0    0  502  503 -0.00000000000E+00 -0.00000000000E+00 -0.97839493465E+02  0.97839493465E+02  0.00000000000E+00 0.  1.
         -6    2    1    2    0  503  0.23059486929E+03 -0.22949060600E+03  0.89861027977E+03  0.97095837770E+03  0.17152202288E+03 0.  0.
        -24    2    3    3    0    0  0.16837913064E+03 -0.15106200060E+03  0.43869187510E+03  0.50024734826E+03  0.81397718063E+02 0.  0.
          6    2    1    2  501    0 -0.23059486929E+03  0.22949060600E+03  0.48694069891E+03  0.61027158791E+03  0.17169809191E+03 0.  0.
         24    2    5    5    0    0 -0.82076619837E+02  0.45548435998E+02  0.11231508013E+03  0.16726048582E+03  0.80933067079E+02 0.  0.
          5    1    5    5  501    0 -0.14851824945E+03  0.18394217000E+03  0.37462561877E+03  0.44301110208E+03  0.47000000000E+01 0. -1.
        -13    1    6    6    0    0 -0.63373329301E+02  0.40453951200E+02  0.27180253810E+02  0.79946652410E+02  0.00000000000E+00 0.  1.
         14    1    6    6    0    0 -0.18703290536E+02  0.50944847986E+01  0.85134826325E+02  0.87313833415E+02  0.00000000000E+00 0. -1.
         -5    1    3    3    0  503  0.62215738655E+02 -0.78428605405E+02  0.45991840467E+03  0.47071102944E+03  0.47000000000E+01 0.  1.
         11    1    4    4    0    0  0.95151136784E+02 -0.91499167353E+02  0.33476492780E+03  0.35985190474E+03  0.00000000000E+00 0. -1.
        -12    1    4    4    0    0  0.73227993851E+02 -0.59562833244E+02  0.10392694730E+03  0.14039544353E+03  0.00000000000E+00 0.  1.
</event>
<event>
12    1  0.9962621E-001  0.1912323E+03  0.7818608E-02  0.1157433E+00
         21   -1    0    0  501  502  0.00000000000E+00  0.00000000000E+00  0.36594407068E+03  0.36594407068E+03  0.00000000000E+00 0.  1.
         21   -1    0    0  502  503 -0.00000000000E+00 -0.00000000000E+00 -0.10112838948E+03  0.10112838948E+03  0.00000000000E+00 0.  1.
         -6    2    1    2    0  503 -0.50295459480E+02  0.67011698328E+02  0.15979369856E+03  0.24920639595E+03  0.17189997303E+03 0.  0.
        -24    2    3    3    0    0  0.41322313702E+01  0.99517388094E+01 -0.13752299536E+00  0.70829552896E+02  0.70004958463E+02 0.  0.
          6    2    1    2  501    0  0.50295459480E+02 -0.67011698328E+02  0.10502198264E+03  0.21786606421E+03  0.17151036161E+03 0.  0.
         24    2    5    5    0    0  0.42438916459E+02 -0.39459752181E+02  0.13976168743E+03  0.17259165539E+03  0.83044666075E+02 0.  0.
          5    1    5    5  501    0  0.78565430206E+01 -0.27551946147E+02 -0.34739704794E+02  0.45274408819E+02  0.47000000000E+01 0. -1.
        -13    1    6    6    0    0 -0.22827646350E+02  0.24553666254E+01  0.23710328837E+02  0.33004695980E+02  0.00000000000E+00 0.  1.
         14    1    6    6    0    0  0.65266562809E+02 -0.41915118807E+02  0.11605135860E+03  0.13958695941E+03  0.00000000000E+00 0. -1.
         -5    1    3    3    0  503 -0.54427690850E+02  0.57059959519E+02  0.15993122155E+03  0.17837684306E+03  0.47000000000E+01 0.  1.
         11    1    4    4    0    0  0.17338656751E+02 -0.26588279986E+02  0.27993051273E+01  0.31865369286E+02  0.00000000000E+00 0. -1.
        -12    1    4    4    0    0 -0.13206425381E+02  0.36540018796E+02 -0.29368281227E+01  0.38964183610E+02  0.00000000000E+00 0.  1.
</event>
<event>
12    1  0.9962621E-001  0.2250457E+03  0.7818608E-02  0.1131693E+00
         21   -1    0    0  501  502  0.00000000000E+00  0.00000000000E+00  0.25587672773E+03  0.25587672773E+03  0.00000000000E+00 0.  1.
         21   -1    0    0  502  503 -0.00000000000E+00 -0.00000000000E+00 -0.19457710957E+03  0.19457710957E+03  0.00000000000E+00 0.  1.
         -6    2    1    2    0  503 -0.30060307424E+02 -0.14210500952E+03 -0.14038845893E+01  0.21683602517E+03  0.16099203430E+03 0.  0.
        -24    2    3    3    0    0  0.52292014157E+01 -0.14280692904E+03  0.32536420137E+02  0.16764378584E+03  0.81391994484E+02 0.  0.
          6    2    1    2  501    0  0.30060307424E+02  0.14210500952E+03  0.62703502745E+02  0.23361781214E+03  0.17189559936E+03 0.  0.
         24    2    5    5    0    0  0.13655926177E+02  0.14569828795E+03 -0.25001057808E+01  0.16612250905E+03  0.78587289385E+02 0.  0.
          5    1    5    5  501    0  0.16404381247E+02 -0.35932784332E+01  0.65203608526E+02  0.67495303087E+02  0.47000000000E+01 0. -1.
        -11    1    6    6    0    0 -0.18738272103E+02  0.14135240032E+02 -0.18230383503E+02  0.29719938338E+02  0.00000000000E+00 0.  1.
         12    1    6    6    0    0  0.32394198280E+02  0.13156304792E+03  0.15730277722E+02  0.13640257071E+03  0.00000000000E+00 0. -1.
         -5    1    3    3    0  503 -0.35289508840E+02  0.70191952585E+00 -0.33940304726E+02  0.49192239328E+02  0.47000000000E+01 0.  1.
         11    1    4    4    0    0 -0.82575389006E+01 -0.86812333815E+02 -0.20242437735E+02  0.89522759880E+02  0.00000000000E+00 0. -1.
        -12    1    4    4    0    0  0.13486740316E+02 -0.55994595226E+02  0.52778857871E+02  0.78121025960E+02  0.00000000000E+00 0.  1.
</event>
<event>
12    1  0.9962621E-001  0.3262268E+03  0.7818608E-02  0.1073094E+00
         21   -1    0    0  501  502  0.00000000000E+00  0.00000000000E+00  0.12776566065E+04  0.12776566065E+04  0.00000000000E+00 0. -1.
         21   -1    0    0  502  503 -0.00000000000E+00 -0.00000000000E+00 -0.91936475621E+02  0.91936475621E+02  0.00000000000E+00 0. -1.
         -6    2    1    2    0  503  0.27815939887E+03 -0.11258182214E+02  0.80822084264E+03  0.87066458466E+03  0.16533750532E+03 0.  0.
        -24    2    3    3    0    0  0.15757666655E+03 -0.68955665722E+02  0.46617434623E+03  0.50339480557E+03  0.80638201290E+02 0.  0.
          6    2    1    2  501    0 -0.27815939887E+03  0.11258182214E+02  0.37749928826E+03  0.49892849748E+03  0.17007214678E+03 0.  0.
         24    2    5    5    0    0 -0.42218641652E+02  0.67153092473E+01  0.12043383886E+03  0.14993936600E+03  0.78421902894E+02 0.  0.
          5    1    5    5  501    0 -0.23594075722E+03  0.45428729671E+01  0.25706544941E+03  0.34898913148E+03  0.47000000000E+01 0. -1.
        -13    1    6    6    0    0 -0.20939293453E+02 -0.34144100668E+02  0.76134070774E+02  0.86027148932E+02  0.00000000000E+00 0.  1.
         14    1    6    6    0    0 -0.21279348199E+02  0.40859409915E+02  0.44299768084E+02  0.63912217069E+02  0.00000000000E+00 0. -1.
         -5    1    3    3    0  503  0.12058273232E+03  0.57697483508E+02  0.34204649641E+03  0.36726977910E+03  0.47000000000E+01 0.  1.
         13    1    4    4    0    0  0.25919969749E+02 -0.39451914474E+02  0.19338272458E+03  0.19906073584E+03  0.00000000000E+00 0. -1.
        -14    1    4    4    0    0  0.13165669681E+03 -0.29503751248E+02  0.27279162165E+03  0.30433406973E+03  0.00000000000E+00 0.  1.
</event>
<event>
12    1  0.9962621E-001  0.3486557E+03  0.7818608E-02  0.1064033E+00
         21   -1    0    0  503  502  0.00000000000E+00  0.00000000000E+00  0.29471737490E+03  0.29471737490E+03  0.00000000000E+00 0.  1.
         21   -1    0    0  501  503 -0.00000000000E+00 -0.00000000000E+00 -0.43428169794E+03  0.43428169794E+03  0.00000000000E+00 0. -1.
          6    2    1    2  501    0 -0.20186684832E+03 -0.22591633676E+03  0.29246758561E+02  0.34162593738E+03  0.15512734297E+03 0.  0.
         24    2    3    3    0    0 -0.18160083185E+03 -0.23705630663E+03  0.46619782969E+02  0.31232197299E+03  0.78721382156E+02 0.  0.
         -6    2    1    2    0  502  0.20186684832E+03  0.22591633676E+03 -0.16881108160E+03  0.38737313545E+03  0.17254665784E+03 0.  0.
        -24    2    5    5    0    0  0.18114330631E+03  0.23984118296E+03 -0.18038563458E+03  0.35945491897E+03  0.79574940402E+02 0.  0.
          5    1    3    3  501    0 -0.20266016467E+02  0.11139969861E+02 -0.17373024408E+02  0.29303964391E+02  0.47000000000E+01 0. -1.
        -13    1    4    4    0    0 -0.31145769543E+02 -0.87931940153E+02  0.36726695311E+02  0.10025435256E+03  0.00000000000E+00 0.  1.
         14    1    4    4    0    0 -0.15045506231E+03 -0.14912436647E+03  0.98930876579E+01  0.21206762043E+03  0.00000000000E+00 0. -1.
         -5    1    5    5    0  502  0.20723542011E+02 -0.13924846200E+02  0.11574552976E+02  0.27918216486E+02  0.47000000000E+01 0.  1.
         11    1    6    6    0    0  0.14758722633E+03  0.13612991793E+03 -0.10209516999E+03  0.22524823566E+03  0.00000000000E+00 0. -1.
        -12    1    6    6    0    0  0.33556079975E+02  0.10371126503E+03 -0.78290464593E+02  0.13420668331E+03  0.00000000000E+00 0.  1.
</event>
<event>
12    1  0.9962621E-001  0.4050361E+03  0.7818608E-02  0.1042150E+00
         21   -1    0    0  503  502  0.00000000000E+00  0.00000000000E+00  0.28611839710E+03  0.28611839710E+03  0.00000000000E+00 0. -1.
         21   -1    0    0  501  503 -0.00000000000E+00 -0.00000000000E+00 -0.65751090030E+03  0.65751090030E+03  0.00000000000E+00 0.  1.
          6    2    1    2  501    0 -0.87445749329E+02 -0.35500221155E+03 -0.15027855307E+02  0.40413879831E+03  0.17154883440E+03 0.  0.
         24    2    3    3    0    0 -0.45841895217E+02 -0.26946735460E+03  0.45958096653E+02  0.29105268614E+03  0.88799689783E+02 0.  0.
         -6    2    1    2    0  502  0.87445749329E+02  0.35500221155E+03 -0.35636464789E+03  0.53949049909E+03  0.17430119641E+03 0.  0.
        -24    2    5    5    0    0 -0.13078857557E+02  0.10440696789E+03 -0.86717751490E+02  0.15786933686E+03  0.79566875244E+02 0.  0.
          5    1    3    3  501    0 -0.41603854112E+02 -0.85534856943E+02 -0.60985951959E+02  0.11308611217E+03  0.47000000000E+01 0. -1.
        -11    1    4    4    0    0 -0.10549877855E+02 -0.16356670907E+02 -0.19176447979E+02  0.27323556925E+02  0.00000000000E+00 0.  1.
         12    1    4    4    0    0 -0.35292017362E+02 -0.25311068370E+03  0.65134544632E+02  0.26372912921E+03  0.00000000000E+00 0. -1.
         -5    1    5    5    0  502  0.10052460689E+03  0.25059524365E+03 -0.26964689640E+03  0.38162116224E+03  0.47000000000E+01 0.  1.
         13    1    6    6    0    0 -0.24279256601E+02  0.68952941420E+01  0.23239044359E+01  0.25346161726E+02  0.00000000000E+00 0. -1.
        -14    1    6    6    0    0  0.11200399044E+02  0.97511673751E+02 -0.89041655926E+02  0.13252317513E+03  0.00000000000E+00 0.  1.
</event>
<event>
12    1  0.9962621E-001  0.2450125E+03  0.7818608E-02  0.1116830E+00
         21   -1    0    0  503  502  0.00000000000E+00  0.00000000000E+00  0.14223470440E+03  0.14223470440E+03  0.00000000000E+00 0.  1.
         21   -1    0    0  501  503 -0.00000000000E+00 -0.00000000000E+00 -0.57124171073E+03  0.57124171073E+03  0.00000000000E+00 0.  1.
          6    2    1    2  501    0  0.15779837556E+03 -0.77715070299E+02 -0.39828131621E+03  0.46654482524E+03  0.16761893580E+03 0.  0.
         24    2    3    3    0    0  0.11842428140E+03 -0.77937321904E+02 -0.16892028270E+03  0.23378112021E+03  0.77595191150E+02 0.  0.
         -6    2    1    2    0  502 -0.15779837556E+03  0.77715070299E+02 -0.30725690119E+02  0.24693158989E+03  0.17056137480E+03 0.  0.
        -24    2    5    5    0    0 -0.13712993723E+03  0.10947402606E+03  0.46825839431E+01  0.19485806989E+03  0.84608266395E+02 0.  0.
          5    1    3    3  501    0  0.39374094161E+02  0.22225160486E+00 -0.22936103351E+03  0.23276370503E+03  0.47000000000E+01 0. -1.
        -13    1    4    4    0    0  0.46115659231E+02 -0.61378355550E+02 -0.12747463363E+03  0.14880772418E+03  0.00000000000E+00 0.  1.
         14    1    4    4    0    0  0.72308622168E+02 -0.16558966354E+02 -0.41445649072E+02  0.84973396034E+02  0.00000000000E+00 0. -1.
         -5    1    5    5    0  502 -0.20668438328E+02 -0.31758955756E+02 -0.35408274063E+02  0.52073520005E+02  0.47000000000E+01 0.  1.
         11    1    6    6    0    0 -0.66998982078E+02  0.70131933235E+02  0.42623917911E+02  0.10594408920E+03  0.00000000000E+00 0. -1.
        -12    1    6    6    0    0 -0.70130955155E+02  0.39342092820E+02 -0.37941333968E+02  0.88913980687E+02  0.00000000000E+00 0.  1.
</event>
<event>
12    1  0.9962621E-001  0.4111680E+03  0.7818608E-02  0.1039993E+00
         21   -1    0    0  503  502  0.00000000000E+00  0.00000000000E+00  0.19586652369E+04  0.19586652369E+04  0.00000000000E+00 0. -1.
         21   -1    0    0  501  503 -0.00000000000E+00 -0.00000000000E+00 -0.91339804645E+02  0.91339804645E+02  0.00000000000E+00 0. -1.
          6    2    1    2  501    0 -0.13263321612E+03 -0.34902331456E+03  0.69261045468E+03  0.80546159996E+03  0.17219263330E+03 0.  0.
         24    2    3    3    0    0 -0.10177877498E+03 -0.29273974653E+03  0.65936828924E+03  0.73302564113E+03  0.80650923583E+02 0.  0.
         -6    2    1    2    0  502  0.13263321612E+03  0.34902331456E+03  0.11747149776E+04  0.12445434416E+04  0.17182623580E+03 0.  0.
        -24    2    5    5    0    0  0.59161595247E+02  0.10764434141E+03  0.30144207608E+03  0.33553874509E+03  0.81434179767E+02 0.  0.
          5    1    3    3  501    0 -0.30854441136E+02 -0.56283568034E+02  0.33242165439E+02  0.72435958829E+02  0.47000000000E+01 0. -1.
        -11    1    4    4    0    0 -0.57330557936E+02 -0.82899358304E+02  0.15436623019E+03  0.18435842672E+03  0.00000000000E+00 0.  1.
         12    1    4    4    0    0 -0.44448217045E+02 -0.20984038823E+03  0.50500205905E+03  0.54866721441E+03  0.00000000000E+00 0. -1.
         -5    1    5    5    0  502  0.73471620870E+02  0.24137897315E+03  0.87327290153E+03  0.90900469652E+03  0.47000000000E+01 0.  1.
         13    1    6    6    0    0 -0.41693902681E+01 -0.10257433018E+02  0.44183411455E+02  0.45549671734E+02  0.00000000000E+00 0. -1.
        -14    1    6    6    0    0  0.63330985515E+02  0.11790177443E+03  0.25725866462E+03  0.28998907335E+03  0.00000000000E+00 0.  1.
</event>
<event>
12    1  0.9962621E-001  0.2329580E+03  0.7818608E-02  0.1124679E+00
         21   -1    0    0  503  502  0.00000000000E+00  0.00000000000E+00  0.26111849363E+03  0.26111849363E+03  0.00000000000E+00 0.  1.
         21   -1    0    0  501  503 -0.00000000000E+00 -0.00000000000E+00 -0.61039379728E+03  0.61039379728E+03  0.00000000000E+00 0.  1.
          6    2    1    2  501    0  0.98369817603E+02 -0.11738696336E+03  0.17955299481E+03  0.29364657503E+03  0.17473612361E+03 0.  0.
         24    2    3    3    0    0  0.58261520043E+02 -0.14961984171E+03  0.13223751568E+03  0.22358604016E+03  0.81996677074E+02 0.  0.
         -6    2    1    2    0  502 -0.98369817603E+02  0.11738696336E+03 -0.52882829847E+03  0.57786571588E+03  0.17553659490E+03 0.  0.
        -24    2    5    5    0    0 -0.42130820076E+02  0.24835693220E+02 -0.39631040044E+03  0.40665927399E+03  0.76928629051E+02 0.  0.
          5    1    3    3  501    0  0.40108297561E+02  0.32232878348E+02  0.47315479137E+02  0.70060534867E+02  0.47000000000E+01 0. -1.
        -11    1    4    4    0    0  0.96264318329E+00 -0.85301346464E+02  0.10040862460E+03  0.13175408261E+03  0.00000000000E+00 0.  1.
         12    1    4    4    0    0  0.57298876859E+02 -0.64318495245E+02  0.31828891074E+02  0.91831957547E+02  0.00000000000E+00 0. -1.
         -5    1    5    5    0  502 -0.56238997527E+02  0.92551270141E+02 -0.13251789803E+03  0.17120644190E+03  0.47000000000E+01 0.  1.
         11    1    6    6    0    0 -0.19691670885E+02  0.92552536798E+01 -0.20619248095E+02  0.29976240840E+02  0.00000000000E+00 0. -1.
        -12    1    6    6    0    0 -0.22439149191E+02  0.15580439540E+02 -0.37569115234E+03  0.37668303315E+03  0.00000000000E+00 0.  1.
</event>
<event>
12    1  0.9962621E-001  0.1818866E+03  0.7818608E-02  0.1166129E+00
         21   -1    0    0  503  502  0.00000000000E+00  0.00000000000E+00  0.56137679268E+02  0.56137679268E+02  0.00000000000E+00 0. -1.
         21   -1    0    0  501  503 -0.00000000000E+00 -0.00000000000E+00 -0.61193788644E+03  0.61193788644E+03  0.00000000000E+00 0. -1.
          6    2    1    2  501    0  0.37976057720E+02 -0.46057529768E+02 -0.21060844683E+03  0.27789601517E+03  0.17119229060E+03 0.  0.
         24    2    3    3    0    0 -0.14792513201E+02  0.29521156940E+00 -0.33196964993E+02  0.87029510523E+02  0.79077124508E+02 0.  0.
         -6    2    1    2    0  502 -0.37976057720E+02  0.46057529768E+02 -0.34519176034E+03  0.39017955055E+03  0.17181167960E+03 0.  0.
        -24    2    5    5    0    0  0.61843938839E+00 -0.34534266446E+02 -0.12171819861E+03  0.14945752077E+03  0.79556474383E+02 0.  0.
          5    1    3    3  501    0  0.52768570921E+02 -0.46352741337E+02 -0.17741148184E+03  0.19086650464E+03  0.47000000000E+01 0. -1.
        -11    1    4    4    0    0  0.15119590263E+02  0.21993922663E+02  0.11476894995E+02  0.29052603370E+02  0.00000000000E+00 0.  1.
         12    1    4    4    0    0 -0.29912103464E+02 -0.21698711094E+02 -0.44673859988E+02  0.57976907153E+02  0.00000000000E+00 0. -1.
         -5    1    5    5    0  502 -0.38594497108E+02  0.80591796214E+02 -0.22347356174E+03  0.24072202978E+03  0.47000000000E+01 0.  1.
         13    1    6    6    0    0  0.36273216451E+02 -0.33089610688E+01 -0.34371857513E+02  0.50081134612E+02  0.00000000000E+00 0. -1.
        -14    1    6    6    0    0 -0.35654777063E+02 -0.31225305378E+02 -0.87346341095E+02  0.99376386159E+02  0.00000000000E+00 0.  1.
</event>
<event>
12    1  0.9962621E-001  0.2137441E+03  0.7818608E-02  0.1139329E+00
         21   -1    0    0  503  502  0.00000000000E+00  0.00000000000E+00  0.17726082455E+03  0.17726082455E+03  0.00000000000E+00 0. -1.
         21   -1    0    0  501  503 -0.00000000000E+00 -0.00000000000E+00 -0.29622364346E+03  0.29622364346E+03  0.00000000000E+00 0. -1.
          6    2    1    2  501    0  0.71637397436E+02 -0.10567869177E+03  0.30882248155E+02  0.21244788344E+03  0.16697451099E+03 0.  0.
         24    2    3    3    0    0  0.10099544456E+03 -0.34814368198E+02  0.32982583306E+02  0.13557039197E+03  0.76676986916E+02 0.  0.
         -6    2    1    2    0  502 -0.71637397436E+02  0.10567869177E+03 -0.14984506707E+03  0.26103658457E+03  0.17142535329E+03 0.  0.
        -24    2    5    5    0    0  0.19494126933E+02  0.32974766009E+02 -0.34139811857E+02  0.96717956163E+02  0.81984633392E+02 0.  0.
          5    1    3    3  501    0 -0.29358047127E+02 -0.70864323576E+02 -0.21003351516E+01  0.76877491471E+02  0.47000000000E+01 0. -1.
        -13    1    4    4    0    0  0.50408540930E+02 -0.14575877079E+02 -0.23140974634E+02  0.57349646017E+02  0.00000000000E+00 0.  1.
         14    1    4    4    0    0  0.50586903633E+02 -0.20238491119E+02  0.56123557940E+02  0.78220745955E+02  0.00000000000E+00 0. -1.
         -5    1    5    5    0  502 -0.91131524369E+02  0.72703925765E+02 -0.11570525522E+03  0.16431862840E+03  0.47000000000E+01 0.  1.
         11    1    6    6    0    0 -0.41364775506E+01 -0.10702456946E+02 -0.44528509986E+02  0.45983053757E+02  0.00000000000E+00 0. -1.
        -12    1    6    6    0    0  0.23630604483E+02  0.43677222955E+02  0.10388698130E+02  0.50734902406E+02  0.00000000000E+00 0.  1.
</event>
<event>
12    1  0.9962621E-001  0.2376657E+03  0.7818608E-02  0.1121875E+00
         21   -1    0    0  501  502  0.00000000000E+00  0.00000000000E+00  0.22709894151E+03  0.22709894151E+03  0.00000000000E+00 0.  1.
         21   -1    0    0  502  503 -0.00000000000E+00 -0.00000000000E+00 -0.24854378861E+03  0.24854378861E+03  0.00000000000E+00 0.  1.
         -6    2    1    2    0  503 -0.13559464383E+03  0.91558483852E+02  0.15330674124E+02  0.23815961655E+03  0.17238361287E+03 0.  0.
        -24    2    3    3    0    0 -0.13435814157E+03  0.50901513191E+02 -0.37848849018E+02  0.17104277900E+03  0.84735014159E+02 0.  0.
          6    2    1    2  501    0  0.13559464383E+03 -0.91558483852E+02 -0.36775521227E+02  0.23748311357E+03  0.16815744666E+03 0.  0.
         24    2    5    5    0    0  0.86918702840E+02 -0.11799883799E+03  0.33353658044E+01  0.16893085017E+03  0.83951895772E+02 0.  0.
          5    1    5    5  501    0  0.48675940987E+02  0.26440354142E+02 -0.40110887031E+02  0.68552263395E+02  0.47000000000E+01 0. -1.
        -11    1    6    6    0    0  0.48771501856E+02 -0.63529095889E+01  0.12011931484E+02  0.50629095898E+02  0.00000000000E+00 0.  1.
         12    1    6    6    0    0  0.38147200984E+02 -0.11164592840E+03 -0.86765656795E+01  0.11830175427E+03  0.00000000000E+00 0. -1.
         -5    1    3    3    0  503 -0.12365022534E+01  0.40656970661E+02  0.53179523142E+02  0.67116837550E+02  0.47000000000E+01 0.  1.
         11    1    4    4    0    0 -0.29971037890E+02 -0.23680450078E+02 -0.13123201864E+02  0.40388677315E+02  0.00000000000E+00 0. -1.
        -12    1    4    4    0    0 -0.10438710368E+03  0.74581963269E+02 -0.24725647155E+02  0.13065410169E+03  0.00000000000E+00 0.  1.
</event>
<event>
12    1  0.9962621E-001  0.2082498E+03  0.7818608E-02  0.1143030E+00
         21   -1    0    0  501  502  0.00000000000E+00  0.00000000000E+00  0.22626371779E+03  0.22626371779E+03  0.00000000000E+00 0. -1.
         21   -1    0    0  502  503 -0.00000000000E+00 -0.00000000000E+00 -0.19134943885E+03  0.19134943885E+03  0.00000000000E+00 0. -1.
         -6    2    1    2    0  503  0.80178587133E+02 -0.85229825523E+02  0.18146488316E+02  0.20903893864E+03  0.17226506853E+03 0.  0.
        -24    2    3    3    0    0  0.74583107356E+02 -0.57404141088E+02  0.74575734247E+02  0.14569915727E+03  0.82515628660E+02 0.  0.
          6    2    1    2  501    0 -0.80178587133E+02  0.85229825523E+02  0.16767790621E+02  0.20857421799E+03  0.17184096315E+03 0.  0.
         24    2    5    5    0    0 -0.99130691747E+02  0.87321590206E+01  0.66130520215E+01  0.12897343932E+03  0.81775735675E+02 0.  0.
          5    1    5    5  501    0  0.18952104614E+02  0.76497666503E+02  0.10154738600E+02  0.79600778675E+02  0.47000000000E+01 0. -1.
        -11    1    6    6    0    0 -0.43790615041E+02  0.21111357074E+02 -0.33912327708E+02  0.59273546661E+02  0.00000000000E+00 0.  1.
         12    1    6    6    0    0 -0.55340076706E+02 -0.12379198054E+02  0.40525379729E+02  0.69699892658E+02  0.00000000000E+00 0. -1.
         -5    1    3    3    0  503  0.55954797761E+01 -0.27825684435E+02 -0.56429245931E+02  0.63339781375E+02  0.47000000000E+01 0.  1.
         13    1    4    4    0    0  0.12904540214E+02 -0.26837116214E+02  0.70743153449E+02  0.76755141357E+02  0.00000000000E+00 0. -1.
        -14    1    4    4    0    0  0.61678567142E+02 -0.30567024874E+02  0.38325807977E+01  0.68944015911E+02  0.00000000000E+00 0.  1.
</event>
<event>
12    1  0.1024934E+000  0.2030566E+03  0.7818608E-02  0.1147767E+00
         21   -1    0    0  501  502  0.00000000000E+00  0.00000000000E+00  0.13729020150E+03  0.13729020150E+03  0.00000000000E+00 0. -1.
         21   -1    0    0  502  503 -0.00000000000E+00 -0.00000000000E+00 -0.58742549249E+03  0.58742549249E+03  0.00000000000E+00 0. -1.
         -6    2    1    2    0  503  0.48598478323E+02 -0.94280482996E+02  0.30848068289E+02  0.20262663087E+03  0.16986855698E+03 0.  0.
        -24    2    3    3    0    0  0.90927729913E+02 -0.39102593689E+02  0.66965349947E+01  0.12885840215E+03  0.82236119330E+02 0.  0.
          6    2    1    2  501    0 -0.48598478323E+02  0.94280482996E+02 -0.48098335928E+03  0.52208906312E+03  0.17315131058E+03 0.  0.
         24    2    5    5    0    0 -0.29259728885E+02 -0.12888271857E+02 -0.16518395196E+03  0.18800750884E+03  0.83897831376E+02 0.  0.
          5    1    5    5  501    0 -0.19338749438E+02  0.10716875485E+03 -0.31579940732E+03  0.33408155428E+03  0.47000000000E+01 0. -1.
        -13    1    6    6    0    0  0.16496672232E+02 -0.28676839445E+01 -0.45699568676E+00  0.16750303012E+02  0.00000000000E+00 0.  1.
         14    1    6    6    0    0 -0.45756401117E+02 -0.10020587912E+02 -0.16472695628E+03  0.17125720583E+03  0.00000000000E+00 0. -1.
         -5    1    3    3    0  503 -0.42329251589E+02 -0.55177889307E+02  0.24151533295E+02  0.73768228723E+02  0.47000000000E+01 0.  1.
         13    1    4    4    0    0  0.39845595257E+02 -0.27087499052E+02  0.43379477167E+02  0.64831960526E+02  0.00000000000E+00 0. -1.
        -14    1    4    4    0    0  0.51082134656E+02 -0.12015094637E+02 -0.36682942173E+02  0.64026441620E+02  0.00000000000E+00 0.  1.
</event>
<event>
12    1  0.9962621E-001  0.1802959E+03  0.7818608E-02  0.1167685E+00
         21   -1    0    0  501  502  0.00000000000E+00  0.00000000000E+00  0.10900516329E+03  0.10900516329E+03  0.00000000000E+00 0. -1.
         21   -1    0    0  502  503 -0.00000000000E+00 -0.00000000000E+00 -0.30840359196E+03  0.30840359196E+03  0.00000000000E+00 0. -1.
         -6    2    1    2    0  503 -0.45450190786E+02  0.28684398865E+02 -0.59494865385E+02  0.18919914098E+03  0.17137141349E+03 0.  0.
        -24    2    3    3    0    0 -0.23463165750E+02 -0.50152183661E+02 -0.35775360747E+02  0.10385664913E+03  0.80253133644E+02 0.  0.
          6    2    1    2  501    0  0.45450190786E+02 -0.28684398865E+02 -0.13990356328E+03  0.22820961427E+03  0.17209911809E+03 0.  0.
         24    2    5    5    0    0  0.77409955914E+02 -0.59698469652E+02 -0.13172081483E+03  0.18268658114E+03  0.80422666668E+02 0.  0.
          5    1    5    5  501    0 -0.31959765128E+02  0.31014070786E+02 -0.81827484520E+01  0.45523033137E+02  0.47000000000E+01 0. -1.
        -13    1    6    6    0    0  0.35861231474E+02 -0.27573906746E+02 -0.49982162258E+01  0.45511871215E+02  0.00000000000E+00 0.  1.
         14    1    6    6    0    0  0.41548724440E+02 -0.32124562906E+02 -0.12672259861E+03  0.13717470992E+03  0.00000000000E+00 0. -1.
         -5    1    3    3    0  503 -0.21987025036E+02  0.78836582526E+02 -0.23719504638E+02  0.85342491847E+02  0.47000000000E+01 0.  1.
         13    1    4    4    0    0 -0.17276238750E+02  0.20368331847E+02 -0.99662871588E+01  0.28507266570E+02  0.00000000000E+00 0. -1.
        -14    1    4    4    0    0 -0.61869270005E+01 -0.70520515508E+02 -0.25809073588E+02  0.75349382564E+02  0.00000000000E+00 0.  1.
</event>
<event>
12    1  0.9962621E-001  0.1751164E+03  0.7818608E-02  0.1172883E+00
         21   -1    0    0  503  502  0.00000000000E+00  0.00000000000E+00  0.12842533620E+03  0.12842533620E+03  0.00000000000E+00 0. -1.
         21   -1    0    0  501  503 -0.00000000000E+00 -0.00000000000E+00 -0.28361965763E+03  0.28361965763E+03  0.00000000000E+00 0. -1.
          6    2    1    2  501    0  0.23169732461E+02  0.20673171778E+02  0.54340563653E+01  0.17520064327E+03  0.17234128901E+03 0.  0.
         24    2    3    3    0    0 -0.45440980876E+02 -0.15715569090E+02 -0.17023817530E+02  0.94219061740E+02  0.79218428267E+02 0.  0.
         -6    2    1    2    0  502 -0.23169732461E+02 -0.20673171778E+02 -0.16062837779E+03  0.23684435056E+03  0.17125873439E+03 0.  0.
        -24    2    5    5    0    0  0.45012536126E+02 -0.14259737802E+02 -0.13425905474E+03  0.16330942632E+03  0.80093735176E+02 0.  0.
          5    1    3    3  501    0  0.68610713337E+02  0.36388740868E+02  0.22457873896E+02  0.80981581526E+02  0.47000000000E+01 0. -1.
        -11    1    4    4    0    0 -0.95476836992E+01 -0.15155281353E+02 -0.45177018305E+02  0.48598392976E+02  0.00000000000E+00 0.  1.
         12    1    4    4    0    0 -0.35893297177E+02 -0.56028773611E+00  0.28153200775E+02  0.45620668764E+02  0.00000000000E+00 0. -1.
         -5    1    5    5    0  502 -0.68182268586E+02 -0.64134339758E+01 -0.26369323055E+02  0.73534924243E+02  0.47000000000E+01 0.  1.
         11    1    6    6    0    0  0.28853525265E+02 -0.27875255517E+02 -0.13629887360E+03  0.14208074724E+03  0.00000000000E+00 0. -1.
        -12    1    6    6    0    0  0.16159010861E+02  0.13615517715E+02  0.20398188611E+01  0.21228679083E+02  0.00000000000E+00 0.  1.
</event>
<event>
12    1  0.9962621E-001  0.3960087E+03  0.7818608E-02  0.1045246E+00
         21   -1    0    0  503  502  0.00000000000E+00  0.00000000000E+00  0.15821177041E+03  0.15821177041E+03  0.00000000000E+00 0. -1.
         21   -1    0    0  501  503 -0.00000000000E+00 -0.00000000000E+00 -0.10026993416E+04  0.10026993416E+04  0.00000000000E+00 0. -1.
          6    2    1    2  501    0  0.35475038119E+03 -0.33207515378E+02 -0.49039166587E+03  0.63032281024E+03  0.17283601224E+03 0.  0.
         24    2    3    3    0    0  0.21093609667E+03 -0.57486677057E+02 -0.38686324023E+03  0.45140313263E+03  0.79390595064E+02 0.  0.
         -6    2    1    2    0  502 -0.35475038119E+03  0.33207515378E+02 -0.35409590529E+03  0.53058830174E+03  0.17084924282E+03 0.  0.
        -24    2    5    5    0    0 -0.17445599317E+03 -0.30921617461E+02 -0.24275713699E+03  0.30914525408E+03  0.72448054385E+02 0.  0.
          5    1    3    3  501    0  0.14381428452E+03  0.24279161679E+02 -0.10352842564E+03  0.17891967761E+03  0.47000000000E+01 0. -1.
        -11    1    4    4    0    0  0.19689599515E+03 -0.28571946608E+02 -0.34907613344E+03  0.40179414627E+03  0.00000000000E+00 0.  1.
         12    1    4    4    0    0  0.14040101523E+02 -0.28914730449E+02 -0.37787106787E+02  0.49608986353E+02  0.00000000000E+00 0. -1.
         -5    1    5    5    0  502 -0.18029438802E+03  0.64129132840E+02 -0.11133876830E+03  0.22144304766E+03  0.47000000000E+01 0.  1.
         13    1    6    6    0    0 -0.43989299405E+02  0.13295493903E+02 -0.10360368732E+03  0.11333822236E+03  0.00000000000E+00 0. -1.
        -14    1    6    6    0    0 -0.13046669377E+03 -0.44217111365E+02 -0.13915344967E+03  0.19580703173E+03  0.00000000000E+00 0.  1.
</event>
<event>
12    1  0.9962621E-001  0.1893726E+03  0.7818608E-02  0.1159180E+00
         21   -1    0    0  501  502  0.00000000000E+00  0.00000000000E+00  0.11184460086E+03  0.11184460086E+03  0.00000000000E+00 0.  1.
         21   -1    0    0  502  503 -0.00000000000E+00 -0.00000000000E+00 -0.44918436499E+03  0.44918436499E+03  0.00000000000E+00 0.  1.
         -6    2    1    2    0  503 -0.48426029803E+02 -0.62125372794E+02 -0.31960335139E+03  0.37149464182E+03  0.17221302032E+03 0.  0.
        -24    2    3    3    0    0 -0.10479736863E+02 -0.10121470041E+03 -0.18136284371E+03  0.22283252611E+03  0.80047568054E+02 0.  0.
          6    2    1    2  501    0  0.48426029803E+02  0.62125372794E+02 -0.17736412737E+02  0.18953432403E+03  0.17147605471E+03 0.  0.
         24    2    5    5    0    0  0.92414901147E+01  0.67710382963E+02 -0.66474417912E+02  0.12657319604E+03  0.83257579944E+02 0.  0.
          5    1    5    5  501    0  0.39184539688E+02 -0.55850101686E+01  0.48738005175E+02  0.62961127988E+02  0.47000000000E+01 0. -1.
        -11    1    6    6    0    0  0.22030620527E+02  0.83896756142E+02 -0.57551442535E+02  0.10409698588E+03  0.00000000000E+00 0.  1.
         12    1    6    6    0    0 -0.12789130413E+02 -0.16186373179E+02 -0.89229753766E+01  0.22476210156E+02  0.00000000000E+00 0. -1.
         -5    1    3    3    0  503 -0.37946292940E+02  0.39089327613E+02 -0.13824050769E+03  0.14866211571E+03  0.47000000000E+01 0.  1.
         11    1    4    4    0    0 -0.41552030258E+01 -0.14155699259E+02 -0.10743907696E+03  0.10844724428E+03  0.00000000000E+00 0. -1.
        -12    1    4    4    0    0 -0.63245338369E+01 -0.87059001149E+02 -0.73923766747E+02  0.11438528183E+03  0.00000000000E+00 0.  1.
</event>
<event>
12    1  0.9962621E-001  0.2630697E+03  0.7818608E-02  0.1105382E+00
         21   -1    0    0  503  502  0.00000000000E+00  0.00000000000E+00  0.19226014258E+03  0.19226014258E+03  0.00000000000E+00 0.  1.
         21   -1    0    0  501  503 -0.00000000000E+00 -0.00000000000E+00 -0.42572640850E+03  0.42572640850E+03  0.00000000000E+00 0.  1.
          6    2    1    2  501    0 -0.19579054975E+03 -0.19457228613E+02  0.53914712747E+01  0.26265754529E+03  0.17391778236E+03 0.  0.
         24    2    3    3    0    0 -0.11340659845E+03 -0.17875614094E+02 -0.65770034679E+02  0.15368201196E+03  0.78178444514E+02 0.  0.
         -6    2    1    2    0  502  0.19579054975E+03  0.19457228613E+02 -0.23885773719E+03  0.35532900579E+03  0.17462290979E+03 0.  0.
        -24    2    5    5    0    0  0.18860046352E+03  0.64316924533E+02 -0.17636092003E+03  0.27792079037E+03  0.80187218369E+02 0.  0.
          5    1    3    3  501    0 -0.82383951302E+02 -0.15816145188E+01  0.71161505954E+02  0.10897553334E+03  0.47000000000E+01 0. -1.
        -11    1    4    4    0    0 -0.34711459109E+02 -0.32078234216E+02  0.41666830198E+01  0.47447441989E+02  0.00000000000E+00 0.  1.
         12    1    4    4    0    0 -0.78695139339E+02  0.14202620121E+02 -0.69936717699E+02  0.10623456997E+03  0.00000000000E+00 0. -1.
         -5    1    5    5    0  502  0.71900862338E+01 -0.44859695920E+02 -0.62496817168E+02  0.77408215418E+02  0.47000000000E+01 0.  1.
         11    1    6    6    0    0  0.11357482021E+03  0.69729878830E+02 -0.79143550250E+02  0.15500063656E+03  0.00000000000E+00 0. -1.
        -12    1    6    6    0    0  0.75025643303E+02 -0.54129542974E+01 -0.97217369776E+02  0.12292015381E+03  0.00000000000E+00 0.  1.
</event>
<event>
12    1  0.9962621E-001  0.2619908E+03  0.7818608E-02  0.1105959E+00
         21   -1    0    0  501  502  0.00000000000E+00  0.00000000000E+00  0.72385277543E+03  0.72385277543E+03  0.00000000000E+00 0. -1.
         21   -1    0    0  502  503 -0.00000000000E+00 -0.00000000000E+00 -0.10349064418E+03  0.10349064418E+03  0.00000000000E+00 0. -1.
         -6    2    1    2    0  503  0.20339171356E+01 -0.19780604412E+03  0.19035986211E+03  0.32381475418E+03  0.17171997558E+03 0.  0.
        -24    2    3    3    0    0 -0.58378628697E+02 -0.15292209765E+03  0.16175268496E+03  0.24316300325E+03  0.78556239832E+02 0.  0.
          6    2    1    2  501    0 -0.20339171356E+01  0.19780604412E+03  0.43000226914E+03  0.50352866543E+03  0.17177833836E+03 0.  0.
         24    2    5    5    0    0  0.24391281145E+02  0.78324145967E+02  0.10109546759E+03  0.15256429516E+03  0.79535929946E+02 0.  0.
          5    1    5    5  501    0 -0.26425198281E+02  0.11948189815E+03  0.32890680155E+03  0.35096437027E+03  0.47000000000E+01 0. -1.
        -13    1    6    6    0    0  0.40441851151E+02  0.53024956325E+02  0.10282106977E+03  0.12255350548E+03  0.00000000000E+00 0.  1.
         14    1    6    6    0    0 -0.16050570006E+02  0.25299189642E+02 -0.17256021774E+01  0.30010789676E+02  0.00000000000E+00 0. -1.
         -5    1    3    3    0  503  0.60412545833E+02 -0.44883946466E+02  0.28607177145E+02  0.80651750933E+02  0.47000000000E+01 0.  1.
         13    1    4    4    0    0 -0.55303262967E+02 -0.48850705722E+02  0.43707841010E+02  0.85762565902E+02  0.00000000000E+00 0. -1.
        -14    1    4    4    0    0 -0.30753657305E+01 -0.10407139193E+03  0.11804484395E+03  0.15740043735E+03  0.00000000000E+00 0.  1.
</event>
<event>
12    1  0.9962621E-001  0.2086403E+03  0.7818608E-02  0.1143068E+00
         21   -1    0    0  501  502  0.00000000000E+00  0.00000000000E+00  0.28135738803E+03  0.28135738803E+03  0.00000000000E+00 0. -1.
         21   -1    0    0  502  503 -0.00000000000E+00 -0.00000000000E+00 -0.17024920947E+03  0.17024920947E+03  0.00000000000E+00 0. -1.
         -6    2    1    2    0  503  0.93642982882E+02  0.65536525347E+02 -0.16226944873E+02  0.20717869026E+03  0.17203386749E+03 0.  0.
        -24    2    3    3    0    0 -0.39590849328E+01 -0.69473884184E+01 -0.29486865720E+02  0.84794063381E+02  0.79098782388E+02 0.  0.
          6    2    1    2  501    0 -0.93642982882E+02 -0.65536525347E+02  0.12733512343E+03  0.24442790723E+03  0.17454719641E+03 0.  0.
         24    2    5    5    0    0 -0.87845950177E+02 -0.10596574126E+03  0.70991376044E+02  0.17467953838E+03  0.80793046548E+02 0.  0.
          5    1    5    5  501    0 -0.57970327054E+01  0.40429215916E+02  0.56343747390E+02  0.69748368854E+02  0.47000000000E+01 0. -1.
        -11    1    6    6    0    0 -0.29979169500E+02 -0.96223127646E+02  0.41363828297E+02  0.10894313741E+03  0.00000000000E+00 0.  1.
         12    1    6    6    0    0 -0.57866780677E+02 -0.97426136171E+01  0.29627547747E+02  0.65736400963E+02  0.00000000000E+00 0. -1.
         -5    1    3    3    0  503  0.97602067815E+02  0.72483913765E+02  0.13259920847E+02  0.12238462688E+03  0.47000000000E+01 0.  1.
         11    1    4    4    0    0 -0.10401658530E+01  0.39189320922E+01 -0.55919527131E+02  0.56066331147E+02  0.00000000000E+00 0. -1.
        -12    1    4    4    0    0 -0.29189190798E+01 -0.10866320511E+02  0.26432661411E+02  0.28727732234E+02  0.00000000000E+00 0.  1.
</event>
<event>
12    1  0.9962621E-001  0.2182860E+03  0.7818608E-02  0.1135906E+00
         21   -1    0    0  503  502  0.00000000000E+00  0.00000000000E+00  0.17962263081E+03  0.17962263081E+03  0.00000000000E+00 0.  1.
         21   -1    0    0  501  503 -0.00000000000E+00 -0.00000000000E+00 -0.70588718433E+03  0.70588718433E+03  0.00000000000E+00 0.  1.
          6    2    1    2  501    0  0.12367592690E+03  0.28847350081E+02  0.87655880261E+02  0.23522822336E+03  0.17754114795E+03 0.  0.
         24    2    3    3    0    0  0.38963431952E+02  0.66218357328E+02  0.90613750277E+02  0.14247242581E+03  0.78641722386E+02 0.  0.
         -6    2    1    2    0  502 -0.12367592690E+03 -0.28847350081E+02 -0.61392043378E+03  0.65028159179E+03  0.17274242416E+03 0.  0.
        -24    2    5    5    0    0 -0.11564302169E+03 -0.34779386779E+02 -0.62176714674E+03  0.63673989582E+03  0.65271708695E+02 0.  0.
          5    1    3    3  501    0  0.84712494952E+02 -0.37371007246E+02 -0.29578700163E+01  0.92755797547E+02  0.47000000000E+01 0. -1.
        -13    1    4    4    0    0 -0.18109266783E+02  0.17214012490E+02  0.52502719502E+02  0.58144675806E+02  0.00000000000E+00 0.  1.
         14    1    4    4    0    0  0.57072698735E+02  0.49004344838E+02  0.38111030774E+02  0.84327750003E+02  0.00000000000E+00 0. -1.
         -5    1    5    5    0  502 -0.80329052151E+01  0.59320366981E+01  0.78467129554E+01  0.13541695972E+02  0.47000000000E+01 0.  1.
         13    1    6    6    0    0 -0.21494994910E+02 -0.83380928118E+01 -0.28854939694E+03  0.28946901919E+03  0.00000000000E+00 0. -1.
        -14    1    6    6    0    0 -0.94148026778E+02 -0.26441293968E+02 -0.33321774980E+03  0.34727087663E+03  0.00000000000E+00 0.  1.
</event>
<event>
12    1  0.9962621E-001  0.4498067E+03  0.7818608E-02  0.1027782E+00
         21   -1    0    0  503  502  0.00000000000E+00  0.00000000000E+00  0.11018597855E+04  0.11018597855E+04  0.00000000000E+00 0.  1.
         21   -1    0    0  501  503 -0.00000000000E+00 -0.00000000000E+00 -0.23767153343E+03  0.23767153343E+03  0.00000000000E+00 0. -1.
          6    2    1    2  501    0 -0.18826676566E+03 -0.37056745352E+03  0.75153781269E+03  0.87586252444E+03  0.17193447922E+03 0.  0.
         24    2    3    3    0    0 -0.64032286809E+02 -0.70428554883E+02  0.27895343600E+03  0.30238571819E+03  0.67541009847E+02 0.  0.
         -6    2    1    2    0  502  0.18826676566E+03  0.37056745352E+03  0.11265043939E+03  0.46366879451E+03  0.17185463870E+03 0.  0.
        -24    2    5    5    0    0  0.15881986279E+03  0.35728722998E+03  0.62592388309E+02  0.40390774612E+03  0.79660195682E+02 0.  0.
          5    1    3    3  501    0 -0.12423447885E+03 -0.30013889864E+03  0.47258437669E+03  0.57347680625E+03  0.47000000000E+01 0. -1.
        -13    1    4    4    0    0  0.12923114016E+02 -0.37791952776E+01  0.50709791729E+02  0.52466867355E+02  0.00000000000E+00 0.  1.
         14    1    4    4    0    0 -0.76955400824E+02 -0.66649359605E+02  0.22824364427E+03  0.24991885083E+03  0.00000000000E+00 0. -1.
         -5    1    5    5    0  502  0.29446902873E+02  0.13280223540E+02  0.50058051085E+02  0.59761048389E+02  0.47000000000E+01 0.  1.
         13    1    6    6    0    0  0.29272845748E+02  0.43668457565E+02 -0.17230244828E+02  0.55323729277E+02  0.00000000000E+00 0. -1.
        -14    1    6    6    0    0  0.12954701704E+03  0.31361877242E+03  0.79822633137E+02  0.34858401684E+03  0.00000000000E+00 0.  1.
</event>
<event>
12    1  0.9962621E-001  0.2001546E+03  0.7818608E-02  0.1149670E+00
         21   -1    0    0  503  502  0.00000000000E+00  0.00000000000E+00  0.28730919615E+03  0.28730919615E+03  0.00000000000E+00 0. -1.
         21   -1    0    0  501  503 -0.00000000000E+00 -0.00000000000E+00 -0.17171184938E+03  0.17171184938E+03  0.00000000000E+00 0.  1.
          6    2    1    2  501    0 -0.10354462844E+03  0.43988517584E+01 -0.41978180043E+02  0.20450926865E+03  0.17123385585E+03 0.  0.
         24    2    3    3    0    0 -0.52838443613E+02 -0.47754740789E+02 -0.69044066111E+02  0.12675474091E+03  0.78913021030E+02 0.  0.
         -6    2    1    2    0  502  0.10354462844E+03 -0.43988517584E+01  0.15757552682E+03  0.25451177687E+03  0.17089575167E+03 0.  0.
        -24    2    5    5    0    0  0.26774103560E+02  0.47478841877E+02  0.43811491716E+02  0.10771479370E+03  0.81926411660E+02 0.  0.
          5    1    3    3  501    0 -0.50706184827E+02  0.52153592547E+02  0.27065886068E+02  0.77754527739E+02  0.47000000000E+01 0. -1.
        -11    1    4    4    0    0  0.11751390424E+01 -0.18503198753E+02  0.14162710062E+02  0.23330916659E+02  0.00000000000E+00 0.  1.
         12    1    4    4    0    0 -0.54013582655E+02 -0.29251542036E+02 -0.83206776172E+02  0.10342382426E+03  0.00000000000E+00 0. -1.
         -5    1    5    5    0  502  0.76770524880E+02 -0.51877693636E+02  0.11376403510E+03  0.14679698318E+03  0.47000000000E+01 0.  1.
         11    1    6    6    0    0  0.17925821815E+02  0.14503916300E+02  0.64016445504E+02  0.68042662872E+02  0.00000000000E+00 0. -1.
        -12    1    6    6    0    0  0.88482817448E+01  0.32974925577E+02 -0.20204953788E+02  0.39672130825E+02  0.00000000000E+00 0.  1.
</event>
<event>
12    1  0.9962621E-001  0.2993874E+03  0.7818608E-02  0.1085639E+00
         21   -1    0    0  501  502  0.00000000000E+00  0.00000000000E+00  0.86167774940E+03  0.86167774940E+03  0.00000000000E+00 0.  1.
         21   -1    0    0  502  503 -0.00000000000E+00 -0.00000000000E+00 -0.10756368501E+03  0.10756368501E+03  0.00000000000E+00 0.  1.
         -6    2    1    2    0  503  0.23731931314E+03 -0.57109259278E+02  0.46764652611E+03  0.55487868770E+03  0.17209055988E+03 0.  0.
        -24    2    3    3    0    0  0.18712059688E+03 -0.14473706073E+02  0.22520436911E+03  0.30360594545E+03  0.78968071383E+02 0.  0.
          6    2    1    2  501    0 -0.23731931314E+03  0.57109259278E+02  0.28646753828E+03  0.41436274671E+03  0.17335198728E+03 0.  0.
         24    2    5    5    0    0 -0.95033141801E+02 -0.19054052938E+02  0.18617958613E+03  0.22429442209E+03  0.79061966278E+02 0.  0.
          5    1    5    5  501    0 -0.14228617134E+03  0.76163312216E+02  0.10028795214E+03  0.19006832463E+03  0.47000000000E+01 0. -1.
        -11    1    6    6    0    0 -0.62440117542E+01 -0.28804955935E+02  0.81605578476E+02  0.86765105933E+02  0.00000000000E+00 0.  1.
         12    1    6    6    0    0 -0.88789130047E+02  0.97509029966E+01  0.10457400766E+03  0.13752931615E+03  0.00000000000E+00 0. -1.
         -5    1    3    3    0  503  0.50198716254E+02 -0.42635553205E+02  0.24244215699E+03  0.25127274225E+03  0.47000000000E+01 0.  1.
         11    1    4    4    0    0  0.15174428417E+03 -0.23480767900E+02  0.21759238265E+03  0.26631582609E+03  0.00000000000E+00 0. -1.
        -12    1    4    4    0    0  0.35376312708E+02  0.90070618268E+01  0.76119864655E+01  0.37290119355E+02  0.00000000000E+00 0.  1.
</event>
<event>
12    1  0.9962621E-001  0.2133185E+03  0.7818608E-02  0.1140140E+00
         21   -1    0    0  503  502  0.00000000000E+00  0.00000000000E+00  0.78813201921E+03  0.78813201921E+03  0.00000000000E+00 0. -1.
         21   -1    0    0  501  503 -0.00000000000E+00 -0.00000000000E+00 -0.11631448880E+03  0.11631448880E+03  0.00000000000E+00 0.  1.
          6    2    1    2  501    0 -0.10784908406E+03  0.34034055709E+02  0.65887919960E+03  0.69073595067E+03  0.17379474101E+03 0.  0.
         24    2    3    3    0    0 -0.12608980608E+03  0.54945079992E+02  0.40485094240E+03  0.43515339976E+03  0.80849209925E+02 0.  0.
         -6    2    1    2    0  502  0.10784908406E+03 -0.34034055709E+02  0.12938330806E+02  0.21371055733E+03  0.18087304948E+03 0.  0.
        -24    2    5    5    0    0  0.69952074616E+01 -0.28276680957E+02  0.56784755574E+02  0.10348691760E+03  0.81464900635E+02 0.  0.
          5    1    3    3  501    0  0.18240722014E+02 -0.20911024282E+02  0.25402825720E+03  0.25558255092E+03  0.47000000000E+01 0. -1.
        -11    1    4    4    0    0 -0.45642224033E+02 -0.16197640963E+02  0.17276650918E+03  0.17942642749E+03  0.00000000000E+00 0.  1.
         12    1    4    4    0    0 -0.80447582045E+02  0.71142720955E+02  0.23208443322E+03  0.25572697227E+03  0.00000000000E+00 0. -1.
         -5    1    5    5    0  502  0.10085387660E+03 -0.57573747520E+01 -0.43846424768E+02  0.11022363973E+03  0.47000000000E+01 0.  1.
         13    1    6    6    0    0 -0.81485960733E+01  0.17504725867E+02  0.51471619654E+02  0.54974018186E+02  0.00000000000E+00 0. -1.
        -14    1    6    6    0    0  0.15143803535E+02 -0.45781406824E+02  0.53131359199E+01  0.48512899415E+02  0.00000000000E+00 0.  1.
</event>
<event>
12    1  0.9962621E-001  0.2459666E+03  0.7818608E-02  0.1116575E+00
         21   -1    0    0  501  502  0.00000000000E+00  0.00000000000E+00  0.22130418667E+04  0.22130418667E+04  0.00000000000E+00 0.  1.
         21   -1    0    0  502  503 -0.00000000000E+00 -0.00000000000E+00 -0.28783763753E+02  0.28783763753E+02  0.00000000000E+00 0.  1.
         -6    2    1    2    0  503  0.60710887433E+02 -0.15908427394E+03  0.13725358068E+04  0.13936554625E+04  0.17154413135E+03 0.  0.
        -24    2    3    3    0    0  0.31402619722E+02 -0.17907484675E+03  0.10076380743E+04  0.10270070713E+04  0.79718946515E+02 0.  0.
          6    2    1    2  501    0 -0.60710887433E+02  0.15908427394E+03  0.81172229613E+03  0.84817016798E+03  0.17749909792E+03 0.  0.
         24    2    5    5    0    0  0.63494781729E+01  0.13453012034E+03  0.38836584777E+03  0.41880695175E+03  0.80203254069E+02 0.  0.
          5    1    5    5  501    0 -0.67060365605E+02  0.24554153593E+02  0.42335644836E+03  0.42936321624E+03  0.47000000000E+01 0. -1.
        -13    1    6    6    0    0 -0.41536751648E+01 -0.85224688653E+01  0.56200855101E+02  0.56994926152E+02  0.00000000000E+00 0.  1.
         14    1    6    6    0    0  0.10503153338E+02  0.14305258921E+03  0.33216499267E+03  0.36181202559E+03  0.00000000000E+00 0. -1.
         -5    1    3    3    0  503  0.29308267711E+02  0.19990572813E+02  0.36489773254E+03  0.36664839120E+03  0.47000000000E+01 0.  1.
         13    1    4    4    0    0  0.48428218996E+02 -0.81284519915E+02  0.60263163788E+03  0.61001422652E+03  0.00000000000E+00 0. -1.
        -14    1    4    4    0    0 -0.17025599274E+02 -0.97790326833E+02  0.40500643640E+03  0.41699284476E+03  0.00000000000E+00 0.  1.
</event>
<event>
12    1  0.9962621E-001  0.3345286E+03  0.7818608E-02  0.1069197E+00
         21   -1    0    0  501  502  0.00000000000E+00  0.00000000000E+00  0.50439681742E+03  0.50439681742E+03  0.00000000000E+00 0. -1.
         21   -1    0    0  502  503 -0.00000000000E+00 -0.00000000000E+00 -0.24633931934E+03  0.24633931934E+03  0.00000000000E+00 0. -1.
         -6    2    1    2    0  503  0.17840398172E+03  0.22340190166E+03  0.24808905131E+03  0.41648234828E+03  0.17370370948E+03 0.  0.
        -24    2    3    3    0    0  0.15053149628E+03  0.23887608416E+03  0.18675011300E+03  0.34719395732E+03  0.77113710449E+02 0.  0.
          6    2    1    2  501    0 -0.17840398172E+03 -0.22340190166E+03  0.99684467742E+01  0.33425378848E+03  0.17288676880E+03 0.  0.
         24    2    5    5    0    0 -0.14473819596E+02 -0.89731903961E+02  0.17389665980E+02  0.12255133022E+03  0.80343773961E+02 0.  0.
          5    1    5    5  501    0 -0.16393016212E+03 -0.13366999770E+03 -0.74212192055E+01  0.21170245826E+03  0.47000000000E+01 0. -1.
        -13    1    6    6    0    0  0.22862074254E+02 -0.71261607174E+02  0.27423120080E+02  0.79705198144E+02  0.00000000000E+00 0.  1.
         14    1    6    6    0    0 -0.37335893850E+02 -0.18470296787E+02 -0.10033454100E+02  0.42846132079E+02  0.00000000000E+00 0. -1.
         -5    1    3    3    0  503  0.27872485440E+02 -0.15474182499E+02  0.61338938308E+02  0.69288390957E+02  0.47000000000E+01 0.  1.
         13    1    4    4    0    0  0.88845546489E+02  0.81502126632E+02  0.53251915892E+02  0.13180248223E+03  0.00000000000E+00 0. -1.
        -14    1    4    4    0    0  0.61685949786E+02  0.15737395753E+03  0.13349819711E+03  0.21539147509E+03  0.00000000000E+00 0.  1.
</event>
<event>
12    1  0.9962621E-001  0.1713431E+03  0.7818608E-02  0.1176598E+00
         21   -1    0    0  503  502  0.00000000000E+00  0.00000000000E+00  0.27280123808E+03  0.27280123808E+03  0.00000000000E+00 0.  1.
         21   -1    0    0  501  503 -0.00000000000E+00 -0.00000000000E+00 -0.17038740822E+03  0.17038740822E+03  0.00000000000E+00 0.  1.
          6    2    1    2  501    0  0.68479405976E+01  0.51287804237E+01  0.18602332644E+03  0.25253445132E+03  0.17057482946E+03 0.  0.
         24    2    3    3    0    0 -0.34452503286E+02  0.41595711676E+02  0.86266469357E+02  0.13847707859E+03  0.93897919818E+02 0.  0.
         -6    2    1    2    0  502 -0.68479405976E+01 -0.51287804237E+01 -0.83609496568E+02  0.19065419498E+03  0.17112941147E+03 0.  0.
        -24    2    5    5    0    0 -0.37297957710E+02  0.19387633092E+02 -0.11042251466E+03  0.14301717143E+03  0.80583879361E+02 0.  0.
          5    1    3    3  501    0  0.41300443883E+02 -0.36466931252E+02  0.99756857078E+02  0.11405737273E+03  0.47000000000E+01 0. -1.
        -13    1    4    4    0    0 -0.12297933226E+02  0.23762475864E+02  0.10235994567E+03  0.10579911577E+03  0.00000000000E+00 0.  1.
         14    1    4    4    0    0 -0.22154570060E+02  0.17833235812E+02 -0.16093476311E+02  0.32677962816E+02  0.00000000000E+00 0. -1.
         -5    1    5    5    0  502  0.30450017113E+02 -0.24516413516E+02  0.26813018093E+02  0.47637023554E+02  0.47000000000E+01 0.  1.
         11    1    6    6    0    0 -0.35602760619E+02 -0.19012941530E+02 -0.20597356062E+02  0.45313348873E+02  0.00000000000E+00 0. -1.
        -12    1    6    6    0    0 -0.16951970910E+01  0.38400574623E+02 -0.89825158598E+02  0.97703822554E+02  0.00000000000E+00 0.  1.
</event>
<event>
12    1  0.9962621E-001  0.3154515E+03  0.7818608E-02  0.1077848E+00
         21   -1    0    0  501  502  0.00000000000E+00  0.00000000000E+00  0.25309120346E+03  0.25309120346E+03  0.00000000000E+00 0.  1.
         21   -1    0    0  502  503 -0.00000000000E+00 -0.00000000000E+00 -0.56897549149E+03  0.56897549149E+03  0.00000000000E+00 0. -1.
         -6    2    1    2    0  503  0.13846703776E+03 -0.22508597859E+03  0.71253700904E+02  0.32268157166E+03  0.17090783626E+03 0.  0.
        -24    2    3    3    0    0  0.59567788925E+02 -0.16890000685E+03  0.10211382837E+03  0.22091521006E+03  0.79377341221E+02 0.  0.
          6    2    1    2  501    0 -0.13846703776E+03  0.22508597859E+03 -0.38713798894E+03  0.49938512328E+03  0.17225812193E+03 0.  0.
         24    2    5    5    0    0 -0.94153333471E+01  0.75535709254E+02 -0.18123427636E+03  0.21401158855E+03  0.84621541184E+02 0.  0.
          5    1    5    5  501    0 -0.12905170442E+03  0.14955026934E+03 -0.20590371258E+03  0.28537353473E+03  0.47000000000E+01 0. -1.
        -13    1    6    6    0    0  0.15176130099E+02  0.78777381702E+02 -0.16734935296E+03  0.18558555097E+03  0.00000000000E+00 0.  1.
         14    1    6    6    0    0 -0.24591463446E+02 -0.32416724475E+01 -0.13884923394E+02  0.28426037577E+02  0.00000000000E+00 0. -1.
         -5    1    3    3    0  503  0.78899248839E+02 -0.56185971738E+02 -0.30860127464E+02  0.10176636161E+03  0.47000000000E+01 0.  1.
         13    1    4    4    0    0  0.62916918656E+02 -0.14358274855E+03  0.52860967622E+02  0.16543526296E+03  0.00000000000E+00 0. -1.
        -14    1    4    4    0    0 -0.33491297310E+01 -0.25317258303E+02  0.49252860746E+02  0.55479947095E+02  0.00000000000E+00 0.  1.
</event>
<event>
12    1  0.9962621E-001  0.1773004E+03  0.7818608E-02  0.1174447E+00
         21   -1    0    0  503  502  0.00000000000E+00  0.00000000000E+00  0.10694174577E+04  0.10694174577E+04  0.00000000000E+00 0.  1.
         21   -1    0    0  501  503 -0.00000000000E+00 -0.00000000000E+00 -0.40021025401E+02  0.40021025401E+02  0.00000000000E+00 0.  1.
          6    2    1    2  501    0 -0.38328713800E+02  0.20133999986E+02  0.18138386300E+03  0.24308939573E+03  0.15594191323E+03 0.  0.
         24    2    3    3    0    0 -0.76419338269E+02 -0.73056729074E+01  0.12792705417E+03  0.17179036537E+03  0.85166368509E+02 0.  0.
         -6    2    1    2    0  502  0.38328713800E+02 -0.20133999986E+02  0.84801256933E+03  0.86634908740E+03  0.17193299637E+03 0.  0.
        -24    2    5    5    0    0  0.58830527501E+02  0.37761074460E+02  0.37078805354E+03  0.38516565825E+03  0.77342575232E+02 0.  0.
          5    1    3    3  501    0  0.38090624468E+02  0.27439672893E+02  0.53456808824E+02  0.71299030362E+02  0.47000000000E+01 0. -1.
        -13    1    4    4    0    0 -0.60060100306E+01 -0.13490649332E+02 -0.92837904551E+01  0.17443008373E+02  0.00000000000E+00 0.  1.
         14    1    4    4    0    0 -0.70413328238E+02  0.61849764247E+01  0.13721084463E+03  0.15434735699E+03  0.00000000000E+00 0. -1.
         -5    1    5    5    0  502 -0.20501813701E+02 -0.57895074446E+02  0.47722451579E+03  0.48118342915E+03  0.47000000000E+01 0.  1.
         11    1    6    6    0    0  0.18009315574E+02 -0.24101268641E+02  0.11253628897E+03  0.11648872449E+03  0.00000000000E+00 0. -1.
        -12    1    6    6    0    0  0.40821211927E+02  0.61862343102E+02  0.25825176456E+03  0.26867693376E+03  0.00000000000E+00 0.  1.
</event>
<event>
12    1  0.9962621E-001  0.2224209E+03  0.7818608E-02  0.1132411E+00
         21   -1    0    0  501  502  0.00000000000E+00  0.00000000000E+00  0.18467496054E+04  0.18467496054E+04  0.00000000000E+00 0.  1.
         21   -1    0    0  502  503 -0.00000000000E+00 -0.00000000000E+00 -0.29755904322E+02  0.29755904322E+02  0.00000000000E+00 0.  1.
         -6    2    1    2    0  503 -0.13253164241E+03  0.45347452658E+02  0.59878572442E+03  0.63815914619E+03  0.17053364594E+03 0.  0.
        -24    2    3    3    0    0 -0.96379714040E+02  0.14611980849E+01  0.23464111369E+03  0.26957217845E+03  0.91222380929E+02 0.  0.
          6    2    1    2  501    0  0.13253164241E+03 -0.45347452658E+02  0.12182079766E+04  0.12383463635E+04  0.17277156587E+03 0.  0.
         24    2    5    5    0    0  0.52391358618E+02 -0.89050059935E+02  0.65298593486E+03  0.66578158160E+03  0.78738273065E+02 0.  0.
          5    1    5    5  501    0  0.80140283791E+02  0.43702607277E+02  0.56522204177E+03  0.57256478190E+03  0.47000000000E+01 0. -1.
        -11    1    6    6    0    0  0.66694502248E+02 -0.76012151799E+02  0.61382808949E+03  0.62210202323E+03  0.00000000000E+00 0.  1.
         12    1    6    6    0    0 -0.14303143630E+02 -0.13037908135E+02  0.39157845367E+02  0.43679558378E+02  0.00000000000E+00 0. -1.
         -5    1    3    3    0  503 -0.36151928369E+02  0.43886254573E+02  0.36414461072E+03  0.36858696774E+03  0.47000000000E+01 0.  1.
         11    1    4    4    0    0 -0.34961928815E+02 -0.21535759858E+02  0.17874685913E+03  0.18340274008E+03  0.00000000000E+00 0. -1.
        -12    1    4    4    0    0 -0.61417785225E+02  0.22996957943E+02  0.55894254560E+02  0.86169438372E+02  0.00000000000E+00 0.  1.
</event>
<event>
12    1  0.9962621E-001  0.2145466E+03  0.7818608E-02  0.1138072E+00
         21   -1    0    0  501  502  0.00000000000E+00  0.00000000000E+00  0.15149000829E+03  0.15149000829E+03  0.00000000000E+00 0. -1.
         21   -1    0    0  502  503 -0.00000000000E+00 -0.00000000000E+00 -0.31784473064E+03  0.31784473064E+03  0.00000000000E+00 0. -1.
         -6    2    1    2    0  503  0.82784528089E+02  0.99925945511E+02 -0.13309174067E+03  0.25222497281E+03  0.17048622466E+03 0.  0.
        -24    2    3    3    0    0  0.11435028471E+03  0.45588090626E+02 -0.11434287964E+03  0.18647841963E+03  0.80905162038E+02 0.  0.
          6    2    1    2  501    0 -0.82784528089E+02 -0.99925945511E+02 -0.33262981687E+02  0.21710976612E+03  0.17085593908E+03 0.  0.
         24    2    5    5    0    0 -0.95692910044E+02 -0.14451566297E+02 -0.30531143467E+02  0.13049539799E+03  0.82042168269E+02 0.  0.
          5    1    5    5  501    0  0.12908381955E+02 -0.85474379214E+02 -0.27318382200E+01  0.86614368131E+02  0.47000000000E+01 0. -1.
        -11    1    6    6    0    0 -0.15852927869E+02  0.26013269387E+02 -0.27335393886E+02  0.40929564683E+02  0.00000000000E+00 0.  1.
         12    1    6    6    0    0 -0.79839982175E+02 -0.40464835685E+02 -0.31957495810E+01  0.89565833308E+02  0.00000000000E+00 0. -1.
         -5    1    3    3    0  503 -0.31565756621E+02  0.54337854885E+02 -0.18748861026E+02  0.65746553175E+02  0.47000000000E+01 0.  1.
         13    1    4    4    0    0  0.89890741564E+02  0.22100031125E+02 -0.32870571360E+02  0.98230500641E+02  0.00000000000E+00 0. -1.
        -14    1    4    4    0    0  0.24459543146E+02  0.23488059501E+02 -0.81472308280E+02  0.88247918992E+02  0.00000000000E+00 0.  1.
</event>
<event>
12    1  0.9962621E-001  0.1721348E+03  0.7818608E-02  0.1175733E+00
         21   -1    0    0  501  502  0.00000000000E+00  0.00000000000E+00  0.31879616448E+04  0.31879616448E+04  0.00000000000E+00 0.  1.
         21   -1    0    0  502  503 -0.00000000000E+00 -0.00000000000E+00 -0.93752558443E+01  0.93752558443E+01  0.00000000000E+00 0.  1.
         -6    2    1    2    0  503 -0.20872524014E+01  0.10437369154E+02  0.17564458798E+04  0.17648604808E+04  0.17180539176E+03 0.  0.
        -24    2    3    3    0    0  0.12813312586E+02 -0.53775359553E+02  0.12421589151E+04  0.12463448364E+04  0.85794584169E+02 0.  0.
          6    2    1    2  501    0  0.20872524014E+01 -0.10437369154E+02  0.14221405092E+04  0.14324764199E+04  0.17144028232E+03 0.  0.
         24    2    5    5    0    0 -0.78112819293E+01 -0.52291211116E+02  0.12883997500E+04  0.12919118236E+04  0.79163484207E+02 0.  0.
          5    1    5    5  501    0  0.98985343308E+01  0.41853841963E+02  0.13374075913E+03  0.14056459626E+03  0.47000000000E+01 0. -1.
        -11    1    6    6    0    0  0.29822480232E+02 -0.43135389587E+02  0.91692549358E+03  0.91842386889E+03  0.00000000000E+00 0.  1.
         12    1    6    6    0    0 -0.37633762161E+02 -0.91558215290E+01  0.37147425643E+03  0.37348795471E+03  0.00000000000E+00 0. -1.
         -5    1    3    3    0  503 -0.14900564988E+02  0.64212728707E+02  0.51428696480E+03  0.51851564444E+03  0.47000000000E+01 0.  1.
         13    1    4    4    0    0  0.28897109858E+02  0.51904970508E+01  0.72376584988E+03  0.72436109067E+03  0.00000000000E+00 0. -1.
        -14    1    4    4    0    0 -0.16083797271E+02 -0.58965856604E+02  0.51839306517E+03  0.52198374572E+03  0.00000000000E+00 0.  1.
</event>
<event>
12    1  0.9962621E-001  0.2192689E+03  0.7818608E-02  0.1136904E+00
         21   -1    0    0  501  502  0.00000000000E+00  0.00000000000E+00  0.16633016812E+03  0.16633016812E+03  0.00000000000E+00 0. -1.
         21   -1    0    0  502  503 -0.00000000000E+00 -0.00000000000E+00 -0.27890332054E+03  0.27890332054E+03  0.00000000000E+00 0. -1.
         -6    2    1    2    0  503 -0.11685914862E+02 -0.11307860995E+03 -0.88535377577E+02  0.22465093140E+03  0.17235485274E+03 0.  0.
        -24    2    3    3    0    0 -0.52190179613E+02 -0.10813067617E+02 -0.30228673842E+02  0.10006923807E+03  0.79116006009E+02 0.  0.
          6    2    1    2  501    0  0.11685914862E+02  0.11307860995E+03 -0.24037774843E+02  0.22058255725E+03  0.18749804614E+03 0.  0.
         24    2    5    5    0    0 -0.64806885347E+01  0.14254612675E+03 -0.56279144452E+02  0.17304356336E+03  0.80095787312E+02 0.  0.
          5    1    5    5  501    0  0.18166603396E+02 -0.29467516798E+02  0.32241369609E+02  0.47538993884E+02  0.47000000000E+01 0. -1.
        -11    1    6    6    0    0 -0.40447571638E+02  0.58672805320E+02 -0.11877005349E+02  0.72246573563E+02  0.00000000000E+00 0.  1.
         12    1    6    6    0    0  0.33966883104E+02  0.83873321433E+02 -0.44402139102E+02  0.10079698980E+03  0.00000000000E+00 0. -1.
         -5    1    3    3    0  503  0.40504264752E+02 -0.10226554234E+03 -0.58306703735E+02  0.12458169333E+03  0.47000000000E+01 0.  1.
         11    1    4    4    0    0 -0.32375496168E+02 -0.19648499852E+02 -0.55230003018E+02  0.66967077971E+02  0.00000000000E+00 0. -1.
        -12    1    4    4    0    0 -0.19814683445E+02  0.88354322353E+01  0.25001329176E+02  0.33102160102E+02  0.00000000000E+00 0.  1.
</event>
<event>
12    1  0.9962621E-001  0.3048716E+03  0.7818608E-02  0.1082885E+00
         21   -1    0    0  501  502  0.00000000000E+00  0.00000000000E+00  0.98632640910E+03  0.98632640910E+03  0.00000000000E+00 0.  1.
         21   -1    0    0  502  503 -0.00000000000E+00 -0.00000000000E+00 -0.13080743195E+03  0.13080743195E+03  0.00000000000E+00 0.  1.
         -6    2    1    2    0  503  0.23046090535E+02  0.25029396508E+03  0.72389124986E+03  0.78547132706E+03  0.17253542466E+03 0.  0.
        -24    2    3    3    0    0  0.68413782503E+02  0.19996541560E+03  0.63260478101E+03  0.67168864050E+03  0.79436816000E+02 0.  0.
          6    2    1    2  501    0 -0.23046090535E+02 -0.25029396508E+03  0.13162772729E+03  0.33166251400E+03  0.17174391797E+03 0.  0.
         24    2    5    5    0    0 -0.19478574911E+02 -0.23117552271E+03  0.16301417721E+03  0.29444099811E+03  0.79374695055E+02 0.  0.
          5    1    5    5  501    0 -0.35675156248E+01 -0.19118442371E+02 -0.31386449925E+02  0.37221515893E+02  0.47000000000E+01 0. -1.
        -13    1    6    6    0    0  0.65892451421E+01  0.40719442808E+01  0.98000283926E+01  0.12491574691E+02  0.00000000000E+00 0.  1.
         14    1    6    6    0    0 -0.26067820053E+02 -0.23524746699E+03  0.15321414882E+03  0.28194942342E+03  0.00000000000E+00 0. -1.
         -5    1    3    3    0  503 -0.45367691968E+02  0.50328549472E+02  0.91286468846E+02  0.11378268656E+03  0.47000000000E+01 0.  1.
         11    1    4    4    0    0  0.12510664850E+02  0.30611356640E+02  0.21598818183E+03  0.21850507221E+03  0.00000000000E+00 0. -1.
        -12    1    4    4    0    0  0.55903117653E+02  0.16935405896E+03  0.41661659918E+03  0.45318356828E+03  0.00000000000E+00 0.  1.
</event>
<event>
12    1  0.9962621E-001  0.2726650E+03  0.7818608E-02  0.1099855E+00
         21   -1    0    0  503  502  0.00000000000E+00  0.00000000000E+00  0.13027508626E+03  0.13027508626E+03  0.00000000000E+00 0.  1.
         21   -1    0    0  501  503 -0.00000000000E+00 -0.00000000000E+00 -0.60071061122E+03  0.60071061122E+03  0.00000000000E+00 0.  1.
          6    2    1    2  501    0 -0.16215393078E+03 -0.13127976252E+03 -0.31847241048E+03  0.41883348348E+03  0.17455239137E+03 0.  0.
         24    2    3    3    0    0 -0.12337923348E+03 -0.61480867866E+02 -0.98332409312E+02  0.18461334566E+03  0.73556048757E+02 0.  0.
         -6    2    1    2    0  502  0.16215393078E+03  0.13127976252E+03 -0.15196311449E+03  0.31215221400E+03  0.17555040081E+03 0.  0.
        -24    2    5    5    0    0  0.10587147403E+03  0.15557148137E+03 -0.85153086234E+02  0.22135864364E+03  0.79607450586E+02 0.  0.
          5    1    3    3  501    0 -0.38774697307E+02 -0.69798894651E+02 -0.22014000116E+03  0.23422013781E+03  0.47000000000E+01 0. -1.
        -11    1    4    4    0    0 -0.52763370215E+02 -0.18569996105E+02 -0.83739744771E+02  0.10070334079E+03  0.00000000000E+00 0.  1.
         12    1    4    4    0    0 -0.70615863263E+02 -0.42910871761E+02 -0.14592664541E+02  0.83910004874E+02  0.00000000000E+00 0. -1.
         -5    1    5    5    0  502  0.56282456753E+02 -0.24291718856E+02 -0.66810028253E+02  0.90793570357E+02  0.47000000000E+01 0.  1.
         13    1    6    6    0    0 -0.11151806666E+02  0.33113453167E+02 -0.14250585214E+02  0.37735165980E+02  0.00000000000E+00 0. -1.
        -14    1    6    6    0    0  0.11702328070E+03  0.12245802821E+03 -0.70902501020E+02  0.18362347766E+03  0.00000000000E+00 0.  1.
</event>
<event>
12    1  0.9962621E-001  0.3403481E+03  0.7818608E-02  0.1067080E+00
         21   -1    0    0  503  502  0.00000000000E+00  0.00000000000E+00  0.22902077238E+03  0.22902077238E+03  0.00000000000E+00 0. -1.
         21   -1    0    0  501  503 -0.00000000000E+00 -0.00000000000E+00 -0.62300208393E+03  0.62300208393E+03  0.00000000000E+00 0.  1.
          6    2    1    2  501    0 -0.25787436245E+03 -0.13118741670E+03 -0.38548730823E+03  0.51156878597E+03  0.17144338092E+03 0.  0.
         24    2    3    3    0    0 -0.70481336676E+02 -0.60696871609E+01 -0.15536497571E+03  0.18946791624E+03  0.82190970828E+02 0.  0.
         -6    2    1    2    0  502  0.25787436245E+03  0.13118741670E+03 -0.84940033215E+01  0.34045407034E+03  0.17924145950E+03 0.  0.
        -24    2    5    5    0    0  0.22517231988E+03  0.11224063272E+03  0.51852561718E+02  0.26909440299E+03  0.80140977607E+02 0.  0.
          5    1    3    3  501    0 -0.18739302578E+03 -0.12511772954E+03 -0.23012233252E+03  0.32210086973E+03  0.47000000000E+01 0. -1.
        -13    1    4    4    0    0 -0.64734507376E+02 -0.26071943376E+02 -0.15344330125E+03  0.16856793697E+03  0.00000000000E+00 0.  1.
         14    1    4    4    0    0 -0.57468293005E+01  0.20002256216E+02 -0.19216744604E+01  0.20899979269E+02  0.00000000000E+00 0. -1.
         -5    1    5    5    0  502  0.32702042578E+02  0.18946783981E+02 -0.60346565039E+02  0.71359667348E+02  0.47000000000E+01 0.  1.
         11    1    6    6    0    0  0.10599112157E+02  0.79375211022E+01  0.25922307407E+02  0.29108614551E+02  0.00000000000E+00 0. -1.
        -12    1    6    6    0    0  0.21457320772E+03  0.10430311162E+03  0.25930254311E+02  0.23998578844E+03  0.00000000000E+00 0.  1.
</event>
<event>
12    1  0.9962621E-001  0.1751434E+03  0.7818608E-02  0.1173417E+00
         21   -1    0    0  501  502  0.00000000000E+00  0.00000000000E+00  0.29049924309E+03  0.29049924309E+03  0.00000000000E+00 0. -1.
         21   -1    0    0  502  503 -0.00000000000E+00 -0.00000000000E+00 -0.10411806435E+03  0.10411806435E+03  0.00000000000E+00 0. -1.
         -6    2    1    2    0  503  0.27225518858E+02  0.77344714164E+01  0.78821668094E+02  0.18908319455E+03  0.16952447663E+03 0.  0.
        -24    2    3    3    0    0  0.33533728583E+02 -0.26987040246E+02  0.11398399910E+03  0.13904464537E+03  0.66994403213E+02 0.  0.
          6    2    1    2  501    0 -0.27225518858E+02 -0.77344714164E+01  0.10755951065E+03  0.20553411289E+03  0.17284146582E+03 0.  0.
         24    2    5    5    0    0 -0.41085564535E+02  0.37614285308E+01  0.13972056077E+03  0.16837661396E+03  0.84419648597E+02 0.  0.
          5    1    5    5  501    0  0.13860045677E+02 -0.11495899947E+02 -0.32161050124E+02  0.37157498932E+02  0.47000000000E+01 0. -1.
        -11    1    6    6    0    0 -0.30164250472E+02  0.31780243129E+02  0.26446932375E+02  0.51179156812E+02  0.00000000000E+00 0.  1.
         12    1    6    6    0    0 -0.10921314063E+02 -0.28018814598E+02  0.11327362840E+03  0.11719745715E+03  0.00000000000E+00 0. -1.
         -5    1    3    3    0  503 -0.63082097257E+01  0.34721511662E+02 -0.35162331007E+02  0.50038549178E+02  0.47000000000E+01 0.  1.
         13    1    4    4    0    0 -0.21778818599E+01  0.15988063606E+02  0.56986074561E+02  0.59226464026E+02  0.00000000000E+00 0. -1.
        -14    1    4    4    0    0  0.35711610443E+02 -0.42975103852E+02  0.56997924540E+02  0.79818181346E+02  0.00000000000E+00 0.  1.
</event>
<event>
12    1  0.9962621E-001  0.1868181E+03  0.7818608E-02  0.1161728E+00
         21   -1    0    0  501  502  0.00000000000E+00  0.00000000000E+00  0.38338491435E+03  0.38338491435E+03  0.00000000000E+00 0.  1.
         21   -1    0    0  502  503 -0.00000000000E+00 -0.00000000000E+00 -0.90572243299E+02  0.90572243299E+02  0.00000000000E+00 0.  1.
         -6    2    1    2    0  503 -0.30747133012E+02 -0.61891106404E+02  0.16079320915E+03  0.24648619528E+03  0.17356581782E+03 0.  0.
        -24    2    3    3    0    0 -0.88919425372E+02 -0.38929746556E+02  0.11336885716E+03  0.16785796367E+03  0.76821929287E+02 0.  0.
          6    2    1    2  501    0  0.30747133012E+02  0.61891106404E+02  0.13201946190E+03  0.22747096236E+03  0.17186624205E+03 0.  0.
         24    2    5    5    0    0  0.30247916420E+02  0.17111096720E+02  0.15402975935E+03  0.17735069023E+03  0.80748835803E+02 0.  0.
          5    1    5    5  501    0  0.49921659208E+00  0.44780009684E+02 -0.22010297447E+02  0.50120272128E+02  0.47000000000E+01 0. -1.
        -11    1    6    6    0    0  0.11078808537E+02 -0.32156901512E+02  0.73923662816E+02  0.81372687295E+02  0.00000000000E+00 0.  1.
         12    1    6    6    0    0  0.19169107883E+02  0.49267998233E+02  0.80106096530E+02  0.95978002939E+02  0.00000000000E+00 0. -1.
         -5    1    3    3    0  503  0.58172292360E+02 -0.22961359848E+02  0.47424351985E+02  0.78628231607E+02  0.47000000000E+01 0.  1.
         11    1    4    4    0    0 -0.80698655886E+02 -0.53690780871E+02  0.11555177189E+03  0.15082169936E+03  0.00000000000E+00 0. -1.
        -12    1    4    4    0    0 -0.82207694861E+01  0.14761034315E+02 -0.21829147254E+01  0.17036264312E+02  0.00000000000E+00 0.  1.
</event>
<event>
12    1  0.9962621E-001  0.2184560E+03  0.7818608E-02  0.1135589E+00
         21   -1    0    0  503  502  0.00000000000E+00  0.00000000000E+00  0.61365376763E+02  0.61365376763E+02  0.00000000000E+00 0.  1.
         21   -1    0    0  501  503 -0.00000000000E+00 -0.00000000000E+00 -0.13068610993E+04  0.13068610993E+04  0.00000000000E+00 0. -1.
          6    2    1    2  501    0  0.10689348748E+02 -0.13430607342E+03 -0.18077717172E+03  0.28132785650E+03  0.16826346452E+03 0.  0.
         24    2    3    3    0    0 -0.15824753418E+02 -0.21060685261E+02 -0.26611096627E+02  0.88152329420E+02  0.79804181808E+02 0.  0.
         -6    2    1    2    0  502 -0.10689348748E+02  0.13430607342E+03 -0.10647185508E+04  0.10868986196E+04  0.17196113871E+03 0.  0.
        -24    2    5    5    0    0 -0.31306108352E+02  0.25227084629E+02 -0.69394699428E+03  0.69983672050E+03  0.81194373392E+02 0.  0.
          5    1    3    3  501    0  0.26514102167E+02 -0.11324538815E+03 -0.15416607509E+03  0.19317552708E+03  0.47000000000E+01 0. -1.
        -13    1    4    4    0    0  0.75662907040E+01 -0.46275884713E+02 -0.41497450590E+01  0.47073630039E+02  0.00000000000E+00 0.  1.
         14    1    4    4    0    0 -0.23391044122E+02  0.25215199453E+02 -0.22461351568E+02  0.41078699381E+02  0.00000000000E+00 0. -1.
         -5    1    5    5    0  502  0.20616759604E+02  0.10907898879E+03 -0.37077155652E+03  0.38706189905E+03  0.47000000000E+01 0.  1.
         13    1    6    6    0    0 -0.56428181689E+02  0.31550730253E+02 -0.48496375477E+03  0.48925395421E+03  0.00000000000E+00 0. -1.
        -14    1    6    6    0    0  0.25122073337E+02 -0.63236456235E+01 -0.20898323951E+03  0.21058276629E+03  0.00000000000E+00 0.  1.
</event>
<event>
12    1  0.9962621E-001  0.3227256E+03  0.7818608E-02  0.1074480E+00
         21   -1    0    0  501  502  0.00000000000E+00  0.00000000000E+00  0.15672920213E+03  0.15672920213E+03  0.00000000000E+00 0.  1.
         21   -1    0    0  502  503 -0.00000000000E+00 -0.00000000000E+00 -0.66326086667E+03  0.66326086667E+03  0.00000000000E+00 0.  1.
         -6    2    1    2    0  503 -0.11558752141E+03  0.24729167308E+03 -0.24750509849E+03  0.40670696836E+03  0.17215730497E+03 0.  0.
        -24    2    3    3    0    0 -0.14430979839E+03  0.21236003062E+03 -0.17605508586E+03  0.32201704485E+03  0.82325472350E+02 0.  0.
          6    2    1    2  501    0  0.11558752141E+03 -0.24729167308E+03 -0.25902656605E+03  0.41328310044E+03  0.17086401760E+03 0.  0.
         24    2    5    5    0    0  0.73785344003E+02 -0.11692290163E+03 -0.58249829788E+02  0.17022585116E+03  0.80427332528E+02 0.  0.
          5    1    5    5  501    0  0.41802177402E+02 -0.13036877145E+03 -0.20077673626E+03  0.24305724928E+03  0.47000000000E+01 0. -1.
        -13    1    6    6    0    0  0.19174038770E+02 -0.98333285179E+02 -0.49938546802E+02  0.11194166871E+03  0.00000000000E+00 0.  1.
         14    1    6    6    0    0  0.54611305233E+02 -0.18589616450E+02 -0.83112829865E+01  0.58284182450E+02  0.00000000000E+00 0. -1.
         -5    1    3    3    0  503  0.28722276985E+02  0.34931642457E+02 -0.71450012628E+02  0.84689923512E+02  0.47000000000E+01 0.  1.
         13    1    4    4    0    0 -0.94691676718E+02  0.97294766227E+02 -0.51131092271E+02  0.14507644113E+03  0.00000000000E+00 0. -1.
        -14    1    4    4    0    0 -0.49618121673E+02  0.11506526440E+03 -0.12492399359E+03  0.17694060372E+03  0.00000000000E+00 0.  1.
</event>
<event>
12    1  0.9962621E-001  0.2795213E+03  0.7818608E-02  0.1096100E+00
         21   -1    0    0  501  502  0.00000000000E+00  0.00000000000E+00  0.22035999666E+03  0.22035999666E+03  0.00000000000E+00 0.  1.
         21   -1    0    0  502  503 -0.00000000000E+00 -0.00000000000E+00 -0.40175082000E+03  0.40175082000E+03  0.00000000000E+00 0.  1.
         -6    2    1    2    0  503 -0.15298143953E+03  0.15731825794E+03 -0.19899510450E+03  0.34311980171E+03  0.17314673428E+03 0.  0.
        -24    2    3    3    0    0 -0.89730499287E+02  0.57802874327E+02 -0.31195468582E+02  0.13797887252E+03  0.81684008341E+02 0.  0.
          6    2    1    2  501    0  0.15298143953E+03 -0.15731825794E+03  0.17604281160E+02  0.27899101495E+03  0.17138763254E+03 0.  0.
         24    2    5    5    0    0  0.15245243447E+03 -0.82696574493E+02 -0.26205377531E+02  0.19233046059E+03  0.78891165870E+02 0.  0.
          5    1    5    5  501    0  0.52900505875E+00 -0.74621683444E+02  0.43809658690E+02  0.86660554354E+02  0.47000000000E+01 0. -1.
        -13    1    6    6    0    0  0.17075921988E+02 -0.17867503756E+02 -0.33995135012E+02  0.42029799032E+02  0.00000000000E+00 0.  1.
         14    1    6    6    0    0  0.13537651248E+03 -0.64829070737E+02  0.77897574814E+01  0.15030066156E+03  0.00000000000E+00 0. -1.
         -5    1    3    3    0  503 -0.63250940240E+02  0.99515383610E+02 -0.16779963591E+03  0.20514092919E+03  0.47000000000E+01 0.  1.
         11    1    4    4    0    0  0.14692467837E+02  0.10789962084E+02  0.29784551841E+01  0.18470600645E+02  0.00000000000E+00 0. -1.
        -12    1    4    4    0    0 -0.10442296712E+03  0.47012912242E+02 -0.34173923766E+02  0.11950827187E+03  0.00000000000E+00 0.  1.
</event>
<event>
12    1  0.9962621E-001  0.2446057E+03  0.7818608E-02  0.1116828E+00
         21   -1    0    0  501  502  0.00000000000E+00  0.00000000000E+00  0.20791180240E+04  0.20791180240E+04  0.00000000000E+00 0.  1.
         21   -1    0    0  502  503 -0.00000000000E+00 -0.00000000000E+00 -0.31139255572E+02  0.31139255572E+02  0.00000000000E+00 0.  1.
         -6    2    1    2    0  503  0.29818460288E+02  0.17044929807E+03  0.13167093339E+04  0.13391626414E+04  0.17231078427E+03 0.  0.
        -24    2    3    3    0    0  0.70237975742E+02  0.58498384699E+02  0.54707017076E+03  0.56036017886E+03  0.79764177836E+02 0.  0.
          6    2    1    2  501    0 -0.29818460288E+02 -0.17044929807E+03  0.73126943447E+03  0.77109463811E+03  0.17288681656E+03 0.  0.
         24    2    5    5    0    0  0.36902180516E+02 -0.70012467574E+02  0.23491213653E+03  0.26027974203E+03  0.79361928422E+02 0.  0.
          5    1    5    5  501    0 -0.66720640804E+02 -0.10043683049E+03  0.49635729795E+03  0.51081489608E+03  0.47000000000E+01 0. -1.
        -13    1    6    6    0    0  0.41774554845E+02 -0.42630464236E+02  0.22150336746E+03  0.22940403595E+03  0.00000000000E+00 0.  1.
         14    1    6    6    0    0 -0.48723743286E+01 -0.27382003339E+02  0.13408769069E+02  0.30875706087E+02  0.00000000000E+00 0. -1.
         -5    1    3    3    0  503 -0.40419515454E+02  0.11195091337E+03  0.76963916317E+03  0.77880246258E+03  0.47000000000E+01 0.  1.
         11    1    4    4    0    0  0.32842848333E+02  0.58150276933E+02  0.19114878974E+03  0.20247954764E+03  0.00000000000E+00 0. -1.
        -12    1    4    4    0    0  0.37395127409E+02  0.34810776626E+00  0.35592138102E+03  0.35788063122E+03  0.00000000000E+00 0.  1.
</event>
<event>
12    1  0.9962621E-001  0.2097664E+03  0.7818608E-02  0.1141929E+00
         21   -1    0    0  503  502  0.00000000000E+00  0.00000000000E+00  0.19925514112E+02  0.19925514112E+02  0.00000000000E+00 0.  1.
         21   -1    0    0  501  503 -0.00000000000E+00 -0.00000000000E+00 -0.22777329632E+04  0.22777329632E+04  0.00000000000E+00 0.  1.
          6    2    1    2  501    0  0.50894120002E+02 -0.11018395435E+03 -0.91754764250E+03  0.94122027212E+03  0.17108830806E+03 0.  0.
         24    2    3    3    0    0  0.63361645354E+02 -0.72877676646E+02 -0.34831897300E+03  0.37061483425E+03  0.81874260692E+02 0.  0.
         -6    2    1    2    0  502 -0.50894120002E+02  0.11018395435E+03 -0.13402598066E+04  0.13564382052E+04  0.16999276481E+03 0.  0.
        -24    2    5    5    0    0 -0.45881902666E+02  0.59075174091E+01 -0.40347359370E+03  0.41384115645E+03  0.79583378961E+02 0.  0.
          5    1    3    3  501    0 -0.12467525352E+02 -0.37306277706E+02 -0.56922866950E+03  0.57060543787E+03  0.47000000000E+01 0. -1.
        -13    1    4    4    0    0 -0.64366578385E+01 -0.44077797256E+01  0.10047120737E+01  0.78656552550E+01  0.00000000000E+00 0.  1.
         14    1    4    4    0    0  0.69798303192E+02 -0.68469896920E+02 -0.34932368507E+03  0.36274917900E+03  0.00000000000E+00 0. -1.
         -5    1    5    5    0  502 -0.50122173361E+01  0.10427643694E+03 -0.93678621293E+03  0.94259704877E+03  0.47000000000E+01 0.  1.
         11    1    6    6    0    0 -0.76463383196E+01 -0.16572650092E+02 -0.17362421437E+02  0.25190730417E+02  0.00000000000E+00 0. -1.
        -12    1    6    6    0    0 -0.38235564346E+02  0.22480167501E+02 -0.38611117226E+03  0.38865042603E+03  0.00000000000E+00 0.  1.
</event>
<event>
12    1  0.9962621E-001  0.5493671E+03  0.7818608E-02  0.1001648E+00
         21   -1    0    0  501  502  0.00000000000E+00  0.00000000000E+00  0.52296581753E+03  0.52296581753E+03  0.00000000000E+00 0. -1.
         21   -1    0    0  502  503 -0.00000000000E+00 -0.00000000000E+00 -0.71227374001E+03  0.71227374001E+03  0.00000000000E+00 0. -1.
         -6    2    1    2    0  503  0.26077151527E+03  0.45186008984E+03  0.17452661415E+03  0.57642319825E+03  0.17211868138E+03 0.  0.
        -24    2    3    3    0    0  0.84570328391E+02  0.14852974826E+03  0.94527254253E+01  0.18870212182E+03  0.79409761348E+02 0.  0.
          6    2    1    2  501    0 -0.26077151527E+03 -0.45186008984E+03 -0.36383453663E+03  0.65881635929E+03  0.17170935112E+03 0.  0.
         24    2    5    5    0    0 -0.21012704548E+03 -0.41871677050E+03 -0.36406237533E+03  0.59810817330E+03  0.75596724064E+02 0.  0.
          5    1    5    5  501    0 -0.50644469783E+02 -0.33143319336E+02  0.22783870262E+00  0.60708185994E+02  0.47000000000E+01 0. -1.
        -13    1    6    6    0    0 -0.59440378485E+02 -0.12852539214E+03 -0.68332896755E+02  0.15723014914E+03  0.00000000000E+00 0.  1.
         14    1    6    6    0    0 -0.15068666700E+03 -0.29019137836E+03 -0.29572947858E+03  0.44087802416E+03  0.00000000000E+00 0. -1.
         -5    1    3    3    0  503  0.17620118687E+03  0.30333034158E+03  0.16507388872E+03  0.38772107644E+03  0.47000000000E+01 0.  1.
         13    1    4    4    0    0  0.70367603288E+01  0.32946473693E+01  0.22252790001E+02  0.23570264319E+02  0.00000000000E+00 0. -1.
        -14    1    4    4    0    0  0.77533568062E+02  0.14523510089E+03 -0.12800064576E+02  0.16513185750E+03  0.00000000000E+00 0.  1.
</event>
<event>
12    1  0.9962621E-001  0.1806487E+03  0.7818608E-02  0.1167520E+00
         21   -1    0    0  501  502  0.00000000000E+00  0.00000000000E+00  0.28402549445E+03  0.28402549445E+03  0.00000000000E+00 0.  1.
         21   -1    0    0  502  503 -0.00000000000E+00 -0.00000000000E+00 -0.12330936103E+03  0.12330936103E+03  0.00000000000E+00 0.  1.
         -6    2    1    2    0  503  0.29444186821E+02 -0.34931744452E+02  0.13603287786E+03  0.22500762186E+03  0.17330983564E+03 0.  0.
        -24    2    3    3    0    0 -0.54062880874E+01  0.21021557749E+02  0.12094043258E+02  0.84550324612E+02  0.80816815506E+02 0.  0.
          6    2    1    2  501    0 -0.29444186821E+02  0.34931744452E+02  0.24683255554E+02  0.18232723362E+03  0.17477634310E+03 0.  0.
         24    2    5    5    0    0 -0.24369915235E+02  0.10255935687E+02 -0.53981153444E+02  0.99593788065E+02  0.79409575673E+02 0.  0.
          5    1    5    5  501    0 -0.50742715857E+01  0.24675808765E+02  0.78664408998E+02  0.82733445555E+02  0.47000000000E+01 0. -1.
        -11    1    6    6    0    0 -0.71230661261E+01  0.42989162918E+02 -0.42463355834E+02  0.60843592827E+02  0.00000000000E+00 0.  1.
         12    1    6    6    0    0 -0.17246849109E+02 -0.32733227231E+02 -0.11517797610E+02  0.38750195238E+02  0.00000000000E+00 0. -1.
         -5    1    3    3    0  503  0.34850474909E+02 -0.55953302201E+02  0.12393883460E+03  0.14045729725E+03  0.47000000000E+01 0.  1.
         11    1    4    4    0    0  0.31328882048E+02  0.97396741907E+00  0.25712158217E+02  0.40540874967E+02  0.00000000000E+00 0. -1.
        -12    1    4    4    0    0 -0.36735170136E+02  0.20047590330E+02 -0.13618114960E+02  0.44009449644E+02  0.00000000000E+00 0.  1.
</event>
<event>
12    1  0.9962621E-001  0.2846195E+03  0.7818608E-02  0.1093315E+00
         21   -1    0    0  501  502  0.00000000000E+00  0.00000000000E+00  0.37338109965E+04  0.37338109965E+04  0.00000000000E+00 0.  1.
         21   -1    0    0  502  503 -0.00000000000E+00 -0.00000000000E+00 -0.21840015561E+02  0.21840015561E+02  0.00000000000E+00 0.  1.
         -6    2    1    2    0  503  0.18856323824E+03  0.12509697893E+03  0.20389738501E+04  0.20586160559E+04  0.17111503454E+03 0.  0.
        -24    2    3    3    0    0  0.14123736291E+03  0.57039135985E+02  0.97133760446E+03  0.98775619038E+03  0.94678899871E+02 0.  0.
          6    2    1    2  501    0 -0.18856323824E+03 -0.12509697893E+03  0.16729971308E+04  0.16970349561E+04  0.17263514666E+03 0.  0.
         24    2    5    5    0    0 -0.43454604250E+02 -0.10101822315E+03  0.88996624021E+03  0.90029424067E+03  0.79980166399E+02 0.  0.
          5    1    5    5  501    0 -0.14510863399E+03 -0.24078755778E+02  0.78303089054E+03  0.79674071547E+03  0.47000000000E+01 0. -1.
        -11    1    6    6    0    0 -0.17419587104E+02 -0.10486480920E+03  0.78066623040E+03  0.78787044208E+03  0.00000000000E+00 0.  1.
         12    1    6    6    0    0 -0.26035017145E+02  0.38465860561E+01  0.10930000982E+03  0.11242379859E+03  0.00000000000E+00 0. -1.
         -5    1    3    3    0  503  0.47325875327E+02  0.68057842941E+02  0.10676362457E+04  0.10708598655E+04  0.47000000000E+01 0.  1.
         13    1    4    4    0    0  0.30226636441E+02 -0.23100184339E+02  0.31508595625E+03  0.31737427100E+03  0.00000000000E+00 0. -1.
        -14    1    4    4    0    0  0.11101072647E+03  0.80139320324E+02  0.65625164821E+03  0.67038191938E+03  0.00000000000E+00 0.  1.
</event>
<event>
12    1  0.9962621E-001  0.2163321E+03  0.7818608E-02  0.1136929E+00
         21   -1    0    0  501  502  0.00000000000E+00  0.00000000000E+00  0.25005670152E+03  0.25005670152E+03  0.00000000000E+00 0.  1.
         21   -1    0    0  502  503 -0.00000000000E+00 -0.00000000000E+00 -0.19375402599E+03  0.19375402599E+03  0.00000000000E+00 0.  1.
         -6    2    1    2    0  503  0.12908931247E+03 -0.14755776636E+01  0.72961544950E+02  0.22830450102E+03  0.17358954526E+03 0.  0.
        -24    2    3    3    0    0  0.22743109213E+02  0.25942671748E+01 -0.10071565477E+02  0.93239087199E+02  0.89822668140E+02 0.  0.
          6    2    1    2  501    0 -0.12908931247E+03  0.14755776636E+01 -0.16658869418E+02  0.21550622649E+03  0.17175327596E+03 0.  0.
         24    2    5    5    0    0 -0.14442554473E+03  0.44971292800E+01 -0.54871997553E+02  0.17395309236E+03  0.79810902034E+02 0.  0.
          5    1    5    5  501    0  0.15336232266E+02 -0.30215516163E+01  0.38213128135E+02  0.41553134131E+02  0.47000000000E+01 0. -1.
        -13    1    6    6    0    0  0.43617314591E+01 -0.43416938415E+01 -0.19935440564E+02  0.20863767570E+02  0.00000000000E+00 0.  1.
         14    1    6    6    0    0 -0.14878727619E+03  0.88388231215E+01 -0.34936556990E+02  0.15308932479E+03  0.00000000000E+00 0. -1.
         -5    1    3    3    0  503  0.10634620326E+03 -0.40698448385E+01  0.83033110427E+02  0.13506541382E+03  0.47000000000E+01 0.  1.
         11    1    4    4    0    0  0.85613981766E+01  0.31091005878E+02  0.28634090533E+02  0.43126086373E+02  0.00000000000E+00 0. -1.
        -12    1    4    4    0    0  0.14181711037E+02 -0.28496738703E+02 -0.38705656010E+02  0.50113000826E+02  0.00000000000E+00 0.  1.
</event>
<event>
12    1  0.9962621E-001  0.2314467E+03  0.7818608E-02  0.1126002E+00
         21   -1    0    0  501  502  0.00000000000E+00  0.00000000000E+00  0.44928854121E+03  0.44928854121E+03  0.00000000000E+00 0.  1.
         21   -1    0    0  502  503 -0.00000000000E+00 -0.00000000000E+00 -0.12055574386E+03  0.12055574386E+03  0.00000000000E+00 0.  1.
         -6    2    1    2    0  503  0.11328680390E+03 -0.10126692997E+03  0.12466281126E+03  0.26288473911E+03  0.17458143802E+03 0.  0.
        -24    2    3    3    0    0  0.10499218077E+03 -0.86468082081E+02  0.15948622412E+03  0.22386465768E+03  0.78609427130E+02 0.  0.
          6    2    1    2  501    0 -0.11328680390E+03  0.10126692997E+03  0.20406998608E+03  0.30695954596E+03  0.17172860156E+03 0.  0.
         24    2    5    5    0    0 -0.63054052165E+01  0.46356080112E+02  0.30170678090E+02  0.95480751714E+02  0.77573576901E+02 0.  0.
          5    1    5    5  501    0 -0.10698139868E+03  0.54910849859E+02  0.17389930799E+03  0.21147879425E+03  0.47000000000E+01 0. -1.
        -13    1    6    6    0    0 -0.13345018202E+02  0.64962842109E+02  0.35029368823E+02  0.75002113609E+02  0.00000000000E+00 0.  1.
         14    1    6    6    0    0  0.70396129851E+01 -0.18606761997E+02 -0.48586907333E+01  0.20478638105E+02  0.00000000000E+00 0. -1.
         -5    1    3    3    0  503  0.82946231225E+01 -0.14798847890E+02 -0.34823412853E+02  0.39020081425E+02  0.47000000000E+01 0.  1.
         13    1    4    4    0    0  0.63121870979E+02 -0.30365244482E+02  0.29051750630E+02  0.75831542797E+02  0.00000000000E+00 0. -1.
        -14    1    4    4    0    0  0.41870309796E+02 -0.56102837599E+02  0.13043447349E+03  0.14803311489E+03  0.00000000000E+00 0.  1.
</event>
<event>
12    1  0.9962621E-001  0.1805772E+03  0.7818608E-02  0.1167422E+00
         21   -1    0    0  501  502  0.00000000000E+00  0.00000000000E+00  0.76704285988E+02  0.76704285988E+02  0.00000000000E+00 0. -1.
         21   -1    0    0  502  503 -0.00000000000E+00 -0.00000000000E+00 -0.46200181010E+03  0.46200181010E+03  0.00000000000E+00 0. -1.
         -6    2    1    2    0  503 -0.51368660608E+02 -0.22086435255E+02 -0.11514693018E+03  0.21416569212E+03  0.17170200418E+03 0.  0.
        -24    2    3    3    0    0 -0.15531104727E+02 -0.73870539600E+02 -0.10069064774E+03  0.14938145040E+03  0.80486889275E+02 0.  0.
          6    2    1    2  501    0  0.51368660608E+02  0.22086435255E+02 -0.27015059394E+03  0.32454040397E+03  0.17093443330E+03 0.  0.
         24    2    5    5    0    0  0.23815419276E+02 -0.40642632976E+02 -0.81087788249E+02  0.12339132591E+03  0.80194713637E+02 0.  0.
          5    1    5    5  501    0  0.27553241332E+02  0.62729068231E+02 -0.18906280569E+03  0.20114907806E+03  0.47000000000E+01 0. -1.
        -13    1    6    6    0    0  0.16810325452E+02 -0.34525609196E+02 -0.97354267485E+02  0.10465399242E+03  0.00000000000E+00 0.  1.
         14    1    6    6    0    0  0.70050938243E+01 -0.61170237803E+01  0.16266479236E+02  0.18737333486E+02  0.00000000000E+00 0. -1.
         -5    1    3    3    0  503 -0.35837555880E+02  0.51784104345E+02 -0.14456282433E+02  0.64784241727E+02  0.47000000000E+01 0.  1.
         13    1    4    4    0    0  0.18466108346E+02 -0.45296866071E+02 -0.12265514585E+02  0.50430606593E+02  0.00000000000E+00 0. -1.
        -14    1    4    4    0    0 -0.33997213074E+02 -0.28573673529E+02 -0.88425133157E+02  0.98950843804E+02  0.00000000000E+00 0.  1.
</event>
<event>
12    1  0.9962621E-001  0.2028554E+03  0.7818608E-02  0.1148057E+00
         21   -1    0    0  501  502  0.00000000000E+00  0.00000000000E+00  0.26422405551E+03  0.26422405551E+03  0.00000000000E+00 0. -1.
         21   -1    0    0  502  503 -0.00000000000E+00 -0.00000000000E+00 -0.17457565504E+04  0.17457565504E+04  0.00000000000E+00 0. -1.
         -6    2    1    2    0  503  0.93768015088E+02 -0.49902717143E+02  0.21966797235E+03  0.29672833088E+03  0.16885189499E+03 0.  0.
        -24    2    3    3    0    0  0.11670984223E+03 -0.76988152486E+02  0.15774447335E+03  0.22519821157E+03  0.79262555646E+02 0.  0.
          6    2    1    2  501    0 -0.93768015088E+02  0.49902717143E+02 -0.17012004672E+04  0.17132522750E+04  0.17282247053E+03 0.  0.
         24    2    5    5    0    0 -0.92164818280E+02 -0.28136330026E+02 -0.10079830214E+04  0.10156383558E+04  0.78774942010E+02 0.  0.
          5    1    5    5  501    0 -0.16031968077E+01  0.78039047169E+02 -0.69321744579E+03  0.69761391921E+03  0.47000000000E+01 0. -1.
        -13    1    6    6    0    0 -0.48304369705E+02 -0.34117547439E+02 -0.83463943218E+03  0.83673191700E+03  0.00000000000E+00 0.  1.
         14    1    6    6    0    0 -0.43860448575E+02  0.59812174134E+01 -0.17334358927E+03  0.17890643882E+03  0.00000000000E+00 0. -1.
         -5    1    3    3    0  503 -0.22941827139E+02  0.27085435343E+02  0.61923499002E+02  0.71530119312E+02  0.47000000000E+01 0.  1.
         13    1    4    4    0    0  0.30745466246E+02 -0.11339059241E+02  0.94226402900E+02  0.99762081788E+02  0.00000000000E+00 0. -1.
        -14    1    4    4    0    0  0.85964375981E+02 -0.65649093245E+02  0.63518070446E+02  0.12543612978E+03  0.00000000000E+00 0.  1.
</event>
<event>
12    1  0.9962621E-001  0.1869737E+03  0.7818608E-02  0.1161355E+00
         21   -1    0    0  503  502  0.00000000000E+00  0.00000000000E+00  0.34166420517E+02  0.34166420517E+02  0.00000000000E+00 0.  1.
         21   -1    0    0  501  503 -0.00000000000E+00 -0.00000000000E+00 -0.13435305333E+04  0.13435305333E+04  0.00000000000E+00 0.  1.
          6    2    1    2  501    0 -0.25180525828E+02 -0.68043820806E+02 -0.99349581027E+03  0.10109367428E+04  0.17232281465E+03 0.  0.
         24    2    3    3    0    0 -0.19458361963E+02 -0.45102037430E+02 -0.24325295093E+03  0.26030666973E+03  0.78579530015E+02 0.  0.
         -6    2    1    2    0  502  0.25180525828E+02  0.68043820806E+02 -0.31586830248E+03  0.36676021100E+03  0.17168648005E+03 0.  0.
        -24    2    5    5    0    0 -0.29903309099E+02  0.75483586470E+02 -0.27072805344E+03  0.29500151072E+03  0.84499897532E+02 0.  0.
          5    1    3    3  501    0 -0.57221638647E+01 -0.22941783377E+02 -0.75024285934E+03  0.75063007305E+03  0.47000000000E+01 0. -1.
        -13    1    4    4    0    0 -0.41319866102E+02 -0.51746801552E+02 -0.20808692362E+03  0.21836948181E+03  0.00000000000E+00 0.  1.
         14    1    4    4    0    0  0.21861504138E+02  0.66447641223E+01 -0.35166027317E+02  0.41937187921E+02  0.00000000000E+00 0. -1.
         -5    1    5    5    0  502  0.55083834927E+02 -0.74397656644E+01 -0.45140249035E+02  0.71758700283E+02  0.47000000000E+01 0.  1.
         13    1    6    6    0    0 -0.44151592742E+01  0.48985779900E+02 -0.46189488594E+02  0.67472728716E+02  0.00000000000E+00 0. -1.
        -14    1    6    6    0    0 -0.25488149824E+02  0.26497806571E+02 -0.22453856485E+03  0.22752878200E+03  0.00000000000E+00 0.  1.
</event>
<event>
12    1  0.9962621E-001  0.1885869E+03  0.7818608E-02  0.1160547E+00
         21   -1    0    0  503  502  0.00000000000E+00  0.00000000000E+00  0.65721191077E+02  0.65721191077E+02  0.00000000000E+00 0.  1.
         21   -1    0    0  501  503 -0.00000000000E+00 -0.00000000000E+00 -0.53302929339E+03  0.53302929339E+03  0.00000000000E+00 0.  1.
          6    2    1    2  501    0 -0.24519881633E+02 -0.63863773779E+02 -0.21369861542E+03  0.28270810691E+03  0.17197956066E+03 0.  0.
         24    2    3    3    0    0 -0.38641087015E+02  0.13221293332E+02 -0.17212886060E+03  0.19387314460E+03  0.79312769106E+02 0.  0.
         -6    2    1    2    0  502  0.24519881633E+02  0.63863773779E+02 -0.25360948689E+03  0.31604237756E+03  0.17574187428E+03 0.  0.
        -24    2    5    5    0    0  0.73825072649E+02  0.80565891377E+02 -0.19563444143E+03  0.23798369137E+03  0.80139868222E+02 0.  0.
          5    1    3    3  501    0  0.14121205382E+02 -0.77085067111E+02 -0.41569754829E+02  0.88834962315E+02  0.47000000000E+01 0. -1.
        -11    1    4    4    0    0  0.73344750888E+01  0.36704223153E+02 -0.78026857981E+02  0.86540077933E+02  0.00000000000E+00 0.  1.
         12    1    4    4    0    0 -0.45975562104E+02 -0.23482929821E+02 -0.94102002614E+02  0.10733306667E+03  0.00000000000E+00 0. -1.
         -5    1    5    5    0  502 -0.49305191016E+02 -0.16702117597E+02 -0.57975045463E+02  0.78058686190E+02  0.47000000000E+01 0.  1.
         11    1    6    6    0    0  0.74500289754E+02  0.72806179070E+02 -0.20242174259E+03  0.22765235504E+03  0.00000000000E+00 0. -1.
        -12    1    6    6    0    0 -0.67521710515E+00  0.77597123068E+01  0.67873011593E+01  0.10331336325E+02  0.00000000000E+00 0.  1.
</event>
<event>
12    1  0.9962621E-001  0.3602047E+03  0.7818608E-02  0.1058732E+00
         21   -1    0    0  501  502  0.00000000000E+00  0.00000000000E+00  0.31569618871E+03  0.31569618871E+03  0.00000000000E+00 0. -1.
         21   -1    0    0  502  503 -0.00000000000E+00 -0.00000000000E+00 -0.40866062965E+03  0.40866062965E+03  0.00000000000E+00 0.  1.
         -6    2    1    2    0  503 -0.29408547053E+01  0.31818717400E+03 -0.56457196959E+02  0.36460227444E+03  0.16880662640E+03 0.  0.
        -24    2    3    3    0    0  0.95081639116E+01  0.98792746705E+02 -0.53864073673E+02  0.14478938337E+03  0.90621273010E+02 0.  0.
          6    2    1    2  501    0  0.29408547053E+01 -0.31818717400E+03 -0.36507243980E+02  0.35975454391E+03  0.16382559836E+03 0.  0.
         24    2    5    5    0    0  0.28256683373E+02 -0.30801846342E+03 -0.58299897134E+02  0.32452240535E+03  0.79006959237E+02 0.  0.
          5    1    5    5  501    0 -0.25315828668E+02 -0.10168710578E+02  0.21792653154E+02  0.35232138559E+02  0.47000000000E+01 0. -1.
        -11    1    6    6    0    0  0.28764918434E+02 -0.24852476387E+03 -0.77653131698E+02  0.26195798833E+03  0.00000000000E+00 0.  1.
         12    1    6    6    0    0 -0.50823506058E+00 -0.59493699553E+02  0.19353234564E+02  0.62564417023E+02  0.00000000000E+00 0. -1.
         -5    1    3    3    0  503 -0.12449018617E+02  0.21939442729E+03 -0.25931232854E+01  0.21981289107E+03  0.47000000000E+01 0.  1.
         13    1    4    4    0    0 -0.27789712037E+02  0.46570416076E+02  0.89788536948E+01  0.54969915065E+02  0.00000000000E+00 0. -1.
        -14    1    4    4    0    0  0.37297875949E+02  0.52222330629E+02 -0.62842927368E+02  0.89819468306E+02  0.00000000000E+00 0.  1.
</event>
<event>
12    1  0.9962621E-001  0.1980558E+03  0.7818608E-02  0.1151840E+00
         21   -1    0    0  503  502  0.00000000000E+00  0.00000000000E+00  0.36367841227E+03  0.36367841227E+03  0.00000000000E+00 0.  1.
         21   -1    0    0  501  503 -0.00000000000E+00 -0.00000000000E+00 -0.10699986755E+03  0.10699986755E+03  0.00000000000E+00 0.  1.
          6    2    1    2  501    0  0.41719964744E+02 -0.86360404408E+02  0.14101648870E+03  0.24312909060E+03  0.17328424540E+03 0.  0.
         24    2    3    3    0    0 -0.27782864976E+02 -0.27138865662E+02  0.18789484022E+02  0.90487796506E+02  0.79539870448E+02 0.  0.
         -6    2    1    2    0  502 -0.41719964744E+02  0.86360404408E+02  0.11566205602E+03  0.22754918922E+03  0.17088665075E+03 0.  0.
        -24    2    5    5    0    0 -0.11067241937E+01  0.66667622239E+02 -0.59023817838E+00  0.10275364890E+03  0.78180351029E+02 0.  0.
          5    1    3    3  501    0  0.69502829720E+02 -0.59221538746E+02  0.12222700468E+03  0.15264129409E+03  0.47000000000E+01 0. -1.
        -13    1    4    4    0    0 -0.12311779694E+02  0.27878355889E+02  0.12689000057E+02  0.33012018550E+02  0.00000000000E+00 0.  1.
         14    1    4    4    0    0 -0.15471085282E+02 -0.55017221551E+02  0.61004839654E+01  0.57475777956E+02  0.00000000000E+00 0. -1.
         -5    1    5    5    0  502 -0.40613240550E+02  0.19692782169E+02  0.11625229420E+03  0.12479554032E+03  0.47000000000E+01 0.  1.
         11    1    6    6    0    0 -0.30641438186E+02  0.91818019147E+00 -0.10662065510E+01  0.30673727934E+02  0.00000000000E+00 0. -1.
        -12    1    6    6    0    0  0.29534713992E+02  0.65749442048E+02  0.47596837260E+00  0.72079920963E+02  0.00000000000E+00 0.  1.
</event>
<event>
12    1  0.9962621E-001  0.1716576E+03  0.7818608E-02  0.1176254E+00
         21   -1    0    0  501  502  0.00000000000E+00  0.00000000000E+00  0.60977850316E+03  0.60977850316E+03  0.00000000000E+00 0. -1.
         21   -1    0    0  502  503 -0.00000000000E+00 -0.00000000000E+00 -0.52272495492E+02  0.52272495492E+02  0.00000000000E+00 0. -1.
         -6    2    1    2    0  503 -0.12083955009E+02 -0.36021650429E+01  0.37092919070E+03  0.40852144948E+03  0.17071119649E+03 0.  0.
        -24    2    3    3    0    0  0.17041214886E+01 -0.51625983507E+02  0.15806033439E+03  0.18981699552E+03  0.91538386911E+02 0.  0.
          6    2    1    2  501    0  0.12083955009E+02  0.36021650429E+01  0.18657681696E+03  0.25352954917E+03  0.17119382615E+03 0.  0.
         24    2    5    5    0    0 -0.18712857950E+02 -0.57285850937E+02  0.84355483659E+02  0.13053733331E+03  0.79324069457E+02 0.  0.
          5    1    5    5  501    0  0.30796812958E+02  0.60888015980E+02  0.10222133331E+03  0.12299221586E+03  0.47000000000E+01 0. -1.
        -11    1    6    6    0    0 -0.27307146613E+02  0.50951401274E+01  0.53793610326E+02  0.60542491037E+02  0.00000000000E+00 0.  1.
         12    1    6    6    0    0  0.85942886630E+01 -0.62380991065E+02  0.30561873333E+02  0.69994842278E+02  0.00000000000E+00 0. -1.
         -5    1    3    3    0  503 -0.13788076497E+02  0.48023818465E+02  0.21286885631E+03  0.21870445396E+03  0.47000000000E+01 0.  1.
         13    1    4    4    0    0 -0.44204184122E+02 -0.29387682376E+02  0.67421226318E+02  0.85809483903E+02  0.00000000000E+00 0. -1.
        -14    1    4    4    0    0  0.45908305610E+02 -0.22238301131E+02  0.90639108070E+02  0.10400751162E+03  0.00000000000E+00 0.  1.
</event>
<event>
12    1  0.9962621E-001  0.2590554E+03  0.7818608E-02  0.1107946E+00
         21   -1    0    0  503  502  0.00000000000E+00  0.00000000000E+00  0.14776054414E+03  0.14776054414E+03  0.00000000000E+00 0. -1.
         21   -1    0    0  501  503 -0.00000000000E+00 -0.00000000000E+00 -0.45948000489E+03  0.45948000489E+03  0.00000000000E+00 0.  1.
          6    2    1    2  501    0  0.93144745163E+02  0.16740423097E+03 -0.19546718843E+03  0.32329640771E+03  0.17208435543E+03 0.  0.
         24    2    3    3    0    0  0.85597371085E+02  0.11566234876E+03 -0.21169746905E+03  0.26834463577E+03  0.80550209716E+02 0.  0.
         -6    2    1    2    0  502 -0.93144745163E+02 -0.16740423097E+03 -0.11625227232E+03  0.28394414132E+03  0.17438338359E+03 0.  0.
        -24    2    5    5    0    0 -0.11119252330E+02 -0.13505634057E+03 -0.26017720042E+02  0.15769465850E+03  0.76333679740E+02 0.  0.
          5    1    3    3  501    0  0.75473740776E+01  0.51741882212E+02  0.16230280621E+02  0.54951771940E+02  0.47000000000E+01 0. -1.
        -13    1    4    4    0    0  0.60585800050E+01  0.56790712276E+02 -0.12233726317E+03  0.13501221187E+03  0.00000000000E+00 0.  1.
         14    1    4    4    0    0  0.79538791080E+02  0.58871636486E+02 -0.89360205881E+02  0.13333242390E+03  0.00000000000E+00 0. -1.
         -5    1    5    5    0  502 -0.82025492833E+02 -0.32347890401E+02 -0.90234552276E+02  0.12624948282E+03  0.47000000000E+01 0.  1.
         13    1    6    6    0    0 -0.40499492355E+02 -0.45657125864E+02 -0.47325102432E+01  0.61214203224E+02  0.00000000000E+00 0. -1.
        -14    1    6    6    0    0  0.29380240025E+02 -0.89399214709E+02 -0.21285209799E+02  0.96480455278E+02  0.00000000000E+00 0.  1.
</event>
<event>
12    1  0.9962621E-001  0.2185459E+03  0.7818608E-02  0.1135376E+00
         21   -1    0    0  503  502  0.00000000000E+00  0.00000000000E+00  0.36111314361E+03  0.36111314361E+03  0.00000000000E+00 0.  1.
         21   -1    0    0  501  503 -0.00000000000E+00 -0.00000000000E+00 -0.13277601096E+03  0.13277601096E+03  0.00000000000E+00 0.  1.
          6    2    1    2  501    0  0.13144232275E+03 -0.80176014063E+01  0.85950788659E+02  0.23484008359E+03  0.17441605616E+03 0.  0.
         24    2    3    3    0    0  0.15477283433E+03  0.67095685192E+01  0.10274269847E+03  0.20220175429E+03  0.79560284006E+02 0.  0.
         -6    2    1    2    0  502 -0.13144232275E+03  0.80176014063E+01  0.14238634399E+03  0.25904907098E+03  0.17172997432E+03 0.  0.
        -24    2    5    5    0    0 -0.13714519750E+03 -0.17543552763E+02  0.16072176395E+03  0.22673540502E+03  0.80379580986E+02 0.  0.
          5    1    3    3  501    0 -0.23330511584E+02 -0.14727169926E+02 -0.16791909808E+02  0.32638329304E+02  0.47000000000E+01 0. -1.
        -13    1    4    4    0    0 -0.14903919372E+01 -0.75477836319E+01  0.26791610212E+02  0.27874373242E+02  0.00000000000E+00 0.  1.
         14    1    4    4    0    0  0.15626322627E+03  0.14257352151E+02  0.75951088256E+02  0.17432738105E+03  0.00000000000E+00 0. -1.
         -5    1    5    5    0  502  0.57028747511E+01  0.25561154169E+02 -0.18335419964E+02  0.32313665966E+02  0.47000000000E+01 0.  1.
         11    1    6    6    0    0 -0.35136111174E+02 -0.45811482853E+01 -0.58749282727E+00  0.35438374340E+02  0.00000000000E+00 0. -1.
        -12    1    6    6    0    0 -0.10200908633E+03 -0.12962404478E+02  0.16130925678E+03  0.19129703068E+03  0.00000000000E+00 0.  1.
</event>
<event>
12    1  0.9962621E-001  0.2577490E+03  0.7818608E-02  0.1108719E+00
         21   -1    0    0  501  502  0.00000000000E+00  0.00000000000E+00  0.15285551643E+03  0.15285551643E+03  0.00000000000E+00 0.  1.
         21   -1    0    0  502  503 -0.00000000000E+00 -0.00000000000E+00 -0.43379317233E+03  0.43379317233E+03  0.00000000000E+00 0.  1.
         -6    2    1    2    0  503  0.10403077118E+03  0.15890826001E+03 -0.15840896713E+03  0.30253590175E+03  0.17424217207E+03 0.  0.
        -24    2    3    3    0    0  0.13939310056E+03  0.15065586548E+03 -0.12566079353E+03  0.25341229002E+03  0.79369562277E+02 0.  0.
          6    2    1    2  501    0 -0.10403077118E+03 -0.15890826001E+03 -0.12252868877E+03  0.28411278700E+03  0.17214110408E+03 0.  0.
         24    2    5    5    0    0  0.74587338931E+01 -0.10743738240E+03 -0.56147696497E+02  0.14444286497E+03  0.78184100509E+02 0.  0.
          5    1    5    5  501    0 -0.11148950508E+03 -0.51470877618E+02 -0.66380992274E+02  0.13966992203E+03  0.47000000000E+01 0. -1.
        -11    1    6    6    0    0  0.37929482073E+02 -0.40203059156E+02 -0.41670820465E+02  0.69219858812E+02  0.00000000000E+00 0.  1.
         12    1    6    6    0    0 -0.30470748180E+02 -0.67234323240E+02 -0.14476876032E+02  0.75223006161E+02  0.00000000000E+00 0. -1.
         -5    1    3    3    0  503 -0.35362329381E+02  0.82523945336E+01 -0.32748173606E+02  0.49123611729E+02  0.47000000000E+01 0.  1.
         13    1    4    4    0    0  0.98555527528E+02  0.84798956014E+02 -0.11793795256E+03  0.17553750483E+03  0.00000000000E+00 0. -1.
        -14    1    4    4    0    0  0.40837573036E+02  0.65856909467E+02 -0.77228409623E+01  0.77874785191E+02  0.00000000000E+00 0.  1.
</event>
<event>
12    1  0.9962621E-001  0.1804896E+03  0.7818608E-02  0.1167500E+00
         21   -1    0    0  503  502  0.00000000000E+00  0.00000000000E+00  0.48299209757E+03  0.48299209757E+03  0.00000000000E+00 0.  1.
         21   -1    0    0  501  503 -0.00000000000E+00 -0.00000000000E+00 -0.67203883725E+02  0.67203883725E+02  0.00000000000E+00 0.  1.
          6    2    1    2  501    0  0.36021106563E+02 -0.36395305985E+02  0.21213926909E+03  0.27807579071E+03  0.17233959927E+03 0.  0.
         24    2    3    3    0    0  0.89334455327E+02 -0.95857922696E+01  0.12059309526E+03  0.16869638166E+03  0.76441103070E+02 0.  0.
         -6    2    1    2    0  502 -0.36021106563E+02  0.36395305985E+02  0.20364894476E+03  0.27212019059E+03  0.17307329952E+03 0.  0.
        -24    2    5    5    0    0  0.40700054011E+02  0.51511092128E+02  0.11862021189E+03  0.15650618242E+03  0.78189151797E+02 0.  0.
          5    1    3    3  501    0 -0.53313348764E+02 -0.26809513715E+02  0.91546173832E+02  0.10937940906E+03  0.47000000000E+01 0. -1.
        -13    1    4    4    0    0  0.46142455014E+02  0.28587774954E+02  0.32030212426E+02  0.63026355912E+02  0.00000000000E+00 0.  1.
         14    1    4    4    0    0  0.43192000313E+02 -0.38173567224E+02  0.88562882829E+02  0.10567002574E+03  0.00000000000E+00 0. -1.
         -5    1    5    5    0  502 -0.76721160573E+02 -0.15115786143E+02  0.85028732876E+02  0.11561400817E+03  0.47000000000E+01 0.  1.
         11    1    6    6    0    0  0.41553833329E+02  0.47748728320E+01  0.95708070652E+02  0.10444881647E+03  0.00000000000E+00 0. -1.
        -12    1    6    6    0    0 -0.85377931854E+00  0.46736219296E+02  0.22912141234E+02  0.52057365945E+02  0.00000000000E+00 0.  1.
</event>
<event>
12    1  0.9962621E-001  0.4083829E+03  0.7818608E-02  0.1040915E+00
         21   -1    0    0  501  502  0.00000000000E+00  0.00000000000E+00  0.55633074622E+03  0.55633074622E+03  0.00000000000E+00 0. -1.
         21   -1    0    0  502  503 -0.00000000000E+00 -0.00000000000E+00 -0.31893290166E+03  0.31893290166E+03  0.00000000000E+00 0. -1.
         -6    2    1    2    0  503  0.17984171035E+03 -0.32374816497E+03  0.22595661147E+03  0.46672578037E+03  0.17210650391E+03 0.  0.
        -24    2    3    3    0    0  0.30467078378E+02 -0.74092591475E+02  0.95649310444E+02  0.14791114966E+03  0.79441567381E+02 0.  0.
          6    2    1    2  501    0 -0.17984171035E+03  0.32374816497E+03  0.11441233095E+02  0.40853786751E+03  0.17209407972E+03 0.  0.
         24    2    5    5    0    0 -0.17291318233E+03  0.32718908398E+03  0.39090625559E+02  0.37944451213E+03  0.74151166379E+02 0.  0.
          5    1    5    5  501    0 -0.69285280147E+01 -0.34409190072E+01 -0.27649392464E+02  0.29093355387E+02  0.47000000000E+01 0. -1.
        -13    1    6    6    0    0 -0.93854739774E+02  0.11773232681E+03  0.39123178483E+02  0.15556425055E+03  0.00000000000E+00 0.  1.
         14    1    6    6    0    0 -0.79058442561E+02  0.20945675717E+03 -0.32552924753E-01  0.22388026158E+03  0.00000000000E+00 0. -1.
         -5    1    3    3    0  503  0.14937463197E+03 -0.24965557350E+03  0.13030730102E+03  0.31881463071E+03  0.47000000000E+01 0.  1.
         13    1    4    4    0    0  0.34805535644E+02 -0.55624374633E+02  0.10720945564E+03  0.12569551998E+03  0.00000000000E+00 0. -1.
        -14    1    4    4    0    0 -0.43384572660E+01 -0.18468216841E+02 -0.11560145199E+02  0.22215629673E+02  0.00000000000E+00 0.  1.
</event>
<event>
12    1  0.9962621E-001  0.2692473E+03  0.7818608E-02  0.1102018E+00
         21   -1    0    0  503  502  0.00000000000E+00  0.00000000000E+00  0.61809955187E+03  0.61809955187E+03  0.00000000000E+00 0.  1.
         21   -1    0    0  501  503 -0.00000000000E+00 -0.00000000000E+00 -0.11707709639E+03  0.11707709639E+03  0.00000000000E+00 0.  1.
          6    2    1    2  501    0  0.83736305155E+01 -0.20523448812E+03  0.27828354366E+03  0.38573890594E+03  0.17076726878E+03 0.  0.
         24    2    3    3    0    0  0.53591358330E+02 -0.18143124345E+03  0.17599586461E+03  0.27130072766E+03  0.82705566191E+02 0.  0.
         -6    2    1    2    0  502 -0.83736305155E+01  0.20523448812E+03  0.22273891183E+03  0.34943774231E+03  0.17407699477E+03 0.  0.
        -24    2    5    5    0    0 -0.36695006723E+02  0.14355343188E+03  0.69715098328E+02  0.18197123657E+03  0.79367655124E+02 0.  0.
          5    1    3    3  501    0 -0.45217727814E+02 -0.23803244670E+02  0.10228767904E+03  0.11443817829E+03  0.47000000000E+01 0. -1.
        -13    1    4    4    0    0  0.47331081582E+02 -0.38218399643E+02  0.71666544146E+02  0.94005164245E+02  0.00000000000E+00 0.  1.
         14    1    4    4    0    0  0.62602767477E+01 -0.14321284381E+03  0.10432932047E+03  0.17729556341E+03  0.00000000000E+00 0. -1.
         -5    1    5    5    0  502  0.28321376208E+02  0.61681056241E+02  0.15302381350E+03  0.16746650575E+03  0.47000000000E+01 0.  1.
         13    1    6    6    0    0  0.19739618682E+02  0.53026895136E+02  0.45435374649E+02  0.72566365645E+02  0.00000000000E+00 0. -1.
        -14    1    6    6    0    0 -0.56434625405E+02  0.90526536742E+02  0.24279723679E+02  0.10940487092E+03  0.00000000000E+00 0.  1.
</event>
<event>
12    1  0.9962621E-001  0.3527010E+03  0.7818608E-02  0.1061557E+00
         21   -1    0    0  503  502  0.00000000000E+00  0.00000000000E+00  0.32219846109E+04  0.32219846109E+04  0.00000000000E+00 0. -1.
         21   -1    0    0  501  503 -0.00000000000E+00 -0.00000000000E+00 -0.78905415635E+02  0.78905415635E+02  0.00000000000E+00 0. -1.
          6    2    1    2  501    0  0.59422925182E+02 -0.30186475288E+03  0.27521780074E+04  0.27746858893E+04  0.17246619069E+03 0.  0.
         24    2    3    3    0    0  0.36819350650E+02 -0.14845017406E+03  0.94047282668E+03  0.95635019247E+03  0.81996549739E+02 0.  0.
         -6    2    1    2    0  502 -0.59422925182E+02  0.30186475288E+03  0.39090118790E+03  0.52620413725E+03  0.17156235685E+03 0.  0.
        -24    2    5    5    0    0 -0.76587740361E+02  0.28093117636E+03  0.27895545824E+03  0.41093583330E+03  0.79146090109E+02 0.  0.
          5    1    3    3  501    0  0.22603574532E+02 -0.15341457882E+03  0.18117051807E+04  0.18183356968E+04  0.47000000000E+01 0. -1.
        -11    1    4    4    0    0  0.16633046132E+01 -0.13089234373E+03  0.79299333738E+03  0.80372508071E+03  0.00000000000E+00 0.  1.
         12    1    4    4    0    0  0.35156046037E+02 -0.17557830331E+02  0.14747948929E+03  0.15262511177E+03  0.00000000000E+00 0. -1.
         -5    1    5    5    0  502  0.17164815179E+02  0.20933576514E+02  0.11194572966E+03  0.11526830395E+03  0.47000000000E+01 0.  1.
         11    1    6    6    0    0 -0.48191631596E+02  0.10187797701E+03  0.63513258673E+02  0.12936572028E+03  0.00000000000E+00 0. -1.
        -12    1    6    6    0    0 -0.28396108766E+02  0.17905319935E+03  0.21544219957E+03  0.28157011302E+03  0.00000000000E+00 0.  1.
</event>
<event>
12    1  0.9962621E-001  0.2436422E+03  0.7818608E-02  0.1117644E+00
         21   -1    0    0  501  502  0.00000000000E+00  0.00000000000E+00  0.53895845038E+02  0.53895845038E+02  0.00000000000E+00 0. -1.
         21   -1    0    0  502  503 -0.00000000000E+00 -0.00000000000E+00 -0.11022416998E+04  0.11022416998E+04  0.00000000000E+00 0. -1.
         -6    2    1    2    0  503 -0.15463902516E+03  0.72758986705E+02 -0.47380753128E+03  0.53207361543E+03  0.17146911469E+03 0.  0.
        -24    2    3    3    0    0 -0.87539050281E+02 -0.13328086008E+02 -0.33721226471E+03  0.35716293089E+03  0.77540470281E+02 0.  0.
          6    2    1    2  501    0  0.15463902516E+03 -0.72758986705E+02 -0.57453832352E+03  0.62406392945E+03  0.17365023637E+03 0.  0.
         24    2    5    5    0    0  0.96093544454E+02  0.25593350704E+02 -0.35309603814E+03  0.37474579665E+03  0.76606860472E+02 0.  0.
          5    1    5    5  501    0  0.58545480709E+02 -0.98352337409E+02 -0.22144228538E+03  0.24931813279E+03  0.47000000000E+01 0. -1.
        -13    1    6    6    0    0  0.14467353390E+02  0.46408468373E+01 -0.19500582720E+03  0.19559681597E+03  0.00000000000E+00 0.  1.
         14    1    6    6    0    0  0.81626191064E+02  0.20952503866E+02 -0.15809021094E+03  0.17914898068E+03  0.00000000000E+00 0. -1.
         -5    1    3    3    0  503 -0.67099974881E+02  0.86087072713E+02 -0.13659526658E+03  0.17491068455E+03  0.47000000000E+01 0.  1.
         13    1    4    4    0    0 -0.74861067592E+02 -0.42260045492E+02 -0.23850966345E+03  0.25352899330E+03  0.00000000000E+00 0. -1.
        -14    1    4    4    0    0 -0.12677982690E+02  0.28931959484E+02 -0.98702601258E+02  0.10363393759E+03  0.00000000000E+00 0.  1.
</event>
<event>
12    1  0.9962621E-001  0.1869603E+03  0.7818608E-02  0.1161267E+00
         21   -1    0    0  501  502  0.00000000000E+00  0.00000000000E+00  0.58472236947E+02  0.58472236947E+02  0.00000000000E+00 0. -1.
         21   -1    0    0  502  503 -0.00000000000E+00 -0.00000000000E+00 -0.60012422237E+03  0.60012422237E+03  0.00000000000E+00 0. -1.
         -6    2    1    2    0  503 -0.72728180778E+02  0.83877117981E+01 -0.29350774207E+03  0.34799559786E+03  0.17203022840E+03 0.  0.
        -24    2    3    3    0    0  0.26908863992E+01  0.45848375339E+02 -0.95841192774E+02  0.13308749722E+03  0.80108883986E+02 0.  0.
          6    2    1    2  501    0  0.72728180778E+02 -0.83877117981E+01 -0.24814424335E+03  0.31060086146E+03  0.17186502740E+03 0.  0.
         24    2    5    5    0    0  0.55728870026E+02 -0.71911003130E+02 -0.13739188783E+03  0.18171191950E+03  0.76588455526E+02 0.  0.
          5    1    5    5  501    0  0.16999310752E+02  0.63523291332E+02 -0.11075235552E+03  0.12888894197E+03  0.47000000000E+01 0. -1.
        -13    1    6    6    0    0  0.22363299441E+02  0.14122900536E+02 -0.26387130418E+02  0.37361131315E+02  0.00000000000E+00 0.  1.
         14    1    6    6    0    0  0.33365570585E+02 -0.86033903666E+02 -0.11100475741E+03  0.14435078818E+03  0.00000000000E+00 0. -1.
         -5    1    3    3    0  503 -0.75419067178E+02 -0.37460663541E+02 -0.19766654930E+03  0.21490810064E+03  0.47000000000E+01 0.  1.
         13    1    4    4    0    0  0.30608122417E+02  0.70618001341E+01 -0.74301528145E+02  0.80668725437E+02  0.00000000000E+00 0. -1.
        -14    1    4    4    0    0 -0.27917236018E+02  0.38786575205E+02 -0.21539664629E+02  0.52418771784E+02  0.00000000000E+00 0.  1.
</event>
<event>
12    1  0.9962621E-001  0.5371670E+03  0.7818608E-02  0.1004533E+00
         21   -1    0    0  501  502  0.00000000000E+00  0.00000000000E+00  0.21225468848E+04  0.21225468848E+04  0.00000000000E+00 0. -1.
         21   -1    0    0  502  503 -0.00000000000E+00 -0.00000000000E+00 -0.14666653634E+03  0.14666653634E+03  0.00000000000E+00 0.  1.
         -6    2    1    2    0  503 -0.72577139493E+02  0.50323457351E+03  0.12965456813E+04  0.14034169264E+04  0.17330865076E+03 0.  0.
        -24    2    3    3    0    0 -0.44056698839E+01  0.11757408967E+03  0.41700297021E+03  0.44060914251E+03  0.80011641730E+02 0.  0.
          6    2    1    2  501    0  0.72577139493E+02 -0.50323457351E+03  0.67933466718E+03  0.86579649476E+03  0.17203343619E+03 0.  0.
         24    2    5    5    0    0  0.10226117620E+03 -0.45136165985E+03  0.54968378489E+03  0.72295608562E+03  0.79552135274E+02 0.  0.
          5    1    5    5  501    0 -0.29684036702E+02 -0.51872913659E+02  0.12965088229E+03  0.14284040914E+03  0.47000000000E+01 0. -1.
        -13    1    6    6    0    0 -0.11254154822E+02 -0.92975891510E+02  0.10990219523E+03  0.14439413049E+03  0.00000000000E+00 0.  1.
         14    1    6    6    0    0  0.11351533102E+03 -0.35838576834E+03  0.43978158966E+03  0.57856195513E+03  0.00000000000E+00 0. -1.
         -5    1    3    3    0  503 -0.68171469610E+02  0.38566048384E+03  0.87954271111E+03  0.96280778390E+03  0.47000000000E+01 0.  1.
         11    1    4    4    0    0  0.21851743675E+02  0.97051270359E+02  0.36898034960E+03  0.38215565699E+03  0.00000000000E+00 0. -1.
        -12    1    4    4    0    0 -0.26257413559E+02  0.20522819311E+02  0.48022620614E+02  0.58453485524E+02  0.00000000000E+00 0.  1.
</event>
<event>
12    1  0.9962621E-001  0.1784952E+03  0.7818608E-02  0.1170574E+00
         21   -1    0    0  503  502  0.00000000000E+00  0.00000000000E+00  0.17695727235E+03  0.17695727235E+03  0.00000000000E+00 0. -1.
         21   -1    0    0  501  503 -0.00000000000E+00 -0.00000000000E+00 -0.32650655091E+03  0.32650655091E+03  0.00000000000E+00 0. -1.
          6    2    1    2  501    0  0.38669474903E+01 -0.18768931649E+02  0.96217683210E+02  0.20277671301E+03  0.17746359260E+03 0.  0.
         24    2    3    3    0    0 -0.61448071371E+02  0.19781430120E+02  0.61365649167E+02  0.11917685441E+03  0.79184653032E+02 0.  0.
         -6    2    1    2    0  502 -0.38669474903E+01  0.18768931649E+02 -0.24576696177E+03  0.30068711025E+03  0.17217465753E+03 0.  0.
        -24    2    5    5    0    0  0.46868774218E+02  0.36910580349E+01 -0.67678703169E+02  0.11484047030E+03  0.79985128931E+02 0.  0.
          5    1    3    3  501    0  0.65315018861E+02 -0.38550361769E+02  0.34852034043E+02  0.83599858602E+02  0.47000000000E+01 0. -1.
        -13    1    4    4    0    0  0.54444890994E+01 -0.19971837459E+02  0.27230262889E+02  0.34205320786E+02  0.00000000000E+00 0.  1.
         14    1    4    4    0    0 -0.66892560470E+02  0.39753267580E+02  0.34135386278E+02  0.84971533621E+02  0.00000000000E+00 0. -1.
         -5    1    5    5    0  502 -0.50735721708E+02  0.15077873614E+02 -0.17808825860E+03  0.18584663995E+03  0.47000000000E+01 0.  1.
         13    1    6    6    0    0  0.32368789370E+02 -0.78947417727E+01 -0.83847927876E+02  0.90224943790E+02  0.00000000000E+00 0. -1.
        -14    1    6    6    0    0  0.14499984848E+02  0.11585799808E+02  0.16169224706E+02  0.24615526510E+02  0.00000000000E+00 0.  1.
</event>
<event>
12    1  0.9962621E-001  0.1862671E+03  0.7818608E-02  0.1163802E+00
         21   -1    0    0  503  502  0.00000000000E+00  0.00000000000E+00  0.45374363453E+03  0.45374363453E+03  0.00000000000E+00 0.  1.
         21   -1    0    0  501  503 -0.00000000000E+00 -0.00000000000E+00 -0.92064075130E+02  0.92064075130E+02  0.00000000000E+00 0.  1.
          6    2    1    2  501    0  0.49557998277E+02 -0.52823645139E+02  0.60406641217E+02  0.19581728754E+03  0.17160744482E+03 0.  0.
         24    2    3    3    0    0 -0.32080929068E+02 -0.21416451329E+02  0.24859443371E+00  0.89551550478E+02  0.80818116759E+02 0.  0.
         -6    2    1    2    0  502 -0.49557998277E+02  0.52823645139E+02  0.30127291818E+03  0.34999042212E+03  0.16273165539E+03 0.  0.
        -24    2    5    5    0    0 -0.39497650407E+02 -0.20987292979E+02  0.10231180679E+03  0.13748894205E+03  0.80218280476E+02 0.  0.
          5    1    3    3  501    0  0.81638927345E+02 -0.31407193810E+02  0.60158046783E+02  0.10626573706E+03  0.47000000000E+01 0. -1.
        -11    1    4    4    0    0 -0.89322569656E+01  0.23066067900E+02 -0.23453640906E+02  0.34086683245E+02  0.00000000000E+00 0.  1.
         12    1    4    4    0    0 -0.23148672102E+02 -0.44482519229E+02  0.23702235340E+02  0.55464867233E+02  0.00000000000E+00 0. -1.
         -5    1    5    5    0  502 -0.10060347870E+02  0.73810938118E+02  0.19896111139E+03  0.21250148007E+03  0.47000000000E+01 0.  1.
         11    1    6    6    0    0  0.70827883649E+01  0.18060980434E+02  0.11038342817E+01  0.19431504197E+02  0.00000000000E+00 0. -1.
        -12    1    6    6    0    0 -0.46580438772E+02 -0.39048273412E+02  0.10120797251E+03  0.11805743785E+03  0.00000000000E+00 0.  1.
</event>
<event>
12    1  0.9962621E-001  0.2368076E+03  0.7818608E-02  0.1122021E+00
         21   -1    0    0  501  502  0.00000000000E+00  0.00000000000E+00  0.10575222538E+03  0.10575222538E+03  0.00000000000E+00 0. -1.
         21   -1    0    0  502  503 -0.00000000000E+00 -0.00000000000E+00 -0.11413281604E+04  0.11413281604E+04  0.00000000000E+00 0. -1.
         -6    2    1    2    0  503  0.16057397224E+03  0.23524653712E+02 -0.61383039739E+02  0.24463386276E+03  0.17245416593E+03 0.  0.
        -24    2    3    3    0    0  0.47350610079E+02  0.38009189897E+02 -0.80158203069E+02  0.12885852736E+03  0.80575453852E+02 0.  0.
          6    2    1    2  501    0 -0.16057397224E+03 -0.23524653712E+02 -0.97419289532E+03  0.10024465231E+04  0.17178423799E+03 0.  0.
         24    2    5    5    0    0 -0.12536712695E+03 -0.80188110252E+02 -0.65710433903E+03  0.67838246799E+03  0.79180874948E+02 0.  0.
          5    1    5    5  501    0 -0.35206845290E+02  0.56663456540E+02 -0.31708855629E+03  0.32406405507E+03  0.47000000000E+01 0. -1.
        -11    1    6    6    0    0 -0.13000782515E+03 -0.89654142350E+02 -0.60977449822E+03  0.62989271985E+03  0.00000000000E+00 0.  1.
         12    1    6    6    0    0  0.46406982001E+01  0.94660320987E+01 -0.47329840809E+02  0.48489748137E+02  0.00000000000E+00 0. -1.
         -5    1    3    3    0  503  0.11322336216E+03 -0.14484536185E+02  0.18775163330E+02  0.11577533540E+03  0.47000000000E+01 0.  1.
         13    1    4    4    0    0 -0.21512400271E+02  0.15364508367E+02 -0.33400333728E+02  0.42596170907E+02  0.00000000000E+00 0. -1.
        -14    1    4    4    0    0  0.68863010350E+02  0.22644681530E+02 -0.46757869341E+02  0.86262356456E+02  0.00000000000E+00 0.  1.
</event>
<event>
12    1  0.9962621E-001  0.2763501E+03  0.7818608E-02  0.1098746E+00
         21   -1    0    0  503  502  0.00000000000E+00  0.00000000000E+00  0.10449521492E+03  0.10449521492E+03  0.00000000000E+00 0. -1.
         21   -1    0    0  501  503 -0.00000000000E+00 -0.00000000000E+00 -0.78462790776E+03  0.78462790776E+03  0.00000000000E+00 0.  1.
          6    2    1    2  501    0  0.13271344807E+03 -0.17097961349E+03 -0.47173637127E+03  0.54300408493E+03  0.15959744593E+03 0.  0.
         24    2    3    3    0    0  0.12428562301E+03 -0.11747177387E+03 -0.44264295564E+03  0.48133858429E+03  0.80669156481E+02 0.  0.
         -6    2    1    2    0  502 -0.13271344807E+03  0.17097961349E+03 -0.20839632157E+03  0.34611903775E+03  0.17182105203E+03 0.  0.
        -24    2    5    5    0    0 -0.90733971198E+02  0.17491273221E+03 -0.11115396066E+03  0.24002515171E+03  0.80185741008E+02 0.  0.
          5    1    3    3  501    0  0.84278250639E+01 -0.53507839625E+02 -0.29093415629E+02  0.61665500643E+02  0.47000000000E+01 0. -1.
        -13    1    4    4    0    0  0.12221603876E+02 -0.62332244577E+02 -0.16893480433E+03  0.18048170109E+03  0.00000000000E+00 0.  1.
         14    1    4    4    0    0  0.11206401913E+03 -0.55139529291E+02 -0.27370815131E+03  0.30085688320E+03  0.00000000000E+00 0. -1.
         -5    1    5    5    0  502 -0.41979476871E+02 -0.39331187214E+01 -0.97242360906E+02  0.10609388604E+03  0.47000000000E+01 0.  1.
         11    1    6    6    0    0  0.13044266436E+02  0.40566439851E+02 -0.16794778627E+02  0.45802330925E+02  0.00000000000E+00 0. -1.
        -12    1    6    6    0    0 -0.10377823763E+03  0.13434629236E+03 -0.94359182035E+02  0.19422282078E+03  0.00000000000E+00 0.  1.
</event>
<event>
12    1  0.9962621E-001  0.1923334E+03  0.7818608E-02  0.1157324E+00
         21   -1    0    0  501  502  0.00000000000E+00  0.00000000000E+00  0.16333191942E+03  0.16333191942E+03  0.00000000000E+00 0. -1.
         21   -1    0    0  502  503 -0.00000000000E+00 -0.00000000000E+00 -0.22424620749E+03  0.22424620749E+03  0.00000000000E+00 0. -1.
         -6    2    1    2    0  503  0.80094722297E+02 -0.11743653070E+02 -0.87843141063E+01  0.18830530384E+03  0.16979000369E+03 0.  0.
        -24    2    3    3    0    0  0.92263732049E+02  0.93535963146E+01  0.42359788647E+02  0.13146352364E+03  0.82995303111E+02 0.  0.
          6    2    1    2  501    0 -0.80094722297E+02  0.11743653070E+02 -0.52129973968E+02  0.19927282307E+03  0.17446789361E+03 0.  0.
         24    2    5    5    0    0 -0.12172428171E+03  0.26014850691E+02 -0.44789694389E+02  0.15441017710E+03  0.79641778322E+02 0.  0.
          5    1    5    5  501    0  0.41629559416E+02 -0.14271197620E+02 -0.73402795795E+01  0.44862645965E+02  0.47000000000E+01 0. -1.
        -11    1    6    6    0    0 -0.71285546336E+02 -0.71509659857E+01 -0.58515946654E+02  0.92503413146E+02  0.00000000000E+00 0.  1.
         12    1    6    6    0    0 -0.50438735377E+02  0.33165816676E+02  0.13726252265E+02  0.61906763956E+02  0.00000000000E+00 0. -1.
         -5    1    3    3    0  503 -0.12169009752E+02 -0.21097249385E+02 -0.51144102754E+02  0.56841780201E+02  0.47000000000E+01 0.  1.
         13    1    4    4    0    0  0.10378350766E+03  0.91427581880E+01  0.19684175198E+02  0.10602864350E+03  0.00000000000E+00 0. -1.
        -14    1    4    4    0    0 -0.11519775606E+02  0.21083812655E+00  0.22675613450E+02  0.25434880146E+02  0.00000000000E+00 0.  1.
</event>
<event>
12    1  0.9962621E-001  0.3249640E+03  0.7818608E-02  0.1073398E+00
         21   -1    0    0  501  502  0.00000000000E+00  0.00000000000E+00  0.20405951504E+03  0.20405951504E+03  0.00000000000E+00 0.  1.
         21   -1    0    0  502  503 -0.00000000000E+00 -0.00000000000E+00 -0.75433413208E+03  0.75433413208E+03  0.00000000000E+00 0.  1.
         -6    2    1    2    0  503 -0.24379709497E+03 -0.12939569383E+03 -0.54375963582E+03  0.63346359565E+03  0.17152643053E+03 0.  0.
        -24    2    3    3    0    0 -0.10325185201E+03 -0.29712457649E+02 -0.14315697147E+03  0.19735088363E+03  0.83124471181E+02 0.  0.
          6    2    1    2  501    0  0.24379709497E+03  0.12939569383E+03 -0.65149812208E+01  0.32493005148E+03  0.17133833277E+03 0.  0.
         24    2    5    5    0    0  0.20327138202E+03  0.12527792483E+03  0.48549079540E+02  0.25627562541E+03  0.79412655509E+02 0.  0.
          5    1    5    5  501    0  0.40525712945E+02  0.41177690014E+01 -0.55064060760E+02  0.68654426068E+02  0.47000000000E+01 0. -1.
        -11    1    6    6    0    0  0.45259415028E+02  0.16636666403E+02 -0.20594029550E+02  0.52433838032E+02  0.00000000000E+00 0.  1.
         12    1    6    6    0    0  0.15801196700E+03  0.10864125843E+03  0.69143109089E+02  0.20384178738E+03  0.00000000000E+00 0. -1.
         -5    1    3    3    0  503 -0.14054524296E+03 -0.99683236180E+02 -0.40060266435E+03  0.43611271201E+03  0.47000000000E+01 0.  1.
         11    1    4    4    0    0 -0.10587124158E+03 -0.74757729943E+01 -0.13848474549E+03  0.17447816972E+03  0.00000000000E+00 0. -1.
        -12    1    4    4    0    0  0.26193895706E+01 -0.22236684655E+02 -0.46722259733E+01  0.22872713912E+02  0.00000000000E+00 0.  1.
</event>
<event>
12    1  0.9962621E-001  0.4154299E+03  0.7818608E-02  0.1038620E+00
         21   -1    0    0  501  502  0.00000000000E+00  0.00000000000E+00  0.90881925220E+03  0.90881925220E+03  0.00000000000E+00 0.  1.
         21   -1    0    0  502  503 -0.00000000000E+00 -0.00000000000E+00 -0.22950729177E+03  0.22950729177E+03  0.00000000000E+00 0.  1.
         -6    2    1    2    0  503  0.39482643965E+02 -0.37580062112E+03  0.10206192215E+03  0.42713067017E+03  0.17099411521E+03 0.  0.
        -24    2    3    3    0    0  0.35991812365E+02 -0.32532818370E+03  0.29094963090E+02  0.33821542986E+03  0.80058244128E+02 0.  0.
          6    2    1    2  501    0 -0.39482643965E+02  0.37580062112E+03  0.57725003828E+03  0.71119587380E+03  0.17261801241E+03 0.  0.
         24    2    5    5    0    0  0.10743091017E+02  0.25537657319E+03  0.28436035335E+03  0.39052309149E+03  0.79466132998E+02 0.  0.
          5    1    5    5  501    0 -0.50225734982E+02  0.12042404793E+03  0.29288968494E+03  0.32067278232E+03  0.47000000000E+01 0. -1.
        -11    1    6    6    0    0 -0.81073010598E+01  0.42761741117E+02  0.97753926199E+02  0.10700525651E+03  0.00000000000E+00 0.  1.
         12    1    6    6    0    0  0.18850392076E+02  0.21261483207E+03  0.18660642715E+03  0.28351783498E+03  0.00000000000E+00 0. -1.
         -5    1    3    3    0  503  0.34908316006E+01 -0.50472437418E+02  0.72966959056E+02  0.88915240302E+02  0.47000000000E+01 0.  1.
         11    1    4    4    0    0  0.77808793629E+01 -0.40804398983E+02 -0.23161345653E+02  0.47560372081E+02  0.00000000000E+00 0. -1.
        -12    1    4    4    0    0  0.28210933002E+02 -0.28452378472E+03  0.52256308743E+02  0.29065505778E+03  0.00000000000E+00 0.  1.
</event>
<event>
12    1  0.9962621E-001  0.2350737E+03  0.7818608E-02  0.1123351E+00
         21   -1    0    0  503  502  0.00000000000E+00  0.00000000000E+00  0.21602637920E+03  0.21602637920E+03  0.00000000000E+00 0.  1.
         21   -1    0    0  501  503 -0.00000000000E+00 -0.00000000000E+00 -0.29970044606E+03  0.29970044606E+03  0.00000000000E+00 0.  1.
          6    2    1    2  501    0  0.11475105925E+03  0.11050104614E+03  0.58388691190E+02  0.24221659740E+03  0.17286223994E+03 0.  0.
         24    2    3    3    0    0  0.60580422972E+02  0.11429222289E+03  0.92795681489E+02  0.17775915533E+03  0.79085895964E+02 0.  0.
         -6    2    1    2    0  502 -0.11475105925E+03 -0.11050104614E+03 -0.14206275805E+03  0.27351022786E+03  0.17101967933E+03 0.  0.
        -24    2    5    5    0    0  0.89727526705E+01 -0.37258005488E+02 -0.67835666504E+02  0.11163411547E+03  0.79948913839E+02 0.  0.
          5    1    3    3  501    0  0.54170636282E+02 -0.37911767486E+01 -0.34406990299E+02  0.64457442067E+02  0.47000000000E+01 0. -1.
        -13    1    4    4    0    0 -0.19354715642E+02  0.27388283416E+02  0.20972511875E+02  0.39554637407E+02  0.00000000000E+00 0.  1.
         14    1    4    4    0    0  0.79935138613E+02  0.86903939474E+02  0.71823169615E+02  0.13820451792E+03  0.00000000000E+00 0. -1.
         -5    1    5    5    0  502 -0.12372381192E+03 -0.73243040654E+02 -0.74227091550E+02  0.16187611239E+03  0.47000000000E+01 0.  1.
         11    1    6    6    0    0 -0.33804121872E+02 -0.24206750104E+02 -0.19965705214E+02  0.46122822884E+02  0.00000000000E+00 0. -1.
        -12    1    6    6    0    0  0.42776874543E+02 -0.13051255383E+02 -0.47869961290E+02  0.65511292589E+02  0.00000000000E+00 0.  1.
</event>
<event>
12    1  0.9962621E-001  0.2615485E+03  0.7818608E-02  0.1106231E+00
         21   -1    0    0  501  502  0.00000000000E+00  0.00000000000E+00  0.22565221211E+03  0.22565221211E+03  0.00000000000E+00 0.  1.
         21   -1    0    0  502  503 -0.00000000000E+00 -0.00000000000E+00 -0.41517083918E+03  0.41517083918E+03  0.00000000000E+00 0.  1.
         -6    2    1    2    0  503  0.15029105720E+03 -0.12741207414E+03 -0.26125983230E+03  0.36961392004E+03  0.17186189630E+03 0.  0.
        -24    2    3    3    0    0  0.96701294302E+02 -0.51575427306E+02 -0.23734681249E+03  0.27360880451E+03  0.80728579120E+02 0.  0.
          6    2    1    2  501    0 -0.15029105720E+03  0.12741207414E+03  0.71741205229E+02  0.27120913125E+03  0.17200684240E+03 0.  0.
         24    2    5    5    0    0 -0.55682779993E+02  0.41868393850E+02  0.93116106793E+02  0.14179729342E+03  0.81131551721E+02 0.  0.
          5    1    5    5  501    0 -0.94608277211E+02  0.85543680292E+02 -0.21374901564E+02  0.12941183783E+03  0.47000000000E+01 0. -1.
        -11    1    6    6    0    0  0.11339276625E+02 -0.15127632467E+02  0.18200313880E+02  0.26242634848E+02  0.00000000000E+00 0.  1.
         12    1    6    6    0    0 -0.67022056618E+02  0.56996026316E+02  0.74915792913E+02  0.11555465857E+03  0.00000000000E+00 0. -1.
         -5    1    3    3    0  503  0.53589762902E+02 -0.75836646835E+02 -0.23913019814E+02  0.96005115529E+02  0.47000000000E+01 0.  1.
         13    1    4    4    0    0  0.51013940922E+02 -0.55455001542E+02 -0.80786645049E+02  0.11047244626E+03  0.00000000000E+00 0. -1.
        -14    1    4    4    0    0  0.45687353380E+02  0.38795742357E+01 -0.15656016744E+03  0.16313635825E+03  0.00000000000E+00 0.  1.
</event>
<event>
12    1  0.9962621E-001  0.5596447E+03  0.7818608E-02  0.9993117E-01
         21   -1    0    0  503  502  0.00000000000E+00  0.00000000000E+00  0.31460619929E+03  0.31460619929E+03  0.00000000000E+00 0. -1.
         21   -1    0    0  501  503 -0.00000000000E+00 -0.00000000000E+00 -0.12580856168E+04  0.12580856168E+04  0.00000000000E+00 0. -1.
          6    2    1    2  501    0  0.34138921436E+03  0.40807304065E+03 -0.83136388493E+03  0.10019273604E+04  0.17211137161E+03 0.  0.
         24    2    3    3    0    0  0.15233588184E+03  0.10729642165E+03 -0.27649929821E+03  0.34306126124E+03  0.80749142765E+02 0.  0.
         -6    2    1    2    0  502 -0.34138921436E+03 -0.40807304065E+03 -0.11211553254E+03  0.57076445561E+03  0.17358562431E+03 0.  0.
        -24    2    5    5    0    0 -0.14030674377E+03 -0.27225484038E+03 -0.78405047692E+02  0.32573541592E+03  0.78406181022E+02 0.  0.
          5    1    3    3  501    0  0.18905333252E+03  0.30077661900E+03 -0.55486458673E+03  0.65886609920E+03  0.47000000000E+01 0. -1.
        -11    1    4    4    0    0  0.85205137572E+02  0.10060317887E+03 -0.15004121031E+03  0.19973302145E+03  0.00000000000E+00 0.  1.
         12    1    4    4    0    0  0.67130744273E+02  0.66932427795E+01 -0.12645808790E+03  0.14332823979E+03  0.00000000000E+00 0. -1.
         -5    1    5    5    0  502 -0.20108247059E+03 -0.13581820027E+03 -0.33710484846E+02  0.24502903969E+03  0.47000000000E+01 0.  1.
         13    1    6    6    0    0 -0.27814177676E+02 -0.12195436544E+03 -0.83848776017E+01  0.12536666982E+03  0.00000000000E+00 0. -1.
        -14    1    6    6    0    0 -0.11249256609E+03 -0.15030047494E+03 -0.70020170091E+02  0.20036874610E+03  0.00000000000E+00 0.  1.
</event>
<event>
12    1  0.9962621E-001  0.1765939E+03  0.7818608E-02  0.1173549E+00
         21   -1    0    0  501  502  0.00000000000E+00  0.00000000000E+00  0.11464250695E+04  0.11464250695E+04  0.00000000000E+00 0.  1.
         21   -1    0    0  502  503 -0.00000000000E+00 -0.00000000000E+00 -0.42604415104E+02  0.42604415104E+02  0.00000000000E+00 0.  1.
         -6    2    1    2    0  503 -0.19713040621E+02  0.32544733418E+02  0.93469207381E+03  0.95122798310E+03  0.17244604766E+03 0.  0.
        -24    2    3    3    0    0  0.28592331960E+02  0.40383976081E+01  0.81254484525E+03  0.81673614080E+03  0.77427178970E+02 0.  0.
          6    2    1    2  501    0  0.19713040621E+02 -0.32544733418E+02  0.16912858060E+03  0.23780150152E+03  0.16277995486E+03 0.  0.
         24    2    5    5    0    0  0.56747167871E+02  0.19856589873E+02  0.82200871114E+02  0.12965372327E+03  0.80240759730E+02 0.  0.
          5    1    5    5  501    0 -0.37034127250E+02 -0.52401323291E+02  0.86927709490E+02  0.10814777825E+03  0.47000000000E+01 0. -1.
        -13    1    6    6    0    0  0.45430751058E+00 -0.25963615235E+02  0.11751423814E+02  0.28502836228E+02  0.00000000000E+00 0.  1.
         14    1    6    6    0    0  0.56292860361E+02  0.45820205108E+02  0.70449447300E+02  0.10115088704E+03  0.00000000000E+00 0. -1.
         -5    1    3    3    0  503 -0.48305372581E+02  0.28506335810E+02  0.12214722855E+03  0.13449184230E+03  0.47000000000E+01 0.  1.
         13    1    4    4    0    0 -0.18317503037E+02  0.20594158102E+02  0.16526173897E+03  0.16754430051E+03  0.00000000000E+00 0. -1.
        -14    1    4    4    0    0  0.46909834997E+02 -0.16555760494E+02  0.64728310628E+03  0.64919184029E+03  0.00000000000E+00 0.  1.
</event>
<event>
12    1  0.9962621E-001  0.1722037E+03  0.7818608E-02  0.1177063E+00
         21   -1    0    0  501  502  0.00000000000E+00  0.00000000000E+00  0.14101240394E+02  0.14101240394E+02  0.00000000000E+00 0. -1.
         21   -1    0    0  502  503 -0.00000000000E+00 -0.00000000000E+00 -0.21078664540E+04  0.21078664540E+04  0.00000000000E+00 0. -1.
         -6    2    1    2    0  503 -0.10778421520E+02 -0.13673091794E+01 -0.83072662396E+03  0.84724396464E+03  0.16612515751E+03 0.  0.
        -24    2    3    3    0    0 -0.40568172798E+02  0.51490835988E+02 -0.44245745853E+03  0.45423448942E+03  0.79140924502E+02 0.  0.
          6    2    1    2  501    0  0.10778421520E+02  0.13673091794E+01 -0.12630385897E+04  0.12747237298E+04  0.17186059572E+03 0.  0.
         24    2    5    5    0    0  0.13509549997E+02 -0.46845089800E+02 -0.42020408964E+03  0.43049391574E+03  0.79853391636E+02 0.  0.
          5    1    5    5  501    0 -0.27311284775E+01  0.48212398979E+02 -0.84283450001E+03  0.84422981402E+03  0.47000000000E+01 0. -1.
        -13    1    6    6    0    0 -0.15407465822E+02 -0.90308308436E+01 -0.30917110584E+03  0.30968648435E+03  0.00000000000E+00 0.  1.
         14    1    6    6    0    0  0.28917015819E+02 -0.37814258956E+02 -0.11103298381E+03  0.12080743138E+03  0.00000000000E+00 0. -1.
         -5    1    3    3    0  503  0.29789751279E+02 -0.52858145167E+02 -0.38826916543E+03  0.39300947523E+03  0.47000000000E+01 0.  1.
         11    1    4    4    0    0  0.77782375587E+01 -0.11183669383E+02 -0.16909024647E+03  0.16963810565E+03  0.00000000000E+00 0. -1.
        -12    1    4    4    0    0 -0.48346410357E+02  0.62674505371E+02 -0.27336721206E+03  0.28459638376E+03  0.00000000000E+00 0.  1.
</event>
<event>
12    1  0.9962621E-001  0.2956672E+03  0.7818608E-02  0.1087728E+00
         21   -1    0    0  503  502  0.00000000000E+00  0.00000000000E+00  0.47361247882E+03  0.47361247882E+03  0.00000000000E+00 0.  1.
         21   -1    0    0  501  503 -0.00000000000E+00 -0.00000000000E+00 -0.21282334067E+03  0.21282334067E+03  0.00000000000E+00 0.  1.
          6    2    1    2  501    0  0.23574933359E+03  0.55530091001E+02  0.25907766706E+03  0.39311618891E+03  0.16958113434E+03 0.  0.
         24    2    3    3    0    0  0.20446386670E+03 -0.13265648704E+02  0.19685937790E+03  0.29511190459E+03  0.79724345976E+02 0.  0.
         -6    2    1    2    0  502 -0.23574933359E+03 -0.55530091001E+02  0.17114710975E+01  0.29331963058E+03  0.16544526966E+03 0.  0.
        -24    2    5    5    0    0 -0.60124098124E+02 -0.51907994426E+02  0.14323674379E+02  0.11714216157E+03  0.84898594264E+02 0.  0.
          5    1    3    3  501    0  0.31285466885E+02  0.68795739706E+02  0.62218289161E+02  0.98004284325E+02  0.47000000000E+01 0. -1.
        -11    1    4    4    0    0  0.44730538968E+02 -0.23012164359E+01  0.95861958308E+02  0.10580941246E+03  0.00000000000E+00 0.  1.
         12    1    4    4    0    0  0.15973332774E+03 -0.10964432269E+02  0.10099741959E+03  0.18930249213E+03  0.00000000000E+00 0. -1.
         -5    1    5    5    0  502 -0.17562523546E+03 -0.36220965756E+01 -0.12612203281E+02  0.17617746901E+03  0.47000000000E+01 0.  1.
         13    1    6    6    0    0 -0.34373031070E+02  0.11803047746E+02  0.29451580006E+02  0.46778336501E+02  0.00000000000E+00 0. -1.
        -14    1    6    6    0    0 -0.25751067054E+02 -0.63711042172E+02 -0.15127905627E+02  0.70363825064E+02  0.00000000000E+00 0.  1.
</event>
<event>
12    1  0.9962621E-001  0.2603370E+03  0.7818608E-02  0.1107049E+00
         21   -1    0    0  501  502  0.00000000000E+00  0.00000000000E+00  0.24520066585E+03  0.24520066585E+03  0.00000000000E+00 0.  1.
         21   -1    0    0  502  503 -0.00000000000E+00 -0.00000000000E+00 -0.27620829206E+03  0.27620829206E+03  0.00000000000E+00 0.  1.
         -6    2    1    2    0  503 -0.12516095060E+03 -0.14765064603E+03 -0.27247638034E+02  0.26104484690E+03  0.17302023433E+03 0.  0.
        -24    2    3    3    0    0 -0.91510589180E+01 -0.77343948394E+02 -0.55639439073E+02  0.12237433429E+03  0.76248949377E+02 0.  0.
          6    2    1    2  501    0  0.12516095060E+03  0.14765064603E+03 -0.37599881724E+01  0.26036411101E+03  0.17409582408E+03 0.  0.
         24    2    5    5    0    0  0.11210353017E+03  0.45394879973E+02 -0.41804786124E+02  0.15038122793E+03  0.78987194942E+02 0.  0.
          5    1    5    5  501    0  0.13057420427E+02  0.10225576606E+03  0.38044797952E+02  0.10998288308E+03  0.47000000000E+01 0. -1.
        -13    1    6    6    0    0  0.59201244719E+02 -0.12415880577E+02 -0.38992869132E+02  0.71967946407E+02  0.00000000000E+00 0.  1.
         14    1    6    6    0    0  0.52902285455E+02  0.57810760550E+02 -0.28119169919E+01  0.78413281521E+02  0.00000000000E+00 0. -1.
         -5    1    3    3    0  503 -0.11600989168E+03 -0.70306697635E+02  0.28391801039E+02  0.13867051261E+03  0.47000000000E+01 0.  1.
         13    1    4    4    0    0 -0.39552055172E+02 -0.53088522503E+02 -0.18836674286E+02  0.68830055848E+02  0.00000000000E+00 0. -1.
        -14    1    4    4    0    0  0.30400996254E+02 -0.24255425890E+02 -0.36802764787E+02  0.53544278446E+02  0.00000000000E+00 0.  1.
</event>
<event>
12    1  0.9962621E-001  0.1931632E+03  0.7818608E-02  0.1156292E+00
         21   -1    0    0  503  502  0.00000000000E+00  0.00000000000E+00  0.27409947882E+02  0.27409947882E+02  0.00000000000E+00 0. -1.
         21   -1    0    0  501  503 -0.00000000000E+00 -0.00000000000E+00 -0.18493942870E+04  0.18493942870E+04  0.00000000000E+00 0. -1.
          6    2    1    2  501    0  0.83227839116E+02 -0.11633948164E+01 -0.41375982692E+03  0.45539356536E+03  0.17104934466E+03 0.  0.
         24    2    3    3    0    0  0.86979543646E+02 -0.55971631050E+02 -0.24400715609E+03  0.27691085668E+03  0.80261234899E+02 0.  0.
         -6    2    1    2    0  502 -0.83227839116E+02  0.11633948164E+01 -0.14082245122E+04  0.14214106695E+04  0.17430946037E+03 0.  0.
        -24    2    5    5    0    0  0.11616730100E+02  0.39112472389E+02 -0.76650010439E+03  0.77158920913E+03  0.78503271966E+02 0.  0.
          5    1    3    3  501    0 -0.37517045299E+01  0.54808236234E+02 -0.16975267082E+03  0.17848270868E+03  0.47000000000E+01 0. -1.
        -13    1    4    4    0    0  0.59146390561E+02  0.68938603867E+01 -0.14110112038E+03  0.15315138589E+03  0.00000000000E+00 0.  1.
         14    1    4    4    0    0  0.27833153085E+02 -0.62865491437E+02 -0.10290603571E+03  0.12375947079E+03  0.00000000000E+00 0. -1.
         -5    1    5    5    0  502 -0.94844569216E+02 -0.37949077572E+02 -0.64172440781E+03  0.64982146039E+03  0.47000000000E+01 0.  1.
         11    1    6    6    0    0  0.31490926987E+02  0.35370233215E+02 -0.23604710558E+03  0.24075084202E+03  0.00000000000E+00 0. -1.
        -12    1    6    6    0    0 -0.19874196887E+02  0.37422391738E+01 -0.53045299881E+03  0.53083836711E+03  0.00000000000E+00 0.  1.
</event>
<event>
12    1  0.9962621E-001  0.1799259E+03  0.7818608E-02  0.1169678E+00
         21   -1    0    0  501  502  0.00000000000E+00  0.00000000000E+00  0.68515041346E+03  0.68515041346E+03  0.00000000000E+00 0.  1.
         21   -1    0    0  502  503 -0.00000000000E+00 -0.00000000000E+00 -0.47577236181E+02  0.47577236181E+02  0.00000000000E+00 0. -1.
         -6    2    1    2    0  503  0.30170400146E+02 -0.14686922870E+02  0.24592746168E+03  0.30471898739E+03  0.17676930197E+03 0.  0.
        -24    2    3    3    0    0 -0.52988263185E+01 -0.61815183371E+02  0.89482718770E+02  0.13745815351E+03  0.83895128307E+02 0.  0.
          6    2    1    2  501    0 -0.30170400146E+02  0.14686922870E+02  0.39164571559E+03  0.42800866225E+03  0.16934901732E+03 0.  0.
         24    2    5    5    0    0 -0.19495978733E+02 -0.57138981959E+02  0.21293322610E+03  0.23504973455E+03  0.79138249216E+02 0.  0.
          5    1    5    5  501    0 -0.10674421413E+02  0.71825904829E+02  0.17871248949E+03  0.19295892770E+03  0.47000000000E+01 0. -1.
        -11    1    6    6    0    0 -0.29967830205E+02 -0.23066699173E+02  0.28898607058E+02  0.47594883630E+02  0.00000000000E+00 0.  1.
         12    1    6    6    0    0  0.10471851471E+02 -0.34072282786E+02  0.18403461904E+03  0.18745485092E+03  0.00000000000E+00 0. -1.
         -5    1    3    3    0  503  0.35469226465E+02  0.47128260501E+02  0.15644474291E+03  0.16726083388E+03  0.47000000000E+01 0.  1.
         13    1    4    4    0    0  0.28610638362E+02 -0.28509026963E+02  0.52352264427E+01  0.40727642232E+02  0.00000000000E+00 0. -1.
        -14    1    4    4    0    0 -0.33909464680E+02 -0.33306156408E+02  0.84247492328E+02  0.96730511283E+02  0.00000000000E+00 0.  1.
</event>
<event>
12    1  0.9962621E-001  0.1761653E+03  0.7818608E-02  0.1171644E+00
         21   -1    0    0  503  502  0.00000000000E+00  0.00000000000E+00  0.37909287330E+02  0.37909287330E+02  0.00000000000E+00 0. -1.
         21   -1    0    0  501  503 -0.00000000000E+00 -0.00000000000E+00 -0.85364599935E+03  0.85364599935E+03  0.00000000000E+00 0. -1.
          6    2    1    2  501    0  0.36337174442E+02 -0.96037357902E+01 -0.31541869927E+03  0.36112872276E+03  0.17179166618E+03 0.  0.
         24    2    3    3    0    0 -0.29210788156E+02 -0.24815890112E+02 -0.25834275341E+03  0.27276753991E+03  0.78689605685E+02 0.  0.
         -6    2    1    2    0  502 -0.36337174442E+02  0.96037357902E+01 -0.50031801275E+03  0.53042656392E+03  0.17210927876E+03 0.  0.
        -24    2    5    5    0    0 -0.49458677834E+02 -0.20971852165E+02 -0.17831122362E+03  0.20667125094E+03  0.89622174163E+02 0.  0.
          5    1    3    3  501    0  0.65547962598E+02  0.15212154321E+02 -0.57075945863E+02  0.88361182858E+02  0.47000000000E+01 0. -1.
        -13    1    4    4    0    0  0.14615612360E+02 -0.38205559209E+02 -0.10365245472E+03  0.11143209703E+03  0.00000000000E+00 0.  1.
         14    1    4    4    0    0 -0.43826400516E+02  0.13389669097E+02 -0.15469029869E+03  0.16133544288E+03  0.00000000000E+00 0. -1.
         -5    1    5    5    0  502  0.13121503392E+02  0.30575587955E+02 -0.32200678914E+03  0.32375531297E+03  0.47000000000E+01 0.  1.
         11    1    6    6    0    0  0.24619766060E+02  0.52458260325E+01 -0.54431151344E+02  0.59970007573E+02  0.00000000000E+00 0. -1.
        -12    1    6    6    0    0 -0.74078443894E+02 -0.26217678197E+02 -0.12388007227E+03  0.14670124337E+03  0.00000000000E+00 0.  1.
</event>
<event>
12    1  0.9962621E-001  0.5172731E+03  0.7818608E-02  0.1009385E+00
         21   -1    0    0  503  502  0.00000000000E+00  0.00000000000E+00  0.44454646062E+03  0.44454646062E+03  0.00000000000E+00 0. -1.
         21   -1    0    0  501  503 -0.00000000000E+00 -0.00000000000E+00 -0.62444667603E+03  0.62444667603E+03  0.00000000000E+00 0. -1.
          6    2    1    2  501    0 -0.48727620545E+03 -0.18110222165E+02  0.12379225970E+02  0.51742125499E+03  0.17264248994E+03 0.  0.
         24    2    3    3    0    0 -0.37748407665E+03 -0.70106376883E+02  0.35160618976E+02  0.39373215474E+03  0.79872450504E+02 0.  0.
         -6    2    1    2    0  502  0.48727620545E+03  0.18110222165E+02 -0.19227944139E+03  0.55157188166E+03  0.17173839555E+03 0.  0.
        -24    2    5    5    0    0  0.37268373581E+03 -0.33277769192E+02 -0.98885419487E+02  0.39499380822E+03  0.79001300516E+02 0.  0.
          5    1    3    3  501    0 -0.10979212881E+03  0.51996154718E+02 -0.22781393006E+02  0.12368910025E+03  0.47000000000E+01 0. -1.
        -13    1    4    4    0    0 -0.29152911300E+03 -0.30307057303E+02  0.51561146455E+02  0.29760089596E+03  0.00000000000E+00 0.  1.
         14    1    4    4    0    0 -0.85954963645E+02 -0.39799319580E+02 -0.16400527479E+02  0.96131258786E+02  0.00000000000E+00 0. -1.
         -5    1    5    5    0  502  0.11459246964E+03  0.51387991357E+02 -0.93394021900E+02  0.15657807344E+03  0.47000000000E+01 0.  1.
         11    1    6    6    0    0  0.42151788787E+02  0.11420846451E+02  0.87031131031E+01  0.44530362779E+02  0.00000000000E+00 0. -1.
        -12    1    6    6    0    0  0.33053194703E+03 -0.44698615643E+02 -0.10758853259E+03  0.35046344544E+03  0.00000000000E+00 0.  1.
</event>
<event>
12    1  0.1087974E+000  0.1841947E+03  0.7818608E-02  0.1164235E+00
         21   -1    0    0  503  502  0.00000000000E+00  0.00000000000E+00  0.74408312125E+02  0.74408312125E+02  0.00000000000E+00 0. -1.
         21   -1    0    0  501  503 -0.00000000000E+00 -0.00000000000E+00 -0.10686766603E+04  0.10686766603E+04  0.00000000000E+00 0. -1.
          6    2    1    2  501    0  0.45744852562E+02 -0.43024646193E+02 -0.61733697014E+02  0.19253325609E+03  0.17121417476E+03 0.  0.
         24    2    3    3    0    0  0.61188502567E+02 -0.75907195273E+02 -0.81188284059E+02  0.15105628276E+03  0.81978826242E+02 0.  0.
         -6    2    1    2    0  502 -0.45744852562E+02  0.43024646193E+02 -0.93253465121E+03  0.95055171638E+03  0.17315882334E+03 0.  0.
        -24    2    5    5    0    0  0.28926277868E+02  0.45800694067E+02 -0.34064888389E+03  0.35394939011E+03  0.79398208643E+02 0.  0.
          5    1    3    3  501    0 -0.15443650005E+02  0.32882549080E+02  0.19454587045E+02  0.41476973329E+02  0.47000000000E+01 0. -1.
        -13    1    4    4    0    0  0.60444031661E+02 -0.12883193967E+02 -0.25166355739E+02  0.66729327222E+02  0.00000000000E+00 0.  1.
         14    1    4    4    0    0  0.74447090559E+00 -0.63024001306E+02 -0.56021928320E+02  0.84326955537E+02  0.00000000000E+00 0. -1.
         -5    1    5    5    0  502 -0.74671130430E+02 -0.27760478740E+01 -0.59188576732E+03  0.59660232628E+03  0.47000000000E+01 0.  1.
         13    1    6    6    0    0  0.33476943425E+02 -0.13464390497E+02 -0.14825485046E+03  0.15258275210E+03  0.00000000000E+00 0. -1.
        -14    1    6    6    0    0 -0.45506655572E+01  0.59265084564E+02 -0.19239403342E+03  0.20136663801E+03  0.00000000000E+00 0.  1.
</event>
<event>
12    1  0.9962621E-001  0.1774160E+03  0.7818608E-02  0.1170825E+00
         21   -1    0    0  501  502  0.00000000000E+00  0.00000000000E+00  0.15174917326E+04  0.15174917326E+04  0.00000000000E+00 0.  1.
         21   -1    0    0  502  503 -0.00000000000E+00 -0.00000000000E+00 -0.24786710048E+02  0.24786710048E+02  0.00000000000E+00 0.  1.
         -6    2    1    2    0  503  0.25539261211E+02 -0.22421133358E+02  0.10702243267E+04  0.10848301887E+04  0.17413060533E+03 0.  0.
        -24    2    3    3    0    0 -0.38672469476E+01 -0.76072639775E+02  0.51828565343E+03  0.52949099871E+03  0.77062942051E+02 0.  0.
          6    2    1    2  501    0 -0.25539261211E+02  0.22421133358E+02  0.42248069586E+03  0.45744825399E+03  0.17208720352E+03 0.  0.
         24    2    5    5    0    0  0.85907048565E+01 -0.21320040149E+01  0.40211007568E+03  0.41049334684E+03  0.82060521486E+02 0.  0.
          5    1    5    5  501    0 -0.34129966067E+02  0.24553137373E+02  0.20370620188E+02  0.46954907150E+02  0.47000000000E+01 0. -1.
        -13    1    6    6    0    0  0.43618023545E+02  0.11226294624E+02  0.22244194071E+03  0.22695589584E+03  0.00000000000E+00 0.  1.
         14    1    6    6    0    0 -0.35027318689E+02 -0.13358298639E+02  0.17966813497E+03  0.18353745100E+03  0.00000000000E+00 0. -1.
         -5    1    3    3    0  503  0.29406508158E+02  0.53651506416E+02  0.55193867326E+03  0.55533918996E+03  0.47000000000E+01 0.  1.
         11    1    4    4    0    0  0.30616265313E+02 -0.29147909407E+02  0.12588621074E+03  0.13279418052E+03  0.00000000000E+00 0. -1.
        -12    1    4    4    0    0 -0.34483512261E+02 -0.46924730367E+02  0.39239944269E+03  0.39669681819E+03  0.00000000000E+00 0.  1.
</event>
<event>
12    1  0.9962621E-001  0.2637379E+03  0.7818608E-02  0.1104922E+00
         21   -1    0    0  503  502  0.00000000000E+00  0.00000000000E+00  0.53408624006E+03  0.53408624006E+03  0.00000000000E+00 0. -1.
         21   -1    0    0  501  503 -0.00000000000E+00 -0.00000000000E+00 -0.15313904317E+03  0.15313904317E+03  0.00000000000E+00 0. -1.
          6    2    1    2  501    0 -0.16410541799E+03  0.11362281432E+03  0.57560349725E+02  0.26994607334E+03  0.17238606818E+03 0.  0.
         24    2    3    3    0    0 -0.15821629919E+03  0.13703040311E+03  0.21772042876E+02  0.22652384585E+03  0.83840933809E+02 0.  0.
         -6    2    1    2    0  502  0.16410541799E+03 -0.11362281432E+03  0.32338684717E+03  0.41727920989E+03  0.17234312849E+03 0.  0.
        -24    2    5    5    0    0  0.79028347448E+02 -0.12259649010E+03  0.26804679084E+03  0.31528290298E+03  0.79239180623E+02 0.  0.
          5    1    3    3  501    0 -0.58891188041E+01 -0.23407588788E+02  0.35788306849E+02  0.43422227491E+02  0.47000000000E+01 0. -1.
        -13    1    4    4    0    0 -0.17407163552E+02  0.27414900046E+02  0.34806072772E+02  0.47603033404E+02  0.00000000000E+00 0.  1.
         14    1    4    4    0    0 -0.14080913564E+03  0.10961550306E+03 -0.13034029896E+02  0.17892081244E+03  0.00000000000E+00 0. -1.
         -5    1    5    5    0  502  0.85077070543E+02  0.89736757785E+01  0.55340056326E+02  0.10199630691E+03  0.47000000000E+01 0.  1.
         11    1    6    6    0    0 -0.10529233573E+02 -0.47884173349E+02  0.88719869521E+02  0.10136554673E+03  0.00000000000E+00 0. -1.
        -12    1    6    6    0    0  0.89557581021E+02 -0.74712316751E+02  0.17932692132E+03  0.21391735625E+03  0.00000000000E+00 0.  1.
</event>
<event>
12    1  0.9962621E-001  0.2025347E+03  0.7818608E-02  0.1147721E+00
         21   -1    0    0  501  502  0.00000000000E+00  0.00000000000E+00  0.53010742951E+02  0.53010742951E+02  0.00000000000E+00 0.  1.
         21   -1    0    0  502  503 -0.00000000000E+00 -0.00000000000E+00 -0.78293262547E+03  0.78293262547E+03  0.00000000000E+00 0.  1.
         -6    2    1    2    0  503 -0.10616801318E+03 -0.22037568851E+01 -0.41411521031E+03  0.46077120008E+03  0.17187841005E+03 0.  0.
        -24    2    3    3    0    0  0.96731363054E+01 -0.25340435155E+02 -0.16019706799E+03  0.18068015989E+03  0.79034880680E+02 0.  0.
          6    2    1    2  501    0  0.10616801318E+03  0.22037568851E+01 -0.31580667221E+03  0.37517216834E+03  0.17246390382E+03 0.  0.
         24    2    5    5    0    0  0.11033546451E+03  0.53028058635E+02 -0.26404037936E+03  0.30235516227E+03  0.81947742407E+02 0.  0.
          5    1    5    5  501    0 -0.41674513263E+01 -0.50824301750E+02 -0.51766292845E+02  0.72817006076E+02  0.47000000000E+01 0. -1.
        -11    1    6    6    0    0  0.40796184461E+01 -0.21113879123E+01 -0.95590451007E+02  0.95700760547E+02  0.00000000000E+00 0.  1.
         12    1    6    6    0    0  0.10625584606E+03  0.55139446548E+02 -0.16844992836E+03  0.20665440172E+03  0.00000000000E+00 0. -1.
         -5    1    3    3    0  503 -0.11584114948E+03  0.23136678270E+02 -0.25391814232E+03  0.28009104019E+03  0.47000000000E+01 0.  1.
         13    1    4    4    0    0 -0.17672740597E+02 -0.42365474815E+02 -0.60728283336E+02  0.76125446556E+02  0.00000000000E+00 0. -1.
        -14    1    4    4    0    0  0.27345876902E+02  0.17025039659E+02 -0.99468784655E+02  0.10455471333E+03  0.00000000000E+00 0.  1.
</event>
<event>
12    1  0.9962621E-001  0.1955461E+03  0.7818608E-02  0.1153631E+00
         21   -1    0    0  503  502  0.00000000000E+00  0.00000000000E+00  0.20774622828E+02  0.20774622828E+02  0.00000000000E+00 0.  1.
         21   -1    0    0  501  503 -0.00000000000E+00 -0.00000000000E+00 -0.19341386128E+04  0.19341386128E+04  0.00000000000E+00 0.  1.
          6    2    1    2  501    0 -0.78522148346E+02 -0.48015838204E+02 -0.73872178854E+03  0.76416501290E+03  0.17253126547E+03 0.  0.
         24    2    3    3    0    0  0.21598916718E+01 -0.74445582333E+02 -0.39242745288E+03  0.40758405453E+03  0.81108851998E+02 0.  0.
         -6    2    1    2    0  502  0.78522148346E+02  0.48015838204E+02 -0.11746422014E+04  0.11907482227E+04  0.17212141082E+03 0.  0.
        -24    2    5    5    0    0  0.12068079691E+03  0.27632374678E+02 -0.90122653329E+03  0.91331164472E+03  0.81249573594E+02 0.  0.
          5    1    3    3  501    0 -0.80682040018E+02  0.26429744129E+02 -0.34629433566E+03  0.35658095837E+03  0.47000000000E+01 0. -1.
        -11    1    4    4    0    0  0.32986804337E+01 -0.54893615229E+02 -0.96969447245E+02  0.11147763894E+03  0.00000000000E+00 0.  1.
         12    1    4    4    0    0 -0.11387887620E+01 -0.19551967104E+02 -0.29545800564E+03  0.29610641559E+03  0.00000000000E+00 0. -1.
         -5    1    5    5    0  502 -0.42158648559E+02  0.20383463526E+02 -0.27341566814E+03  0.27743657801E+03  0.47000000000E+01 0.  1.
         11    1    6    6    0    0  0.73537580155E+02  0.50161779229E+02 -0.42466828379E+03  0.43389760433E+03  0.00000000000E+00 0. -1.
        -12    1    6    6    0    0  0.47143216751E+02 -0.22529404551E+02 -0.47655824950E+03  0.47941404039E+03  0.00000000000E+00 0.  1.
</event>
<event>
12    1  0.9962621E-001  0.2636517E+03  0.7818608E-02  0.1105363E+00
         21   -1    0    0  501  502  0.00000000000E+00  0.00000000000E+00  0.10539621320E+04  0.10539621320E+04  0.00000000000E+00 0. -1.
         21   -1    0    0  502  503 -0.00000000000E+00 -0.00000000000E+00 -0.84570119184E+02  0.84570119184E+02  0.00000000000E+00 0. -1.
         -6    2    1    2    0  503  0.19675782329E+03  0.37823666172E+02  0.21479019582E+03  0.34006919639E+03  0.17137082413E+03 0.  0.
        -24    2    3    3    0    0  0.77701925480E+02  0.53153439752E+02  0.17318190031E+03  0.21293678897E+03  0.80543330706E+02 0.  0.
          6    2    1    2  501    0 -0.19675782329E+03 -0.37823666172E+02  0.75460181699E+03  0.79846305479E+03  0.16725751675E+03 0.  0.
         24    2    5    5    0    0 -0.12870979518E+03  0.40647309945E+02  0.42539300717E+03  0.45322580493E+03  0.78968376772E+02 0.  0.
          5    1    5    5  501    0 -0.68048028117E+02 -0.78470976117E+02  0.32920880982E+03  0.34523724986E+03  0.47000000000E+01 0. -1.
        -13    1    6    6    0    0 -0.94537578229E+02  0.10943938766E+01  0.19154476403E+03  0.21360699432E+03  0.00000000000E+00 0.  1.
         14    1    6    6    0    0 -0.34172216946E+02  0.39552916068E+02  0.23384824314E+03  0.23961881062E+03  0.00000000000E+00 0. -1.
         -5    1    3    3    0  503  0.11905589781E+03 -0.15329773580E+02  0.41608295517E+02  0.12713240743E+03  0.47000000000E+01 0.  1.
         13    1    4    4    0    0  0.71000308130E+02  0.45051057771E+02  0.70537098511E+02  0.10975483510E+03  0.00000000000E+00 0. -1.
        -14    1    4    4    0    0  0.67016173506E+01  0.81023819807E+01  0.10264480180E+03  0.10318195387E+03  0.00000000000E+00 0.  1.
</event>
<event>
12    1  0.9962621E-001  0.2085309E+03  0.7818608E-02  0.1143866E+00
         21   -1    0    0  503  502  0.00000000000E+00  0.00000000000E+00  0.34500391060E+03  0.34500391060E+03  0.00000000000E+00 0. -1.
         21   -1    0    0  501  503 -0.00000000000E+00 -0.00000000000E+00 -0.12779963542E+03  0.12779963542E+03  0.00000000000E+00 0. -1.
          6    2    1    2  501    0 -0.64713013745E+02  0.86509950698E+02  0.62753750643E+02  0.21776865207E+03  0.17836313208E+03 0.  0.
         24    2    3    3    0    0 -0.42184101548E+02 -0.16376159607E+02 -0.57020434571E+01  0.92065074853E+02  0.79973668674E+02 0.  0.
         -6    2    1    2    0  502  0.64713013745E+02 -0.86509950698E+02  0.15445052454E+03  0.25503489396E+03  0.17180246473E+03 0.  0.
        -24    2    5    5    0    0  0.64421945193E+02 -0.32053276390E+02  0.23417901314E+02  0.11305865493E+03  0.84001558339E+02 0.  0.
          5    1    3    3  501    0 -0.22528912196E+02  0.10288611030E+03  0.68455794101E+02  0.12570357721E+03  0.47000000000E+01 0. -1.
        -11    1    4    4    0    0 -0.42797276894E+02  0.78157825813E+01 -0.33720021125E+02  0.55043012195E+02  0.00000000000E+00 0.  1.
         12    1    4    4    0    0  0.61317534554E+00 -0.24191942188E+02  0.28017977668E+02  0.37022062657E+02  0.00000000000E+00 0. -1.
         -5    1    5    5    0  502  0.29106855154E+00 -0.54456674308E+02  0.13103262323E+03  0.14197623902E+03  0.47000000000E+01 0.  1.
         13    1    6    6    0    0  0.13870021893E+02 -0.42017057012E+02  0.39260000557E+02  0.59153683157E+02  0.00000000000E+00 0. -1.
        -14    1    6    6    0    0  0.50551923300E+02  0.99637806220E+01 -0.15842099244E+02  0.53904971775E+02  0.00000000000E+00 0.  1.
</event>
<event>
12    1  0.9962621E-001  0.2468249E+03  0.7818608E-02  0.1115389E+00
         21   -1    0    0  503  502  0.00000000000E+00  0.00000000000E+00  0.94483743135E+02  0.94483743135E+02  0.00000000000E+00 0. -1.
         21   -1    0    0  501  503 -0.00000000000E+00 -0.00000000000E+00 -0.66362823341E+03  0.66362823341E+03  0.00000000000E+00 0. -1.
          6    2    1    2  501    0  0.17284676637E+03  0.35013288311E+02 -0.34986802828E+03  0.42795338975E+03  0.17214683146E+03 0.  0.
         24    2    3    3    0    0  0.87965035535E+02  0.24364342366E+02 -0.83334104974E+02  0.14798780159E+03  0.81390095912E+02 0.  0.
         -6    2    1    2    0  502 -0.17284676637E+03 -0.35013288311E+02 -0.21927646199E+03  0.33015858679E+03  0.17268639393E+03 0.  0.
        -24    2    5    5    0    0 -0.59983513028E+02 -0.64307094698E+02 -0.59341725358E+02  0.13217512529E+03  0.78837802566E+02 0.  0.
          5    1    3    3  501    0  0.84881730832E+02  0.10648945945E+02 -0.26653392331E+03  0.27996558816E+03  0.47000000000E+01 0. -1.
        -13    1    4    4    0    0  0.22751977403E+02 -0.24212899493E+02 -0.50155797835E+02  0.60162455352E+02  0.00000000000E+00 0.  1.
         14    1    4    4    0    0  0.65213058132E+02  0.48577241858E+02 -0.33178307140E+02  0.87825346240E+02  0.00000000000E+00 0. -1.
         -5    1    5    5    0  502 -0.11286325334E+03  0.29293806387E+02 -0.15993473663E+03  0.19798346150E+03  0.47000000000E+01 0.  1.
         13    1    6    6    0    0 -0.65598261223E+02 -0.26757770683E+02 -0.12601296891E+02  0.71957646229E+02  0.00000000000E+00 0. -1.
        -14    1    6    6    0    0  0.56147481955E+01 -0.37549324015E+02 -0.46740428467E+02  0.60217479061E+02  0.00000000000E+00 0.  1.
</event>
<event>
12    1  0.9962621E-001  0.2243679E+03  0.7818608E-02  0.1130794E+00
         21   -1    0    0  501  502  0.00000000000E+00  0.00000000000E+00  0.48515524476E+03  0.48515524476E+03  0.00000000000E+00 0. -1.
         21   -1    0    0  502  503 -0.00000000000E+00 -0.00000000000E+00 -0.16111891489E+03  0.16111891489E+03  0.00000000000E+00 0. -1.
         -6    2    1    2    0  503  0.44725179183E+02  0.13577020103E+03 -0.31480301596E+02  0.22587786394E+03  0.17203462120E+03 0.  0.
        -24    2    3    3    0    0  0.81442177091E+02  0.12988399401E+03  0.68276300334E+01  0.17228334002E+03  0.78308700712E+02 0.  0.
          6    2    1    2  501    0 -0.44725179183E+02 -0.13577020103E+03  0.35551663147E+03  0.42039629571E+03  0.17293663883E+03 0.  0.
         24    2    5    5    0    0 -0.38679020303E+02 -0.85077822583E+02  0.34748955176E+03  0.36850412599E+03  0.79448094890E+02 0.  0.
          5    1    5    5  501    0 -0.60461588794E+01 -0.50692378443E+02  0.80270797152E+01  0.51892169719E+02  0.47000000000E+01 0. -1.
        -11    1    6    6    0    0 -0.27927639671E+02 -0.92756009477E+02  0.22063629674E+03  0.24096473972E+03  0.00000000000E+00 0.  1.
         12    1    6    6    0    0 -0.10751380633E+02  0.76781868940E+01  0.12685325502E+03  0.12753938626E+03  0.00000000000E+00 0. -1.
         -5    1    3    3    0  503 -0.36716997909E+02  0.58862070131E+01 -0.38307931629E+02  0.53594523919E+02  0.47000000000E+01 0.  1.
         13    1    4    4    0    0  0.14032700093E+02  0.10215049846E+02 -0.25816253450E+02  0.31108565661E+02  0.00000000000E+00 0. -1.
        -14    1    4    4    0    0  0.67409476998E+02  0.11966894417E+03  0.32643883484E+02  0.14117477436E+03  0.00000000000E+00 0.  1.
</event>
<event>
12    1  0.9962621E-001  0.1753615E+03  0.7818608E-02  0.1172854E+00
         21   -1    0    0  503  502  0.00000000000E+00  0.00000000000E+00  0.11396725200E+03  0.11396725200E+03  0.00000000000E+00 0. -1.
         21   -1    0    0  501  503 -0.00000000000E+00 -0.00000000000E+00 -0.29403652917E+03  0.29403652917E+03  0.00000000000E+00 0. -1.
          6    2    1    2  501    0 -0.27944071170E+02 -0.15487463105E+02 -0.15248695846E+03  0.23238747204E+03  0.17242659897E+03 0.  0.
         24    2    3    3    0    0 -0.40325110003E+02 -0.33410849807E+02 -0.17579807674E+03  0.20013788059E+03  0.80048785618E+02 0.  0.
         -6    2    1    2    0  502  0.27944071170E+02  0.15487463105E+02 -0.27582318707E+02  0.17561630913E+03  0.17046868070E+03 0.  0.
        -24    2    5    5    0    0  0.51369483479E+02 -0.11822501918E+02  0.36088498985E+02  0.10233160979E+03  0.79942374366E+02 0.  0.
          5    1    3    3  501    0  0.12381038832E+02  0.17923386702E+02  0.23311118277E+02  0.32249591451E+02  0.47000000000E+01 0. -1.
        -11    1    4    4    0    0 -0.30801181465E+02  0.13537156624E+02 -0.12844989669E+03  0.13278306875E+03  0.00000000000E+00 0.  1.
         12    1    4    4    0    0 -0.95239285375E+01 -0.46948006431E+02 -0.47348180052E+02  0.67354811831E+02  0.00000000000E+00 0. -1.
         -5    1    5    5    0  502 -0.23425412309E+02  0.27309965023E+02 -0.63670817691E+02  0.73284699337E+02  0.47000000000E+01 0.  1.
         11    1    6    6    0    0  0.27875998557E+02 -0.46291029306E+02  0.20975453974E+02  0.57964647494E+02  0.00000000000E+00 0. -1.
        -12    1    6    6    0    0  0.23493484923E+02  0.34468527388E+02  0.15113045011E+02  0.44366962298E+02  0.00000000000E+00 0.  1.
</event>
<event>
12    1  0.9962621E-001  0.1901333E+03  0.7818608E-02  0.1158417E+00
         21   -1    0    0  501  502  0.00000000000E+00  0.00000000000E+00  0.10829022862E+03  0.10829022862E+03  0.00000000000E+00 0.  1.
         21   -1    0    0  502  503 -0.00000000000E+00 -0.00000000000E+00 -0.39328376373E+03  0.39328376373E+03  0.00000000000E+00 0.  1.
         -6    2    1    2    0  503 -0.71258562392E+02  0.35601676322E+02 -0.44615191234E+02  0.19529769908E+03  0.17264244526E+03 0.  0.
        -24    2    3    3    0    0 -0.49029292422E+02  0.63252389553E+02  0.23975082716E+02  0.11793221539E+03  0.83237410677E+02 0.  0.
          6    2    1    2  501    0  0.71258562392E+02 -0.35601676322E+02 -0.24037834388E+03  0.30627629327E+03  0.17227349634E+03 0.  0.
         24    2    5    5    0    0  0.11250831254E+03 -0.62688782175E+01 -0.17575589682E+03  0.22405643195E+03  0.81324843731E+02 0.  0.
          5    1    5    5  501    0 -0.41249750143E+02 -0.29332798104E+02 -0.64622447060E+02  0.82219861320E+02  0.47000000000E+01 0. -1.
        -13    1    6    6    0    0  0.11109738772E+03  0.32184261916E+01 -0.10581016786E+03  0.15345611571E+03  0.00000000000E+00 0.  1.
         14    1    6    6    0    0  0.14109248135E+01 -0.94873044091E+01 -0.69945728961E+02  0.70600316243E+02  0.00000000000E+00 0. -1.
         -5    1    3    3    0  503 -0.22229269970E+02 -0.27650713231E+02 -0.68590273951E+02  0.77365483688E+02  0.47000000000E+01 0.  1.
         11    1    4    4    0    0  0.83859018483E+01  0.40963963864E+02 -0.15706589609E+02  0.44666168880E+02  0.00000000000E+00 0. -1.
        -12    1    4    4    0    0 -0.57415194270E+02  0.22288425689E+02  0.39681672326E+02  0.73266046511E+02  0.00000000000E+00 0.  1.
</event>
<event>
12    1  0.9962621E-001  0.1982471E+03  0.7818608E-02  0.1153612E+00
         21   -1    0    0  501  502  0.00000000000E+00  0.00000000000E+00  0.96505179035E+03  0.96505179035E+03  0.00000000000E+00 0. -1.
         21   -1    0    0  502  503 -0.00000000000E+00 -0.00000000000E+00 -0.81033677004E+02  0.81033677004E+02  0.00000000000E+00 0. -1.
         -6    2    1    2    0  503 -0.21667285072E+02 -0.72757413387E+02  0.69171380294E+02  0.20996808168E+03  0.18313602330E+03 0.  0.
        -24    2    3    3    0    0 -0.85170088660E+02 -0.32575922160E+02  0.30466468022E+02  0.12530806435E+03  0.80366476907E+02 0.  0.
          6    2    1    2  501    0  0.21667285072E+02  0.72757413387E+02  0.81484673305E+03  0.83611738567E+03  0.17133000849E+03 0.  0.
         24    2    5    5    0    0 -0.46199127180E+02  0.42175352886E+02  0.32145750018E+03  0.33712225798E+03  0.80021076383E+02 0.  0.
          5    1    5    5  501    0  0.67866412251E+02  0.30582060501E+02  0.49338923288E+03  0.49899512769E+03  0.47000000000E+01 0. -1.
        -11    1    6    6    0    0 -0.26635173696E+02  0.30733454099E+02  0.30818687421E+03  0.31085869316E+03  0.00000000000E+00 0.  1.
         12    1    6    6    0    0 -0.19563953484E+02  0.11441898787E+02  0.13270625971E+02  0.26263564827E+02  0.00000000000E+00 0. -1.
         -5    1    3    3    0  503  0.63502803589E+02 -0.40181491227E+02  0.38704912271E+02  0.84660017333E+02  0.47000000000E+01 0.  1.
         13    1    4    4    0    0 -0.17573407847E+02  0.25864120245E+02  0.14775399340E+02  0.34584531297E+02  0.00000000000E+00 0. -1.
        -14    1    4    4    0    0 -0.67596680813E+02 -0.58440042405E+02  0.15691068682E+02  0.90723533053E+02  0.00000000000E+00 0.  1.
</event>
<event>
12    1  0.9962621E-001  0.1754471E+03  0.7818608E-02  0.1172333E+00
         21   -1    0    0  501  502  0.00000000000E+00  0.00000000000E+00  0.24891449092E+03  0.24891449092E+03  0.00000000000E+00 0.  1.
         21   -1    0    0  502  503 -0.00000000000E+00 -0.00000000000E+00 -0.13786823310E+03  0.13786823310E+03  0.00000000000E+00 0.  1.
         -6    2    1    2    0  503 -0.43784816084E+01 -0.33735254184E+02  0.11787098252E+03  0.21120297324E+03  0.17191826229E+03 0.  0.
        -24    2    3    3    0    0  0.61313597550E+02 -0.46756352216E+02  0.75230024012E+02  0.13167096962E+03  0.75711122102E+02 0.  0.
          6    2    1    2  501    0  0.43784816084E+01  0.33735254184E+02 -0.68247246995E+01  0.17557975078E+03  0.17211749923E+03 0.  0.
         24    2    5    5    0    0  0.11584079924E+02 -0.25105983570E+02 -0.52478635185E+02  0.10060921357E+03  0.81263185913E+02 0.  0.
          5    1    5    5  501    0 -0.72055983154E+01  0.58841237754E+02  0.45653910486E+02  0.74970537214E+02  0.47000000000E+01 0. -1.
        -13    1    6    6    0    0  0.40652313559E+02  0.43881552777E+01 -0.40381128261E+02  0.57467399663E+02  0.00000000000E+00 0.  1.
         14    1    6    6    0    0 -0.29068233635E+02 -0.29494138848E+02 -0.12097506924E+02  0.43141813903E+02  0.00000000000E+00 0. -1.
         -5    1    3    3    0  503 -0.65692079158E+02  0.13021098032E+02  0.42640958509E+02  0.79532003625E+02  0.47000000000E+01 0.  1.
         11    1    4    4    0    0 -0.75234468735E+01 -0.36601987335E+02  0.17516391847E+02  0.41269016381E+02  0.00000000000E+00 0. -1.
        -12    1    4    4    0    0  0.68837044423E+02 -0.10154364881E+02  0.57713632165E+02  0.90401953236E+02  0.00000000000E+00 0.  1.
</event>
<event>
12    1  0.9962621E-001  0.2502105E+03  0.7818608E-02  0.1113210E+00
         21   -1    0    0  501  502  0.00000000000E+00  0.00000000000E+00  0.82821548655E+03  0.82821548655E+03  0.00000000000E+00 0. -1.
         21   -1    0    0  502  503 -0.00000000000E+00 -0.00000000000E+00 -0.92151861127E+02  0.92151861127E+02  0.00000000000E+00 0. -1.
         -6    2    1    2    0  503  0.51691245696E+02  0.17364463873E+03  0.56369766729E+03  0.61673360546E+03  0.17257124486E+03 0.  0.
        -24    2    3    3    0    0  0.74597370833E+02  0.43278599631E+02  0.28613854378E+03  0.30919311745E+03  0.79292576722E+02 0.  0.
          6    2    1    2  501    0 -0.51691245696E+02 -0.17364463873E+03  0.17236595813E+03  0.30363374221E+03  0.17221782848E+03 0.  0.
         24    2    5    5    0    0 -0.37304575275E+02 -0.35814370926E+02  0.20220235501E+02  0.97782898342E+02  0.80488115788E+02 0.  0.
          5    1    5    5  501    0 -0.14386670421E+02 -0.13783026780E+03  0.15214572263E+03  0.20585084387E+03  0.47000000000E+01 0. -1.
        -11    1    6    6    0    0 -0.14722592162E+02 -0.23821624863E+02  0.50747954767E+02  0.57961879232E+02  0.00000000000E+00 0.  1.
         12    1    6    6    0    0 -0.22581983112E+02 -0.11992746063E+02 -0.30527719265E+02  0.39821019110E+02  0.00000000000E+00 0. -1.
         -5    1    3    3    0  503 -0.22906125137E+02  0.13036603910E+03  0.27755912351E+03  0.30754048801E+03  0.47000000000E+01 0.  1.
         13    1    4    4    0    0  0.49058211978E+02  0.15939409774E+02  0.56411922605E+02  0.76440028508E+02  0.00000000000E+00 0. -1.
        -14    1    4    4    0    0  0.25539158855E+02  0.27339189857E+02  0.22972662118E+03  0.23275308895E+03  0.00000000000E+00 0.  1.
</event>
<event>
12    1  0.9962621E-001  0.2186683E+03  0.7818608E-02  0.1135007E+00
         21   -1    0    0  503  502  0.00000000000E+00  0.00000000000E+00  0.52092372131E+02  0.52092372131E+02  0.00000000000E+00 0.  1.
         21   -1    0    0  501  503 -0.00000000000E+00 -0.00000000000E+00 -0.11704976423E+04  0.11704976423E+04  0.00000000000E+00 0.  1.
          6    2    1    2  501    0 -0.13224104184E+03 -0.18945527386E+02 -0.27296324734E+03  0.34932713690E+03  0.17226110420E+03 0.  0.
         24    2    3    3    0    0 -0.42349557203E+02  0.17805810359E+02 -0.22052990247E+03  0.23886227601E+03  0.79443169256E+02 0.  0.
         -6    2    1    2    0  502  0.13224104184E+03  0.18945527386E+02 -0.84544202285E+03  0.87326287756E+03  0.17311618399E+03 0.  0.
        -24    2    5    5    0    0  0.10780416227E+03 -0.51416813168E+02 -0.56534396153E+03  0.58339215808E+03  0.80418836076E+02 0.  0.
          5    1    3    3  501    0 -0.89891484639E+02 -0.36751337744E+02 -0.52433344878E+02  0.11046486089E+03  0.47000000000E+01 0. -1.
        -13    1    4    4    0    0 -0.25082262752E+02 -0.24406056361E+02 -0.15578074999E+03  0.15966345091E+03  0.00000000000E+00 0.  1.
         14    1    4    4    0    0 -0.17267294451E+02  0.42211866720E+02 -0.64749152481E+02  0.79198825096E+02  0.00000000000E+00 0. -1.
         -5    1    5    5    0  502  0.24436879567E+02  0.70362340554E+02 -0.28009806132E+03  0.28987071947E+03  0.47000000000E+01 0.  1.
         11    1    6    6    0    0  0.77581341961E+02  0.52188567155E+01 -0.35758639893E+03  0.36594280125E+03  0.00000000000E+00 0. -1.
        -12    1    6    6    0    0  0.30222820314E+02 -0.56635669884E+02 -0.20775756260E+03  0.21744935684E+03  0.00000000000E+00 0.  1.
</event>
<event>
12    1  0.9962621E-001  0.2153233E+03  0.7818608E-02  0.1138049E+00
         21   -1    0    0  501  502  0.00000000000E+00  0.00000000000E+00  0.89582718363E+02  0.89582718363E+02  0.00000000000E+00 0. -1.
         21   -1    0    0  502  503 -0.00000000000E+00 -0.00000000000E+00 -0.52373564943E+03  0.52373564943E+03  0.00000000000E+00 0. -1.
         -6    2    1    2    0  503 -0.13112702157E+03  0.41596861571E+01 -0.26881999266E+03  0.34442462702E+03  0.17074113876E+03 0.  0.
        -24    2    3    3    0    0 -0.38402368398E+02  0.38227275937E+02 -0.63841652682E+02  0.11683580515E+03  0.81478722516E+02 0.  0.
          6    2    1    2  501    0  0.13112702157E+03 -0.41596861571E+01 -0.16533293840E+03  0.26889374077E+03  0.16660511556E+03 0.  0.
         24    2    5    5    0    0  0.11063765578E+03 -0.25789864922E+02 -0.73201819273E+02  0.17195091301E+03  0.10631463741E+03 0.  0.
          5    1    5    5  501    0  0.20489365788E+02  0.21630178765E+02 -0.92131119125E+02  0.96942827765E+02  0.47000000000E+01 0. -1.
        -11    1    6    6    0    0  0.41322729179E+01  0.21895126544E+02 -0.47492193268E+02  0.52459323930E+02  0.00000000000E+00 0.  1.
         12    1    6    6    0    0  0.10650538287E+03 -0.47684991466E+02 -0.25709626005E+02  0.11949158908E+03  0.00000000000E+00 0. -1.
         -5    1    3    3    0  503 -0.92724653173E+02 -0.34067589780E+02 -0.20497833998E+03  0.22758882187E+03  0.47000000000E+01 0.  1.
         13    1    4    4    0    0 -0.43350477635E+02  0.13940885103E+02 -0.76483119422E+02  0.89012806636E+02  0.00000000000E+00 0. -1.
        -14    1    4    4    0    0  0.49481092368E+01  0.24286390834E+02  0.12641466740E+02  0.27822998511E+02  0.00000000000E+00 0.  1.
</event>
<event>
12    1  0.9962621E-001  0.3742497E+03  0.7818608E-02  0.1053129E+00
         21   -1    0    0  503  502  0.00000000000E+00  0.00000000000E+00  0.66684320926E+03  0.66684320926E+03  0.00000000000E+00 0.  1.
         21   -1    0    0  501  503 -0.00000000000E+00 -0.00000000000E+00 -0.21177040785E+03  0.21177040785E+03  0.00000000000E+00 0.  1.
          6    2    1    2  501    0 -0.96998285296E+02 -0.31752915107E+03  0.27035996078E+03  0.46126284281E+03  0.17156769112E+03 0.  0.
         24    2    3    3    0    0 -0.35680345972E+02 -0.28046023415E+03  0.23260203579E+03  0.38013488718E+03  0.10231224450E+03 0.  0.
         -6    2    1    2    0  502  0.96998285296E+02  0.31752915107E+03  0.18471284064E+03  0.41735077430E+03  0.17271191674E+03 0.  0.
        -24    2    5    5    0    0  0.63775998601E+02  0.32346004321E+03  0.17187637768E+03  0.38093977877E+03  0.82944850894E+02 0.  0.
          5    1    3    3  501    0 -0.61317939324E+02 -0.37068916922E+02  0.37757924991E+02  0.81127955628E+02  0.47000000000E+01 0. -1.
        -11    1    4    4    0    0  0.24610148899E+02 -0.16404075131E+03  0.10012806913E+03  0.19375411672E+03  0.00000000000E+00 0.  1.
         12    1    4    4    0    0 -0.60290494871E+02 -0.11641948284E+03  0.13247396665E+03  0.18638077046E+03  0.00000000000E+00 0. -1.
         -5    1    5    5    0  502  0.33222286695E+02 -0.59308921398E+01  0.12836462958E+02  0.36410995538E+02  0.47000000000E+01 0.  1.
         11    1    6    6    0    0  0.25249812779E+02  0.71966555974E+02  0.45124778426E+01  0.76400920678E+02  0.00000000000E+00 0. -1.
        -12    1    6    6    0    0  0.38526185822E+02  0.25149348724E+03  0.16736389984E+03  0.30453885809E+03  0.00000000000E+00 0.  1.
</event>
<event>
12    1  0.9962621E-001  0.2132962E+03  0.7818608E-02  0.1141322E+00
         21   -1    0    0  503  502  0.00000000000E+00  0.00000000000E+00  0.26280056909E+03  0.26280056909E+03  0.00000000000E+00 0.  1.
         21   -1    0    0  501  503 -0.00000000000E+00 -0.00000000000E+00 -0.16954173998E+03  0.16954173998E+03  0.00000000000E+00 0.  1.
          6    2    1    2  501    0 -0.76178328711E+02 -0.74680026078E+02  0.79602681069E+01  0.21344473288E+03  0.18470258272E+03 0.  0.
         24    2    3    3    0    0  0.36061912074E+01 -0.73608466517E+02 -0.60777313874E+02  0.10802337339E+03  0.50437648232E+02 0.  0.
         -6    2    1    2    0  502  0.76178328711E+02  0.74680026078E+02  0.85298561005E+02  0.21889757619E+03  0.17105572277E+03 0.  0.
        -24    2    5    5    0    0  0.61187532033E+02  0.40208076139E+02  0.12416679537E+03  0.16462171636E+03  0.79512973542E+02 0.  0.
          5    1    3    3  501    0 -0.79784519919E+02 -0.10715595603E+01  0.68737581981E+02  0.10542135948E+03  0.47000000000E+01 0. -1.
        -11    1    4    4    0    0  0.20157395377E+02 -0.28461686838E+02 -0.64423779789E+01  0.35466779387E+02  0.00000000000E+00 0.  1.
         12    1    4    4    0    0 -0.16551204170E+02 -0.45146779679E+02 -0.54334935895E+02  0.72556594005E+02  0.00000000000E+00 0. -1.
         -5    1    5    5    0  502  0.14990796678E+02  0.34471949939E+02 -0.38868234364E+02  0.54275859830E+02  0.47000000000E+01 0.  1.
         11    1    6    6    0    0  0.21749295688E+02  0.10840568598E+02 -0.63773083938E+01  0.25124089094E+02  0.00000000000E+00 0. -1.
        -12    1    6    6    0    0  0.39438236345E+02  0.29367507541E+02  0.13054410376E+03  0.13949762727E+03  0.00000000000E+00 0.  1.
</event>
<event>
12    1  0.9962621E-001  0.1943131E+03  0.7818608E-02  0.1157292E+00
         21   -1    0    0  501  502  0.00000000000E+00  0.00000000000E+00  0.25932660898E+03  0.25932660898E+03  0.00000000000E+00 0. -1.
         21   -1    0    0  502  503 -0.00000000000E+00 -0.00000000000E+00 -0.14159741777E+03  0.14159741777E+03  0.00000000000E+00 0. -1.
         -6    2    1    2    0  503  0.47743497437E+02 -0.76434230494E+02  0.97070151806E+02  0.21721003424E+03  0.17215095546E+03 0.  0.
        -24    2    3    3    0    0 -0.22543124067E+02 -0.83988917972E+02  0.36661366804E+02  0.12410475098E+03  0.80595301447E+02 0.  0.
          6    2    1    2  501    0 -0.47743497437E+02  0.76434230494E+02  0.20659039400E+02  0.18371399251E+03  0.15875264406E+03 0.  0.
         24    2    5    5    0    0 -0.53190262557E+02  0.47841891650E+02 -0.41197619582E+02  0.11519008900E+03  0.80333443336E+02 0.  0.
          5    1    5    5  501    0  0.54467651206E+01  0.28592338844E+02  0.61856658982E+02  0.68523903503E+02  0.47000000000E+01 0. -1.
        -13    1    6    6    0    0  0.23019554330E+01  0.34185281360E+02  0.12791472872E+02  0.36572588624E+02  0.00000000000E+00 0.  1.
         14    1    6    6    0    0 -0.55492217990E+02  0.13656610290E+02 -0.53989092454E+02  0.78617500380E+02  0.00000000000E+00 0. -1.
         -5    1    3    3    0  503  0.70286621504E+02  0.75546874788E+01  0.60408785002E+02  0.93105283259E+02  0.47000000000E+01 0.  1.
         11    1    4    4    0    0  0.13952543842E+02 -0.67103314682E+02  0.46352191308E+02  0.82740884453E+02  0.00000000000E+00 0. -1.
        -12    1    4    4    0    0 -0.36495667909E+02 -0.16885603291E+02 -0.96908245044E+01  0.41363866529E+02  0.00000000000E+00 0.  1.
</event>
<event>
12    1  0.9962621E-001  0.2216408E+03  0.7818608E-02  0.1133167E+00
         21   -1    0    0  501  502  0.00000000000E+00  0.00000000000E+00  0.10714184325E+03  0.10714184325E+03  0.00000000000E+00 0.  1.
         21   -1    0    0  502  503 -0.00000000000E+00 -0.00000000000E+00 -0.49034092500E+03  0.49034092500E+03  0.00000000000E+00 0.  1.
         -6    2    1    2    0  503  0.13833362321E+03  0.29663916240E+02 -0.27519544997E+03  0.35335134856E+03  0.17061213499E+03 0.  0.
        -24    2    3    3    0    0  0.70311259387E+02  0.69457084160E+02 -0.22932910318E+03  0.26204773438E+03  0.79430584748E+02 0.  0.
          6    2    1    2  501    0 -0.13833362321E+03 -0.29663916240E+02 -0.10800363178E+03  0.24413141969E+03  0.16709047359E+03 0.  0.
         24    2    5    5    0    0 -0.12570659085E+03 -0.74036493970E+02 -0.89474003006E+02  0.19419341069E+03  0.91771096309E+02 0.  0.
          5    1    5    5  501    0 -0.12627032364E+02  0.44372577730E+02 -0.18529628779E+02  0.49938009006E+02  0.47000000000E+01 0. -1.
        -13    1    6    6    0    0 -0.39665658186E+02 -0.25895489610E+02 -0.82777399794E+02  0.95373155228E+02  0.00000000000E+00 0.  1.
         14    1    6    6    0    0 -0.86040932662E+02 -0.48141004360E+02 -0.66966032118E+01  0.98820255458E+02  0.00000000000E+00 0. -1.
         -5    1    3    3    0  503  0.68022363825E+02 -0.39793167921E+02 -0.45866346792E+02  0.91303614176E+02  0.47000000000E+01 0.  1.
         11    1    4    4    0    0  0.66672690334E+02  0.86453881570E+02 -0.20304921524E+03  0.23053959548E+03  0.00000000000E+00 0. -1.
        -12    1    4    4    0    0  0.36385690531E+01 -0.16996797410E+02 -0.26279887941E+02  0.31508138903E+02  0.00000000000E+00 0.  1.
</event>
<event>
12    1  0.9962621E-001  0.2434760E+03  0.7818608E-02  0.1117716E+00
         21   -1    0    0  501  502  0.00000000000E+00  0.00000000000E+00  0.73784263707E+03  0.73784263707E+03  0.00000000000E+00 0.  1.
         21   -1    0    0  502  503 -0.00000000000E+00 -0.00000000000E+00 -0.85989843709E+02  0.85989843709E+02  0.00000000000E+00 0.  1.
         -6    2    1    2    0  503 -0.11727949871E+03  0.12599607606E+03  0.43466292947E+03  0.49756263308E+03  0.17031505977E+03 0.  0.
        -24    2    3    3    0    0 -0.11666112365E+03  0.99059858995E+02  0.43715081696E+03  0.47009953490E+03  0.80436698800E+02 0.  0.
          6    2    1    2  501    0  0.11727949871E+03 -0.12599607606E+03  0.21718986389E+03  0.32626984770E+03  0.17219490276E+03 0.  0.
         24    2    5    5    0    0 -0.11055400647E+02 -0.35450044532E+02  0.81057941461E+02  0.11836982239E+03  0.77859472365E+02 0.  0.
          5    1    5    5  501    0  0.12833489936E+03 -0.90546031526E+02  0.13613192243E+03  0.20790002531E+03  0.47000000000E+01 0. -1.
        -11    1    6    6    0    0 -0.47194620937E+01 -0.20109767383E+02 -0.11969421379E+02  0.23873481413E+02  0.00000000000E+00 0.  1.
         12    1    6    6    0    0 -0.63359385531E+01 -0.15340277149E+02  0.93027362840E+02  0.94496340973E+02  0.00000000000E+00 0. -1.
         -5    1    3    3    0  503 -0.61837506605E+00  0.26936217063E+02 -0.24878874914E+01  0.27463098178E+02  0.47000000000E+01 0.  1.
         11    1    4    4    0    0 -0.41108742768E+02  0.75083612823E+02  0.15546355838E+03  0.17747223904E+03  0.00000000000E+00 0. -1.
        -12    1    4    4    0    0 -0.75552380881E+02  0.23976246172E+02  0.28168725858E+03  0.29262729587E+03  0.00000000000E+00 0.  1.
</event>
<event>
12    1  0.9962621E-001  0.2090643E+03  0.7818608E-02  0.1142972E+00
         21   -1    0    0  501  502  0.00000000000E+00  0.00000000000E+00  0.37350352301E+03  0.37350352301E+03  0.00000000000E+00 0.  1.
         21   -1    0    0  502  503 -0.00000000000E+00 -0.00000000000E+00 -0.36787744558E+03  0.36787744558E+03  0.00000000000E+00 0.  1.
         -6    2    1    2    0  503  0.73291059159E+02 -0.85343197242E+02 -0.30440460999E+03  0.36928316094E+03  0.17621817642E+03 0.  0.
        -24    2    3    3    0    0  0.24918619813E+02 -0.10943495457E+03 -0.27661737904E+03  0.30833625073E+03  0.77182395880E+02 0.  0.
          6    2    1    2  501    0 -0.73291059159E+02  0.85343197242E+02  0.31003068742E+03  0.37209780765E+03  0.17228671060E+03 0.  0.
         24    2    5    5    0    0 -0.47588218977E+02  0.12440313244E+03  0.20505047252E+03  0.25707933065E+03  0.79393375164E+02 0.  0.
          5    1    5    5  501    0 -0.25702840182E+02 -0.39059935200E+02  0.10498021490E+03  0.11501847700E+03  0.47000000000E+01 0. -1.
        -11    1    6    6    0    0 -0.21054577071E+01 -0.93438295530E+00  0.60048501023E+02  0.60092665932E+02  0.00000000000E+00 0.  1.
         12    1    6    6    0    0 -0.45482761269E+02  0.12533751540E+03  0.14500197149E+03  0.19698666471E+03  0.00000000000E+00 0. -1.
         -5    1    3    3    0  503  0.48372439346E+02  0.24091757330E+02 -0.27787230950E+02  0.60946910204E+02  0.47000000000E+01 0.  1.
         11    1    4    4    0    0  0.35787106554E+02 -0.10179357941E+03 -0.17314438472E+03  0.20401379307E+03  0.00000000000E+00 0. -1.
        -12    1    4    4    0    0 -0.10868486741E+02 -0.76413751623E+01 -0.10347299432E+03  0.10432245766E+03  0.00000000000E+00 0.  1.
</event>
<event>
12    1  0.9962621E-001  0.1853918E+03  0.7818608E-02  0.1163026E+00
         21   -1    0    0  501  502  0.00000000000E+00  0.00000000000E+00  0.20772643533E+03  0.20772643533E+03  0.00000000000E+00 0.  1.
         21   -1    0    0  502  503 -0.00000000000E+00 -0.00000000000E+00 -0.20439591689E+03  0.20439591689E+03  0.00000000000E+00 0.  1.
         -6    2    1    2    0  503  0.15107144252E+02  0.72795344140E+02  0.93087433719E+02  0.20614560804E+03  0.16823600525E+03 0.  0.
        -24    2    3    3    0    0  0.12627019913E+01  0.10000215393E+03  0.11194215615E+03  0.16995901331E+03  0.79705675300E+02 0.  0.
          6    2    1    2  501    0 -0.15107144252E+02 -0.72795344140E+02 -0.89756915282E+02  0.20597674418E+03  0.16983146753E+03 0.  0.
         24    2    5    5    0    0 -0.17406323266E+02 -0.55154589143E+02 -0.12810857976E+03  0.16343943550E+03  0.83400432101E+02 0.  0.
          5    1    5    5  501    0  0.22991790138E+01 -0.17640754997E+02  0.38351664480E+02  0.42537308676E+02  0.47000000000E+01 0. -1.
        -11    1    6    6    0    0 -0.30727062274E+02 -0.12866295058E+02 -0.11104256275E+03  0.11593163781E+03  0.00000000000E+00 0.  1.
         12    1    6    6    0    0  0.13320739008E+02 -0.42288294085E+02 -0.17066017015E+02  0.47507797687E+02  0.00000000000E+00 0. -1.
         -5    1    3    3    0  503  0.13844442261E+02 -0.27206809786E+02 -0.18854722432E+02  0.36186594731E+02  0.47000000000E+01 0.  1.
         13    1    4    4    0    0  0.32987562828E+02  0.59493894438E+02  0.32701615795E+02  0.75479125938E+02  0.00000000000E+00 0. -1.
        -14    1    4    4    0    0 -0.31724860836E+02  0.40508259488E+02  0.79240540356E+02  0.94479887371E+02  0.00000000000E+00 0.  1.
</event>
<event>
12    1  0.9962621E-001  0.1959082E+03  0.7818608E-02  0.1153494E+00
         21   -1    0    0  503  502  0.00000000000E+00  0.00000000000E+00  0.25063253181E+03  0.25063253181E+03  0.00000000000E+00 0. -1.
         21   -1    0    0  501  503 -0.00000000000E+00 -0.00000000000E+00 -0.36603473607E+03  0.36603473607E+03  0.00000000000E+00 0. -1.
          6    2    1    2  501    0  0.24170909596E+02 -0.89926027855E+02 -0.29328862507E+03  0.35204750399E+03  0.17102135571E+03 0.  0.
         24    2    3    3    0    0 -0.18910715456E+02 -0.58181369675E+02 -0.71582885318E+02  0.12392631957E+03  0.80566347040E+02 0.  0.
         -6    2    1    2    0  502 -0.24170909596E+02  0.89926027855E+02  0.17788642081E+03  0.26461976389E+03  0.17236332955E+03 0.  0.
        -24    2    5    5    0    0 -0.64481260982E+02  0.10103351976E+03  0.99801245636E+02  0.17591978989E+03  0.81374926796E+02 0.  0.
          5    1    3    3  501    0  0.43081625052E+02 -0.31744658181E+02 -0.22170573976E+03  0.22812118442E+03  0.47000000000E+01 0. -1.
        -13    1    4    4    0    0  0.31668174007E+02 -0.27785382551E+02 -0.31098622116E+02  0.52364348806E+02  0.00000000000E+00 0.  1.
         14    1    4    4    0    0 -0.50578889463E+02 -0.30395987124E+02 -0.40484263202E+02  0.71561970763E+02  0.00000000000E+00 0. -1.
         -5    1    5    5    0  502  0.40310351385E+02 -0.11107491903E+02  0.78085175177E+02  0.88699974000E+02  0.47000000000E+01 0.  1.
         13    1    6    6    0    0 -0.34134304902E+02  0.37640104783E+02  0.92138102047E+02  0.10522052133E+03  0.00000000000E+00 0. -1.
        -14    1    6    6    0    0 -0.30346956080E+02  0.63393414975E+02  0.76631435892E+01  0.70699268562E+02  0.00000000000E+00 0.  1.
</event>
<event>
12    1  0.9962621E-001  0.2202413E+03  0.7818608E-02  0.1134034E+00
         21   -1    0    0  503  502  0.00000000000E+00  0.00000000000E+00  0.19575525527E+03  0.19575525527E+03  0.00000000000E+00 0.  1.
         21   -1    0    0  501  503 -0.00000000000E+00 -0.00000000000E+00 -0.24872272698E+03  0.24872272698E+03  0.00000000000E+00 0.  1.
          6    2    1    2  501    0  0.28399555814E+02 -0.13154249347E+03 -0.25177630093E+01  0.22025571577E+03  0.17434528626E+03 0.  0.
         24    2    3    3    0    0  0.20878382025E+02  0.16696084665E+01  0.20598300964E+02  0.84762267331E+02  0.79508851910E+02 0.  0.
         -6    2    1    2    0  502 -0.28399555814E+02  0.13154249347E+03 -0.50449708695E+02  0.22422226647E+03  0.17210604090E+03 0.  0.
        -24    2    5    5    0    0  0.14044017118E+02  0.14916333427E+03 -0.26218989262E+02  0.17205744424E+03  0.80432543246E+02 0.  0.
          5    1    3    3  501    0  0.75211737895E+01 -0.13321210194E+03 -0.23116063974E+02  0.13549344844E+03  0.47000000000E+01 0. -1.
        -11    1    4    4    0    0 -0.20608925672E-01  0.75409063319E+01 -0.29348586204E+02  0.30301901016E+02  0.00000000000E+00 0.  1.
         12    1    4    4    0    0  0.20898990950E+02 -0.58712978655E+01  0.49946887168E+02  0.54460366315E+02  0.00000000000E+00 0. -1.
         -5    1    5    5    0  502 -0.42443572932E+02 -0.17620840804E+02 -0.24230719434E+02  0.52164822229E+02  0.47000000000E+01 0.  1.
         13    1    6    6    0    0 -0.28332207818E+02  0.74441030285E+02 -0.32277583572E+02  0.85941976886E+02  0.00000000000E+00 0. -1.
        -14    1    6    6    0    0  0.42376224935E+02  0.74722303990E+02  0.60585943107E+01  0.86115467358E+02  0.00000000000E+00 0.  1.
</event>
<event>
12    1  0.9962621E-001  0.1926810E+03  0.7818608E-02  0.1156695E+00
         21   -1    0    0  503  502  0.00000000000E+00  0.00000000000E+00  0.61203608538E+03  0.61203608538E+03  0.00000000000E+00 0.  1.
         21   -1    0    0  501  503 -0.00000000000E+00 -0.00000000000E+00 -0.60433783689E+02  0.60433783689E+02  0.00000000000E+00 0.  1.
          6    2    1    2  501    0  0.17108148276E+01 -0.87126108997E+02  0.24268170100E+03  0.30987156797E+03  0.17184904678E+03 0.  0.
         24    2    3    3    0    0 -0.25690368024E+02  0.20896128558E+02  0.11209004525E+03  0.13812786596E+03  0.73610365523E+02 0.  0.
         -6    2    1    2    0  502 -0.17108148276E+01  0.87126108997E+02  0.30892060069E+03  0.36259830110E+03  0.16867633110E+03 0.  0.
        -24    2    5    5    0    0 -0.62316461544E+01  0.93599131077E+02  0.32291566562E+03  0.34585644417E+03  0.80885858600E+02 0.  0.
          5    1    3    3  501    0  0.27401182852E+02 -0.10802223755E+03  0.13059165575E+03  0.17174370201E+03  0.47000000000E+01 0. -1.
        -13    1    4    4    0    0 -0.32873934543E+02  0.39116809578E+02  0.44500324897E+02  0.67757651080E+02  0.00000000000E+00 0.  1.
         14    1    4    4    0    0  0.71835665184E+01 -0.18220681020E+02  0.67589720356E+02  0.70370214882E+02  0.00000000000E+00 0. -1.
         -5    1    5    5    0  502  0.45208313268E+01 -0.64730220809E+01 -0.13995064933E+02  0.16741856923E+02  0.47000000000E+01 0.  1.
         11    1    6    6    0    0 -0.36886785006E+02  0.81412488055E+02  0.21022132537E+03  0.22843299621E+03  0.00000000000E+00 0. -1.
        -12    1    6    6    0    0  0.30655138852E+02  0.12186643023E+02  0.11269434025E+03  0.11742344796E+03  0.00000000000E+00 0.  1.
</event>
<event>
12    1  0.9962621E-001  0.1836467E+03  0.7818608E-02  0.1166672E+00
         21   -1    0    0  503  502  0.00000000000E+00  0.00000000000E+00  0.19658891999E+03  0.19658891999E+03  0.00000000000E+00 0. -1.
         21   -1    0    0  501  503 -0.00000000000E+00 -0.00000000000E+00 -0.16328573430E+03  0.16328573430E+03  0.00000000000E+00 0.  1.
          6    2    1    2  501    0  0.13667362172E+02  0.20252628890E+02  0.56324686924E+01  0.18373301286E+03  0.18201409161E+03 0.  0.
         24    2    3    3    0    0 -0.48794755779E+01  0.15400542183E+02 -0.68291133353E+02  0.10721950507E+03  0.81063909296E+02 0.  0.
         -6    2    1    2    0  502 -0.13667362172E+02 -0.20252628890E+02  0.27670717003E+02  0.17614164143E+03  0.17223020496E+03 0.  0.
        -24    2    5    5    0    0 -0.55016982384E+01 -0.78927516183E+02  0.34131180592E+02  0.11636499000E+03  0.78205191104E+02 0.  0.
          5    1    3    3  501    0  0.18546837750E+02  0.48520867064E+01  0.73923602045E+02  0.76513507796E+02  0.47000000000E+01 0. -1.
        -11    1    4    4    0    0  0.19030556180E+02  0.27641018802E+02 -0.72631944047E+02  0.80009919916E+02  0.00000000000E+00 0.  1.
         12    1    4    4    0    0 -0.23910031758E+02 -0.12240476619E+02  0.43408106940E+01  0.27209585149E+02  0.00000000000E+00 0. -1.
         -5    1    5    5    0  502 -0.81656639339E+01  0.58674887293E+02 -0.64604635893E+01  0.59776651429E+02  0.47000000000E+01 0.  1.
         11    1    6    6    0    0 -0.31080951804E+00  0.14184366419E+01  0.35804704615E+02  0.35834137880E+02  0.00000000000E+00 0. -1.
        -12    1    6    6    0    0 -0.51908887204E+01 -0.80345952825E+02 -0.16735240226E+01  0.80530852123E+02  0.00000000000E+00 0.  1.
</event>
<event>
12    1  0.9962621E-001  0.2619801E+03  0.7818608E-02  0.1106258E+00
         21   -1    0    0  501  502  0.00000000000E+00  0.00000000000E+00  0.62308662126E+03  0.62308662126E+03  0.00000000000E+00 0. -1.
         21   -1    0    0  502  503 -0.00000000000E+00 -0.00000000000E+00 -0.11637202059E+03  0.11637202059E+03  0.00000000000E+00 0. -1.
         -6    2    1    2    0  503  0.18554042139E+03  0.59573468019E+02  0.16320688152E+03  0.30865851086E+03  0.17509809847E+03 0.  0.
        -24    2    3    3    0    0  0.68077045584E+02  0.25783117884E+02  0.41562605872E+01  0.10801299649E+03  0.79688641631E+02 0.  0.
          6    2    1    2  501    0 -0.18554042139E+03 -0.59573468019E+02  0.34350771915E+03  0.43080013099E+03  0.17209576893E+03 0.  0.
         24    2    5    5    0    0 -0.17930323392E+03 -0.93359491272E+02  0.24863196337E+03  0.32978579087E+03  0.77943379112E+02 0.  0.
          5    1    5    5  501    0 -0.62371874721E+01  0.33786023252E+02  0.94875755783E+02  0.10101434012E+03  0.47000000000E+01 0. -1.
        -13    1    6    6    0    0 -0.80738462830E+02 -0.42987030543E+02  0.17309780603E+03  0.19577904543E+03  0.00000000000E+00 0.  1.
         14    1    6    6    0    0 -0.98564771090E+02 -0.50372460728E+02  0.75534157333E+02  0.13400674544E+03  0.00000000000E+00 0. -1.
         -5    1    3    3    0  503  0.11746337581E+03  0.33790350136E+02  0.15905062093E+03  0.20064551437E+03  0.47000000000E+01 0.  1.
         13    1    4    4    0    0  0.70278836754E+02  0.29233015530E+02 -0.23806497626E+02  0.79752325494E+02  0.00000000000E+00 0. -1.
        -14    1    4    4    0    0 -0.22017911702E+01 -0.34498976458E+01  0.27962758213E+02  0.28260670994E+02  0.00000000000E+00 0.  1.
</event>
<event>
12    1  0.9962621E-001  0.2161293E+03  0.7818608E-02  0.1136945E+00
         21   -1    0    0  503  502  0.00000000000E+00  0.00000000000E+00  0.18558809384E+03  0.18558809384E+03  0.00000000000E+00 0.  1.
         21   -1    0    0  501  503 -0.00000000000E+00 -0.00000000000E+00 -0.28498368030E+03  0.28498368030E+03  0.00000000000E+00 0.  1.
          6    2    1    2  501    0 -0.32702036874E+02 -0.12548025899E+03  0.31683393988E+02  0.21843926421E+03  0.17290794106E+03 0.  0.
         24    2    3    3    0    0 -0.37021362271E+02 -0.46385814281E+02  0.68493338809E+02  0.13096555505E+03  0.94543186524E+02 0.  0.
         -6    2    1    2    0  502  0.32702036874E+02  0.12548025899E+03 -0.13107898045E+03  0.25213250993E+03  0.17197204667E+03 0.  0.
        -24    2    5    5    0    0  0.35518831683E+02  0.13674634247E+02 -0.11524925872E+02  0.88353103342E+02  0.78897806864E+02 0.  0.
          5    1    3    3  501    0  0.43193253979E+01 -0.79094444714E+02 -0.36809944821E+02  0.87473709160E+02  0.47000000000E+01 0. -1.
        -11    1    4    4    0    0  0.11744989626E+02 -0.42856992466E+02  0.68997605285E+02  0.82069093571E+02  0.00000000000E+00 0.  1.
         12    1    4    4    0    0 -0.48766351897E+02 -0.35288218148E+01 -0.50426647593E+00  0.48896461482E+02  0.00000000000E+00 0. -1.
         -5    1    5    5    0  502 -0.28167948095E+01  0.11180562475E+03 -0.11955405457E+03  0.16377940659E+03  0.47000000000E+01 0.  1.
         11    1    6    6    0    0  0.12282594447E+02  0.44063454871E+02 -0.18724086929E+02  0.49427134379E+02  0.00000000000E+00 0. -1.
        -12    1    6    6    0    0  0.23236237236E+02 -0.30388820625E+02  0.71991610568E+01  0.38925968963E+02  0.00000000000E+00 0.  1.
</event>
<event>
12    1  0.9962621E-001  0.1990364E+03  0.7818608E-02  0.1150796E+00
         21   -1    0    0  503  502  0.00000000000E+00  0.00000000000E+00  0.33691754866E+02  0.33691754866E+02  0.00000000000E+00 0.  1.
         21   -1    0    0  501  503 -0.00000000000E+00 -0.00000000000E+00 -0.12802374132E+04  0.12802374132E+04  0.00000000000E+00 0.  1.
          6    2    1    2  501    0 -0.39492426576E+02 -0.88897635867E+02 -0.81843444925E+03  0.84228881082E+03  0.17364634090E+03 0.  0.
         24    2    3    3    0    0 -0.90598270230E+02 -0.43843322812E+02 -0.59269696320E+03  0.60644733655E+03  0.79739565469E+02 0.  0.
         -6    2    1    2    0  502  0.39492426576E+02  0.88897635867E+02 -0.42811120909E+03  0.47164035724E+03  0.17234551869E+03 0.  0.
        -24    2    5    5    0    0  0.30190258364E+02  0.41457860503E+02 -0.87663963335E+02  0.12774578072E+03  0.77484244377E+02 0.  0.
          5    1    3    3  501    0  0.51105843654E+02 -0.45054313056E+02 -0.22573748604E+03  0.23584147427E+03  0.47000000000E+01 0. -1.
        -13    1    4    4    0    0 -0.71023202830E+02  0.92814020976E+01 -0.31569673393E+03  0.32372035398E+03  0.00000000000E+00 0.  1.
         14    1    4    4    0    0 -0.19575067400E+02 -0.53124724909E+02 -0.27700022927E+03  0.28272698257E+03  0.00000000000E+00 0. -1.
         -5    1    5    5    0  502  0.93021682115E+01  0.47439775365E+02 -0.34044724575E+03  0.34389457652E+03  0.47000000000E+01 0.  1.
         13    1    6    6    0    0  0.22890350125E+02  0.29687391935E+02 -0.10147997032E+03  0.10818268690E+03  0.00000000000E+00 0. -1.
        -14    1    6    6    0    0  0.72999082389E+01  0.11770468567E+02  0.13816006988E+02  0.19563093817E+02  0.00000000000E+00 0.  1.
</event>
<event>
12    1  0.9962621E-001  0.2597558E+03  0.7818608E-02  0.1107634E+00
         21   -1    0    0  503  502  0.00000000000E+00  0.00000000000E+00  0.43201245438E+03  0.43201245438E+03  0.00000000000E+00 0. -1.
         21   -1    0    0  501  503 -0.00000000000E+00 -0.00000000000E+00 -0.17937133695E+03  0.17937133695E+03  0.00000000000E+00 0. -1.
          6    2    1    2  501    0 -0.11012883402E+03 -0.15584054450E+03  0.23894404692E+03  0.35126711926E+03  0.17285744450E+03 0.  0.
         24    2    3    3    0    0 -0.81351561667E+02 -0.87233283612E+02  0.62971918325E+02  0.16015624125E+03  0.86352977699E+02 0.  0.
         -6    2    1    2    0  502  0.11012883402E+03  0.15584054450E+03  0.13697070502E+02  0.26011667207E+03  0.17623404312E+03 0.  0.
        -24    2    5    5    0    0  0.46893396317E+02  0.49484982565E+01 -0.20515871127E+02  0.92904993123E+02  0.77375438777E+02 0.  0.
          5    1    3    3  501    0 -0.28777272356E+02 -0.68607260888E+02  0.17597212860E+03  0.19111087801E+03  0.47000000000E+01 0. -1.
        -13    1    4    4    0    0 -0.57043653455E+02 -0.73398341490E+02  0.83901679896E+02  0.12522294847E+03  0.00000000000E+00 0.  1.
         14    1    4    4    0    0 -0.24307908211E+02 -0.13834942122E+02 -0.20929761571E+02  0.34933292781E+02  0.00000000000E+00 0. -1.
         -5    1    5    5    0  502  0.63235437706E+02  0.15089204624E+03  0.34212941629E+02  0.16721167895E+03  0.47000000000E+01 0.  1.
         13    1    6    6    0    0  0.58001900448E+02  0.10146522570E+02 -0.39068595767E+02  0.70664896172E+02  0.00000000000E+00 0. -1.
        -14    1    6    6    0    0 -0.11108504131E+02 -0.51980243140E+01  0.18552724640E+02  0.22240096951E+02  0.00000000000E+00 0.  1.
</event>
<event>
12    1  0.9962621E-001  0.1759292E+03  0.7818608E-02  0.1171837E+00
         21   -1    0    0  501  502  0.00000000000E+00  0.00000000000E+00  0.74634193228E+02  0.74634193228E+02  0.00000000000E+00 0.  1.
         21   -1    0    0  502  503 -0.00000000000E+00 -0.00000000000E+00 -0.43820901594E+03  0.43820901594E+03  0.00000000000E+00 0.  1.
         -6    2    1    2    0  503  0.17852555491E+02 -0.30537522855E+02 -0.12205246046E+03  0.21412116012E+03  0.17233633995E+03 0.  0.
        -24    2    3    3    0    0  0.20415482768E+02  0.46986993914E+02 -0.43537715671E+02  0.10365272823E+03  0.78890974447E+02 0.  0.
          6    2    1    2  501    0 -0.17852555491E+02  0.30537522855E+02 -0.24152236226E+03  0.29872204905E+03  0.17219337118E+03 0.  0.
         24    2    5    5    0    0  0.29832508452E+02  0.29890623363E+02 -0.23283845116E+03  0.25002108280E+03  0.80705449502E+02 0.  0.
          5    1    5    5  501    0 -0.47685063943E+02  0.64689949196E+00 -0.86839111007E+01  0.48700966255E+02  0.47000000000E+01 0. -1.
        -13    1    6    6    0    0  0.24974017958E+02  0.96753289279E+01 -0.14044873483E+02  0.30241892037E+02  0.00000000000E+00 0.  1.
         14    1    6    6    0    0  0.48584904941E+01  0.20215294435E+02 -0.21879357767E+03  0.21977919076E+03  0.00000000000E+00 0. -1.
         -5    1    3    3    0  503 -0.25629272775E+01 -0.77524516768E+02 -0.78514744786E+02  0.11046843189E+03  0.47000000000E+01 0.  1.
         13    1    4    4    0    0 -0.28090387129E+02  0.12331015183E+02 -0.15133240755E+01  0.30715044103E+02  0.00000000000E+00 0. -1.
        -14    1    4    4    0    0  0.48505869897E+02  0.34655978731E+02 -0.42024391596E+02  0.72937684123E+02  0.00000000000E+00 0.  1.
</event>
<event>
12    1  0.9962621E-001  0.2303028E+03  0.7818608E-02  0.1126622E+00
         21   -1    0    0  501  502  0.00000000000E+00  0.00000000000E+00  0.33058072382E+03  0.33058072382E+03  0.00000000000E+00 0. -1.
         21   -1    0    0  502  503 -0.00000000000E+00 -0.00000000000E+00 -0.67004071814E+03  0.67004071814E+03  0.00000000000E+00 0. -1.
         -6    2    1    2    0  503  0.13065455984E+03 -0.78643247076E+02  0.26681961766E+03  0.35246575475E+03  0.17258049016E+03 0.  0.
        -24    2    3    3    0    0 -0.30262149498E+01 -0.42626539205E+02  0.12450305565E+03  0.15386100502E+03  0.79661899154E+02 0.  0.
          6    2    1    2  501    0 -0.13065455984E+03  0.78643247076E+02 -0.60627961198E+03  0.64815568722E+03  0.17110070908E+03 0.  0.
         24    2    5    5    0    0 -0.11313937095E+03  0.10063276293E+03 -0.59215434025E+03  0.61634477791E+03  0.79414434141E+02 0.  0.
          5    1    5    5  501    0 -0.17515188886E+02 -0.21989515852E+02 -0.14125271733E+02  0.31810909302E+02  0.47000000000E+01 0. -1.
        -11    1    6    6    0    0 -0.11297561447E+03  0.68077100881E+02 -0.53016073519E+03  0.54632260274E+03  0.00000000000E+00 0.  1.
         12    1    6    6    0    0 -0.16375648395E+00  0.32555662047E+02 -0.61993605063E+02  0.70022175175E+02  0.00000000000E+00 0. -1.
         -5    1    3    3    0  503  0.13368077479E+03 -0.36016707871E+02  0.14231656201E+03  0.19860474973E+03  0.47000000000E+01 0.  1.
         11    1    4    4    0    0 -0.79196502146E+01 -0.65969335513E+02  0.94847684741E+02  0.11580482455E+03  0.00000000000E+00 0. -1.
        -12    1    4    4    0    0  0.48934352648E+01  0.23342796308E+02  0.29655370909E+02  0.38056180470E+02  0.00000000000E+00 0.  1.
</event>
<event>
12    1  0.9962621E-001  0.3285640E+03  0.7818608E-02  0.1071821E+00
         21   -1    0    0  501  502  0.00000000000E+00  0.00000000000E+00  0.19476214257E+03  0.19476214257E+03  0.00000000000E+00 0.  1.
         21   -1    0    0  502  503 -0.00000000000E+00 -0.00000000000E+00 -0.59260226073E+03  0.59260226073E+03  0.00000000000E+00 0.  1.
         -6    2    1    2    0  503  0.24276110639E+03 -0.13747589781E+03 -0.97769674844E+02  0.34239638099E+03  0.17275356767E+03 0.  0.
        -24    2    3    3    0    0  0.87876298142E+02 -0.10844807782E+03 -0.81945821788E+01  0.16107427703E+03  0.79965881388E+02 0.  0.
          6    2    1    2  501    0 -0.24276110639E+03  0.13747589781E+03 -0.30007044333E+03  0.44496802231E+03  0.17355602170E+03 0.  0.
         24    2    5    5    0    0 -0.13142910043E+03  0.10273704892E+02 -0.10387399576E+03  0.18594997377E+03  0.80052659531E+02 0.  0.
          5    1    5    5  501    0 -0.11133200596E+03  0.12720219291E+03 -0.19619644756E+03  0.25901804854E+03  0.47000000000E+01 0. -1.
        -13    1    6    6    0    0 -0.56278003780E+02 -0.30693055335E+02 -0.22747527280E+02  0.68020051107E+02  0.00000000000E+00 0.  1.
         14    1    6    6    0    0 -0.75151096648E+02  0.40966760227E+02 -0.81126468483E+02  0.11792992266E+03  0.00000000000E+00 0. -1.
         -5    1    3    3    0  503  0.15488480825E+03 -0.29027819988E+02 -0.89575092665E+02  0.18132210396E+03  0.47000000000E+01 0.  1.
         13    1    4    4    0    0  0.93368512565E+02 -0.10944648935E+03 -0.22599035108E+02  0.14562599204E+03  0.00000000000E+00 0. -1.
        -14    1    4    4    0    0 -0.54922144230E+01  0.99841153589E+00  0.14404452930E+02  0.15448284988E+02  0.00000000000E+00 0.  1.
</event>
<event>
12    1  0.9962621E-001  0.2797762E+03  0.7818608E-02  0.1095981E+00
         21   -1    0    0  501  502  0.00000000000E+00  0.00000000000E+00  0.29552338503E+03  0.29552338503E+03  0.00000000000E+00 0. -1.
         21   -1    0    0  502  503 -0.00000000000E+00 -0.00000000000E+00 -0.27486224466E+03  0.27486224466E+03  0.00000000000E+00 0.  1.
         -6    2    1    2    0  503 -0.16156203519E+02  0.21859811378E+03  0.67838231876E+02  0.28788318141E+03  0.17386357345E+03 0.  0.
        -24    2    3    3    0    0 -0.13138691072E+02  0.91863277969E+02 -0.35813201101E+02  0.12406458189E+03  0.74148149436E+02 0.  0.
          6    2    1    2  501    0  0.16156203519E+02 -0.21859811378E+03 -0.47177091504E+02  0.28250244827E+03  0.17185981803E+03 0.  0.
         24    2    5    5    0    0  0.53468456511E+02 -0.11422235163E+03 -0.75815134416E+02  0.16792177167E+03  0.80896015601E+02 0.  0.
          5    1    5    5  501    0 -0.37312252992E+02 -0.10437576215E+03  0.28638042913E+02  0.11458067660E+03  0.47000000000E+01 0. -1.
        -13    1    6    6    0    0  0.35891758939E+02 -0.22560133278E+02  0.72143407447E+01  0.43002612544E+02  0.00000000000E+00 0.  1.
         14    1    6    6    0    0  0.17576697572E+02 -0.91662218354E+02 -0.83029475161E+02  0.12491915913E+03  0.00000000000E+00 0. -1.
         -5    1    3    3    0  503 -0.30175124473E+01  0.12673483582E+03  0.10365143298E+03  0.16381859952E+03  0.47000000000E+01 0.  1.
         13    1    4    4    0    0 -0.39642582773E+02  0.79749604222E+02 -0.21594765255E+02  0.91639880123E+02  0.00000000000E+00 0. -1.
        -14    1    4    4    0    0  0.26503891701E+02  0.12113673747E+02 -0.14218435846E+02  0.32424701770E+02  0.00000000000E+00 0.  1.
</event>
<event>
12    1  0.9962621E-001  0.1844249E+03  0.7818608E-02  0.1163598E+00
         21   -1    0    0  503  502  0.00000000000E+00  0.00000000000E+00  0.16933211317E+04  0.16933211317E+04  0.00000000000E+00 0.  1.
         21   -1    0    0  501  503 -0.00000000000E+00 -0.00000000000E+00 -0.20948018033E+02  0.20948018033E+02  0.00000000000E+00 0.  1.
          6    2    1    2  501    0 -0.58649793391E+02  0.24208689975E+02  0.66197363506E+03  0.68718383406E+03  0.17316659423E+03 0.  0.
         24    2    3    3    0    0 -0.28657737038E+01  0.74259392803E+02  0.38077487942E+03  0.39613098684E+03  0.80047360104E+02 0.  0.
         -6    2    1    2    0  502  0.58649793391E+02 -0.24208689975E+02  0.10103994786E+04  0.10270853157E+04  0.17312215442E+03 0.  0.
        -24    2    5    5    0    0  0.34590899717E+02 -0.81858986910E+02  0.57733672060E+03  0.58951494478E+03  0.79452860789E+02 0.  0.
          5    1    3    3  501    0 -0.55784019687E+02 -0.50050702828E+02  0.28119875564E+03  0.29105284723E+03  0.47000000000E+01 0. -1.
        -11    1    4    4    0    0 -0.16805090946E+02 -0.10067744400E+02  0.12313541229E+03  0.12468400186E+03  0.00000000000E+00 0.  1.
         12    1    4    4    0    0  0.13939317242E+02  0.84327137203E+02  0.25763946712E+03  0.27144698498E+03  0.00000000000E+00 0. -1.
         -5    1    5    5    0  502  0.24058893674E+02  0.57650296935E+02  0.43306275801E+03  0.43757037089E+03  0.47000000000E+01 0.  1.
         11    1    6    6    0    0  0.43047219831E+02 -0.59984714969E+02  0.23385041713E+03  0.24522896803E+03  0.00000000000E+00 0. -1.
        -12    1    6    6    0    0 -0.84563201143E+01 -0.21874271942E+02  0.34348630347E+03  0.34428597676E+03  0.00000000000E+00 0.  1.
</event>
<event>
12    1  0.9962621E-001  0.3010237E+03  0.7818608E-02  0.1084803E+00
         21   -1    0    0  503  502  0.00000000000E+00  0.00000000000E+00  0.21162835539E+03  0.21162835539E+03  0.00000000000E+00 0. -1.
         21   -1    0    0  501  503 -0.00000000000E+00 -0.00000000000E+00 -0.13508809323E+04  0.13508809323E+04  0.00000000000E+00 0. -1.
          6    2    1    2  501    0  0.14376835366E+03  0.20067224644E+03  0.76165420664E+02  0.31050993490E+03  0.17226885488E+03 0.  0.
         24    2    3    3    0    0  0.54795604553E+02  0.14851468866E+03  0.10311042024E+03  0.20381090061E+03  0.76471912600E+02 0.  0.
         -6    2    1    2    0  502 -0.14376835366E+03 -0.20067224644E+03 -0.12154179976E+04  0.12519993528E+04  0.17123895750E+03 0.  0.
        -24    2    5    5    0    0 -0.54952257620E+02 -0.13017979388E+03 -0.94284100186E+03  0.95674049454E+03  0.80228983278E+02 0.  0.
          5    1    3    3  501    0  0.88972749104E+02  0.52157557781E+02 -0.26944999579E+02  0.10669903429E+03  0.47000000000E+01 0. -1.
        -13    1    4    4    0    0  0.23511335700E+02  0.85566597039E+02  0.13248102075E+02  0.89721444726E+02  0.00000000000E+00 0.  1.
         14    1    4    4    0    0  0.31284268853E+02  0.62948091624E+02  0.89862318167E+02  0.11408945588E+03  0.00000000000E+00 0. -1.
         -5    1    5    5    0  502 -0.88816096036E+02 -0.70492452562E+02 -0.27257699570E+03  0.29525885824E+03  0.47000000000E+01 0.  1.
         13    1    6    6    0    0  0.39681409806E+01  0.79736016324E+01 -0.22052438836E+02  0.23783072225E+02  0.00000000000E+00 0. -1.
        -14    1    6    6    0    0 -0.58920398601E+02 -0.13815339551E+03 -0.92078856302E+03  0.93295742232E+03  0.00000000000E+00 0.  1.
</event>
<event>
12    1  0.9962621E-001  0.1958574E+03  0.7818608E-02  0.1153324E+00
         21   -1    0    0  503  502  0.00000000000E+00  0.00000000000E+00  0.10351321777E+04  0.10351321777E+04  0.00000000000E+00 0. -1.
         21   -1    0    0  501  503 -0.00000000000E+00 -0.00000000000E+00 -0.41518714836E+02  0.41518714836E+02  0.00000000000E+00 0. -1.
          6    2    1    2  501    0  0.90920426918E+02 -0.22437781795E+02  0.31941032344E+03  0.37457539658E+03  0.17179579426E+03 0.  0.
         24    2    3    3    0    0  0.12695588056E+03 -0.19601800531E+02  0.29201856247E+03  0.32897939590E+03  0.80315477387E+02 0.  0.
         -6    2    1    2    0  502 -0.90920426918E+02  0.22437781795E+02  0.67420313945E+03  0.70207549598E+03  0.17201787907E+03 0.  0.
        -24    2    5    5    0    0 -0.55281428507E+01  0.23423719257E+02  0.14851326694E+03  0.16947363125E+03  0.78012116007E+02 0.  0.
          5    1    3    3  501    0 -0.36035453645E+02 -0.28359812633E+01  0.27391760965E+02  0.45596000679E+02  0.47000000000E+01 0. -1.
        -13    1    4    4    0    0  0.10778608428E+02  0.23254511477E+02  0.32157066087E+02  0.41122106014E+02  0.00000000000E+00 0.  1.
         14    1    4    4    0    0  0.11617727214E+03 -0.42856312009E+02  0.25986149638E+03  0.28785728989E+03  0.00000000000E+00 0. -1.
         -5    1    5    5    0  502 -0.85392284068E+02 -0.98593746217E+00  0.52568987252E+03  0.53260186473E+03  0.47000000000E+01 0.  1.
         11    1    6    6    0    0 -0.20756444913E+02 -0.56783610403E+01  0.47911113797E+01  0.22046054926E+02  0.00000000000E+00 0. -1.
        -12    1    6    6    0    0  0.15228302063E+02  0.29102080297E+02  0.14372215556E+03  0.14742757632E+03  0.00000000000E+00 0.  1.
</event>
<event>
12    1  0.1104620E+000  0.2288155E+03  0.7818608E-02  0.1127497E+00
         21   -1    0    0  503  502  0.00000000000E+00  0.00000000000E+00  0.57802433699E+03  0.57802433699E+03  0.00000000000E+00 0. -1.
         21   -1    0    0  501  503 -0.00000000000E+00 -0.00000000000E+00 -0.30067712236E+03  0.30067712236E+03  0.00000000000E+00 0. -1.
          6    2    1    2  501    0  0.14042555519E+03  0.53915005099E+02  0.50596322205E+03  0.55524850782E+03  0.17226711538E+03 0.  0.
         24    2    3    3    0    0  0.16641462903E+03  0.65961845984E+02  0.40612003895E+03  0.45127106052E+03  0.81653476019E+02 0.  0.
         -6    2    1    2    0  502 -0.14042555519E+03 -0.53915005099E+02 -0.22861600743E+03  0.32345295153E+03  0.17242496535E+03 0.  0.
        -24    2    5    5    0    0 -0.84839980510E+02  0.23258368032E+02 -0.17735404479E+03  0.21530784325E+03  0.84641811078E+02 0.  0.
          5    1    3    3  501    0 -0.25989073846E+02 -0.12046840885E+02  0.99843183105E+02  0.10397744730E+03  0.47000000000E+01 0. -1.
        -11    1    4    4    0    0  0.60786731635E+02  0.46911902261E+02  0.25215635397E+03  0.26358789837E+03  0.00000000000E+00 0.  1.
         12    1    4    4    0    0  0.10562789740E+03  0.19049943723E+02  0.15396368497E+03  0.18768316215E+03  0.00000000000E+00 0. -1.
         -5    1    5    5    0  502 -0.55585574677E+02 -0.77173373131E+02 -0.51261962633E+02  0.10814510828E+03  0.47000000000E+01 0.  1.
         13    1    6    6    0    0  0.33681405749E+01  0.76263751158E+01 -0.89323179229E+02  0.89711405718E+02  0.00000000000E+00 0. -1.
        -14    1    6    6    0    0 -0.88208121085E+02  0.15631992916E+02 -0.88030865565E+02  0.12559643753E+03  0.00000000000E+00 0.  1.
</event>
<event>
12    1  0.9962621E-001  0.2489201E+03  0.7818608E-02  0.1114220E+00
         21   -1    0    0  501  502  0.00000000000E+00  0.00000000000E+00  0.28591286652E+03  0.28591286652E+03  0.00000000000E+00 0.  1.
         21   -1    0    0  502  503 -0.00000000000E+00 -0.00000000000E+00 -0.26643834288E+03  0.26643834288E+03  0.00000000000E+00 0.  1.
         -6    2    1    2    0  503  0.17410199894E+03 -0.33060141383E+02 -0.11105137308E+03  0.27256853521E+03  0.17480480526E+03 0.  0.
        -24    2    3    3    0    0  0.12027593702E+03  0.42142623329E+02 -0.10479919709E+03  0.17975754196E+03  0.71327417290E+02 0.  0.
          6    2    1    2  501    0 -0.17410199894E+03  0.33060141383E+02  0.13052589672E+03  0.27978267419E+03  0.17273348279E+03 0.  0.
         24    2    5    5    0    0 -0.10518749449E+03  0.86736088786E+02  0.84717056379E+02  0.18103625093E+03  0.83723272831E+02 0.  0.
          5    1    5    5  501    0 -0.68914504456E+02 -0.53675947403E+02  0.45808840338E+02  0.98746423263E+02  0.47000000000E+01 0. -1.
        -13    1    6    6    0    0  0.13456752207E+02  0.15972593965E+01  0.10998870687E+02  0.17453096399E+02  0.00000000000E+00 0.  1.
         14    1    6    6    0    0 -0.11864424669E+03  0.85138829390E+02  0.73718185692E+02  0.16358315453E+03  0.00000000000E+00 0. -1.
         -5    1    3    3    0  503  0.53826061928E+02 -0.75202764712E+02 -0.62521759935E+01  0.92810993248E+02  0.47000000000E+01 0.  1.
         13    1    4    4    0    0  0.50003380052E+02  0.27126332870E+02 -0.54548561410E+01  0.57148328121E+02  0.00000000000E+00 0. -1.
        -14    1    4    4    0    0  0.70272556964E+02  0.15016290460E+02 -0.99344340946E+02  0.12260921384E+03  0.00000000000E+00 0.  1.
</event>
<event>
12    1  0.9962621E-001  0.1927271E+03  0.7818608E-02  0.1159909E+00
         21   -1    0    0  501  502  0.00000000000E+00  0.00000000000E+00  0.16063227248E+03  0.16063227248E+03  0.00000000000E+00 0. -1.
         21   -1    0    0  502  503 -0.00000000000E+00 -0.00000000000E+00 -0.23009066348E+03  0.23009066348E+03  0.00000000000E+00 0. -1.
         -6    2    1    2    0  503 -0.45738714966E+02  0.65597257308E+02 -0.88595405113E+02  0.19704805528E+03  0.15679209186E+03 0.  0.
        -24    2    3    3    0    0 -0.81894215055E+02  0.17587694659E+02 -0.23321409279E+02  0.10819467704E+03  0.64391075050E+02 0.  0.
          6    2    1    2  501    0  0.45738714966E+02 -0.65597257308E+02  0.19137014111E+02  0.19367488068E+03  0.17535308347E+03 0.  0.
         24    2    5    5    0    0  0.92118938018E+02 -0.18711997228E+02  0.25823010494E+02  0.12722079690E+03  0.81745126524E+02 0.  0.
          5    1    5    5  501    0 -0.46380223052E+02 -0.46885260080E+02 -0.66859963824E+01  0.66454083778E+02  0.47000000000E+01 0. -1.
        -11    1    6    6    0    0  0.31347393679E+02 -0.36664179596E+02 -0.16542101090E+02  0.50995708293E+02  0.00000000000E+00 0.  1.
         12    1    6    6    0    0  0.60771544339E+02  0.17952182368E+02  0.42365111583E+02  0.76225088604E+02  0.00000000000E+00 0. -1.
         -5    1    3    3    0  503  0.36155500089E+02  0.48009562649E+02 -0.65273995833E+02  0.88853378239E+02  0.47000000000E+01 0.  1.
         13    1    4    4    0    0 -0.20238640287E+02 -0.21327414179E+02 -0.19308179640E+02  0.35174805717E+02  0.00000000000E+00 0. -1.
        -14    1    4    4    0    0 -0.61655574768E+02  0.38915108838E+02 -0.40132296398E+01  0.73019871323E+02  0.00000000000E+00 0.  1.
</event>
<event>
12    1  0.9962621E-001  0.2893262E+03  0.7818608E-02  0.1090730E+00
         21   -1    0    0  503  502  0.00000000000E+00  0.00000000000E+00  0.33944319591E+03  0.33944319591E+03  0.00000000000E+00 0.  1.
         21   -1    0    0  501  503 -0.00000000000E+00 -0.00000000000E+00 -0.25542915386E+03  0.25542915386E+03  0.00000000000E+00 0.  1.
          6    2    1    2  501    0 -0.10957723625E+03  0.20472948034E+03 -0.13862701223E+02  0.28943907851E+03  0.17222507036E+03 0.  0.
         24    2    3    3    0    0 -0.59445988932E+02  0.20559162371E+03 -0.40857877498E+02  0.23230139575E+03  0.80578104825E+02 0.  0.
         -6    2    1    2    0  502  0.10957723625E+03 -0.20472948034E+03  0.97876743272E+02  0.30543327127E+03  0.17259286052E+03 0.  0.
        -24    2    5    5    0    0  0.44938628381E+02 -0.40069446846E+02 -0.74378949641E+01  0.99510132007E+02  0.78879041571E+02 0.  0.
          5    1    3    3  501    0 -0.50131247313E+02 -0.86214337107E+00  0.26995176274E+02  0.57137682753E+02  0.47000000000E+01 0. -1.
        -11    1    4    4    0    0  0.69492400110E+01  0.11284504099E+03 -0.68015582170E+01  0.11326321737E+03  0.00000000000E+00 0.  1.
         12    1    4    4    0    0 -0.66395228943E+02  0.92746582713E+02 -0.34056319281E+02  0.11903817839E+03  0.00000000000E+00 0. -1.
         -5    1    5    5    0  502  0.64638607865E+02 -0.16466003349E+03  0.10531463824E+03  0.20592313926E+03  0.47000000000E+01 0.  1.
         13    1    6    6    0    0  0.15748271555E+01 -0.20780667569E+02  0.31738714267E+02  0.37969227126E+02  0.00000000000E+00 0. -1.
        -14    1    6    6    0    0  0.43363801225E+02 -0.19288779277E+02 -0.39176609231E+02  0.61540904881E+02  0.00000000000E+00 0.  1.
</event>
<event>
12    1  0.9962621E-001  0.2173804E+03  0.7818608E-02  0.1136751E+00
         21   -1    0    0  503  502  0.00000000000E+00  0.00000000000E+00  0.14807474984E+03  0.14807474984E+03  0.00000000000E+00 0. -1.
         21   -1    0    0  501  503 -0.00000000000E+00 -0.00000000000E+00 -0.36880021258E+03  0.36880021258E+03  0.00000000000E+00 0. -1.
          6    2    1    2  501    0  0.47237638272E+02 -0.12412754533E+03 -0.21052163454E+03  0.29925519462E+03  0.16611824378E+03 0.  0.
         24    2    3    3    0    0  0.90509779715E+02 -0.60169951933E+02 -0.14521191124E+03  0.19801043211E+03  0.79430401727E+02 0.  0.
         -6    2    1    2    0  502 -0.47237638272E+02  0.12412754533E+03 -0.10203828208E+02  0.21761976781E+03  0.17209068322E+03 0.  0.
        -24    2    5    5    0    0 -0.56760590406E+02  0.33042011876E+02 -0.23165529338E+02  0.12500574772E+03  0.10380874742E+03 0.  0.
          5    1    3    3  501    0 -0.43272141443E+02 -0.63957593392E+02 -0.65309723297E+02  0.10124476250E+03  0.47000000000E+01 0. -1.
        -11    1    4    4    0    0  0.90661636563E+02 -0.67715521143E+02 -0.15086042089E+03  0.18858364388E+03  0.00000000000E+00 0.  1.
         12    1    4    4    0    0 -0.15185684809E+00  0.75455692096E+01  0.56485096447E+01  0.94267882338E+01  0.00000000000E+00 0. -1.
         -5    1    5    5    0  502  0.95229521337E+01  0.91085533449E+02  0.12961701130E+02  0.92614020090E+02  0.47000000000E+01 0.  1.
         11    1    6    6    0    0 -0.49391266194E+02 -0.84054935471E+01  0.29065222159E+02  0.57921814864E+02  0.00000000000E+00 0. -1.
        -12    1    6    6    0    0 -0.73693242122E+01  0.41447505423E+02 -0.52230751497E+02  0.67083932853E+02  0.00000000000E+00 0.  1.
</event>
<event>
12    1  0.9962621E-001  0.1881077E+03  0.7818608E-02  0.1162382E+00
         21   -1    0    0  503  502  0.00000000000E+00  0.00000000000E+00  0.44954946435E+03  0.44954946435E+03  0.00000000000E+00 0. -1.
         21   -1    0    0  501  503 -0.00000000000E+00 -0.00000000000E+00 -0.80512102672E+02  0.80512102672E+02  0.00000000000E+00 0. -1.
          6    2    1    2  501    0 -0.40701763034E+02 -0.55041072528E+02  0.10976699688E+03  0.20974045013E+03  0.16509424471E+03 0.  0.
         24    2    3    3    0    0  0.10311629718E+02 -0.88044768475E+02  0.70146131657E+02  0.13705267160E+03  0.77490283537E+02 0.  0.
         -6    2    1    2    0  502  0.40701763034E+02  0.55041072528E+02  0.25927036479E+03  0.32032111689E+03  0.17520942522E+03 0.  0.
        -24    2    5    5    0    0  0.28261448958E+02 -0.39213455017E+02  0.13742781059E+03  0.16570425044E+03  0.78962592018E+02 0.  0.
          5    1    3    3  501    0 -0.51013392752E+02  0.33003695947E+02  0.39620865227E+02  0.72687778530E+02  0.47000000000E+01 0. -1.
        -13    1    4    4    0    0 -0.12751349609E+02  0.50840874881E+01 -0.55878660933E+01  0.14821238474E+02  0.00000000000E+00 0.  1.
         14    1    4    4    0    0  0.23062979327E+02 -0.93128855963E+02  0.75733997750E+02  0.12223143312E+03  0.00000000000E+00 0. -1.
         -5    1    5    5    0  502  0.12440314076E+02  0.94254527545E+02  0.12184255420E+03  0.15461686645E+03  0.47000000000E+01 0.  1.
         13    1    6    6    0    0  0.26649337550E+02 -0.29703265350E+01  0.36104734378E+01  0.27056340293E+02  0.00000000000E+00 0. -1.
        -14    1    6    6    0    0  0.16121114078E+01 -0.36243128482E+02  0.13381733715E+03  0.13864791014E+03  0.00000000000E+00 0.  1.
</event>
<event>
12    1  0.9962621E-001  0.2559047E+03  0.7818608E-02  0.1110137E+00
         21   -1    0    0  503  502  0.00000000000E+00  0.00000000000E+00  0.89735498307E+03  0.89735498307E+03  0.00000000000E+00 0.  1.
         21   -1    0    0  501  503 -0.00000000000E+00 -0.00000000000E+00 -0.10052071553E+03  0.10052071553E+03  0.00000000000E+00 0.  1.
          6    2    1    2  501    0 -0.11176262324E+03 -0.15316623045E+03  0.66213086837E+03  0.70868333300E+03  0.16692513748E+03 0.  0.
         24    2    3    3    0    0 -0.48662650524E+02 -0.99523266644E+02  0.22421166179E+03  0.26297659577E+03  0.81319656175E+02 0.  0.
         -6    2    1    2    0  502  0.11176262324E+03  0.15316623045E+03  0.13470339917E+03  0.28919236559E+03  0.17186168993E+03 0.  0.
        -24    2    5    5    0    0  0.49519719250E+02  0.45318167771E+01  0.34116433762E+02  0.99176061992E+02  0.78735127242E+02 0.  0.
          5    1    3    3  501    0 -0.63099972712E+02 -0.53642963804E+02  0.43791920658E+03  0.44570673723E+03  0.47000000000E+01 0. -1.
        -11    1    4    4    0    0 -0.48928407777E+01 -0.34478439594E+01 -0.67542118892E+01  0.90247934652E+01  0.00000000000E+00 0.  1.
         12    1    4    4    0    0 -0.43769809746E+02 -0.96075422684E+02  0.23096587368E+03  0.25395180230E+03  0.00000000000E+00 0. -1.
         -5    1    5    5    0  502  0.62242903986E+02  0.14863441367E+03  0.10058696541E+03  0.19001630360E+03  0.47000000000E+01 0.  1.
         13    1    6    6    0    0  0.35339550594E+00  0.35003225751E+02  0.91942064333E+01  0.36192321469E+02  0.00000000000E+00 0. -1.
        -14    1    6    6    0    0  0.49166323744E+02 -0.30471408974E+02  0.24922227329E+02  0.62983740524E+02  0.00000000000E+00 0.  1.
</event>
<event>
12    1  0.9962621E-001  0.2030503E+03  0.7818608E-02  0.1147243E+00
         21   -1    0    0  503  502  0.00000000000E+00  0.00000000000E+00  0.21763523320E+03  0.21763523320E+03  0.00000000000E+00 0. -1.
         21   -1    0    0  501  503 -0.00000000000E+00 -0.00000000000E+00 -0.25697607596E+03  0.25697607596E+03  0.00000000000E+00 0. -1.
          6    2    1    2  501    0  0.96715283304E+02  0.45003800128E+02 -0.14152513205E+03  0.24729861605E+03  0.17247624314E+03 0.  0.
         24    2    3    3    0    0  0.85880829838E+02  0.94062429217E+02 -0.90135962779E+02  0.17527729151E+03  0.79839711980E+02 0.  0.
         -6    2    1    2    0  502 -0.96715283304E+02 -0.45003800128E+02  0.10218428929E+03  0.22731269311E+03  0.17277222989E+03 0.  0.
        -24    2    5    5    0    0 -0.85759268078E+02 -0.60449119319E+02  0.93805425707E+01  0.13248011664E+03  0.80338276299E+02 0.  0.
          5    1    3    3  501    0  0.10834453466E+02 -0.49058629089E+02 -0.51389169267E+02  0.72021324536E+02  0.47000000000E+01 0. -1.
        -13    1    4    4    0    0  0.83451266733E+02  0.55542948023E+02 -0.31498493691E+02  0.10507753375E+03  0.00000000000E+00 0.  1.
         14    1    4    4    0    0  0.24295631053E+01  0.38519481194E+02 -0.58637469088E+02  0.70199757759E+02  0.00000000000E+00 0. -1.
         -5    1    5    5    0  502 -0.10956015226E+02  0.15445319191E+02  0.92803746720E+02  0.94832576470E+02  0.47000000000E+01 0.  1.
         11    1    6    6    0    0 -0.14873624000E+02 -0.14274921707E+02 -0.32185777039E+02  0.38222013608E+02  0.00000000000E+00 0. -1.
        -12    1    6    6    0    0 -0.70885644078E+02 -0.46174197612E+02  0.41566319610E+02  0.94258103033E+02  0.00000000000E+00 0.  1.
</event>
<event>
12    1  0.9962621E-001  0.2205590E+03  0.7818608E-02  0.1133491E+00
         21   -1    0    0  501  502  0.00000000000E+00  0.00000000000E+00  0.25553121404E+03  0.25553121404E+03  0.00000000000E+00 0.  1.
         21   -1    0    0  502  503 -0.00000000000E+00 -0.00000000000E+00 -0.20273985790E+03  0.20273985790E+03  0.00000000000E+00 0. -1.
         -6    2    1    2    0  503 -0.68443609421E+02 -0.12029471693E+03  0.83237693055E+02  0.23562055610E+03  0.17156102797E+03 0.  0.
        -24    2    3    3    0    0 -0.42758284428E+02 -0.14540169454E+02 -0.90436195848E+01  0.92856096604E+02  0.80627415973E+02 0.  0.
          6    2    1    2  501    0  0.68443609421E+02  0.12029471693E+03 -0.30446336919E+02  0.22265051584E+03  0.17172922343E+03 0.  0.
         24    2    5    5    0    0  0.11188708514E+03  0.92677675674E+02 -0.38745074714E+02  0.17029599742E+03  0.79947948899E+02 0.  0.
          5    1    5    5  501    0 -0.43443475717E+02  0.27617041256E+02  0.82987377945E+01  0.52354518421E+02  0.47000000000E+01 0. -1.
        -13    1    6    6    0    0  0.23212199191E+02  0.37838701782E+02  0.22090035001E+02  0.49583698835E+02  0.00000000000E+00 0.  1.
         14    1    6    6    0    0  0.88674885947E+02  0.54838973892E+02 -0.60835109715E+02  0.12071229858E+03  0.00000000000E+00 0. -1.
         -5    1    3    3    0  503 -0.25685324994E+02 -0.10575454748E+03  0.92281312640E+02  0.14276445949E+03  0.47000000000E+01 0.  1.
         11    1    4    4    0    0  0.21161178625E+02 -0.67148618952E+00  0.11762471710E+02  0.24219870256E+02  0.00000000000E+00 0. -1.
        -12    1    4    4    0    0 -0.63919463052E+02 -0.13868683264E+02 -0.20806091294E+02  0.68636226348E+02  0.00000000000E+00 0.  1.
</event>
<event>
12    1  0.9962621E-001  0.2196539E+03  0.7818608E-02  0.1134424E+00
         21   -1    0    0  503  502  0.00000000000E+00  0.00000000000E+00  0.13491673504E+04  0.13491673504E+04  0.00000000000E+00 0.  1.
         21   -1    0    0  501  503 -0.00000000000E+00 -0.00000000000E+00 -0.40889233885E+02  0.40889233885E+02  0.00000000000E+00 0.  1.
          6    2    1    2  501    0  0.10759049694E+03  0.80210231884E+02  0.40415593292E+03  0.45998897533E+03  0.17389204403E+03 0.  0.
         24    2    3    3    0    0  0.36337155562E+02 -0.16759634060E+02  0.10370042639E+03  0.13629808117E+03  0.78880379616E+02 0.  0.
         -6    2    1    2    0  502 -0.10759049694E+03 -0.80210231884E+02  0.90412218362E+03  0.93006760898E+03  0.17198673795E+03 0.  0.
        -24    2    5    5    0    0 -0.65796451242E+02  0.11486440686E+02  0.61577650417E+03  0.62458382402E+03  0.80393649149E+02 0.  0.
          5    1    3    3  501    0  0.71253341382E+02  0.96969865943E+02  0.30045550653E+03  0.32369089416E+03  0.47000000000E+01 0. -1.
        -11    1    4    4    0    0  0.82282001507E+01 -0.78197321213E+01  0.10609887362E+03  0.10670436951E+03  0.00000000000E+00 0.  1.
         12    1    4    4    0    0  0.28108955411E+02 -0.89399019386E+01 -0.23984472268E+01  0.29593711664E+02  0.00000000000E+00 0. -1.
         -5    1    5    5    0  502 -0.41794045702E+02 -0.91696672570E+02  0.28834567945E+03  0.30548378496E+03  0.47000000000E+01 0.  1.
         13    1    6    6    0    0 -0.12771769637E+01  0.29108798217E+02  0.32077293923E+03  0.32209351414E+03  0.00000000000E+00 0. -1.
        -14    1    6    6    0    0 -0.64519274278E+02 -0.17622357531E+02  0.29500356494E+03  0.30249030987E+03  0.00000000000E+00 0.  1.
</event>
<event>
12    1  0.9962621E-001  0.1838446E+03  0.7818608E-02  0.1164295E+00
         21   -1    0    0  501  502  0.00000000000E+00  0.00000000000E+00  0.63666613358E+02  0.63666613358E+02  0.00000000000E+00 0. -1.
         21   -1    0    0  502  503 -0.00000000000E+00 -0.00000000000E+00 -0.55008333515E+03  0.55008333515E+03  0.00000000000E+00 0. -1.
         -6    2    1    2    0  503  0.54711807228E+02  0.15560495029E+02 -0.30386635521E+03  0.35515291592E+03  0.17482368546E+03 0.  0.
        -24    2    3    3    0    0 -0.31889749529E+02  0.38391814913E+02 -0.14722805673E+03  0.17465708397E+03  0.79612239723E+02 0.  0.
          6    2    1    2  501    0 -0.54711807228E+02 -0.15560495029E+02 -0.18255036658E+03  0.25859703260E+03  0.17410421612E+03 0.  0.
         24    2    5    5    0    0 -0.75209311442E+02 -0.33850769478E+02 -0.19636343977E+03  0.22749120019E+03  0.79945797661E+02 0.  0.
          5    1    5    5  501    0  0.20497504214E+02  0.18290274450E+02  0.13813073190E+02  0.31105832402E+02  0.47000000000E+01 0. -1.
        -13    1    6    6    0    0 -0.77455381498E+01 -0.52962933166E+00 -0.12012155979E+03  0.12037218530E+03  0.00000000000E+00 0.  1.
         14    1    6    6    0    0 -0.67463773292E+02 -0.33321140147E+02 -0.76241879987E+02  0.10711901489E+03  0.00000000000E+00 0. -1.
         -5    1    3    3    0  503  0.86601556757E+02 -0.22831319885E+02 -0.15663829848E+03  0.18049583195E+03  0.47000000000E+01 0.  1.
         11    1    4    4    0    0  0.22869439513E+01  0.66287558895E+01 -0.12086159379E+03  0.12106483953E+03  0.00000000000E+00 0. -1.
        -12    1    4    4    0    0 -0.34176693480E+02  0.31763059024E+02 -0.26366462944E+02  0.53592244439E+02  0.00000000000E+00 0.  1.
</event>
<event>
12    1  0.9962621E-001  0.2221119E+03  0.7818608E-02  0.1132342E+00
         21   -1    0    0  501  502  0.00000000000E+00  0.00000000000E+00  0.11570632868E+03  0.11570632868E+03  0.00000000000E+00 0.  1.
         21   -1    0    0  502  503 -0.00000000000E+00 -0.00000000000E+00 -0.45124047439E+03  0.45124047439E+03  0.00000000000E+00 0.  1.
         -6    2    1    2    0  503  0.13092617112E+03  0.49927418628E+02 -0.23460264847E+03  0.32297785795E+03  0.17216818707E+03 0.  0.
        -24    2    3    3    0    0 -0.63840906402E+01  0.13964494716E+02 -0.79785436919E+02  0.11288764191E+03  0.78371806324E+02 0.  0.
          6    2    1    2  501    0 -0.13092617112E+03 -0.49927418628E+02 -0.10093149723E+03  0.24396894512E+03  0.17233476038E+03 0.  0.
         24    2    5    5    0    0 -0.10022989631E+03 -0.95965796991E+02 -0.10033358078E+03  0.18843300114E+03  0.78642877502E+02 0.  0.
          5    1    5    5  501    0 -0.30696274802E+02  0.46038378363E+02 -0.59791645167E+00  0.55535943975E+02  0.47000000000E+01 0. -1.
        -11    1    6    6    0    0  0.91361522437E+00  0.95680261350E+01  0.22271472155E+01  0.98662050262E+01  0.00000000000E+00 0.  1.
         12    1    6    6    0    0 -0.10114351154E+03 -0.10553382313E+03 -0.10256072799E+03  0.17856679612E+03  0.00000000000E+00 0. -1.
         -5    1    3    3    0  503  0.13731026176E+03  0.35962923912E+02 -0.15481721156E+03  0.21009021603E+03  0.47000000000E+01 0.  1.
         11    1    4    4    0    0  0.22108599642E+02  0.81928927175E+01  0.42570991483E+01  0.23959060131E+02  0.00000000000E+00 0. -1.
        -12    1    4    4    0    0 -0.28492690282E+02  0.57716019985E+01 -0.84042536068E+02  0.88928581782E+02  0.00000000000E+00 0.  1.
</event>
<event>
12    1  0.9962621E-001  0.2309084E+03  0.7818608E-02  0.1126089E+00
         21   -1    0    0  503  502  0.00000000000E+00  0.00000000000E+00  0.70176448498E+02  0.70176448498E+02  0.00000000000E+00 0.  1.
         21   -1    0    0  501  503 -0.00000000000E+00 -0.00000000000E+00 -0.91964742136E+03  0.91964742136E+03  0.00000000000E+00 0.  1.
          6    2    1    2  501    0 -0.80488362174E+02 -0.13181421827E+03 -0.63250125136E+03  0.67333240724E+03  0.17165469142E+03 0.  0.
         24    2    3    3    0    0 -0.33621376095E+02 -0.12485955577E+03 -0.29387413276E+03  0.33137437302E+03  0.82016239812E+02 0.  0.
         -6    2    1    2    0  502  0.80488362174E+02  0.13181421827E+03 -0.21696972151E+03  0.31649146262E+03  0.17099012041E+03 0.  0.
        -24    2    5    5    0    0  0.55274815659E+02  0.18161484949E+01 -0.10147469850E+03  0.14071771199E+03  0.80285468113E+02 0.  0.
          5    1    3    3  501    0 -0.46866986079E+02 -0.69546624941E+01 -0.33862711860E+03  0.34195803421E+03  0.47000000000E+01 0. -1.
        -13    1    4    4    0    0  0.11451446063E+02 -0.15573875212E+02 -0.11729382245E+03  0.11887607830E+03  0.00000000000E+00 0.  1.
         14    1    4    4    0    0 -0.45072822158E+02 -0.10928568056E+03 -0.17658031031E+03  0.21249829473E+03  0.00000000000E+00 0. -1.
         -5    1    5    5    0  502  0.25213546515E+02  0.12999806977E+03 -0.11549502301E+03  0.17577375063E+03  0.47000000000E+01 0.  1.
         11    1    6    6    0    0  0.42338399663E+02  0.28167742063E+02 -0.98951724906E+02  0.11125378933E+03  0.00000000000E+00 0. -1.
        -12    1    6    6    0    0  0.12936415997E+02 -0.26351593569E+02 -0.25229735910E+01  0.29463922654E+02  0.00000000000E+00 0.  1.
</event>
<event>
12    1  0.9962621E-001  0.2228190E+03  0.7818608E-02  0.1132025E+00
         21   -1    0    0  501  502  0.00000000000E+00  0.00000000000E+00  0.33970587832E+03  0.33970587832E+03  0.00000000000E+00 0.  1.
         21   -1    0    0  502  503 -0.00000000000E+00 -0.00000000000E+00 -0.14787153078E+03  0.14787153078E+03  0.00000000000E+00 0.  1.
         -6    2    1    2    0  503  0.85419546412E+02  0.11286138707E+03  0.12804832065E+03  0.25699155789E+03  0.17208746847E+03 0.  0.
        -24    2    3    3    0    0  0.12545287212E+03  0.10591832883E+03  0.10830259423E+03  0.21157287301E+03  0.77951992726E+02 0.  0.
          6    2    1    2  501    0 -0.85419546412E+02 -0.11286138707E+03  0.63786026885E+02  0.23058585120E+03  0.17049042773E+03 0.  0.
         24    2    5    5    0    0 -0.13763916657E+02 -0.11956101626E+03  0.24844067999E+02  0.14862256388E+03  0.83589214419E+02 0.  0.
          5    1    5    5  501    0 -0.71655629755E+02  0.66996291926E+01  0.38941958886E+02  0.81963287323E+02  0.47000000000E+01 0. -1.
        -13    1    6    6    0    0  0.26069888116E+02 -0.10036071999E+02 -0.48561662669E+01  0.28353909049E+02  0.00000000000E+00 0.  1.
         14    1    6    6    0    0 -0.39833804773E+02 -0.10952494427E+03  0.29700234266E+02  0.12026865483E+03  0.00000000000E+00 0. -1.
         -5    1    3    3    0  503 -0.40033325707E+02  0.69430582390E+01  0.19745726427E+02  0.45418684889E+02  0.47000000000E+01 0.  1.
         11    1    4    4    0    0  0.62639679971E+02  0.86429832324E+02  0.98186264321E+02  0.14503236854E+03  0.00000000000E+00 0. -1.
        -12    1    4    4    0    0  0.62813192147E+02  0.19488496509E+02  0.10116329904E+02  0.66540504466E+02  0.00000000000E+00 0.  1.
</event>
<event>
12    1  0.9962621E-001  0.2112448E+03  0.7818608E-02  0.1140621E+00
         21   -1    0    0  501  502  0.00000000000E+00  0.00000000000E+00  0.14857148076E+04  0.14857148076E+04  0.00000000000E+00 0.  1.
         21   -1    0    0  502  503 -0.00000000000E+00 -0.00000000000E+00 -0.30503251919E+02  0.30503251919E+02  0.00000000000E+00 0.  1.
         -6    2    1    2    0  503 -0.12329176607E+03 -0.36765477988E+01  0.82447581330E+03  0.85110793634E+03  0.17149337017E+03 0.  0.
        -24    2    3    3    0    0 -0.32586969862E+02  0.17721125058E+02  0.58332288518E+03  0.59253097450E+03  0.97218406106E+02 0.  0.
          6    2    1    2  501    0  0.12329176607E+03  0.36765477988E+01  0.63073574236E+03  0.66511012316E+03  0.17125864253E+03 0.  0.
         24    2    5    5    0    0  0.39440544193E+02  0.45148153320E+02  0.19007079681E+03  0.21460084942E+03  0.79578291637E+02 0.  0.
          5    1    5    5  501    0  0.83851221878E+02 -0.41471605522E+02  0.44066494556E+03  0.45050927373E+03  0.47000000000E+01 0. -1.
        -11    1    6    6    0    0  0.46892080978E+02  0.37104957550E+02  0.19395907165E+03  0.20296740282E+03  0.00000000000E+00 0.  1.
         12    1    6    6    0    0 -0.74515367848E+01  0.80431957699E+01 -0.38882748400E+01  0.11633446604E+02  0.00000000000E+00 0. -1.
         -5    1    3    3    0  503 -0.90704796209E+02 -0.21397672857E+02  0.24115292812E+03  0.25857696185E+03  0.47000000000E+01 0.  1.
         11    1    4    4    0    0 -0.43943156818E+02 -0.30855977277E+02  0.27407747021E+03  0.27928757947E+03  0.00000000000E+00 0. -1.
        -12    1    4    4    0    0  0.11356186956E+02  0.48577102335E+02  0.30924541496E+03  0.31324339503E+03  0.00000000000E+00 0.  1.
</event>
<event>
12    1  0.1172151E+000  0.1964373E+03  0.7818608E-02  0.1157829E+00
         21   -1    0    0  501  502  0.00000000000E+00  0.00000000000E+00  0.45658149713E+03  0.45658149713E+03  0.00000000000E+00 0. -1.
         21   -1    0    0  502  503 -0.00000000000E+00 -0.00000000000E+00 -0.21133516261E+03  0.21133516261E+03  0.00000000000E+00 0. -1.
         -6    2    1    2    0  503 -0.31822058055E+02  0.18278155615E+01  0.39294755690E+03  0.43931241950E+03  0.19383404026E+03 0.  0.
        -24    2    3    3    0    0 -0.35600194318E+02  0.54534722281E+02  0.36536136321E+03  0.37951793471E+03  0.79394755933E+02 0.  0.
          6    2    1    2  501    0  0.31822058055E+02 -0.18278155615E+01 -0.14770122238E+03  0.22860424024E+03  0.17154667958E+03 0.  0.
         24    2    5    5    0    0  0.42814529123E+02 -0.42812318466E+02 -0.15532054936E+03  0.18523710934E+03  0.80760975160E+02 0.  0.
          5    1    5    5  501    0 -0.10992471068E+02  0.40984502905E+02  0.76193269799E+01  0.43367130896E+02  0.47000000000E+01 0. -1.
        -13    1    6    6    0    0  0.15070238283E+02 -0.24502018592E+02 -0.25349498261E+01  0.28877101094E+02  0.00000000000E+00 0.  1.
         14    1    6    6    0    0  0.27744290840E+02 -0.18310299874E+02 -0.15278559953E+03  0.15636000825E+03  0.00000000000E+00 0. -1.
         -5    1    3    3    0  503  0.37781362629E+01 -0.52706906719E+02  0.27586193696E+02  0.59794484797E+02  0.47000000000E+01 0.  1.
         13    1    4    4    0    0 -0.37459775457E+02 -0.85212538083E+01  0.11136410100E+03  0.11780411511E+03  0.00000000000E+00 0. -1.
        -14    1    4    4    0    0  0.18595811395E+01  0.63055976089E+02  0.25399726220E+03  0.26171381960E+03  0.00000000000E+00 0.  1.
</event>
<event>
12    1  0.9962621E-001  0.1869732E+03  0.7818608E-02  0.1164604E+00
         21   -1    0    0  501  502  0.00000000000E+00  0.00000000000E+00  0.11327941903E+03  0.11327941903E+03  0.00000000000E+00 0.  1.
         21   -1    0    0  502  503 -0.00000000000E+00 -0.00000000000E+00 -0.40106978053E+03  0.40106978053E+03  0.00000000000E+00 0.  1.
         -6    2    1    2    0  503  0.97259287259E+01  0.18889824466E+02 -0.27768631478E+03  0.32710315369E+03  0.17156737620E+03 0.  0.
        -24    2    3    3    0    0  0.36092349662E+02 -0.11378971726E+02 -0.62472628338E+02  0.10812733537E+03  0.79727991700E+02 0.  0.
          6    2    1    2  501    0 -0.97259287259E+01 -0.18889824466E+02 -0.10104046715E+02  0.18724604587E+03  0.18576213494E+03 0.  0.
         24    2    5    5    0    0  0.41613309816E+02 -0.71046400172E+02 -0.43008000768E+01  0.11368115292E+03  0.78266526158E+02 0.  0.
          5    1    5    5  501    0 -0.51339238542E+02  0.52156575706E+02 -0.58032466385E+01  0.73564892952E+02  0.47000000000E+01 0. -1.
        -11    1    6    6    0    0 -0.25352327285E+01 -0.15033127922E+02 -0.33351885721E+02  0.36671114263E+02  0.00000000000E+00 0.  1.
         12    1    6    6    0    0  0.44148542544E+02 -0.56013272250E+02  0.29051085645E+02  0.77010038658E+02  0.00000000000E+00 0. -1.
         -5    1    3    3    0  503 -0.26366420936E+02  0.30268796192E+02 -0.21521368645E+03  0.21897581832E+03  0.47000000000E+01 0.  1.
         13    1    4    4    0    0  0.66314904194E+01 -0.72849892683E+01 -0.75151053335E+02  0.75793987566E+02  0.00000000000E+00 0. -1.
        -14    1    4    4    0    0  0.29460859242E+02 -0.40939824572E+01  0.12678424997E+02  0.32333347801E+02  0.00000000000E+00 0.  1.
</event>
<event>
12    1  0.9962621E-001  0.2786119E+03  0.7818608E-02  0.1096597E+00
         21   -1    0    0  501  502  0.00000000000E+00  0.00000000000E+00  0.12224144293E+03  0.12224144293E+03  0.00000000000E+00 0. -1.
         21   -1    0    0  502  503 -0.00000000000E+00 -0.00000000000E+00 -0.68689527565E+03  0.68689527565E+03  0.00000000000E+00 0.  1.
         -6    2    1    2    0  503 -0.75570966641E+02  0.20572400643E+03 -0.39659620043E+03  0.48467838158E+03  0.17202107298E+03 0.  0.
        -24    2    3    3    0    0 -0.18858064858E+02  0.26516327120E+02 -0.16090987484E+03  0.18317899580E+03  0.81263857080E+02 0.  0.
          6    2    1    2  501    0  0.75570966641E+02 -0.20572400643E+03 -0.16805763230E+03  0.32445833700E+03  0.17028360713E+03 0.  0.
         24    2    5    5    0    0  0.61912169098E+02 -0.92346393868E+02 -0.20863500953E+02  0.13810048747E+03  0.79217964028E+02 0.  0.
          5    1    5    5  501    0  0.13658797543E+02 -0.11337761256E+03 -0.14719413134E+03  0.18635784953E+03  0.47000000000E+01 0. -1.
        -13    1    6    6    0    0  0.73259848921E+02 -0.93598237639E+02 -0.30997315368E+02  0.12283512980E+03  0.00000000000E+00 0.  1.
         14    1    6    6    0    0 -0.11347679823E+02  0.12518437706E+01  0.10133814416E+02  0.15265357670E+02  0.00000000000E+00 0. -1.
         -5    1    3    3    0  503 -0.56712901783E+02  0.17920767931E+03 -0.23568632559E+03  0.30149938578E+03  0.47000000000E+01 0.  1.
         11    1    4    4    0    0 -0.50135397308E+02  0.20298608161E+02 -0.83854943588E+02  0.99785986595E+02  0.00000000000E+00 0. -1.
        -12    1    4    4    0    0  0.31277332450E+02  0.62177189591E+01 -0.77054931250E+02  0.83393009205E+02  0.00000000000E+00 0.  1.
</event>
<event>
12    1  0.9962621E-001  0.2329570E+03  0.7818608E-02  0.1124602E+00
         21   -1    0    0  501  502  0.00000000000E+00  0.00000000000E+00  0.88890464347E+02  0.88890464347E+02  0.00000000000E+00 0.  1.
         21   -1    0    0  502  503 -0.00000000000E+00 -0.00000000000E+00 -0.61521681726E+03  0.61521681726E+03  0.00000000000E+00 0.  1.
         -6    2    1    2    0  503 -0.11628361955E+03 -0.10614253898E+03 -0.23103470790E+03  0.32798746772E+03  0.17149525932E+03 0.  0.
        -24    2    3    3    0    0 -0.66023341545E+02 -0.19901790344E+02 -0.42062854796E+02  0.11422120860E+03  0.80759134802E+02 0.  0.
          6    2    1    2  501    0  0.11628361955E+03  0.10614253898E+03 -0.29529164501E+03  0.37611981389E+03  0.17169985447E+03 0.  0.
         24    2    5    5    0    0  0.55938672364E+02 -0.12972386654E+02 -0.96418054182E+02  0.13653126389E+03  0.77761989206E+02 0.  0.
          5    1    5    5  501    0  0.60344947184E+02  0.11911492564E+03 -0.19887359083E+03  0.23958855000E+03  0.47000000000E+01 0. -1.
        -11    1    6    6    0    0  0.57117430524E+02  0.18552515581E+02 -0.40845518445E+02  0.72628872227E+02  0.00000000000E+00 0.  1.
         12    1    6    6    0    0 -0.11787581596E+01 -0.31524902235E+02 -0.55572535737E+02  0.63902391661E+02  0.00000000000E+00 0. -1.
         -5    1    3    3    0  503 -0.50260278003E+02 -0.86240748638E+02 -0.18897185310E+03  0.21376625911E+03  0.47000000000E+01 0.  1.
         11    1    4    4    0    0 -0.40736043087E+02 -0.51526471223E+02 -0.24984984794E+02  0.70275542746E+02  0.00000000000E+00 0. -1.
        -12    1    4    4    0    0 -0.25287298458E+02  0.31624680879E+02 -0.17077870002E+02  0.43945665859E+02  0.00000000000E+00 0.  1.
</event>
<event>
12    1  0.9962621E-001  0.2110660E+03  0.7818608E-02  0.1140919E+00
         21   -1    0    0  501  502  0.00000000000E+00  0.00000000000E+00  0.26132618193E+03  0.26132618193E+03  0.00000000000E+00 0.  1.
         21   -1    0    0  502  503 -0.00000000000E+00 -0.00000000000E+00 -0.26329802693E+03  0.26329802693E+03  0.00000000000E+00 0.  1.
         -6    2    1    2    0  503 -0.96944871913E+02 -0.72699562258E+02 -0.15740313143E+03  0.26329567833E+03  0.17281589596E+03 0.  0.
        -24    2    3    3    0    0 -0.11975710627E+03 -0.10083620085E+02 -0.11060796064E+03  0.18172955631E+03  0.79674756260E+02 0.  0.
          6    2    1    2  501    0  0.96944871913E+02  0.72699562258E+02  0.15543128643E+03  0.26132853053E+03  0.17161055190E+03 0.  0.
         24    2    5    5    0    0  0.95327830551E+02 -0.89213673866E+01  0.10292632570E+03  0.16415110579E+03  0.84763028111E+02 0.  0.
          5    1    5    5  501    0  0.16170413625E+01  0.81620929645E+02  0.52504960731E+02  0.97177424746E+02  0.47000000000E+01 0. -1.
        -13    1    6    6    0    0  0.23718471387E+02 -0.33344071599E+02  0.62586450106E+01  0.41395212684E+02  0.00000000000E+00 0.  1.
         14    1    6    6    0    0  0.71609359164E+02  0.24422704213E+02  0.96667680692E+02  0.12275589310E+03  0.00000000000E+00 0. -1.
         -5    1    3    3    0  503  0.22812234357E+02 -0.62615942173E+02 -0.46795170791E+02  0.81566122011E+02  0.47000000000E+01 0.  1.
         11    1    4    4    0    0 -0.34149846284E+02 -0.31475058647E+02 -0.92699248545E+01  0.47358450406E+02  0.00000000000E+00 0. -1.
        -12    1    4    4    0    0 -0.85607259986E+02  0.21391438562E+02 -0.10133803578E+03  0.13437110591E+03  0.00000000000E+00 0.  1.
</event>
<event>
12    1  0.9962621E-001  0.2750074E+03  0.7818608E-02  0.1098809E+00
         21   -1    0    0  501  502  0.00000000000E+00  0.00000000000E+00  0.49191290860E+03  0.49191290860E+03  0.00000000000E+00 0.  1.
         21   -1    0    0  502  503 -0.00000000000E+00 -0.00000000000E+00 -0.18758160839E+03  0.18758160839E+03  0.00000000000E+00 0. -1.
         -6    2    1    2    0  503  0.19938451620E+03  0.77730510489E+02  0.54240381667E+01  0.27506088121E+03  0.17272188809E+03 0.  0.
        -24    2    3    3    0    0  0.16929722222E+03  0.33561227000E+02 -0.51136178490E+02  0.19710372008E+03  0.80293600697E+02 0.  0.
          6    2    1    2  501    0 -0.19938451620E+03 -0.77730510489E+02  0.29890726204E+03  0.40443363578E+03  0.16859655065E+03 0.  0.
         24    2    5    5    0    0 -0.74912876811E+02  0.15643475917E+02  0.80145063748E+02  0.13593618747E+03  0.78732193985E+02 0.  0.
          5    1    5    5  501    0 -0.12447163939E+03 -0.93373986406E+02  0.21876219829E+03  0.26849744831E+03  0.47000000000E+01 0. -1.
        -13    1    6    6    0    0 -0.10153291734E+02  0.38730030100E+02  0.20826048571E+02  0.45131240440E+02  0.00000000000E+00 0.  1.
         14    1    6    6    0    0 -0.64759585077E+02 -0.23086554183E+02  0.59319015178E+02  0.90804947030E+02  0.00000000000E+00 0. -1.
         -5    1    3    3    0  503  0.30087293982E+02  0.44169283489E+02  0.56560216656E+02  0.77957161129E+02  0.47000000000E+01 0.  1.
         11    1    4    4    0    0  0.26902387430E+02  0.39105511632E+02 -0.73897061016E+01  0.48037352609E+02  0.00000000000E+00 0. -1.
        -12    1    4    4    0    0  0.14239483479E+03 -0.55442846326E+01 -0.43746472388E+02  0.14906636748E+03  0.00000000000E+00 0.  1.
</event>
<event>
12    1  0.9962621E-001  0.2184985E+03  0.7818608E-02  0.1135140E+00
         21   -1    0    0  503  502  0.00000000000E+00  0.00000000000E+00  0.10532105731E+03  0.10532105731E+03  0.00000000000E+00 0. -1.
         21   -1    0    0  501  503 -0.00000000000E+00 -0.00000000000E+00 -0.45258908330E+03  0.45258908330E+03  0.00000000000E+00 0. -1.
          6    2    1    2  501    0 -0.35773167719E+02  0.12988961862E+03 -0.16256659891E+03  0.27234074745E+03  0.17201904281E+03 0.  0.
         24    2    3    3    0    0 -0.79060257764E+02  0.39231172757E+02 -0.92556753099E+02  0.14980016446E+03  0.77998252888E+02 0.  0.
         -6    2    1    2    0  502  0.35773167719E+02 -0.12988961862E+03 -0.18470142708E+03  0.28556939316E+03  0.17112635270E+03 0.  0.
        -24    2    5    5    0    0  0.87012208465E+02 -0.11239094544E+03 -0.15350286541E+03  0.22290294991E+03  0.76939887890E+02 0.  0.
          5    1    3    3  501    0  0.43287090045E+02  0.90658445864E+02 -0.70009845807E+02  0.12254058300E+03  0.47000000000E+01 0. -1.
        -11    1    4    4    0    0 -0.82477760329E+02  0.45927779313E+02 -0.50470605030E+02  0.10704776426E+03  0.00000000000E+00 0.  1.
         12    1    4    4    0    0  0.34175025649E+01 -0.66966065559E+01 -0.42086148069E+02  0.42752400195E+02  0.00000000000E+00 0. -1.
         -5    1    5    5    0  502 -0.51239040747E+02 -0.17498673183E+02 -0.31198561666E+02  0.62666443252E+02  0.47000000000E+01 0.  1.
         13    1    6    6    0    0  0.43472924662E+02 -0.37880830715E+01 -0.53052302549E+02  0.68693460808E+02  0.00000000000E+00 0. -1.
        -14    1    6    6    0    0  0.43539283804E+02 -0.10860286237E+03 -0.10045056286E+03  0.15420948910E+03  0.00000000000E+00 0.  1.
</event>
<event>
12    1  0.9962621E-001  0.2961599E+03  0.7818608E-02  0.1087232E+00
         21   -1    0    0  501  502  0.00000000000E+00  0.00000000000E+00  0.26254452400E+03  0.26254452400E+03  0.00000000000E+00 0.  1.
         21   -1    0    0  502  503 -0.00000000000E+00 -0.00000000000E+00 -0.33752035596E+03  0.33752035596E+03  0.00000000000E+00 0.  1.
         -6    2    1    2    0  503  0.23571163002E+03 -0.48933284044E+02 -0.51139250501E+01  0.29620399920E+03  0.17249990753E+03 0.  0.
        -24    2    3    3    0    0  0.20925626606E+03 -0.41385320738E+02 -0.59258565685E+02  0.23528938567E+03  0.79678025465E+02 0.  0.
          6    2    1    2  501    0 -0.23571163002E+03  0.48933284044E+02 -0.69861906915E+02  0.30386088076E+03  0.17174489804E+03 0.  0.
         24    2    5    5    0    0 -0.37556415909E+02  0.43775050483E+01 -0.18676902998E+02  0.94355031320E+02  0.84406150862E+02 0.  0.
          5    1    5    5  501    0 -0.19815521412E+03  0.44555778996E+02 -0.51185003917E+02  0.20950584944E+03  0.47000000000E+01 0. -1.
        -11    1    6    6    0    0 -0.42285107976E+02  0.81759983473E+01  0.25308131079E+02  0.49953766667E+02  0.00000000000E+00 0.  1.
         12    1    6    6    0    0  0.47286920666E+01 -0.37984932990E+01 -0.43985034077E+02  0.44401264653E+02  0.00000000000E+00 0. -1.
         -5    1    3    3    0  503  0.26455363965E+02 -0.75479633058E+01  0.54144640634E+02  0.60914613534E+02  0.47000000000E+01 0.  1.
         13    1    4    4    0    0  0.18143400792E+03 -0.46571908571E+02 -0.22151294786E+02  0.18862110634E+03  0.00000000000E+00 0. -1.
        -14    1    4    4    0    0  0.27822258141E+02  0.51865878323E+01 -0.37107270898E+02  0.46668279322E+02  0.00000000000E+00 0.  1.
</event>
<event>
12    1  0.9962621E-001  0.3923518E+03  0.7818608E-02  0.1046463E+00
         21   -1    0    0  501  502  0.00000000000E+00  0.00000000000E+00  0.12222524985E+03  0.12222524985E+03  0.00000000000E+00 0. -1.
         21   -1    0    0  502  503 -0.00000000000E+00 -0.00000000000E+00 -0.12940647088E+04  0.12940647088E+04  0.00000000000E+00 0. -1.
         -6    2    1    2    0  503 -0.27808669815E+03 -0.21736753559E+03 -0.70183865349E+03  0.80406309423E+03  0.17134499337E+03 0.  0.
        -24    2    3    3    0    0 -0.26996717998E+03 -0.18114233363E+03 -0.68680200218E+03  0.76373465867E+03  0.76803745707E+02 0.  0.
          6    2    1    2  501    0  0.27808669815E+03  0.21736753559E+03 -0.47000080548E+03  0.61222686444E+03  0.17128957697E+03 0.  0.
         24    2    5    5    0    0  0.28476841311E+03  0.16355841833E+03 -0.40196007780E+03  0.52509651933E+03  0.79435792698E+02 0.  0.
          5    1    5    5  501    0 -0.66817149626E+01  0.53809117260E+02 -0.68040727683E+02  0.87130345109E+02  0.47000000000E+01 0. -1.
        -13    1    6    6    0    0  0.87360729908E+02  0.65387083568E+02 -0.81839054302E+02  0.13640014163E+03  0.00000000000E+00 0.  1.
         14    1    6    6    0    0  0.19740768321E+03  0.98171334757E+02 -0.32012102349E+03  0.38869637770E+03  0.00000000000E+00 0. -1.
         -5    1    3    3    0  503 -0.81195181733E+01 -0.36225201958E+02 -0.15036651313E+02  0.40328435564E+02  0.47000000000E+01 0.  1.
         11    1    4    4    0    0 -0.14829441615E+03 -0.11122372987E+03 -0.47263861018E+03  0.50769007059E+03  0.00000000000E+00 0. -1.
        -12    1    4    4    0    0 -0.12167276383E+03 -0.69918603752E+02 -0.21416339200E+03  0.25604458808E+03  0.00000000000E+00 0.  1.
</event>
<event>
12    1  0.9962621E-001  0.2127648E+03  0.7818608E-02  0.1142664E+00
         21   -1    0    0  501  502  0.00000000000E+00  0.00000000000E+00  0.16197690747E+04  0.16197690747E+04  0.00000000000E+00 0. -1.
         21   -1    0    0  502  503 -0.00000000000E+00 -0.00000000000E+00 -0.32145201532E+02  0.32145201532E+02  0.00000000000E+00 0. -1.
         -6    2    1    2    0  503 -0.26372281791E+02 -0.90717431026E+02  0.11333173674E+04  0.11502537556E+04  0.17248274524E+03 0.  0.
        -24    2    3    3    0    0  0.62320526523E+00 -0.19139890041E+02  0.91951513521E+03  0.92312915279E+03  0.79326068135E+02 0.  0.
          6    2    1    2  501    0  0.26372281791E+02  0.90717431026E+02  0.45430650578E+03  0.50166052068E+03  0.19064030863E+03 0.  0.
         24    2    5    5    0    0  0.75743543588E+02  0.63424019691E+02  0.41274948559E+03  0.43143568375E+03  0.77555919802E+02 0.  0.
          5    1    5    5  501    0 -0.49371261797E+02  0.27293411335E+02  0.41557020195E+02  0.70224836925E+02  0.47000000000E+01 0. -1.
        -13    1    6    6    0    0  0.41936530431E+02 -0.62522201700E+01  0.21340063988E+03  0.21757204771E+03  0.00000000000E+00 0.  1.
         14    1    6    6    0    0  0.33807013157E+02  0.69676239861E+02  0.19934884570E+03  0.21386363605E+03  0.00000000000E+00 0. -1.
         -5    1    3    3    0  503 -0.26995487056E+02 -0.71577540984E+02  0.21380223222E+03  0.22712460280E+03  0.47000000000E+01 0.  1.
         13    1    4    4    0    0 -0.25835828411E+02 -0.40001699091E+02  0.49955356862E+03  0.50181808843E+03  0.00000000000E+00 0. -1.
        -14    1    4    4    0    0  0.26459033676E+02  0.20861809050E+02  0.41996156659E+03  0.42131106436E+03  0.00000000000E+00 0.  1.
</event>
<event>
12    1  0.9962621E-001  0.1801581E+03  0.7818608E-02  0.1168270E+00
         21   -1    0    0  501  502  0.00000000000E+00  0.00000000000E+00  0.51466329503E+03  0.51466329503E+03  0.00000000000E+00 0.  1.
         21   -1    0    0  502  503 -0.00000000000E+00 -0.00000000000E+00 -0.64868756371E+02  0.64868756371E+02  0.00000000000E+00 0.  1.
         -6    2    1    2    0  503  0.13232831167E+02 -0.44844186781E+02  0.28547029837E+03  0.33756517698E+03  0.17398519636E+03 0.  0.
        -24    2    3    3    0    0 -0.25369941521E+02  0.26450069436E+01  0.24279276254E+03  0.26280650094E+03  0.97305197187E+02 0.  0.
          6    2    1    2  501    0 -0.13232831167E+02  0.44844186781E+02  0.16432424029E+03  0.24196687442E+03  0.17134585919E+03 0.  0.
         24    2    5    5    0    0 -0.59324810306E+02  0.60005680134E+02  0.15101499300E+03  0.19143403871E+03  0.81983829502E+02 0.  0.
          5    1    5    5  501    0  0.46091979138E+02 -0.15161493353E+02  0.13309247296E+02  0.50532835713E+02  0.47000000000E+01 0. -1.
        -13    1    6    6    0    0 -0.23273817454E+02 -0.18810940271E+02  0.50614473336E+02  0.58799208871E+02  0.00000000000E+00 0.  1.
         14    1    6    6    0    0 -0.36050992852E+02  0.78816620405E+02  0.10040051966E+03  0.13263482984E+03  0.00000000000E+00 0. -1.
         -5    1    3    3    0  503  0.38602772688E+02 -0.47489193724E+02  0.42677535832E+02  0.74758676048E+02  0.47000000000E+01 0.  1.
         13    1    4    4    0    0 -0.37244511308E+02 -0.40789515991E+02  0.14423995108E+03  0.15445420592E+03  0.00000000000E+00 0. -1.
        -14    1    4    4    0    0  0.11874569787E+02  0.43434522935E+02  0.98552811451E+02  0.10835229502E+03  0.00000000000E+00 0.  1.
</event>
<event>
12    1  0.9962621E-001  0.2062771E+03  0.7818608E-02  0.1145528E+00
         21   -1    0    0  501  502  0.00000000000E+00  0.00000000000E+00  0.41657477662E+02  0.41657477662E+02  0.00000000000E+00 0. -1.
         21   -1    0    0  502  503 -0.00000000000E+00 -0.00000000000E+00 -0.10098730339E+04  0.10098730339E+04  0.00000000000E+00 0. -1.
         -6    2    1    2    0  503  0.19956078231E+02  0.10166619291E+03 -0.42133475107E+03  0.46704027196E+03  0.17282761160E+03 0.  0.
        -24    2    3    3    0    0 -0.60617557860E+01  0.10867620680E+03 -0.18379550791E+03  0.22793140549E+03  0.79527819505E+02 0.  0.
          6    2    1    2  501    0 -0.19956078231E+02 -0.10166619291E+03 -0.54688080515E+03  0.58449023958E+03  0.17837030383E+03 0.  0.
         24    2    5    5    0    0 -0.57047693244E+02  0.46886228593E+00 -0.24514012116E+03  0.26374596796E+03  0.78826375520E+02 0.  0.
          5    1    5    5  501    0  0.37091615013E+02 -0.10213505520E+03 -0.30174068399E+03  0.32074427162E+03  0.47000000000E+01 0. -1.
        -11    1    6    6    0    0  0.12195906025E+02 -0.94255077843E+01 -0.11473762427E+03  0.11576831494E+03  0.00000000000E+00 0.  1.
         12    1    6    6    0    0 -0.69243599269E+02  0.98943700703E+01 -0.13040249688E+03  0.14797765302E+03  0.00000000000E+00 0. -1.
         -5    1    3    3    0  503  0.26017834017E+02 -0.70100138833E+01 -0.23753924316E+03  0.23910886647E+03  0.47000000000E+01 0.  1.
         13    1    4    4    0    0 -0.17745657161E+02 -0.58086076807E+01 -0.16757096321E+02  0.25088813212E+02  0.00000000000E+00 0. -1.
        -14    1    4    4    0    0  0.11683901375E+02  0.11448481448E+03 -0.16703841159E+03  0.20284259228E+03  0.00000000000E+00 0.  1.
</event>
<event>
12    1  0.9962621E-001  0.1882606E+03  0.7818608E-02  0.1160151E+00
         21   -1    0    0  503  502  0.00000000000E+00  0.00000000000E+00  0.85633267814E+02  0.85633267814E+02  0.00000000000E+00 0.  1.
         21   -1    0    0  501  503 -0.00000000000E+00 -0.00000000000E+00 -0.63097993203E+03  0.63097993203E+03  0.00000000000E+00 0.  1.
          6    2    1    2  501    0 -0.53839276238E+02  0.52380386981E+02 -0.62214842583E+02  0.19827436273E+03  0.17262579086E+03 0.  0.
         24    2    3    3    0    0 -0.48022019166E+01 -0.23401839939E+02 -0.65720108356E+02  0.10782018945E+03  0.82069198577E+02 0.  0.
         -6    2    1    2    0  502  0.53839276238E+02 -0.52380386981E+02 -0.48313182163E+03  0.51833883711E+03  0.17209421949E+03 0.  0.
        -24    2    5    5    0    0 -0.65708431123E+01  0.12368032386E+02 -0.33904676599E+03  0.34915156339E+03  0.82206815330E+02 0.  0.
          5    1    3    3  501    0 -0.49037074322E+02  0.75782226920E+02  0.35052657728E+01  0.90454173276E+02  0.47000000000E+01 0. -1.
        -11    1    4    4    0    0  0.38019170521E+02 -0.39269503188E+01 -0.25701893968E+02  0.46059370593E+02  0.00000000000E+00 0.  1.
         12    1    4    4    0    0 -0.42821372437E+02 -0.19474889621E+02 -0.40018214388E+02  0.61760818858E+02  0.00000000000E+00 0. -1.
         -5    1    5    5    0  502  0.60410119350E+02 -0.64748419367E+02 -0.14408505564E+03  0.16918727372E+03  0.47000000000E+01 0.  1.
         13    1    6    6    0    0  0.26154827659E+01  0.46924007014E+02 -0.17083821951E+03  0.17718465066E+03  0.00000000000E+00 0. -1.
        -14    1    6    6    0    0 -0.91863258782E+01 -0.34555974628E+02 -0.16820854648E+03  0.17196691273E+03  0.00000000000E+00 0.  1.
</event>
<event>
12    1  0.9962621E-001  0.1827579E+03  0.7818608E-02  0.1166274E+00
         21   -1    0    0  503  502  0.00000000000E+00  0.00000000000E+00  0.39759357466E+03  0.39759357466E+03  0.00000000000E+00 0.  1.
         21   -1    0    0  501  503 -0.00000000000E+00 -0.00000000000E+00 -0.83175980463E+02  0.83175980463E+02  0.00000000000E+00 0.  1.
          6    2    1    2  501    0 -0.18623262741E+02 -0.48990560632E+02  0.18907079960E+03  0.26296050995E+03  0.17508158550E+03 0.  0.
         24    2    3    3    0    0 -0.73155189199E+02 -0.30791701660E+02  0.74688991284E+02  0.13485813860E+03  0.79425824066E+02 0.  0.
         -6    2    1    2    0  502  0.18623262741E+02  0.48990560632E+02  0.12534679459E+03  0.21780904517E+03  0.17024118273E+03 0.  0.
        -24    2    5    5    0    0 -0.17855225801E+02 -0.19009561362E+02  0.18131542268E+02  0.85627741473E+02  0.79518455551E+02 0.  0.
          5    1    3    3  501    0  0.54531926458E+02 -0.18198858972E+02  0.11438180832E+03  0.12810237135E+03  0.47000000000E+01 0. -1.
        -13    1    4    4    0    0  0.96643799808E+01  0.52921382133E+01 -0.70069096965E+01  0.13057708481E+02  0.00000000000E+00 0.  1.
         14    1    4    4    0    0 -0.82819569179E+02 -0.36083839873E+02  0.81695900980E+02  0.12180043011E+03  0.00000000000E+00 0. -1.
         -5    1    5    5    0  502  0.36478488542E+02  0.68000121994E+02  0.10721525232E+03  0.13218130370E+03  0.47000000000E+01 0.  1.
         11    1    6    6    0    0 -0.89170468994E+01  0.28355498361E+02 -0.80226224018E+01  0.30788154912E+02  0.00000000000E+00 0. -1.
        -12    1    6    6    0    0 -0.89381789019E+01 -0.47365059722E+02  0.26154164670E+02  0.54839586561E+02  0.00000000000E+00 0.  1.
</event>
<event>
12    1  0.9962621E-001  0.2211803E+03  0.7818608E-02  0.1134544E+00
         21   -1    0    0  503  502  0.00000000000E+00  0.00000000000E+00  0.13538265312E+03  0.13538265312E+03  0.00000000000E+00 0. -1.
         21   -1    0    0  501  503 -0.00000000000E+00 -0.00000000000E+00 -0.37236028342E+03  0.37236028342E+03  0.00000000000E+00 0. -1.
          6    2    1    2  501    0  0.11682215222E+03 -0.41525218994E+02 -0.55868902327E+02  0.22812733227E+03  0.18316382399E+03 0.  0.
         24    2    3    3    0    0  0.47991840917E+02 -0.92984929019E+02 -0.54104147996E+02  0.14204064417E+03  0.79365432951E+02 0.  0.
         -6    2    1    2    0  502 -0.11682215222E+03  0.41525218994E+02 -0.18110872797E+03  0.27961560426E+03  0.17324189949E+03 0.  0.
        -24    2    5    5    0    0 -0.13723672306E+03  0.25730128617E+02 -0.19120058982E+03  0.25150554809E+03  0.84861166019E+02 0.  0.
          5    1    3    3  501    0  0.68830311300E+02  0.51459710025E+02 -0.17647543304E+01  0.86086688096E+02  0.47000000000E+01 0. -1.
        -11    1    4    4    0    0  0.20448039558E+02  0.10526494902E+02 -0.24673245049E+01  0.23130436808E+02  0.00000000000E+00 0.  1.
         12    1    4    4    0    0  0.27543801359E+02 -0.10351142392E+03 -0.51636823491E+02  0.11891020737E+03  0.00000000000E+00 0. -1.
         -5    1    5    5    0  502  0.20414570841E+02  0.15795090377E+02  0.10091861846E+02  0.28110056175E+02  0.47000000000E+01 0.  1.
         13    1    6    6    0    0 -0.57578844433E+01 -0.11153371642E+02  0.40961996327E+01  0.13203400459E+02  0.00000000000E+00 0. -1.
        -14    1    6    6    0    0 -0.13147883862E+03  0.36883500260E+02 -0.19529678945E+03  0.23830214763E+03  0.00000000000E+00 0.  1.
</event>
<event>
12    1  0.9962621E-001  0.3652355E+03  0.7818608E-02  0.1056752E+00
         21   -1    0    0  501  502  0.00000000000E+00  0.00000000000E+00  0.18208953314E+03  0.18208953314E+03  0.00000000000E+00 0.  1.
         21   -1    0    0  502  503 -0.00000000000E+00 -0.00000000000E+00 -0.89522320989E+03  0.89522320989E+03  0.00000000000E+00 0.  1.
         -6    2    1    2    0  503 -0.29253291123E+03  0.13529862183E+03 -0.58844908058E+03  0.69138108221E+03  0.16689595316E+03 0.  0.
        -24    2    3    3    0    0 -0.26143318463E+03  0.14008363569E+03 -0.58309502429E+03  0.65911894851E+03  0.80419188813E+02 0.  0.
          6    2    1    2  501    0  0.29253291123E+03 -0.13529862183E+03 -0.12468459616E+03  0.38593166082E+03  0.17180156309E+03 0.  0.
         24    2    5    5    0    0  0.47198651787E+02 -0.37702320363E+02 -0.17624797907E+02  0.10097933618E+03  0.78974775355E+02 0.  0.
          5    1    5    5  501    0  0.24533425944E+03 -0.97596301472E+02 -0.10705979825E+03  0.28495232464E+03  0.47000000000E+01 0. -1.
        -11    1    6    6    0    0  0.28624822460E+02 -0.60435113152E+02 -0.23801029772E+02  0.70980788814E+02  0.00000000000E+00 0.  1.
         12    1    6    6    0    0  0.18573829326E+02  0.22732792789E+02  0.61762318648E+01  0.29998547363E+02  0.00000000000E+00 0. -1.
         -5    1    3    3    0  503 -0.31099726599E+02 -0.47850138550E+01 -0.53540562985E+01  0.32262133702E+02  0.47000000000E+01 0.  1.
         11    1    4    4    0    0 -0.80082654875E+02  0.20602060002E+02 -0.23188451905E+03  0.24618713749E+03  0.00000000000E+00 0. -1.
        -12    1    4    4    0    0 -0.18135052975E+03  0.11948157569E+03 -0.35121050523E+03  0.41293181102E+03  0.00000000000E+00 0.  1.
</event>
<event>
12    1  0.9962621E-001  0.2988013E+03  0.7818608E-02  0.1085990E+00
         21   -1    0    0  503  502  0.00000000000E+00  0.00000000000E+00  0.42538490682E+03  0.42538490682E+03  0.00000000000E+00 0.  1.
         21   -1    0    0  501  503 -0.00000000000E+00 -0.00000000000E+00 -0.32046889759E+03  0.32046889759E+03  0.00000000000E+00 0. -1.
          6    2    1    2  501    0 -0.11087710620E+03  0.21595957035E+03  0.27240894402E+03  0.40433754819E+03  0.17421237438E+03 0.  0.
         24    2    3    3    0    0 -0.12374092364E+03  0.22770879856E+03  0.22198118012E+03  0.35077850101E+03  0.81282220182E+02 0.  0.
         -6    2    1    2    0  502  0.11087710620E+03 -0.21595957035E+03 -0.16749293479E+03  0.34151625623E+03  0.17218362685E+03 0.  0.
        -24    2    5    5    0    0  0.17396124797E+02 -0.17558146625E+03 -0.12996402028E+03  0.23289031733E+03  0.78840198468E+02 0.  0.
          5    1    3    3  501    0  0.12863817440E+02 -0.11749228213E+02  0.50427763897E+02  0.53559047176E+02  0.47000000000E+01 0. -1.
        -11    1    4    4    0    0 -0.96532009734E+02  0.93333122657E+02  0.10262736712E+03  0.16900259516E+03  0.00000000000E+00 0.  1.
         12    1    4    4    0    0 -0.27208913908E+02  0.13437567590E+03  0.11935381300E+03  0.18177590585E+03  0.00000000000E+00 0. -1.
         -5    1    5    5    0  502  0.93480981404E+02 -0.40378104101E+02 -0.37528914519E+02  0.10862593889E+03  0.47000000000E+01 0.  1.
         11    1    6    6    0    0  0.35011678712E+02 -0.32065861492E+02 -0.21395170234E+02  0.52074854093E+02  0.00000000000E+00 0. -1.
        -12    1    6    6    0    0 -0.17615553914E+02 -0.14351560475E+03 -0.10856885004E+03  0.18081546324E+03  0.00000000000E+00 0.  1.
</event>
<event>
12    1  0.9962621E-001  0.1906136E+03  0.7818608E-02  0.1158384E+00
         21   -1    0    0  503  502  0.00000000000E+00  0.00000000000E+00  0.16651224509E+03  0.16651224509E+03  0.00000000000E+00 0.  1.
         21   -1    0    0  501  503 -0.00000000000E+00 -0.00000000000E+00 -0.24219093221E+03  0.24219093221E+03  0.00000000000E+00 0.  1.
          6    2    1    2  501    0 -0.65813354093E+02  0.45018798458E+02 -0.10510139988E+03  0.21583211372E+03  0.17081893123E+03 0.  0.
         24    2    3    3    0    0  0.15577919143E+02  0.88036221571E+01 -0.23442517845E+01  0.79754195464E+02  0.77685654079E+02 0.  0.
         -6    2    1    2    0  502  0.65813354093E+02 -0.45018798458E+02  0.29422712762E+02  0.19287106358E+03  0.17313422928E+03 0.  0.
        -24    2    5    5    0    0  0.81958839589E+02 -0.45056456001E+02  0.75556686862E+02  0.14376799152E+03  0.78823136457E+02 0.  0.
          5    1    3    3  501    0 -0.81391273237E+02  0.36215176301E+02 -0.10275714809E+03  0.13607791826E+03  0.47000000000E+01 0. -1.
        -11    1    4    4    0    0  0.17201353734E+02  0.38930384419E+02  0.14789996602E+02  0.45057800665E+02  0.00000000000E+00 0.  1.
         12    1    4    4    0    0 -0.16234345910E+01 -0.30126762262E+02 -0.17134248386E+02  0.34696394799E+02  0.00000000000E+00 0. -1.
         -5    1    5    5    0  502 -0.16145485496E+02  0.37657542648E-01 -0.46133974100E+02  0.49103072066E+02  0.47000000000E+01 0.  1.
         11    1    6    6    0    0  0.17066192503E+02  0.37973292126E+01 -0.14338712824E+02  0.22611353810E+02  0.00000000000E+00 0. -1.
        -12    1    6    6    0    0  0.64892647086E+02 -0.48853785214E+02  0.89895399686E+02  0.12115663771E+03  0.00000000000E+00 0.  1.
</event>
<event>
12    1  0.9962621E-001  0.2469575E+03  0.7818608E-02  0.1115990E+00
         21   -1    0    0  501  502  0.00000000000E+00  0.00000000000E+00  0.67352671080E+03  0.67352671080E+03  0.00000000000E+00 0.  1.
         21   -1    0    0  502  503 -0.00000000000E+00 -0.00000000000E+00 -0.92198388550E+02  0.92198388550E+02  0.00000000000E+00 0.  1.
         -6    2    1    2    0  503 -0.51600063632E+02 -0.16882303752E+03  0.22053479880E+03  0.33109456601E+03  0.17269692990E+03 0.  0.
        -24    2    3    3    0    0 -0.69628252146E+02 -0.47048473416E+02  0.68921415030E+02  0.13574163365E+03  0.81326362943E+02 0.  0.
          6    2    1    2  501    0  0.51600063632E+02  0.16882303752E+03  0.36079352345E+03  0.43463053334E+03  0.16603598822E+03 0.  0.
         24    2    5    5    0    0  0.89136269390E+02  0.15315896963E+03  0.25203774496E+03  0.31842279211E+03  0.80418313549E+02 0.  0.
          5    1    5    5  501    0 -0.37536205757E+02  0.15664067887E+02  0.10875577849E+03  0.11620774123E+03  0.47000000000E+01 0. -1.
        -11    1    6    6    0    0  0.22077692351E+02  0.96020342563E+02  0.87443779300E+02  0.13173361463E+03  0.00000000000E+00 0.  1.
         12    1    6    6    0    0  0.67058577039E+02  0.57138627067E+02  0.16459396566E+03  0.18668917748E+03  0.00000000000E+00 0. -1.
         -5    1    3    3    0  503  0.18028188514E+02 -0.12177456410E+03  0.15161338377E+03  0.19535293236E+03  0.47000000000E+01 0.  1.
         11    1    4    4    0    0 -0.96920434313E+01  0.62086804463E+01 -0.15504319275E+02  0.19309773042E+02  0.00000000000E+00 0. -1.
        -12    1    4    4    0    0 -0.59936208715E+02 -0.53257153863E+02  0.84425734305E+02  0.11643186061E+03  0.00000000000E+00 0.  1.
</event>
<event>
12    1  0.9962621E-001  0.1841734E+03  0.7818608E-02  0.1166883E+00
         21   -1    0    0  503  502  0.00000000000E+00  0.00000000000E+00  0.13172184712E+03  0.13172184712E+03  0.00000000000E+00 0. -1.
         21   -1    0    0  501  503 -0.00000000000E+00 -0.00000000000E+00 -0.39297681252E+03  0.39297681252E+03  0.00000000000E+00 0. -1.
          6    2    1    2  501    0  0.58037566345E+02  0.17189856029E+02 -0.29128984739E+03  0.33809233744E+03  0.16060137978E+03 0.  0.
         24    2    3    3    0    0  0.89893113465E+02  0.72718918197E+01 -0.27526249315E+03  0.30078137417E+03  0.81032972621E+02 0.  0.
         -6    2    1    2    0  502 -0.58037566345E+02 -0.17189856029E+02  0.30034881991E+02  0.18660632219E+03  0.17394244763E+03 0.  0.
        -24    2    5    5    0    0 -0.24585312219E+02  0.19529917045E+02 -0.43778659910E+02  0.97511294221E+02  0.81277464284E+02 0.  0.
          5    1    3    3  501    0 -0.31855547120E+02  0.99179642098E+01 -0.16027354240E+02  0.37310963272E+02  0.47000000000E+01 0. -1.
        -11    1    4    4    0    0  0.35181207849E+01  0.52728362368E+01 -0.14087202412E+03  0.14101456363E+03  0.00000000000E+00 0.  1.
         12    1    4    4    0    0  0.86374992680E+02  0.19990555829E+01 -0.13439046904E+03  0.15976681054E+03  0.00000000000E+00 0. -1.
         -5    1    5    5    0  502 -0.33452254126E+02 -0.36719773075E+02  0.73813541901E+02  0.89095027969E+02  0.47000000000E+01 0.  1.
         13    1    6    6    0    0 -0.53820594306E+02  0.19631334786E+02 -0.23449757631E+02  0.61902639765E+02  0.00000000000E+00 0. -1.
        -14    1    6    6    0    0  0.29235282087E+02 -0.10141774087E+00 -0.20328902279E+02  0.35608654456E+02  0.00000000000E+00 0.  1.
</event>
<event>
12    1  0.9962621E-001  0.2904871E+03  0.7818608E-02  0.1090219E+00
         21   -1    0    0  501  502  0.00000000000E+00  0.00000000000E+00  0.20810643199E+03  0.20810643199E+03  0.00000000000E+00 0. -1.
         21   -1    0    0  502  503 -0.00000000000E+00 -0.00000000000E+00 -0.40418151685E+03  0.40418151685E+03  0.00000000000E+00 0.  1.
         -6    2    1    2    0  503 -0.42196390383E+02  0.22887170835E+03 -0.10091641307E+03  0.30751731384E+03  0.17383895317E+03 0.  0.
        -24    2    3    3    0    0 -0.93147632396E+02  0.18754220347E+03 -0.83196482618E+02  0.23939798493E+03  0.80877567744E+02 0.  0.
          6    2    1    2  501    0  0.42196390383E+02 -0.22887170835E+03 -0.95158671783E+02  0.30477063500E+03  0.17224161198E+03 0.  0.
         24    2    5    5    0    0 -0.41454498227E+01 -0.18975746981E+03 -0.12199876850E+03  0.23828777554E+03  0.76630818564E+02 0.  0.
          5    1    5    5  501    0  0.46341840206E+02 -0.39114238539E+02  0.26840096714E+02  0.66482859459E+02  0.47000000000E+01 0. -1.
        -11    1    6    6    0    0  0.21971657514E+02 -0.10051409532E+03 -0.29276481174E+02  0.10697172263E+03  0.00000000000E+00 0.  1.
         12    1    6    6    0    0 -0.26117107337E+02 -0.89243374491E+02 -0.92722287323E+02  0.13131605291E+03  0.00000000000E+00 0. -1.
         -5    1    3    3    0  503  0.50951242012E+02  0.41329504878E+02 -0.17719930454E+02  0.68119328911E+02  0.47000000000E+01 0.  1.
         13    1    4    4    0    0 -0.81149371603E+02  0.14801768315E+03 -0.98392816800E+02  0.19538577593E+03  0.00000000000E+00 0. -1.
        -14    1    4    4    0    0 -0.11998260793E+02  0.39524520320E+02  0.15196334182E+02  0.44012209001E+02  0.00000000000E+00 0.  1.
</event>
<event>
12    1  0.9962621E-001  0.2095641E+03  0.7818608E-02  0.1142147E+00
         21   -1    0    0  501  502  0.00000000000E+00  0.00000000000E+00  0.91573230535E+02  0.91573230535E+02  0.00000000000E+00 0. -1.
         21   -1    0    0  502  503 -0.00000000000E+00 -0.00000000000E+00 -0.47860601795E+03  0.47860601795E+03  0.00000000000E+00 0. -1.
         -6    2    1    2    0  503 -0.11439244427E+03 -0.29922732082E+02 -0.17695198751E+03  0.27427924300E+03  0.17302050761E+03 0.  0.
        -24    2    3    3    0    0 -0.97209769939E+02  0.15194240000E+02 -0.50808784193E+02  0.13913123816E+03  0.84233987085E+02 0.  0.
          6    2    1    2  501    0  0.11439244427E+03  0.29922732082E+02 -0.21008079990E+03  0.29590000549E+03  0.17158633267E+03 0.  0.
         24    2    5    5    0    0 -0.91464641343E+01  0.21537752993E+02 -0.89899079664E+02  0.12327930672E+03  0.81045729870E+02 0.  0.
          5    1    5    5  501    0  0.12353890841E+03  0.83849790887E+01 -0.12018172024E+03  0.17262069877E+03  0.47000000000E+01 0. -1.
        -11    1    6    6    0    0 -0.89315962134E+01  0.47562171654E+02 -0.83450161690E+02  0.96466901419E+02  0.00000000000E+00 0.  1.
         12    1    6    6    0    0 -0.21486792092E+00 -0.26024418661E+02 -0.64489179748E+01  0.26812405299E+02  0.00000000000E+00 0. -1.
         -5    1    3    3    0  503 -0.17182674334E+02 -0.45116972082E+02 -0.12614320332E+03  0.13514800484E+03  0.47000000000E+01 0.  1.
         11    1    4    4    0    0 -0.69054669934E+02 -0.21997421995E+02 -0.32976268627E+01  0.72548661993E+02  0.00000000000E+00 0. -1.
        -12    1    4    4    0    0 -0.28155100005E+02  0.37191661995E+02 -0.47511157330E+02  0.66582576167E+02  0.00000000000E+00 0.  1.
</event>
<event>
12    1  0.9962621E-001  0.2896330E+03  0.7818608E-02  0.1090579E+00
         21   -1    0    0  501  502  0.00000000000E+00  0.00000000000E+00  0.55758926973E+02  0.55758926973E+02  0.00000000000E+00 0.  1.
         21   -1    0    0  502  503 -0.00000000000E+00 -0.00000000000E+00 -0.16508371943E+04  0.16508371943E+04  0.00000000000E+00 0. -1.
         -6    2    1    2    0  503 -0.18238422403E+03  0.14384379229E+03 -0.10525732381E+04  0.10916172829E+04  0.17251906845E+03 0.  0.
        -24    2    3    3    0    0 -0.94376132555E+02  0.12680755089E+03 -0.87329445649E+03  0.89112132477E+03  0.80417649562E+02 0.  0.
          6    2    1    2  501    0  0.18238422403E+03 -0.14384379229E+03 -0.54250502922E+03  0.61497883838E+03  0.17300931525E+03 0.  0.
         24    2    5    5    0    0  0.17622078896E+03 -0.14062249846E+03 -0.55240401580E+03  0.60200021746E+03  0.80159912754E+02 0.  0.
          5    1    5    5  501    0  0.61634350719E+01 -0.32212938322E+01  0.98989865742E+01  0.12978620922E+02  0.47000000000E+01 0. -1.
        -13    1    6    6    0    0  0.98767170017E+02 -0.82060404285E+02 -0.21049589935E+03  0.24657126245E+03  0.00000000000E+00 0.  1.
         14    1    6    6    0    0  0.77453618945E+02 -0.58562094178E+02 -0.34190811645E+03  0.35542895501E+03  0.00000000000E+00 0. -1.
         -5    1    3    3    0  503 -0.88008091480E+02  0.17036241408E+02 -0.17927878160E+03  0.20049595811E+03  0.47000000000E+01 0.  1.
         11    1    4    4    0    0 -0.12136722643E+02 -0.11176097685E+02 -0.95203968400E+02  0.96622982748E+02  0.00000000000E+00 0. -1.
        -12    1    4    4    0    0 -0.82239409912E+02  0.13798364857E+03 -0.77809048809E+03  0.79449834202E+03  0.00000000000E+00 0.  1.
</event>
<event>
12    1  0.9962621E-001  0.3685144E+03  0.7818608E-02  0.1055269E+00
         21   -1    0    0  501  502  0.00000000000E+00  0.00000000000E+00  0.19666798528E+03  0.19666798528E+03  0.00000000000E+00 0. -1.
         21   -1    0    0  502  503 -0.00000000000E+00 -0.00000000000E+00 -0.73925714630E+03  0.73925714630E+03  0.00000000000E+00 0.  1.
         -6    2    1    2    0  503 -0.32391045273E+03 -0.34416926305E+02 -0.15095243417E+03  0.39816849588E+03  0.17218887167E+03 0.  0.
        -24    2    3    3    0    0 -0.25942216417E+03 -0.24002583178E+02 -0.51788011657E+02  0.27932881145E+03  0.86409510433E+02 0.  0.
          6    2    1    2  501    0  0.32391045273E+03  0.34416926305E+02 -0.39163672685E+03  0.53775663570E+03  0.17233794481E+03 0.  0.
         24    2    5    5    0    0  0.14252920723E+03 -0.37197626472E+02 -0.23240575855E+03  0.28595434887E+03  0.77840957741E+02 0.  0.
          5    1    5    5  501    0  0.18138124550E+03  0.71614552777E+02 -0.15923096830E+03  0.25180228683E+03  0.47000000000E+01 0. -1.
        -13    1    6    6    0    0  0.14098032100E+03 -0.14035298140E+02 -0.21236280938E+03  0.25528494533E+03  0.00000000000E+00 0.  1.
         14    1    6    6    0    0  0.15488862302E+01 -0.23162328332E+02 -0.20042949175E+02  0.30669403547E+02  0.00000000000E+00 0. -1.
         -5    1    3    3    0  503 -0.64488288558E+02 -0.10414343128E+02 -0.99164422509E+02  0.11883968443E+03  0.47000000000E+01 0.  1.
         13    1    4    4    0    0 -0.41694294657E+02  0.16210306301E+02 -0.35883277920E+02  0.57348041567E+02  0.00000000000E+00 0. -1.
        -14    1    4    4    0    0 -0.21772786951E+03 -0.40212889479E+02 -0.15904733738E+02  0.22198076988E+03  0.00000000000E+00 0.  1.
</event>
<event>
12    1  0.9962621E-001  0.2125133E+03  0.7818608E-02  0.1139746E+00
         21   -1    0    0  503  502  0.00000000000E+00  0.00000000000E+00  0.69263993196E+03  0.69263993196E+03  0.00000000000E+00 0. -1.
         21   -1    0    0  501  503 -0.00000000000E+00 -0.00000000000E+00 -0.26180436451E+03  0.26180436451E+03  0.00000000000E+00 0.  1.
          6    2    1    2  501    0  0.74189593554E+02 -0.10001484743E+03 -0.19828597254E+03  0.29065311306E+03  0.17220580632E+03 0.  0.
         24    2    3    3    0    0 -0.73038761162E+01 -0.93648261835E+02 -0.69157087206E+02  0.13775419862E+03  0.73281464066E+02 0.  0.
         -6    2    1    2    0  502 -0.74189593554E+02  0.10001484743E+03  0.62912153999E+03  0.66379118341E+03  0.17122429030E+03 0.  0.
        -24    2    5    5    0    0 -0.55450473221E+02  0.13019888558E+03  0.58461230992E+03  0.60664757177E+03  0.78887379402E+02 0.  0.
          5    1    3    3  501    0  0.81493469671E+02 -0.63665855952E+01 -0.12912888533E+03  0.15289891444E+03  0.47000000000E+01 0. -1.
        -13    1    4    4    0    0  0.10179709483E+02 -0.87359126801E+02 -0.77651395535E+02  0.11732426326E+03  0.00000000000E+00 0.  1.
         14    1    4    4    0    0 -0.17483585599E+02 -0.62891350338E+01  0.84943083295E+01  0.20429935361E+02  0.00000000000E+00 0. -1.
         -5    1    5    5    0  502 -0.18739120334E+02 -0.30184038152E+02  0.44509230069E+02  0.57143611641E+02  0.47000000000E+01 0.  1.
         13    1    6    6    0    0 -0.71613130800E+02  0.75605818382E+02  0.34568455287E+03  0.36102976383E+03  0.00000000000E+00 0. -1.
        -14    1    6    6    0    0  0.16162657579E+02  0.54593067200E+02  0.23892775705E+03  0.24561780794E+03  0.00000000000E+00 0.  1.
</event>
<event>
12    1  0.9962621E-001  0.7040067E+03  0.7818608E-02  0.9710494E-01
         21   -1    0    0  503  502  0.00000000000E+00  0.00000000000E+00  0.60523549793E+03  0.60523549793E+03  0.00000000000E+00 0. -1.
         21   -1    0    0  501  503 -0.00000000000E+00 -0.00000000000E+00 -0.82153178342E+03  0.82153178342E+03  0.00000000000E+00 0. -1.
          6    2    1    2  501    0 -0.25436332275E+03 -0.63287336522E+03 -0.65923679327E+02  0.70708648691E+03  0.17434440659E+03 0.  0.
         24    2    3    3    0    0 -0.89128198089E+02 -0.39859319786E+03 -0.83104791177E+01  0.41462928649E+03  0.70908448557E+02 0.  0.
         -6    2    1    2    0  502  0.25436332275E+03  0.63287336522E+03 -0.15037260616E+03  0.71968079445E+03  0.17349100508E+03 0.  0.
        -24    2    5    5    0    0  0.59313780109E+02  0.32498715846E+03 -0.77446745848E+02  0.34795709127E+03  0.77080226067E+02 0.  0.
          5    1    3    3  501    0 -0.16523512466E+03 -0.23428016736E+03 -0.57613200210E+02  0.29245720042E+03  0.47000000000E+01 0. -1.
        -13    1    4    4    0    0 -0.21144909481E+02 -0.72320449126E+02  0.25718235904E+02  0.79616469507E+02  0.00000000000E+00 0.  1.
         14    1    4    4    0    0 -0.67983288608E+02 -0.32627274874E+03 -0.34028715022E+02  0.33501281699E+03  0.00000000000E+00 0. -1.
         -5    1    5    5    0  502  0.19504954264E+03  0.30788620676E+03 -0.72925860315E+02  0.37172370317E+03  0.47000000000E+01 0.  1.
         13    1    6    6    0    0 -0.16075353491E+02  0.10303073040E+03 -0.32964233972E+02  0.10936356395E+03  0.00000000000E+00 0. -1.
        -14    1    6    6    0    0  0.75389133600E+02  0.22195642805E+03 -0.44482511876E+02  0.23859352733E+03  0.00000000000E+00 0.  1.
</event>
<event>
12    1  0.9962621E-001  0.2823571E+03  0.7818608E-02  0.1095186E+00
         21   -1    0    0  501  502  0.00000000000E+00  0.00000000000E+00  0.18456308987E+03  0.18456308987E+03  0.00000000000E+00 0. -1.
         21   -1    0    0  502  503 -0.00000000000E+00 -0.00000000000E+00 -0.42477351019E+03  0.42477351019E+03  0.00000000000E+00 0. -1.
         -6    2    1    2    0  503  0.19142293378E+03  0.10357174157E+03 -0.10336988741E+03  0.30068397085E+03  0.17987682307E+03 0.  0.
        -24    2    3    3    0    0  0.23660628686E+02  0.13408717921E+02 -0.69649607046E+02  0.10720862578E+03  0.76831000343E+02 0.  0.
          6    2    1    2  501    0 -0.19142293378E+03 -0.10357174157E+03 -0.13684053292E+03  0.30865262921E+03  0.17079598601E+03 0.  0.
         24    2    5    5    0    0 -0.21454892001E+03 -0.99468695825E+02 -0.13648179928E+03  0.28469715148E+03  0.80622118540E+02 0.  0.
          5    1    5    5  501    0  0.23125986230E+02 -0.41030457436E+01 -0.35873364060E+00  0.23955477730E+02  0.47000000000E+01 0. -1.
        -11    1    6    6    0    0 -0.23596381048E+02  0.63455244209E+01  0.44665412561E+01  0.24839582717E+02  0.00000000000E+00 0.  1.
         12    1    6    6    0    0 -0.19095253896E+03 -0.10581422025E+03 -0.14094834054E+03  0.25985756876E+03  0.00000000000E+00 0. -1.
         -5    1    3    3    0  503  0.16776230510E+03  0.90163023648E+02 -0.33720280361E+02  0.19347534507E+03  0.47000000000E+01 0.  1.
         13    1    4    4    0    0  0.46335335391E+01  0.24100141848E+02  0.85749342735E+01  0.25996460681E+02  0.00000000000E+00 0. -1.
        -14    1    4    4    0    0  0.19027095147E+02 -0.10691423927E+02 -0.78224541319E+02  0.81212165098E+02  0.00000000000E+00 0.  1.
</event>
<event>
12    1  0.9962621E-001  0.1854894E+03  0.7818608E-02  0.1162672E+00
         21   -1    0    0  501  502  0.00000000000E+00  0.00000000000E+00  0.59925276541E+03  0.59925276541E+03  0.00000000000E+00 0.  1.
         21   -1    0    0  502  503 -0.00000000000E+00 -0.00000000000E+00 -0.67708310210E+02  0.67708310210E+02  0.00000000000E+00 0.  1.
         -6    2    1    2    0  503 -0.58453027452E+02 -0.34970170689E+02  0.39624463120E+03  0.43736937436E+03  0.17216995273E+03 0.  0.
        -24    2    3    3    0    0 -0.10531635081E+03 -0.44049910725E+02  0.29881488584E+03  0.32877260629E+03  0.75955001568E+02 0.  0.
          6    2    1    2  501    0  0.58453027452E+02  0.34970170689E+02  0.13529982400E+03  0.22959170126E+03  0.17253010652E+03 0.  0.
         24    2    5    5    0    0  0.53270755291E+02 -0.39447224484E+02  0.10810827430E+03  0.15005381705E+03  0.80217779515E+02 0.  0.
          5    1    5    5  501    0  0.51822721615E+01  0.74417395172E+02  0.27191549702E+02  0.79537884207E+02  0.47000000000E+01 0. -1.
        -11    1    6    6    0    0  0.46548602186E+02  0.10551558652E+02  0.27860715983E+02  0.55265968286E+02  0.00000000000E+00 0.  1.
         12    1    6    6    0    0  0.67221531042E+01 -0.49998783136E+02  0.80247558315E+02  0.94787848762E+02  0.00000000000E+00 0. -1.
         -5    1    3    3    0  503  0.46863323361E+02  0.90797400365E+01  0.97429745356E+02  0.10859676807E+03  0.47000000000E+01 0.  1.
         11    1    4    4    0    0 -0.88050368703E+02 -0.42269977379E+02  0.15030500031E+03  0.17925181041E+03  0.00000000000E+00 0. -1.
        -12    1    4    4    0    0 -0.17265982110E+02 -0.17799333458E+01  0.14850988553E+03  0.14952079588E+03  0.00000000000E+00 0.  1.
</event>
<event>
12    1  0.9962621E-001  0.1793296E+03  0.7818608E-02  0.1168563E+00
         21   -1    0    0  503  502  0.00000000000E+00  0.00000000000E+00  0.70655074827E+02  0.70655074827E+02  0.00000000000E+00 0.  1.
         21   -1    0    0  501  503 -0.00000000000E+00 -0.00000000000E+00 -0.96723245711E+03  0.96723245711E+03  0.00000000000E+00 0.  1.
          6    2    1    2  501    0 -0.36259097788E+02 -0.37441861561E+02 -0.70012768489E+02  0.19209314117E+03  0.17111800596E+03 0.  0.
         24    2    3    3    0    0  0.32898109317E+01  0.36386245596E+02 -0.66060858480E+02  0.10811449400E+03  0.77394606178E+02 0.  0.
         -6    2    1    2    0  502  0.36259097788E+02  0.37441861561E+02 -0.82656461379E+03  0.84579439076E+03  0.17158809838E+03 0.  0.
        -24    2    5    5    0    0  0.68559598325E+02  0.61695280144E+01 -0.31886796452E+03  0.33608932030E+03  0.80875032125E+02 0.  0.
          5    1    3    3  501    0 -0.39548908720E+02 -0.73828107158E+02 -0.39519100082E+01  0.83978647168E+02  0.47000000000E+01 0. -1.
        -13    1    4    4    0    0 -0.26385328078E+02  0.34268124330E+02 -0.65337796092E+02  0.78355073104E+02  0.00000000000E+00 0.  1.
         14    1    4    4    0    0  0.29675139010E+02  0.21181212668E+01 -0.72306238812E+00  0.29759420898E+02  0.00000000000E+00 0. -1.
         -5    1    5    5    0  502 -0.32300500537E+02  0.31272333547E+02 -0.50769664927E+03  0.50970507047E+03  0.47000000000E+01 0.  1.
         11    1    6    6    0    0  0.11661315729E+02 -0.28628994910E+01 -0.22916682181E+03  0.22948118593E+03  0.00000000000E+00 0. -1.
        -12    1    6    6    0    0  0.56898282596E+02  0.90324275054E+01 -0.89701142708E+02  0.10660813436E+03  0.00000000000E+00 0.  1.
</event>
<event>
12    1  0.9962621E-001  0.2022435E+03  0.7818608E-02  0.1149225E+00
         21   -1    0    0  503  502  0.00000000000E+00  0.00000000000E+00  0.43052618129E+03  0.43052618129E+03  0.00000000000E+00 0.  1.
         21   -1    0    0  501  503 -0.00000000000E+00 -0.00000000000E+00 -0.14269308286E+03  0.14269308286E+03  0.00000000000E+00 0.  1.
          6    2    1    2  501    0  0.10661097560E+03  0.25185829321E+01  0.31323124028E+03  0.36938722501E+03  0.16419765143E+03 0.  0.
         24    2    3    3    0    0  0.41837925045E+02 -0.33746372321E+02  0.26149607532E+03  0.27878196937E+03  0.80311639368E+02 0.  0.
         -6    2    1    2    0  502 -0.10661097560E+03 -0.25185829321E+01 -0.25398141848E+02  0.20383203914E+03  0.17184350786E+03 0.  0.
        -24    2    5    5    0    0  0.16432018330E+02 -0.39059155958E+01 -0.27794264467E+02  0.80668187098E+02  0.73821188485E+02 0.  0.
          5    1    3    3  501    0  0.64773050550E+02  0.36264955253E+02  0.51735164956E+02  0.90605255643E+02  0.47000000000E+01 0. -1.
        -13    1    4    4    0    0  0.47257609595E+02  0.12795822382E+02  0.11541470771E+03  0.12536973116E+03  0.00000000000E+00 0.  1.
         14    1    4    4    0    0 -0.54196845496E+01 -0.46542194703E+02  0.14608136761E+03  0.15341223821E+03  0.00000000000E+00 0. -1.
         -5    1    5    5    0  502 -0.12304299393E+03  0.13873326637E+01  0.23961226191E+01  0.12316385204E+03  0.47000000000E+01 0.  1.
         11    1    6    6    0    0  0.11395295586E+01  0.34432368273E+02 -0.12919119552E+02  0.36793887570E+02  0.00000000000E+00 0. -1.
        -12    1    6    6    0    0  0.15292488771E+02 -0.38338283869E+02 -0.14875144915E+02  0.43874299528E+02  0.00000000000E+00 0.  1.
</event>
<event>
12    1  0.9962621E-001  0.3760834E+03  0.7818608E-02  0.1052426E+00
         21   -1    0    0  501  502  0.00000000000E+00  0.00000000000E+00  0.46209465879E+03  0.46209465879E+03  0.00000000000E+00 0.  1.
         21   -1    0    0  502  503 -0.00000000000E+00 -0.00000000000E+00 -0.78533683769E+03  0.78533683769E+03  0.00000000000E+00 0.  1.
         -6    2    1    2    0  503  0.32208172832E+03  0.89355644853E+02 -0.64904637570E+03  0.75013325487E+03  0.17238802532E+03 0.  0.
        -24    2    3    3    0    0  0.22773158654E+03  0.11381277641E+03 -0.54832628006E+03  0.60989514236E+03  0.80593744685E+02 0.  0.
          6    2    1    2  501    0 -0.32208172832E+03 -0.89355644853E+02  0.32580419681E+03  0.49729824160E+03  0.17156950620E+03 0.  0.
         24    2    5    5    0    0 -0.10675079199E+03 -0.30010683130E+02  0.19645177014E+03  0.23914445622E+03  0.79375060670E+02 0.  0.
          5    1    5    5  501    0 -0.21533093633E+03 -0.59344961723E+02  0.12935242666E+03  0.25815378538E+03  0.47000000000E+01 0. -1.
        -11    1    6    6    0    0 -0.30078535931E+02 -0.48863567226E+02  0.85352856419E+02  0.10284686006E+03  0.00000000000E+00 0.  1.
         12    1    6    6    0    0 -0.76672256056E+02  0.18852884096E+02  0.11109891372E+03  0.13629759616E+03  0.00000000000E+00 0. -1.
         -5    1    3    3    0  503  0.94350141773E+02 -0.24457131553E+02 -0.10072009564E+03  0.14023811251E+03  0.47000000000E+01 0.  1.
         11    1    4    4    0    0  0.18568767482E+03  0.12310920782E+03 -0.43660107849E+03  0.49015945505E+03  0.00000000000E+00 0. -1.
        -12    1    4    4    0    0  0.42043911727E+02 -0.92964314179E+01 -0.11172520157E+03  0.11973568731E+03  0.00000000000E+00 0.  1.
</event>
<event>
12    1  0.9962621E-001  0.1869516E+03  0.7818608E-02  0.1161250E+00
         21   -1    0    0  501  502  0.00000000000E+00  0.00000000000E+00  0.15902837208E+03  0.15902837208E+03  0.00000000000E+00 0. -1.
         21   -1    0    0  502  503 -0.00000000000E+00 -0.00000000000E+00 -0.35248995161E+03  0.35248995161E+03  0.00000000000E+00 0. -1.
         -6    2    1    2    0  503 -0.43228578095E+02  0.59731249510E+02  0.60239296414E+02  0.19637542431E+03  0.17174982477E+03 0.  0.
        -24    2    3    3    0    0 -0.25268754906E+02  0.11952598066E+02  0.10238862180E+03  0.13001270576E+03  0.75089940801E+02 0.  0.
          6    2    1    2  501    0  0.43228578095E+02 -0.59731249510E+02 -0.25370087595E+03  0.31514289939E+03  0.17179749836E+03 0.  0.
         24    2    5    5    0    0  0.73146601961E+02 -0.60227704463E+02 -0.25806052512E+03  0.28454173666E+03  0.73423181030E+02 0.  0.
          5    1    5    5  501    0 -0.29918023866E+02  0.49645495308E+00  0.43596491649E+01  0.30601162730E+02  0.47000000000E+01 0. -1.
        -11    1    6    6    0    0  0.15976089924E+02 -0.50885333804E+02 -0.71542374430E+02  0.89234880987E+02  0.00000000000E+00 0.  1.
         12    1    6    6    0    0  0.57170512037E+02 -0.93423706591E+01 -0.18651815069E+03  0.19530685567E+03  0.00000000000E+00 0. -1.
         -5    1    3    3    0  503 -0.17959823189E+02  0.47778651444E+02 -0.42149325386E+02  0.66362718549E+02  0.47000000000E+01 0.  1.
         13    1    4    4    0    0  0.49186290368E+01 -0.28356060882E+02  0.47363165395E+02  0.55421372562E+02  0.00000000000E+00 0. -1.
        -14    1    4    4    0    0 -0.30187383943E+02  0.40308658948E+02  0.55025456405E+02  0.74591333197E+02  0.00000000000E+00 0.  1.
</event>
<event>
12    1  0.9962621E-001  0.2839341E+03  0.7818608E-02  0.1093969E+00
         21   -1    0    0  501  502  0.00000000000E+00  0.00000000000E+00  0.49639294988E+02  0.49639294988E+02  0.00000000000E+00 0. -1.
         21   -1    0    0  502  503 -0.00000000000E+00 -0.00000000000E+00 -0.16211867982E+04  0.16211867982E+04  0.00000000000E+00 0. -1.
         -6    2    1    2    0  503 -0.20390960329E+03  0.98299558110E+02 -0.71112118001E+03  0.76571007763E+03  0.17139621024E+03 0.  0.
        -24    2    3    3    0    0 -0.22654736908E+03  0.79329999086E+02 -0.60129114342E+03  0.65188108507E+03  0.76032563577E+02 0.  0.
          6    2    1    2  501    0  0.20390960329E+03 -0.98299558110E+02 -0.86042632321E+03  0.90511601556E+03  0.16631179910E+03 0.  0.
         24    2    5    5    0    0  0.13699185236E+03  0.89270088952E-02 -0.46597157377E+03  0.49309759002E+03  0.85140812924E+02 0.  0.
          5    1    5    5  501    0  0.66917750932E+02 -0.98308485119E+02 -0.39445474944E+03  0.41201842555E+03  0.47000000000E+01 0. -1.
        -11    1    6    6    0    0  0.32741592862E+02 -0.16628952524E+02 -0.25024377386E+03  0.25292386270E+03  0.00000000000E+00 0.  1.
         12    1    6    6    0    0  0.10425025950E+03  0.16637879533E+02 -0.21572779991E+03  0.24017372732E+03  0.00000000000E+00 0. -1.
         -5    1    3    3    0  503  0.22637765791E+02  0.18969559024E+02 -0.10983003659E+03  0.11382899256E+03  0.47000000000E+01 0.  1.
         13    1    4    4    0    0 -0.80359365664E+02  0.51878004451E+02 -0.31576849416E+03  0.32993741361E+03  0.00000000000E+00 0. -1.
        -14    1    4    4    0    0 -0.14618800342E+03  0.27451994635E+02 -0.28552264927E+03  0.32194367147E+03  0.00000000000E+00 0.  1.
</event>
<event>
12    1  0.9962621E-001  0.1940395E+03  0.7818608E-02  0.1155064E+00
         21   -1    0    0  503  502  0.00000000000E+00  0.00000000000E+00  0.10410199167E+03  0.10410199167E+03  0.00000000000E+00 0. -1.
         21   -1    0    0  501  503 -0.00000000000E+00 -0.00000000000E+00 -0.39363365276E+03  0.39363365276E+03  0.00000000000E+00 0. -1.
          6    2    1    2  501    0  0.25520314002E+02  0.83659519871E+02 -0.72337714931E+02  0.20708472009E+03  0.17320835604E+03 0.  0.
         24    2    3    3    0    0 -0.13281105081E+02  0.75372602136E+02  0.10361693150E+02  0.11523971356E+03  0.85530170064E+02 0.  0.
         -6    2    1    2    0  502 -0.25520314002E+02 -0.83659519871E+02 -0.21719394616E+03  0.29065092434E+03  0.17220495893E+03 0.  0.
        -24    2    5    5    0    0  0.20524580845E+02 -0.26252299183E+02 -0.32961316240E+02  0.92208304788E+02  0.79407061854E+02 0.  0.
          5    1    3    3  501    0  0.38801419082E+02  0.82869177348E+01 -0.82699408081E+02  0.91845006535E+02  0.47000000000E+01 0. -1.
        -11    1    4    4    0    0  0.85662201040E+01  0.66281442693E+02 -0.26120005604E+02  0.71755588389E+02  0.00000000000E+00 0.  1.
         12    1    4    4    0    0 -0.21847325185E+02  0.90911594429E+01  0.36481698754E+02  0.43484125169E+02  0.00000000000E+00 0. -1.
         -5    1    5    5    0  502 -0.46044894847E+02 -0.57407220687E+02 -0.18423262992E+03  0.19844261955E+03  0.47000000000E+01 0.  1.
         11    1    6    6    0    0  0.34555221274E+02 -0.45063583625E+02 -0.70074916892E+01  0.57217958948E+02  0.00000000000E+00 0. -1.
        -12    1    6    6    0    0 -0.14030640429E+02  0.18811284441E+02 -0.25953824551E+02  0.34990345840E+02  0.00000000000E+00 0.  1.
</event>
<event>
12    1  0.9962621E-001  0.2533296E+03  0.7818608E-02  0.1111336E+00
         21   -1    0    0  501  502  0.00000000000E+00  0.00000000000E+00  0.44215194601E+03  0.44215194601E+03  0.00000000000E+00 0. -1.
         21   -1    0    0  502  503 -0.00000000000E+00 -0.00000000000E+00 -0.32158580767E+03  0.32158580767E+03  0.00000000000E+00 0. -1.
         -6    2    1    2    0  503 -0.16292778352E+02 -0.18561056567E+03 -0.22296068191E+03  0.33690456962E+03  0.17051828829E+03 0.  0.
        -24    2    3    3    0    0  0.50108170201E+01 -0.60509688903E+02 -0.17558963536E+03  0.20136793769E+03  0.77658196897E+02 0.  0.
          6    2    1    2  501    0  0.16292778352E+02  0.18561056567E+03  0.34352682025E+03  0.42683318406E+03  0.17163669207E+03 0.  0.
         24    2    5    5    0    0 -0.47177258510E+02  0.81672662079E+02  0.22509627801E+03  0.25689373390E+03  0.80186898509E+02 0.  0.
          5    1    5    5  501    0  0.63470036863E+02  0.10393790360E+03  0.11843054224E+03  0.16993945015E+03  0.47000000000E+01 0. -1.
        -11    1    6    6    0    0 -0.55864436238E+02  0.70527736335E+02  0.11558661035E+03  0.14647614591E+03  0.00000000000E+00 0.  1.
         12    1    6    6    0    0  0.86871777275E+01  0.11144925744E+02  0.10950966766E+03  0.11041758799E+03  0.00000000000E+00 0. -1.
         -5    1    3    3    0  503 -0.21303595373E+02 -0.12510087677E+03 -0.47371046548E+02  0.13553663193E+03  0.47000000000E+01 0.  1.
         11    1    4    4    0    0  0.28354986587E+02 -0.41366143656E+02 -0.45152599946E+02  0.67482741402E+02  0.00000000000E+00 0. -1.
        -12    1    4    4    0    0 -0.23344169567E+02 -0.19143545247E+02 -0.13043703541E+03  0.13388519629E+03  0.00000000000E+00 0.  1.
</event>
<event>
12    1  0.9962621E-001  0.2018988E+03  0.7818608E-02  0.1148311E+00
         21   -1    0    0  503  502  0.00000000000E+00  0.00000000000E+00  0.19688224430E+04  0.19688224430E+04  0.00000000000E+00 0. -1.
         21   -1    0    0  501  503 -0.00000000000E+00 -0.00000000000E+00 -0.26138804214E+02  0.26138804214E+02  0.00000000000E+00 0. -1.
          6    2    1    2  501    0  0.56616184392E+01 -0.10516740314E+03  0.14280257850E+04  0.14421178243E+04  0.17132991553E+03 0.  0.
         24    2    3    3    0    0  0.52311982436E+02 -0.50142938961E+02  0.11453234904E+04  0.11503188772E+04  0.78846457825E+02 0.  0.
         -6    2    1    2    0  502 -0.56616184392E+01  0.10516740314E+03  0.51465785381E+03  0.55284342293E+03  0.17225245189E+03 0.  0.
        -24    2    5    5    0    0  0.24618092676E+02 -0.99055558417E+01  0.18477604975E+03  0.20212595624E+03  0.77514792778E+02 0.  0.
          5    1    3    3  501    0 -0.46650363996E+02 -0.55024464182E+02  0.28270229459E+03  0.29179894702E+03  0.47000000000E+01 0. -1.
        -11    1    4    4    0    0  0.13958013006E+02 -0.64482089784E+02  0.73730543795E+03  0.74025135924E+03  0.00000000000E+00 0.  1.
         12    1    4    4    0    0  0.38353969430E+02  0.14339150823E+02  0.40801805242E+03  0.41006751800E+03  0.00000000000E+00 0. -1.
         -5    1    5    5    0  502 -0.30279711115E+02  0.11507295898E+03  0.32988180405E+03  0.35071746669E+03  0.47000000000E+01 0.  1.
         11    1    6    6    0    0  0.49932997241E+02 -0.13456809515E+02  0.15202237214E+03  0.16057768079E+03  0.00000000000E+00 0. -1.
        -12    1    6    6    0    0 -0.25314904565E+02  0.35512536731E+01  0.32753677608E+02  0.41548275447E+02  0.00000000000E+00 0.  1.
</event>
<event>
12    1  0.9962621E-001  0.2065093E+03  0.7818608E-02  0.1144484E+00
         21   -1    0    0  501  502  0.00000000000E+00  0.00000000000E+00  0.11702973233E+04  0.11702973233E+04  0.00000000000E+00 0. -1.
         21   -1    0    0  502  503 -0.00000000000E+00 -0.00000000000E+00 -0.12012844756E+03  0.12012844756E+03  0.00000000000E+00 0.  1.
         -6    2    1    2    0  503  0.10532669622E+03 -0.44473351847E+02  0.10641952632E+04  0.10840468848E+04  0.17197237648E+03 0.  0.
        -24    2    3    3    0    0  0.99708039920E+02  0.13943044446E+02  0.90778834752E+03  0.91692639556E+03  0.80859317705E+02 0.  0.
          6    2    1    2  501    0 -0.10532669622E+03  0.44473351847E+02 -0.14026387484E+02  0.20637888604E+03  0.17124226435E+03 0.  0.
         24    2    5    5    0    0 -0.11020696962E+03  0.53790378598E+02 -0.60267198213E+02  0.15872464559E+03  0.80761358057E+02 0.  0.
          5    1    5    5  501    0  0.48802734049E+01 -0.93170267508E+01  0.46240810729E+02  0.47654240450E+02  0.47000000000E+01 0. -1.
        -11    1    6    6    0    0 -0.52742183788E+02 -0.16996709352E+02 -0.18326513112E+02  0.58365119399E+02  0.00000000000E+00 0.  1.
         12    1    6    6    0    0 -0.57464785835E+02  0.70787087950E+02 -0.41940685100E+02  0.10035952620E+03  0.00000000000E+00 0. -1.
         -5    1    3    3    0  503  0.56186562989E+01 -0.58416396293E+02  0.15640691572E+03  0.16712048928E+03  0.47000000000E+01 0.  1.
         11    1    4    4    0    0  0.74055161710E+02  0.20749461332E+02  0.34306485036E+03  0.35157957659E+03  0.00000000000E+00 0. -1.
        -12    1    4    4    0    0  0.25652878210E+02 -0.68064168860E+01  0.56472349716E+03  0.56534681897E+03  0.00000000000E+00 0.  1.
</event>
<event>
12    1  0.9962621E-001  0.4961865E+03  0.7818608E-02  0.1014830E+00
         21   -1    0    0  503  502  0.00000000000E+00  0.00000000000E+00  0.22352189145E+04  0.22352189145E+04  0.00000000000E+00 0.  1.
         21   -1    0    0  501  503 -0.00000000000E+00 -0.00000000000E+00 -0.34592145123E+03  0.34592145123E+03  0.00000000000E+00 0. -1.
          6    2    1    2  501    0  0.22906503072E+03 -0.40483683847E+03  0.20102730055E+04  0.20704192152E+04  0.17051250939E+03 0.  0.
         24    2    3    3    0    0  0.13869254348E+03 -0.13467409176E+03  0.90920839960E+03  0.93308880913E+03  0.81376158737E+02 0.  0.
         -6    2    1    2    0  502 -0.22906503072E+03  0.40483683847E+03 -0.12097554221E+03  0.51072115057E+03  0.17273493495E+03 0.  0.
        -24    2    5    5    0    0 -0.18316024567E+03  0.38455606164E+03 -0.14223413227E+03  0.45601670057E+03  0.79307267478E+02 0.  0.
          5    1    3    3  501    0  0.90372487237E+02 -0.27016274670E+03  0.11010646059E+04  0.11373304060E+04  0.47000000000E+01 0. -1.
        -11    1    4    4    0    0 -0.29135905001E+01 -0.15409842143E+02  0.23601206106E+02  0.28336710714E+02  0.00000000000E+00 0.  1.
         12    1    4    4    0    0  0.14160613398E+03 -0.11926424962E+03  0.88560719350E+03  0.90475209842E+03  0.00000000000E+00 0. -1.
         -5    1    5    5    0  502 -0.45904785050E+02  0.20280776825E+02  0.21258590059E+02  0.54704450005E+02  0.47000000000E+01 0.  1.
         11    1    6    6    0    0 -0.48434655050E+01  0.72517769077E+02 -0.36862152362E+02  0.81492970659E+02  0.00000000000E+00 0. -1.
        -12    1    6    6    0    0 -0.17831678017E+03  0.31203829256E+03 -0.10537197990E+03  0.37452372991E+03  0.00000000000E+00 0.  1.
</event>
<event>
12    1  0.9962621E-001  0.2167719E+03  0.7818608E-02  0.1136508E+00
         21   -1    0    0  503  502  0.00000000000E+00  0.00000000000E+00  0.46547105774E+02  0.46547105774E+02  0.00000000000E+00 0.  1.
         21   -1    0    0  501  503 -0.00000000000E+00 -0.00000000000E+00 -0.24013725487E+04  0.24013725487E+04  0.00000000000E+00 0.  1.
          6    2    1    2  501    0 -0.12370580347E+03  0.41771558050E+02 -0.24516088548E+03  0.32725205215E+03  0.17303773287E+03 0.  0.
         24    2    3    3    0    0 -0.13159212350E+03 -0.13366354298E+01 -0.12702072042E+03  0.20115804362E+03  0.83737814253E+02 0.  0.
         -6    2    1    2    0  502  0.12370580347E+03 -0.41771558050E+02 -0.21096645575E+04  0.21206676024E+04  0.17175140669E+03 0.  0.
        -24    2    5    5    0    0  0.48208624806E+02 -0.19764831093E+02 -0.49188845295E+03  0.50097450352E+03  0.79413367742E+02 0.  0.
          5    1    3    3  501    0  0.78863200271E+01  0.43108193480E+02 -0.11814016505E+03  0.12609400853E+03  0.47000000000E+01 0. -1.
        -11    1    4    4    0    0  0.25436556662E+01 -0.18113452072E+02 -0.28581062150E+02  0.33932940394E+02  0.00000000000E+00 0.  1.
         12    1    4    4    0    0 -0.13413577917E+03  0.16776816642E+02 -0.98439658272E+02  0.16722510323E+03  0.00000000000E+00 0. -1.
         -5    1    5    5    0  502  0.75497178666E+02 -0.22006726957E+02 -0.16177761045E+04  0.16196930988E+04  0.47000000000E+01 0.  1.
         13    1    6    6    0    0  0.27213017920E+02 -0.19363482770E+02 -0.46791067447E+03  0.46910115337E+03  0.00000000000E+00 0. -1.
        -14    1    6    6    0    0  0.20995606886E+02 -0.40134832292E+00 -0.23977778485E+02  0.31873350154E+02  0.00000000000E+00 0.  1.
</event>
<event>
12    1  0.9962621E-001  0.1827867E+03  0.7818608E-02  0.1166165E+00
         21   -1    0    0  503  502  0.00000000000E+00  0.00000000000E+00  0.27223879621E+02  0.27223879621E+02  0.00000000000E+00 0. -1.
         21   -1    0    0  501  503 -0.00000000000E+00 -0.00000000000E+00 -0.12413934330E+04  0.12413934330E+04  0.00000000000E+00 0. -1.
          6    2    1    2  501    0 -0.18407269704E+02 -0.48320152961E+02 -0.49628984203E+03  0.52888049845E+03  0.17532059086E+03 0.  0.
         24    2    3    3    0    0  0.13305105382E+02 -0.76872512628E+02 -0.19587594748E+03  0.22541466839E+03  0.79736923044E+02 0.  0.
         -6    2    1    2    0  502  0.18407269704E+02  0.48320152961E+02 -0.71787971139E+03  0.73973681421E+03  0.17083796274E+03 0.  0.
        -24    2    5    5    0    0  0.11356473267E+02  0.98220722815E+02 -0.49349458012E+03  0.50971386375E+03  0.80591826009E+02 0.  0.
          5    1    3    3  501    0 -0.31712375087E+02  0.28552359668E+02 -0.30041389455E+03  0.30346583006E+03  0.47000000000E+01 0. -1.
        -11    1    4    4    0    0  0.19606232009E+02 -0.30214517167E+02 -0.15881081220E+02  0.39364071460E+02  0.00000000000E+00 0.  1.
         12    1    4    4    0    0 -0.63011266268E+01 -0.46657995461E+02 -0.17999486626E+03  0.18605059693E+03  0.00000000000E+00 0. -1.
         -5    1    5    5    0  502  0.70507964376E+01 -0.49900569854E+02 -0.22438513127E+03  0.23002295045E+03  0.47000000000E+01 0.  1.
         13    1    6    6    0    0 -0.36335392938E+01  0.65609510132E+01  0.56254934892E-01  0.75001233733E+01  0.00000000000E+00 0. -1.
        -14    1    6    6    0    0  0.14990012561E+02  0.91659771802E+02 -0.49355083506E+03  0.50221374038E+03  0.00000000000E+00 0.  1.
</event>
<event>
12    1  0.9962621E-001  0.4672932E+03  0.7818608E-02  0.1022874E+00
         21   -1    0    0  501  502  0.00000000000E+00  0.00000000000E+00  0.90357179114E+03  0.90357179114E+03  0.00000000000E+00 0.  1.
         21   -1    0    0  502  503 -0.00000000000E+00 -0.00000000000E+00 -0.24180929438E+03  0.24180929438E+03  0.00000000000E+00 0. -1.
         -6    2    1    2    0  503  0.59147197807E+02  0.42726282468E+03  0.28668737646E+03  0.54822677745E+03  0.17975270606E+03 0.  0.
        -24    2    3    3    0    0  0.93279925941E+01  0.39950074189E+03  0.23120254353E+03  0.46851891627E+03  0.79796645028E+02 0.  0.
          6    2    1    2  501    0 -0.59147197807E+02 -0.42726282468E+03  0.37507512030E+03  0.59715430807E+03  0.17280049021E+03 0.  0.
         24    2    5    5    0    0 -0.67601793691E+02 -0.42975820327E+03  0.38480551308E+03  0.58320878371E+03  0.52868579638E+02 0.  0.
          5    1    5    5  501    0  0.84545958839E+01  0.24953785896E+01 -0.97303927836E+01  0.13945524357E+02  0.47000000000E+01 0. -1.
        -13    1    6    6    0    0  0.68993809197E+01 -0.84954474075E+02  0.67239091251E+02  0.10856315910E+03  0.00000000000E+00 0.  1.
         14    1    6    6    0    0 -0.74501174610E+02 -0.34480372919E+03  0.31756642183E+03  0.47464562460E+03  0.00000000000E+00 0. -1.
         -5    1    3    3    0  503  0.49819205213E+02  0.27762082792E+02  0.55484832930E+02  0.79707861182E+02  0.47000000000E+01 0.  1.
         11    1    4    4    0    0 -0.82012089860E+01  0.18562408958E+02  0.33011884463E+02  0.38750578976E+02  0.00000000000E+00 0. -1.
        -12    1    4    4    0    0  0.17529201580E+02  0.38093833293E+03  0.19819065906E+03  0.42976833730E+03  0.00000000000E+00 0.  1.
</event>
<event>
12    1  0.9962621E-001  0.2303906E+03  0.7818608E-02  0.1126707E+00
         21   -1    0    0  501  502  0.00000000000E+00  0.00000000000E+00  0.26485165293E+03  0.26485165293E+03  0.00000000000E+00 0.  1.
         21   -1    0    0  502  503 -0.00000000000E+00 -0.00000000000E+00 -0.23005883404E+03  0.23005883404E+03  0.00000000000E+00 0.  1.
         -6    2    1    2    0  503  0.14517898744E+03 -0.48804771476E+02  0.10877243054E+03  0.25477690785E+03  0.17210748681E+03 0.  0.
        -24    2    3    3    0    0  0.15885713827E+03 -0.72687143741E+02  0.11497640851E+03  0.22617552925E+03  0.86120754022E+02 0.  0.
          6    2    1    2  501    0 -0.14517898744E+03  0.48804771476E+02 -0.73979611649E+02  0.24013357911E+03  0.16950607294E+03 0.  0.
         24    2    5    5    0    0 -0.14491794229E+02  0.52958645535E+02 -0.41371268104E+02  0.10529370664E+03  0.79753072652E+02 0.  0.
          5    1    5    5  501    0 -0.13068719321E+03 -0.41538740594E+01 -0.32608343544E+02  0.13483987247E+03  0.47000000000E+01 0. -1.
        -11    1    6    6    0    0  0.16028875507E+02 -0.11325181624E+02 -0.25855483426E+02  0.32460600919E+02  0.00000000000E+00 0.  1.
         12    1    6    6    0    0 -0.30520669736E+02  0.64283827159E+02 -0.15515784679E+02  0.72833105725E+02  0.00000000000E+00 0. -1.
         -5    1    3    3    0  503 -0.13678150834E+02  0.23882372266E+02 -0.62039779648E+01  0.28601378601E+02  0.47000000000E+01 0.  1.
         13    1    4    4    0    0  0.58096546878E+02 -0.51728181640E+02  0.92449135351E+02  0.12082158815E+03  0.00000000000E+00 0. -1.
        -14    1    4    4    0    0  0.10076059139E+03 -0.20958962101E+02  0.22527273156E+02  0.10535394111E+03  0.00000000000E+00 0.  1.
</event>
<event>
12    1  0.9962621E-001  0.2063843E+03  0.7818608E-02  0.1144758E+00
         21   -1    0    0  501  502  0.00000000000E+00  0.00000000000E+00  0.29266806515E+03  0.29266806515E+03  0.00000000000E+00 0. -1.
         21   -1    0    0  502  503 -0.00000000000E+00 -0.00000000000E+00 -0.24475894128E+03  0.24475894128E+03  0.00000000000E+00 0. -1.
         -6    2    1    2    0  503 -0.43847901692E+02 -0.10176266615E+03 -0.14796623930E+03  0.25394586759E+03  0.17411552771E+03 0.  0.
        -24    2    3    3    0    0  0.11635243251E+02 -0.80175509505E+01 -0.11466845503E+03  0.13993990971E+03  0.78959886906E+02 0.  0.
          6    2    1    2  501    0  0.43847901692E+02  0.10176266615E+03  0.19587536317E+03  0.28348113884E+03  0.17238364040E+03 0.  0.
         24    2    5    5    0    0 -0.53433211509E+01  0.69945056669E+02  0.19873099472E+03  0.22463913590E+03  0.77768059539E+02 0.  0.
          5    1    5    5  501    0  0.49191222842E+02  0.31817609477E+02 -0.28556315515E+01  0.58842002933E+02  0.47000000000E+01 0. -1.
        -11    1    6    6    0    0  0.20641586512E+02  0.60022397625E+02  0.77087794697E+02  0.99856353837E+02  0.00000000000E+00 0.  1.
         12    1    6    6    0    0 -0.25984907663E+02  0.99226590437E+01  0.12164320002E+03  0.12478278207E+03  0.00000000000E+00 0. -1.
         -5    1    3    3    0  503 -0.55483144943E+02 -0.93745115196E+02 -0.33297784261E+02  0.11400595788E+03  0.47000000000E+01 0.  1.
         13    1    4    4    0    0 -0.15712509092E+01  0.33602583090E+02 -0.31899718188E+02  0.46359405089E+02  0.00000000000E+00 0. -1.
        -14    1    4    4    0    0  0.13206494160E+02 -0.41620134040E+02 -0.82768736846E+02  0.93580504618E+02  0.00000000000E+00 0.  1.
</event>
<event>
12    1  0.9962621E-001  0.2698958E+03  0.7818608E-02  0.1101491E+00
         21   -1    0    0  501  502  0.00000000000E+00  0.00000000000E+00  0.50734773444E+03  0.50734773444E+03  0.00000000000E+00 0. -1.
         21   -1    0    0  502  503 -0.00000000000E+00 -0.00000000000E+00 -0.49761962637E+03  0.49761962637E+03  0.00000000000E+00 0. -1.
         -6    2    1    2    0  503  0.18595516159E+03 -0.92816799205E+02 -0.41930912285E+03  0.49866210507E+03  0.17219022676E+03 0.  0.
        -24    2    3    3    0    0  0.13020943139E+03 -0.64349319640E+02 -0.39982313097E+03  0.43293708922E+03  0.80502522962E+02 0.  0.
          6    2    1    2  501    0 -0.18595516159E+03  0.92816799205E+02  0.42903723092E+03  0.50630525574E+03  0.17052209867E+03 0.  0.
         24    2    5    5    0    0 -0.32744941693E+02  0.18958310998E+02  0.14233668728E+03  0.17291698437E+03  0.90602992093E+02 0.  0.
          5    1    5    5  501    0 -0.15321021990E+03  0.73858488206E+02  0.28670054364E+03  0.33338827136E+03  0.47000000000E+01 0. -1.
        -13    1    6    6    0    0 -0.16288590007E+02  0.51843015533E+02  0.51286999983E+02  0.74721969936E+02  0.00000000000E+00 0.  1.
         14    1    6    6    0    0 -0.16456351686E+02 -0.32884704534E+02  0.91049687298E+02  0.98195014436E+02  0.00000000000E+00 0. -1.
         -5    1    3    3    0  503  0.55745730202E+02 -0.28467479564E+02 -0.19485991874E+02  0.65725015845E+02  0.47000000000E+01 0.  1.
         11    1    4    4    0    0  0.99633727076E+01 -0.28057242859E+02 -0.15435356977E+03  0.15719892548E+03  0.00000000000E+00 0. -1.
        -12    1    4    4    0    0  0.12024605868E+03 -0.36292076782E+02 -0.24546956120E+03  0.27573816374E+03  0.00000000000E+00 0.  1.
</event>
<event>
12    1  0.9962621E-001  0.5310795E+03  0.7818608E-02  0.1006024E+00
         21   -1    0    0  501  502  0.00000000000E+00  0.00000000000E+00  0.19880751365E+04  0.19880751365E+04  0.00000000000E+00 0.  1.
         21   -1    0    0  502  503 -0.00000000000E+00 -0.00000000000E+00 -0.37401968891E+03  0.37401968891E+03  0.00000000000E+00 0.  1.
         -6    2    1    2    0  503  0.34322668259E+03 -0.36633519200E+03  0.17377199679E+04  0.18168074573E+04  0.17062421142E+03 0.  0.
        -24    2    3    3    0    0  0.33110885559E+03 -0.28978183546E+03  0.13748901281E+04  0.14457618526E+04  0.79359206355E+02 0.  0.
          6    2    1    2  501    0 -0.34322668259E+03  0.36633519200E+03 -0.12366452035E+03  0.54528736808E+03  0.17331869965E+03 0.  0.
         24    2    5    5    0    0 -0.11661570416E+03  0.14546474491E+03  0.76186310840E+01  0.20265980673E+03  0.79080587096E+02 0.  0.
          5    1    5    5  501    0 -0.22661097843E+03  0.22087044709E+03 -0.13128315144E+03  0.34262756135E+03  0.47000000000E+01 0. -1.
        -13    1    6    6    0    0  0.96334660001E+01 -0.23738189266E+00  0.16562320391E+01  0.97776848950E+01  0.00000000000E+00 0.  1.
         14    1    6    6    0    0 -0.12624917016E+03  0.14570212680E+03  0.59623990450E+01  0.19288212183E+03  0.00000000000E+00 0. -1.
         -5    1    3    3    0  503  0.12117827000E+02 -0.76553356543E+02  0.36282983979E+03  0.37104560471E+03  0.47000000000E+01 0.  1.
         11    1    4    4    0    0  0.26162146450E+03 -0.19348849940E+03  0.10767384851E+04  0.11248330344E+04  0.00000000000E+00 0. -1.
        -12    1    4    4    0    0  0.69487391093E+02 -0.96293336053E+02  0.29815164305E+03  0.32092881819E+03  0.00000000000E+00 0.  1.
</event>
<event>
12    1  0.9962621E-001  0.1851891E+03  0.7818608E-02  0.1163020E+00
         21   -1    0    0  503  502  0.00000000000E+00  0.00000000000E+00  0.26213596087E+03  0.26213596087E+03  0.00000000000E+00 0.  1.
         21   -1    0    0  501  503 -0.00000000000E+00 -0.00000000000E+00 -0.19564475338E+03  0.19564475338E+03  0.00000000000E+00 0.  1.
          6    2    1    2  501    0  0.55324419552E+02 -0.38317050078E+02  0.16540274235E+03  0.24783189256E+03  0.17185340285E+03 0.  0.
         24    2    3    3    0    0 -0.84253933874E+01  0.25686646653E+02  0.65552833747E+02  0.11310028494E+03  0.88111913900E+02 0.  0.
         -6    2    1    2    0  502 -0.55324419552E+02  0.38317050078E+02 -0.98911534858E+02  0.20994882169E+03  0.17252834050E+03 0.  0.
        -24    2    5    5    0    0  0.42244007864E+01  0.62681355112E+02 -0.99162405160E+02  0.14543654147E+03  0.85859228726E+02 0.  0.
          5    1    3    3  501    0  0.63749812939E+02 -0.64003696731E+02  0.99849908601E+02  0.13473160762E+03  0.47000000000E+01 0. -1.
        -13    1    4    4    0    0 -0.17860864541E+02  0.34785798151E+02  0.82722414011E+02  0.91498961824E+02  0.00000000000E+00 0.  1.
         14    1    4    4    0    0  0.94354711532E+01 -0.90991514974E+01 -0.17169580264E+02  0.21601323115E+02  0.00000000000E+00 0. -1.
         -5    1    5    5    0  502 -0.59548820338E+02 -0.24364305035E+02  0.25087030276E+00  0.64512280222E+02  0.47000000000E+01 0.  1.
         11    1    6    6    0    0 -0.26421628814E+02 -0.62947579631E+01 -0.44907119328E+02  0.52482147568E+02  0.00000000000E+00 0. -1.
        -12    1    6    6    0    0  0.30646029601E+02  0.68976113076E+02 -0.54255285833E+02  0.92954393904E+02  0.00000000000E+00 0.  1.
</event>
<event>
12    1  0.9962621E-001  0.1941512E+03  0.7818608E-02  0.1155064E+00
         21   -1    0    0  501  502  0.00000000000E+00  0.00000000000E+00  0.71560599784E+03  0.71560599784E+03  0.00000000000E+00 0. -1.
         21   -1    0    0  502  503 -0.00000000000E+00 -0.00000000000E+00 -0.52366122938E+02  0.52366122938E+02  0.00000000000E+00 0. -1.
         -6    2    1    2    0  503 -0.76522147354E+02 -0.51583752420E+02  0.32057878623E+03  0.37478718104E+03  0.17081613022E+03 0.  0.
        -24    2    3    3    0    0 -0.33225838356E+02 -0.41985394145E+02  0.65668924793E+02  0.11600575530E+03  0.79235080125E+02 0.  0.
          6    2    1    2  501    0  0.76522147354E+02  0.51583752420E+02  0.34266108868E+03  0.39318493974E+03  0.16929634548E+03 0.  0.
         24    2    5    5    0    0  0.36572950332E+02  0.56297273069E+02  0.91332005017E+02  0.13861362574E+03  0.79782444485E+02 0.  0.
          5    1    5    5  501    0  0.39949197022E+02 -0.47135206483E+01  0.25132908366E+03  0.25457131400E+03  0.47000000000E+01 0. -1.
        -13    1    6    6    0    0  0.44587475123E+02  0.31886099387E+02  0.97804117997E+02  0.11211784768E+03  0.00000000000E+00 0.  1.
         14    1    6    6    0    0 -0.80145247910E+01  0.24411173682E+02 -0.64721129799E+01  0.26495778052E+02  0.00000000000E+00 0. -1.
         -5    1    3    3    0  503 -0.43296308999E+02 -0.95983582754E+01  0.25490986143E+03  0.25878142574E+03  0.47000000000E+01 0.  1.
         11    1    4    4    0    0 -0.54620218746E+02 -0.11794350538E+02  0.25598405957E+02  0.61463431307E+02  0.00000000000E+00 0. -1.
        -12    1    4    4    0    0  0.21394380391E+02 -0.30191043607E+02  0.40070518836E+02  0.54542323989E+02  0.00000000000E+00 0.  1.
</event>
<event>
12    1  0.9962621E-001  0.6708947E+03  0.7818608E-02  0.9768674E-01
         21   -1    0    0  503  502  0.00000000000E+00  0.00000000000E+00  0.65217081418E+03  0.65217081418E+03  0.00000000000E+00 0. -1.
         21   -1    0    0  501  503 -0.00000000000E+00 -0.00000000000E+00 -0.69718347729E+03  0.69718347729E+03  0.00000000000E+00 0. -1.
          6    2    1    2  501    0  0.64872618494E+03 -0.12063834451E+02 -0.93798556019E+02  0.67741999396E+03  0.17061207454E+03 0.  0.
         24    2    3    3    0    0  0.55346560244E+03 -0.21442650477E+01 -0.27874086924E+02  0.56105375289E+03  0.87610375831E+02 0.  0.
         -6    2    1    2    0  502 -0.64872618494E+03  0.12063834451E+02  0.48785892904E+02  0.67193429751E+03  0.16770342185E+03 0.  0.
        -24    2    5    5    0    0 -0.38047393927E+03 -0.46955673530E+02  0.63905828760E+02  0.39681019445E+03  0.80056990485E+02 0.  0.
          5    1    3    3  501    0  0.95260582500E+02 -0.99195694029E+01 -0.65924469095E+02  0.11636624107E+03  0.47000000000E+01 0. -1.
        -11    1    4    4    0    0  0.26901498659E+03  0.28733548556E+02  0.18593753490E+02  0.27118334663E+03  0.00000000000E+00 0.  1.
         12    1    4    4    0    0  0.28445061585E+03 -0.30877813604E+02 -0.46467840414E+02  0.28987040626E+03  0.00000000000E+00 0. -1.
         -5    1    5    5    0  502 -0.26825224566E+03  0.59019507981E+02 -0.15119935856E+02  0.27512410306E+03  0.47000000000E+01 0.  1.
         13    1    6    6    0    0 -0.56580404491E+02 -0.27180569442E+02  0.32807039607E+02  0.70826741951E+02  0.00000000000E+00 0. -1.
        -14    1    6    6    0    0 -0.32389353478E+03 -0.19775104088E+02  0.31098789154E+02  0.32598345250E+03  0.00000000000E+00 0.  1.
</event>
<event>
12    1  0.9962621E-001  0.2692805E+03  0.7818608E-02  0.1101892E+00
         21   -1    0    0  503  502  0.00000000000E+00  0.00000000000E+00  0.12643502404E+04  0.12643502404E+04  0.00000000000E+00 0.  1.
         21   -1    0    0  501  503 -0.00000000000E+00 -0.00000000000E+00 -0.58455326559E+02  0.58455326559E+02  0.00000000000E+00 0.  1.
          6    2    1    2  501    0 -0.19622865807E+03  0.65560307664E+02  0.70376806460E+03  0.75303074689E+03  0.17018218712E+03 0.  0.
         24    2    3    3    0    0 -0.52888368700E+02  0.70180735921E+02  0.24722847742E+03  0.27447221172E+03  0.80564010090E+02 0.  0.
         -6    2    1    2    0  502  0.19622865807E+03 -0.65560307664E+02  0.50212684923E+03  0.56977482006E+03  0.17236047306E+03 0.  0.
        -24    2    5    5    0    0  0.59918245445E+02 -0.82244782754E+02  0.21243686757E+03  0.24914843972E+03  0.81185724639E+02 0.  0.
          5    1    3    3  501    0 -0.14334028937E+03 -0.46204282569E+01  0.45653958718E+03  0.47855853516E+03  0.47000000000E+01 0. -1.
        -11    1    4    4    0    0 -0.50575515809E+02  0.69503828269E+02  0.25354079644E+03  0.26771552141E+03  0.00000000000E+00 0.  1.
         12    1    4    4    0    0 -0.23128528913E+01  0.67690765152E+00 -0.63123190245E+01  0.67566903091E+01  0.00000000000E+00 0. -1.
         -5    1    5    5    0  502  0.13631041262E+03  0.16684475090E+02  0.28968998166E+03  0.32062638035E+03  0.47000000000E+01 0.  1.
         11    1    6    6    0    0  0.35892440832E+02  0.77226615126E+01  0.52193658035E+02  0.63812888579E+02  0.00000000000E+00 0. -1.
        -12    1    6    6    0    0  0.24025804613E+02 -0.89967444266E+02  0.16024320953E+03  0.18533555114E+03  0.00000000000E+00 0.  1.
</event>
<event>
12    1  0.9962621E-001  0.5955283E+03  0.7818608E-02  0.9915028E-01
         21   -1    0    0  503  502  0.00000000000E+00  0.00000000000E+00  0.41457869798E+03  0.41457869798E+03  0.00000000000E+00 0.  1.
         21   -1    0    0  501  503 -0.00000000000E+00 -0.00000000000E+00 -0.10480650062E+04  0.10480650062E+04  0.00000000000E+00 0. -1.
          6    2    1    2  501    0  0.13388019779E+03  0.55425187500E+03 -0.63080064766E+03  0.86710935124E+03  0.16985323553E+03 0.  0.
         24    2    3    3    0    0  0.12967310747E+03  0.26135846808E+03 -0.34107399377E+03  0.45508038212E+03  0.75122042829E+02 0.  0.
         -6    2    1    2    0  502 -0.13388019779E+03 -0.55425187500E+03 -0.26856605391E+01  0.59553435291E+03  0.17185722105E+03 0.  0.
        -24    2    5    5    0    0 -0.63212273301E+02 -0.43846796991E+03 -0.48263276979E+02  0.45235866591E+03  0.77775745478E+02 0.  0.
          5    1    3    3  501    0  0.42070903102E+01  0.29289340692E+03 -0.28972665389E+03  0.41202896913E+03  0.47000000000E+01 0. -1.
        -13    1    4    4    0    0  0.10474263854E+03  0.16178766125E+03 -0.26328354022E+03  0.32628896735E+03  0.00000000000E+00 0.  1.
         14    1    4    4    0    0  0.24930468935E+02  0.99570806831E+02 -0.77790453549E+02  0.12879141477E+03  0.00000000000E+00 0. -1.
         -5    1    5    5    0  502 -0.70667924485E+02 -0.11578390509E+03  0.45577616440E+02  0.14317568701E+03  0.47000000000E+01 0.  1.
         13    1    6    6    0    0 -0.27432544438E+02 -0.20923156167E+03  0.15951384767E+02  0.21162428398E+03  0.00000000000E+00 0. -1.
        -14    1    6    6    0    0 -0.35779728862E+02 -0.22923640824E+03 -0.64214661746E+02  0.24073438193E+03  0.00000000000E+00 0.  1.
</event>
<event>
12    1  0.9962621E-001  0.3719312E+03  0.7818608E-02  0.1054061E+00
         21   -1    0    0  501  502  0.00000000000E+00  0.00000000000E+00  0.12519314996E+03  0.12519314996E+03  0.00000000000E+00 0. -1.
         21   -1    0    0  502  503 -0.00000000000E+00 -0.00000000000E+00 -0.15494824716E+04  0.15494824716E+04  0.00000000000E+00 0. -1.
         -6    2    1    2    0  503  0.30350160752E+03  0.12824747579E+03 -0.11630191247E+04  0.12210431092E+04  0.17254607880E+03 0.  0.
        -24    2    3    3    0    0  0.29427853688E+03  0.14262322974E+03 -0.96035349559E+03  0.10176047290E+04  0.79368161048E+02 0.  0.
          6    2    1    2  501    0 -0.30350160752E+03 -0.12824747579E+03 -0.26127019700E+03  0.45363251240E+03  0.17017549664E+03 0.  0.
         24    2    5    5    0    0 -0.29308044796E+03 -0.15455165868E+03 -0.24743974643E+03  0.42179099913E+03  0.83059344207E+02 0.  0.
          5    1    5    5  501    0 -0.10421159562E+02  0.26304182895E+02 -0.13830450568E+02  0.31841513270E+02  0.47000000000E+01 0. -1.
        -11    1    6    6    0    0 -0.12768634918E+03 -0.26815425601E+02 -0.11838488845E+03  0.17617563007E+03  0.00000000000E+00 0.  1.
         12    1    6    6    0    0 -0.16539409878E+03 -0.12773623308E+03 -0.12905485798E+03  0.24561536907E+03  0.00000000000E+00 0. -1.
         -5    1    3    3    0  503  0.92230706447E+01 -0.14375753951E+02 -0.20266562909E+03  0.20343838023E+03  0.47000000000E+01 0.  1.
         11    1    4    4    0    0  0.11830188420E+03  0.23752481921E+02 -0.42097087420E+03  0.43792235970E+03  0.00000000000E+00 0. -1.
        -12    1    4    4    0    0  0.17597665268E+03  0.11887074781E+03 -0.53938262139E+03  0.57968236926E+03  0.00000000000E+00 0.  1.
</event>
<event>
12    1  0.9962621E-001  0.2829166E+03  0.7818608E-02  0.1094832E+00
         21   -1    0    0  501  502  0.00000000000E+00  0.00000000000E+00  0.13669900044E+03  0.13669900044E+03  0.00000000000E+00 0. -1.
         21   -1    0    0  502  503 -0.00000000000E+00 -0.00000000000E+00 -0.57528710761E+03  0.57528710761E+03  0.00000000000E+00 0. -1.
         -6    2    1    2    0  503 -0.20369305480E+01  0.22431076562E+03 -0.20862635461E+03  0.35152062542E+03  0.17240164035E+03 0.  0.
        -24    2    3    3    0    0 -0.16335334535E+02  0.31288779279E+02 -0.36848908655E+02  0.92693438850E+02  0.77384757372E+02 0.  0.
          6    2    1    2  501    0  0.20369305480E+01 -0.22431076562E+03 -0.22996175255E+03  0.36046548263E+03  0.16350378551E+03 0.  0.
         24    2    5    5    0    0 -0.49864924424E+02 -0.15575586153E+03 -0.19771757758E+03  0.26851248245E+03  0.79122143904E+02 0.  0.
          5    1    5    5  501    0  0.51901854972E+02 -0.68554904089E+02 -0.32244174967E+02  0.91953000188E+02  0.47000000000E+01 0. -1.
        -11    1    6    6    0    0 -0.29258283980E+02 -0.15428988346E+03 -0.18990683900E+03  0.24642650592E+03  0.00000000000E+00 0.  1.
         12    1    6    6    0    0 -0.20606640444E+02 -0.14659780727E+01 -0.78107385803E+01  0.22085976530E+02  0.00000000000E+00 0. -1.
         -5    1    3    3    0  503  0.14298403987E+02  0.19302198634E+03 -0.17177744596E+03  0.25882718657E+03  0.47000000000E+01 0.  1.
         11    1    4    4    0    0  0.29947790082E+02  0.23797995158E+01 -0.86188225266E+01  0.31254082586E+02  0.00000000000E+00 0. -1.
        -12    1    4    4    0    0 -0.46283124617E+02  0.28908979763E+02 -0.28230086129E+02  0.61439356264E+02  0.00000000000E+00 0.  1.
</event>
<event>
12    1  0.9962621E-001  0.1808064E+03  0.7818608E-02  0.1169008E+00
         21   -1    0    0  503  502  0.00000000000E+00  0.00000000000E+00  0.26747131377E+03  0.26747131377E+03  0.00000000000E+00 0.  1.
         21   -1    0    0  501  503 -0.00000000000E+00 -0.00000000000E+00 -0.13971378823E+03  0.13971378823E+03  0.00000000000E+00 0.  1.
          6    2    1    2  501    0  0.20466256900E+02  0.38078461623E+02  0.14501489467E+03  0.22555698867E+03  0.16726565263E+03 0.  0.
         24    2    3    3    0    0  0.76706608443E+01  0.85461593474E+02  0.10459652264E+03  0.16180259070E+03  0.88753156639E+02 0.  0.
         -6    2    1    2    0  502 -0.20466256900E+02 -0.38078461623E+02 -0.17257369124E+02  0.18162811333E+03  0.17556229052E+03 0.  0.
        -24    2    5    5    0    0  0.22697263626E+02 -0.75377369664E+02 -0.42457684050E+02  0.11908657579E+03  0.78625975133E+02 0.  0.
          5    1    3    3  501    0  0.12795596056E+02 -0.47383131851E+02  0.40418372030E+02  0.63754397966E+02  0.47000000000E+01 0. -1.
        -11    1    4    4    0    0 -0.17863553330E+02  0.49639002604E+02  0.50837756829E+01  0.52999829173E+02  0.00000000000E+00 0.  1.
         12    1    4    4    0    0  0.25534214174E+02  0.35822590869E+02  0.99512746956E+02  0.10880276153E+03  0.00000000000E+00 0. -1.
         -5    1    5    5    0  502 -0.43163520526E+02  0.37298908041E+02  0.25200314925E+02  0.62541537538E+02  0.47000000000E+01 0.  1.
         13    1    6    6    0    0  0.39574793580E+01 -0.88311783697E+02 -0.35677077255E+02  0.95328309667E+02  0.00000000000E+00 0. -1.
        -14    1    6    6    0    0  0.18739784268E+02  0.12934414033E+02 -0.67806067949E+01  0.23758266126E+02  0.00000000000E+00 0.  1.
</event>
<event>
12    1  0.9962621E-001  0.1909306E+03  0.7818608E-02  0.1157634E+00
         21   -1    0    0  503  502  0.00000000000E+00  0.00000000000E+00  0.34686053663E+03  0.34686053663E+03  0.00000000000E+00 0.  1.
         21   -1    0    0  501  503 -0.00000000000E+00 -0.00000000000E+00 -0.11465643111E+03  0.11465643111E+03  0.00000000000E+00 0.  1.
          6    2    1    2  501    0 -0.49746622752E+02 -0.62826124384E+02  0.18279284100E+03  0.26429637723E+03  0.17325560285E+03 0.  0.
         24    2    3    3    0    0 -0.99338529445E+02 -0.50356047781E+02  0.11335179017E+03  0.17793081951E+03  0.80042946082E+02 0.  0.
         -6    2    1    2    0  502  0.49746622752E+02  0.62826124384E+02  0.49411264520E+02  0.19722059050E+03  0.17329927835E+03 0.  0.
        -24    2    5    5    0    0 -0.31631198295E+02  0.26994429210E+02 -0.59189992593E+01  0.92388399704E+02  0.82288212604E+02 0.  0.
          5    1    3    3  501    0  0.49591906693E+02 -0.12470076604E+02  0.69441050831E+02  0.86365557721E+02  0.47000000000E+01 0. -1.
        -11    1    4    4    0    0  0.67005090123E+01  0.16984720397E+01 -0.66153737360E+01  0.95679045752E+01  0.00000000000E+00 0.  1.
         12    1    4    4    0    0 -0.10603903846E+03 -0.52054519820E+02  0.11996716391E+03  0.16836291494E+03  0.00000000000E+00 0. -1.
         -5    1    5    5    0  502  0.81377821047E+02  0.35831695174E+02  0.55330263779E+02  0.10483219080E+03  0.47000000000E+01 0.  1.
         13    1    6    6    0    0  0.27674838532E+02  0.15578313172E+02 -0.65948957787E+00  0.31765003629E+02  0.00000000000E+00 0. -1.
        -14    1    6    6    0    0 -0.59306036827E+02  0.11416116039E+02 -0.52595096814E+01  0.60623396075E+02  0.00000000000E+00 0.  1.
</event>
<event>
12    1  0.9962621E-001  0.1909715E+03  0.7818608E-02  0.1157900E+00
         21   -1    0    0  503  502  0.00000000000E+00  0.00000000000E+00  0.42936201222E+02  0.42936201222E+02  0.00000000000E+00 0.  1.
         21   -1    0    0  501  503 -0.00000000000E+00 -0.00000000000E+00 -0.99829833033E+03  0.99829833033E+03  0.00000000000E+00 0.  1.
          6    2    1    2  501    0  0.66427182586E+02  0.45258851599E+02 -0.27397810856E+03  0.33396722861E+03  0.17323155481E+03 0.  0.
         24    2    3    3    0    0  0.46498964966E+02  0.47541245819E+01 -0.51757619305E+02  0.10715937466E+03  0.81360463242E+02 0.  0.
         -6    2    1    2    0  502 -0.66427182586E+02 -0.45258851599E+02 -0.68138402055E+03  0.70726730294E+03  0.17170299972E+03 0.  0.
        -24    2    5    5    0    0  0.13460267903E+02 -0.66351010543E+02 -0.35161850607E+03  0.36727573179E+03  0.81683865835E+02 0.  0.
          5    1    3    3  501    0  0.19928217621E+02  0.40504727017E+02 -0.22222048926E+03  0.22680785395E+03  0.47000000000E+01 0. -1.
        -11    1    4    4    0    0  0.53281565693E+02  0.32346127714E+02 -0.22218330646E+02  0.66172890503E+02  0.00000000000E+00 0.  1.
         12    1    4    4    0    0 -0.67826007276E+01 -0.27592003132E+02 -0.29539288660E+02  0.40986484162E+02  0.00000000000E+00 0. -1.
         -5    1    5    5    0  502 -0.79887450489E+02  0.21092158944E+02 -0.32976551448E+03  0.33999157115E+03  0.47000000000E+01 0.  1.
         13    1    6    6    0    0 -0.35105657860E+00 -0.82546539966E+02 -0.30595541782E+03  0.31689552252E+03  0.00000000000E+00 0. -1.
        -14    1    6    6    0    0  0.13811324481E+02  0.16195529422E+02 -0.45663088248E+02  0.50380209265E+02  0.00000000000E+00 0.  1.
</event>
<event>
12    1  0.9962621E-001  0.4873018E+03  0.7818608E-02  0.1017269E+00
         21   -1    0    0  501  502  0.00000000000E+00  0.00000000000E+00  0.27586978862E+03  0.27586978862E+03  0.00000000000E+00 0. -1.
         21   -1    0    0  502  503 -0.00000000000E+00 -0.00000000000E+00 -0.86274197815E+03  0.86274197815E+03  0.00000000000E+00 0. -1.
         -6    2    1    2    0  503 -0.36552271721E+03  0.27185252373E+03 -0.24900925303E+03  0.54564097017E+03  0.16795180491E+03 0.  0.
        -24    2    3    3    0    0 -0.37554504911E+03  0.24362261631E+03 -0.23335273268E+03  0.51151485935E+03  0.82509941261E+02 0.  0.
          6    2    1    2  501    0  0.36552271721E+03 -0.27185252373E+03 -0.33786293650E+03  0.59297079660E+03  0.17306747328E+03 0.  0.
         24    2    5    5    0    0  0.15713085842E+03 -0.16207357877E+03 -0.10644378162E+03  0.26273527638E+03  0.82107217765E+02 0.  0.
          5    1    5    5  501    0  0.20839185879E+03 -0.10977894496E+03 -0.23141915488E+03  0.33023552022E+03  0.47000000000E+01 0. -1.
        -13    1    6    6    0    0  0.12385483810E+03 -0.71033365877E+02 -0.71655259934E+02  0.15975054386E+03  0.00000000000E+00 0.  1.
         14    1    6    6    0    0  0.33276020321E+02 -0.91040212889E+02 -0.34788521683E+02  0.10298473252E+03  0.00000000000E+00 0. -1.
         -5    1    3    3    0  503  0.10022331893E+02  0.28229907420E+02 -0.15656520353E+02  0.34126110811E+02  0.47000000000E+01 0.  1.
         13    1    4    4    0    0 -0.16761185851E+02  0.30511694918E+02 -0.32188954472E+01  0.34960866205E+02  0.00000000000E+00 0. -1.
        -14    1    4    4    0    0 -0.35878386325E+03  0.21311092139E+03 -0.23013383723E+03  0.47655399315E+03  0.00000000000E+00 0.  1.
</event>
<event>
12    1  0.9962621E-001  0.1879814E+03  0.7818608E-02  0.1161254E+00
         21   -1    0    0  501  502  0.00000000000E+00  0.00000000000E+00  0.46891224361E+03  0.46891224361E+03  0.00000000000E+00 0.  1.
         21   -1    0    0  502  503 -0.00000000000E+00 -0.00000000000E+00 -0.76057681469E+02  0.76057681469E+02  0.00000000000E+00 0.  1.
         -6    2    1    2    0  503  0.57253970395E+02 -0.37822219226E+02  0.15064987042E+03  0.24089913765E+03  0.17500992448E+03 0.  0.
        -24    2    3    3    0    0  0.55752401138E+02 -0.41606653931E+02  0.16650037949E+02  0.10675510401E+03  0.79246353766E+02 0.  0.
          6    2    1    2  501    0 -0.57253970395E+02  0.37822219226E+02  0.24220469171E+03  0.30407078743E+03  0.17055026733E+03 0.  0.
         24    2    5    5    0    0 -0.50975822389E+02 -0.41245045338E+02  0.15339554261E+03  0.18490618517E+03  0.79752219948E+02 0.  0.
          5    1    5    5  501    0 -0.62781480061E+01  0.79067264564E+02  0.88809149101E+02  0.11916460226E+03  0.47000000000E+01 0. -1.
        -11    1    6    6    0    0  0.79842597459E+01 -0.25337261104E+02  0.10101822177E+03  0.10445289050E+03  0.00000000000E+00 0.  1.
         12    1    6    6    0    0 -0.58960082135E+02 -0.15907784234E+02  0.52377320846E+02  0.80453294672E+02  0.00000000000E+00 0. -1.
         -5    1    3    3    0  503  0.15015692566E+01  0.37844347054E+01  0.13399983247E+03  0.13414403363E+03  0.47000000000E+01 0.  1.
         13    1    4    4    0    0  0.63218288949E+02 -0.11637556855E+02  0.32512161667E+02  0.72034890459E+02  0.00000000000E+00 0. -1.
        -14    1    4    4    0    0 -0.74658878109E+01 -0.29969097077E+02 -0.15862123718E+02  0.34720213554E+02  0.00000000000E+00 0.  1.
</event>
<event>
12    1  0.9962621E-001  0.1930604E+03  0.7818608E-02  0.1156137E+00
         21   -1    0    0  501  502  0.00000000000E+00  0.00000000000E+00  0.21716754940E+03  0.21716754940E+03  0.00000000000E+00 0.  1.
         21   -1    0    0  502  503 -0.00000000000E+00 -0.00000000000E+00 -0.32124555061E+03  0.32124555061E+03  0.00000000000E+00 0.  1.
         -6    2    1    2    0  503 -0.80778966485E+02  0.35078701024E+02  0.13254459930E+03  0.23418021805E+03  0.17180380389E+03 0.  0.
        -24    2    3    3    0    0 -0.19708080448E+02  0.63010616277E+02  0.24449453326E+02  0.10683621311E+03  0.80358288090E+02 0.  0.
          6    2    1    2  501    0  0.80778966485E+02 -0.35078701024E+02 -0.23662260051E+03  0.30423288196E+03  0.16973990309E+03 0.  0.
         24    2    5    5    0    0  0.22653047096E+02 -0.81654578690E+02 -0.14378757764E+03  0.18511795277E+03  0.80082196454E+02 0.  0.
          5    1    5    5  501    0  0.58125919389E+02  0.46575877666E+02 -0.92835022869E+02  0.11911492919E+03  0.47000000000E+01 0. -1.
        -13    1    6    6    0    0  0.25087672635E+02 -0.95173883108E+02 -0.10475906179E+03  0.14374254892E+03  0.00000000000E+00 0.  1.
         14    1    6    6    0    0 -0.24346255393E+01  0.13519304418E+02 -0.39028515859E+02  0.41375403848E+02  0.00000000000E+00 0. -1.
         -5    1    3    3    0  503 -0.61070886036E+02 -0.27931915253E+02  0.10809514597E+03  0.12734400494E+03  0.47000000000E+01 0.  1.
         13    1    4    4    0    0 -0.38206817503E+02  0.24678477411E+02  0.40935677058E+02  0.61192465282E+02  0.00000000000E+00 0. -1.
        -14    1    4    4    0    0  0.18498737055E+02  0.38332138866E+02 -0.16486223732E+02  0.45643747826E+02  0.00000000000E+00 0.  1.
</event>
<event>
12    1  0.9962621E-001  0.1880909E+03  0.7818608E-02  0.1160325E+00
         21   -1    0    0  503  502  0.00000000000E+00  0.00000000000E+00  0.49011433049E+02  0.49011433049E+02  0.00000000000E+00 0. -1.
         21   -1    0    0  501  503 -0.00000000000E+00 -0.00000000000E+00 -0.73211935569E+03  0.73211935569E+03  0.00000000000E+00 0. -1.
          6    2    1    2  501    0 -0.68890935692E+02 -0.27011340212E+02 -0.29109398140E+03  0.34657449343E+03  0.17292368250E+03 0.  0.
         24    2    3    3    0    0 -0.86353540131E+02  0.20359621130E+02 -0.26235490112E+03  0.28829091712E+03  0.80063166848E+02 0.  0.
         -6    2    1    2    0  502  0.68890935692E+02  0.27011340212E+02 -0.39201394124E+03  0.43455629531E+03  0.17230400501E+03 0.  0.
        -24    2    5    5    0    0  0.38578679997E+02 -0.56183197977E+02 -0.23852651050E+03  0.25729759898E+03  0.68280977889E+02 0.  0.
          5    1    3    3  501    0  0.17462604439E+02 -0.47370961342E+02 -0.28739080276E+02  0.58283576309E+02  0.47000000000E+01 0. -1.
        -11    1    4    4    0    0 -0.33683774343E+02  0.38387594889E+02 -0.19144167850E+03  0.19813662045E+03  0.00000000000E+00 0.  1.
         12    1    4    4    0    0 -0.52669765788E+02 -0.18027973759E+02 -0.70913222621E+02  0.90154296673E+02  0.00000000000E+00 0. -1.
         -5    1    5    5    0  502  0.30312255695E+02  0.83194538189E+02 -0.15348743074E+03  0.17725869633E+03  0.47000000000E+01 0.  1.
         13    1    6    6    0    0  0.97968820906E+01 -0.48962822356E+01 -0.15363348071E+03  0.15402337119E+03  0.00000000000E+00 0. -1.
        -14    1    6    6    0    0  0.28781797907E+02 -0.51286915742E+02 -0.84893029791E+02  0.10327422778E+03  0.00000000000E+00 0.  1.
</event>
<event>
12    1  0.9962621E-001  0.1906154E+03  0.7818608E-02  0.1158068E+00
         21   -1    0    0  503  502  0.00000000000E+00  0.00000000000E+00  0.65860593739E+03  0.65860593739E+03  0.00000000000E+00 0.  1.
         21   -1    0    0  501  503 -0.00000000000E+00 -0.00000000000E+00 -0.74678617866E+02  0.74678617866E+02  0.00000000000E+00 0.  1.
          6    2    1    2  501    0  0.80951691709E+02  0.57929640750E+01  0.10397595107E+03  0.21712953249E+03  0.17247463771E+03 0.  0.
         24    2    3    3    0    0  0.10119108028E+03 -0.42842567882E+02  0.87729841890E+02  0.16180256002E+03  0.80052625939E+02 0.  0.
         -6    2    1    2    0  502 -0.80951691709E+02 -0.57929640750E+01  0.47995136845E+03  0.51615502277E+03  0.17168563313E+03 0.  0.
        -24    2    5    5    0    0 -0.96542081491E+02 -0.12003944707E+00  0.20233416572E+03  0.23800282778E+03  0.79911472904E+02 0.  0.
          5    1    3    3  501    0 -0.20239388575E+02  0.48635531957E+02  0.16246109178E+02  0.55326972465E+02  0.47000000000E+01 0. -1.
        -13    1    4    4    0    0  0.35724703869E+02 -0.58578072033E+02  0.45307246608E+02  0.82221600476E+02  0.00000000000E+00 0.  1.
         14    1    4    4    0    0  0.65466376415E+02  0.15735504151E+02  0.42422595282E+02  0.79580959546E+02  0.00000000000E+00 0. -1.
         -5    1    5    5    0  502  0.15590389782E+02 -0.56729246279E+01  0.27761720273E+03  0.27815219499E+03  0.47000000000E+01 0.  1.
         11    1    6    6    0    0 -0.57958509019E+02 -0.28075792293E+02  0.60430354427E+02  0.88313456601E+02  0.00000000000E+00 0. -1.
        -12    1    6    6    0    0 -0.38583572472E+02  0.27955752846E+02  0.14190381130E+03  0.14968937117E+03  0.00000000000E+00 0.  1.
</event>
<event>
12    1  0.9962621E-001  0.2371345E+03  0.7818608E-02  0.1121809E+00
         21   -1    0    0  503  502  0.00000000000E+00  0.00000000000E+00  0.77580318336E+02  0.77580318336E+02  0.00000000000E+00 0. -1.
         21   -1    0    0  501  503 -0.00000000000E+00 -0.00000000000E+00 -0.10364273993E+04  0.10364273993E+04  0.00000000000E+00 0. -1.
          6    2    1    2  501    0  0.87434473727E+01  0.16272606092E+03 -0.17358315523E+03  0.29387733314E+03  0.17226884913E+03 0.  0.
         24    2    3    3    0    0  0.20376409787E+02  0.11717744830E+03 -0.19493489410E+03  0.24203151673E+03  0.80211530906E+02 0.  0.
         -6    2    1    2    0  502 -0.87434473727E+01 -0.16272606092E+03 -0.78526392574E+03  0.82013038450E+03  0.17151733364E+03 0.  0.
        -24    2    5    5    0    0 -0.71722939091E+02 -0.99352811449E+02 -0.44736814710E+03  0.47059035482E+03  0.79384267185E+02 0.  0.
          5    1    3    3  501    0 -0.11632962414E+02  0.45548612620E+02  0.21351738869E+02  0.51845816406E+02  0.47000000000E+01 0. -1.
        -11    1    4    4    0    0 -0.10019229383E+02  0.11208641990E+03 -0.14916489168E+03  0.18685265690E+03  0.00000000000E+00 0.  1.
         12    1    4    4    0    0  0.30395639170E+02  0.50910284022E+01 -0.45770002421E+02  0.55178859832E+02  0.00000000000E+00 0. -1.
         -5    1    5    5    0  502  0.62979491718E+02 -0.63373249468E+02 -0.33789577863E+03  0.34954002967E+03  0.47000000000E+01 0.  1.
         11    1    6    6    0    0 -0.58477263495E+01 -0.49892446238E+02 -0.82928141649E+02  0.96956324045E+02  0.00000000000E+00 0. -1.
        -12    1    6    6    0    0 -0.65875212741E+02 -0.49460365211E+02 -0.36444000545E+03  0.37363403078E+03  0.00000000000E+00 0.  1.
</event>
<event>
12    1  0.9962621E-001  0.2769619E+03  0.7818608E-02  0.1097366E+00
         21   -1    0    0  501  502  0.00000000000E+00  0.00000000000E+00  0.33284213308E+03  0.33284213308E+03  0.00000000000E+00 0. -1.
         21   -1    0    0  502  503 -0.00000000000E+00 -0.00000000000E+00 -0.29164921304E+03  0.29164921304E+03  0.00000000000E+00 0. -1.
         -6    2    1    2    0  503 -0.21644358802E+03  0.16276062391E+02  0.16365484884E+03  0.32166329788E+03  0.17196403882E+03 0.  0.
        -24    2    3    3    0    0 -0.72115417174E+02  0.49919284595E+02  0.11522172795E+03  0.16568142553E+03  0.80509128714E+02 0.  0.
          6    2    1    2  501    0  0.21644358802E+03 -0.16276062391E+02 -0.12246192880E+03  0.30282804824E+03  0.17203245564E+03 0.  0.
         24    2    5    5    0    0  0.17918077286E+03  0.47392074729E+02 -0.10339772080E+03  0.22648878505E+03  0.79084277678E+02 0.  0.
          5    1    5    5  501    0  0.37262815168E+02 -0.63668137119E+02 -0.19064207996E+02  0.76339263194E+02  0.47000000000E+01 0. -1.
        -11    1    6    6    0    0  0.61751132969E+02  0.33660571860E+02 -0.14021946278E+01  0.70343462174E+02  0.00000000000E+00 0.  1.
         12    1    6    6    0    0  0.11742963989E+03  0.13731502869E+02 -0.10199552617E+03  0.15614532287E+03  0.00000000000E+00 0. -1.
         -5    1    3    3    0  503 -0.14432817085E+03 -0.33643222205E+02  0.48433120897E+02  0.15598187235E+03  0.47000000000E+01 0.  1.
         13    1    4    4    0    0 -0.54896636974E+02  0.83326539241E+01  0.10610745517E+03  0.11975752968E+03  0.00000000000E+00 0. -1.
        -14    1    4    4    0    0 -0.17218780200E+02  0.41586630671E+02  0.91142727813E+01  0.45923895855E+02  0.00000000000E+00 0.  1.
</event>
<event>
12    1  0.9962621E-001  0.1882475E+03  0.7818608E-02  0.1160484E+00
         21   -1    0    0  501  502  0.00000000000E+00  0.00000000000E+00  0.32923744382E+02  0.32923744382E+02  0.00000000000E+00 0.  1.
         21   -1    0    0  502  503 -0.00000000000E+00 -0.00000000000E+00 -0.10860581638E+04  0.10860581638E+04  0.00000000000E+00 0.  1.
         -6    2    1    2    0  503 -0.43406666869E+02  0.61691844799E+02 -0.44716304454E+03  0.48444395168E+03  0.17041458704E+03 0.  0.
        -24    2    3    3    0    0 -0.74531373400E+02  0.35037733199E+02 -0.17444562829E+03  0.20862504706E+03  0.79439062567E+02 0.  0.
          6    2    1    2  501    0  0.43406666869E+02 -0.61691844799E+02 -0.60597137489E+03  0.63453795651E+03  0.17247344324E+03 0.  0.
         24    2    5    5    0    0  0.47008286008E+02 -0.92124785830E+00 -0.52517068940E+03  0.53326171108E+03  0.79706786709E+02 0.  0.
          5    1    5    5  501    0 -0.36016191391E+01 -0.60770596940E+02 -0.80800685481E+02  0.10127624542E+03  0.47000000000E+01 0. -1.
        -11    1    6    6    0    0 -0.13843217615E+02  0.22569690751E+02 -0.12115577444E+03  0.12401510914E+03  0.00000000000E+00 0.  1.
         12    1    6    6    0    0  0.60851503622E+02 -0.23490938609E+02 -0.40401491496E+03  0.40924660194E+03  0.00000000000E+00 0. -1.
         -5    1    3    3    0  503  0.31124706532E+02  0.26654111600E+02 -0.27271741625E+03  0.27581890462E+03  0.47000000000E+01 0.  1.
         11    1    4    4    0    0 -0.41494642056E+02  0.45720333460E+02 -0.50067569108E+02  0.79491607654E+02  0.00000000000E+00 0. -1.
        -12    1    4    4    0    0 -0.33036731344E+02 -0.10682600261E+02 -0.12437805918E+03  0.12913343940E+03  0.00000000000E+00 0.  1.
</event>
<event>
12    1  0.9962621E-001  0.1945875E+03  0.7818608E-02  0.1154485E+00
         21   -1    0    0  501  502  0.00000000000E+00  0.00000000000E+00  0.64837744213E+03  0.64837744213E+03  0.00000000000E+00 0. -1.
         21   -1    0    0  502  503 -0.00000000000E+00 -0.00000000000E+00 -0.85941585265E+02  0.85941585265E+02  0.00000000000E+00 0. -1.
         -6    2    1    2    0  503 -0.73653258208E+02  0.53590404728E+02  0.48935572292E+03  0.52646085576E+03  0.17145050356E+03 0.  0.
        -24    2    3    3    0    0  0.24811190745E+02  0.40377545780E+02  0.22040423536E+03  0.23970866307E+03  0.81463334082E+02 0.  0.
          6    2    1    2  501    0  0.73653258208E+02 -0.53590404728E+02  0.73080133949E+02  0.20785817164E+03  0.17195225970E+03 0.  0.
         24    2    5    5    0    0  0.58586292914E+02  0.10230597548E+02  0.96360449940E+02  0.13811437702E+03  0.79077341786E+02 0.  0.
          5    1    5    5  501    0  0.15066965294E+02 -0.63821002276E+02 -0.23280315991E+02  0.69743794615E+02  0.47000000000E+01 0. -1.
        -13    1    6    6    0    0 -0.16195988800E+01 -0.13664740063E+02 -0.75292525901E+01  0.15685594221E+02  0.00000000000E+00 0.  1.
         14    1    6    6    0    0  0.60205891794E+02  0.23895337610E+02  0.10388970253E+03  0.12242878280E+03  0.00000000000E+00 0. -1.
         -5    1    3    3    0  503 -0.98464448954E+02  0.13212858948E+02  0.26895148756E+03  0.28675219268E+03  0.47000000000E+01 0.  1.
         13    1    4    4    0    0 -0.53312282258E+01 -0.18002103276E+02  0.10709919178E+03  0.10873239902E+03  0.00000000000E+00 0. -1.
        -14    1    4    4    0    0  0.30142418971E+02  0.58379649057E+02  0.11330504358E+03  0.13097626405E+03  0.00000000000E+00 0.  1.
</event>
<event>
12    1  0.9962621E-001  0.2105660E+03  0.7818608E-02  0.1142378E+00
         21   -1    0    0  501  502  0.00000000000E+00  0.00000000000E+00  0.29132821923E+03  0.29132821923E+03  0.00000000000E+00 0.  1.
         21   -1    0    0  502  503 -0.00000000000E+00 -0.00000000000E+00 -0.15526048535E+03  0.15526048535E+03  0.00000000000E+00 0.  1.
         -6    2    1    2    0  503 -0.51513171993E+02 -0.10545604593E+03  0.19700770841E+02  0.21148558294E+03  0.17482404556E+03 0.  0.
        -24    2    3    3    0    0  0.39348277661E+02 -0.97511721840E+02  0.47173944756E+01  0.11893555925E+03  0.55376805536E+02 0.  0.
          6    2    1    2  501    0  0.51513171993E+02  0.10545604593E+03  0.11636696304E+03  0.23510312164E+03  0.16720533246E+03 0.  0.
         24    2    5    5    0    0 -0.14363986928E+01  0.10429874133E+03  0.35622662458E+02  0.13842464179E+03  0.83738382414E+02 0.  0.
          5    1    5    5  501    0  0.52949570686E+02  0.11573046069E+01  0.80744300582E+02  0.96678479850E+02  0.47000000000E+01 0. -1.
        -11    1    6    6    0    0 -0.38774227183E+02  0.25205756728E+02  0.14168881692E+02  0.48368668312E+02  0.00000000000E+00 0.  1.
         12    1    6    6    0    0  0.37337828490E+02  0.79092984598E+02  0.21453780766E+02  0.90055973473E+02  0.00000000000E+00 0. -1.
         -5    1    3    3    0  503 -0.90861449654E+02 -0.79443240931E+01  0.14983376365E+02  0.92550023694E+02  0.47000000000E+01 0.  1.
         11    1    4    4    0    0  0.11426950173E+02 -0.78360487971E+02  0.20170433387E+02  0.81717731542E+02  0.00000000000E+00 0. -1.
        -12    1    4    4    0    0  0.27921327488E+02 -0.19151233869E+02 -0.15453038911E+02  0.37217827704E+02  0.00000000000E+00 0.  1.
</event>
<event>
12    1  0.9962621E-001  0.1902183E+03  0.7818608E-02  0.1158675E+00
         21   -1    0    0  501  502  0.00000000000E+00  0.00000000000E+00  0.29127429538E+02  0.29127429538E+02  0.00000000000E+00 0.  1.
         21   -1    0    0  502  503 -0.00000000000E+00 -0.00000000000E+00 -0.12333338888E+04  0.12333338888E+04  0.00000000000E+00 0.  1.
         -6    2    1    2    0  503 -0.29706287561E+02 -0.76315673851E+02 -0.57424465316E+03  0.60492968403E+03  0.17168708552E+03 0.  0.
        -24    2    3    3    0    0 -0.60588442748E+01 -0.98664517179E+02 -0.26501903299E+03  0.29396144362E+03  0.80042775706E+02 0.  0.
          6    2    1    2  501    0  0.29706287561E+02  0.76315673851E+02 -0.62996180607E+03  0.65753163428E+03  0.16967447474E+03 0.  0.
         24    2    5    5    0    0  0.25755465770E+02  0.77959458715E+02 -0.63752529251E+03  0.64765199114E+03  0.79205945594E+02 0.  0.
          5    1    5    5  501    0  0.39508217901E+01 -0.16437848637E+01  0.75634864392E+01  0.98796431419E+01  0.47000000000E+01 0. -1.
        -11    1    6    6    0    0  0.14979798300E+02  0.35914604839E+02 -0.53373583526E+03  0.53515249699E+03  0.00000000000E+00 0.  1.
         12    1    6    6    0    0  0.10775667470E+02  0.42044853876E+02 -0.10378945725E+03  0.11249949414E+03  0.00000000000E+00 0. -1.
         -5    1    3    3    0  503 -0.23647443286E+02  0.22348843328E+02 -0.30922562017E+03  0.31096824041E+03  0.47000000000E+01 0.  1.
         13    1    4    4    0    0 -0.18133533731E+02 -0.25084267890E+02 -0.17191599629E+03  0.17468015148E+03  0.00000000000E+00 0. -1.
        -14    1    4    4    0    0  0.12074689456E+02 -0.73580249289E+02 -0.93103036699E+02  0.11928129214E+03  0.00000000000E+00 0.  1.
</event>
<event>
12    1  0.9962621E-001  0.1764934E+03  0.7818608E-02  0.1171655E+00
         21   -1    0    0  503  502  0.00000000000E+00  0.00000000000E+00  0.26434150207E+03  0.26434150207E+03  0.00000000000E+00 0.  1.
         21   -1    0    0  501  503 -0.00000000000E+00 -0.00000000000E+00 -0.11680428638E+03  0.11680428638E+03  0.00000000000E+00 0.  1.
          6    2    1    2  501    0  0.20018659079E+02 -0.10590506478E+02  0.78834411397E+02  0.19329974252E+03  0.17503434092E+03 0.  0.
         24    2    3    3    0    0 -0.49478703555E+02  0.17153948300E+02  0.66274873896E+02  0.11727691591E+03  0.81357950119E+02 0.  0.
         -6    2    1    2    0  502 -0.20018659079E+02  0.10590506478E+02  0.68702804288E+02  0.18784604593E+03  0.17335846133E+03 0.  0.
        -24    2    5    5    0    0 -0.76787745430E+02  0.26413873575E+02  0.28527973466E+02  0.11636727186E+03  0.78316320929E+02 0.  0.
          5    1    3    3  501    0  0.69497362634E+02 -0.27744454778E+02  0.12559537501E+02  0.76022826613E+02  0.47000000000E+01 0. -1.
        -13    1    4    4    0    0 -0.38909653496E+01  0.36149441174E+02  0.56101825654E+02  0.66853096789E+02  0.00000000000E+00 0.  1.
         14    1    4    4    0    0 -0.45587738206E+02 -0.18995492874E+02  0.10173048242E+02  0.50423819121E+02  0.00000000000E+00 0. -1.
         -5    1    5    5    0  502  0.56769086350E+02 -0.15823367097E+02  0.40174830822E+02  0.71478774073E+02  0.47000000000E+01 0.  1.
         13    1    6    6    0    0 -0.26103884483E+02  0.32240987324E+02  0.46464476152E+02  0.62288374460E+02  0.00000000000E+00 0. -1.
        -14    1    6    6    0    0 -0.50683860946E+02 -0.58271137487E+01 -0.17936502686E+02  0.54078897397E+02  0.00000000000E+00 0.  1.
</event>
<event>
12    1  0.9962621E-001  0.1820794E+03  0.7818608E-02  0.1166930E+00
         21   -1    0    0  503  502  0.00000000000E+00  0.00000000000E+00  0.62717816999E+03  0.62717816999E+03  0.00000000000E+00 0.  1.
         21   -1    0    0  501  503 -0.00000000000E+00 -0.00000000000E+00 -0.16392827839E+03  0.16392827839E+03  0.00000000000E+00 0.  1.
          6    2    1    2  501    0  0.32673180439E+02 -0.53662972272E+02  0.56011067922E+03  0.58896255494E+03  0.17089665540E+03 0.  0.
         24    2    3    3    0    0  0.21131751741E+02 -0.64320554732E+02  0.18075316182E+03  0.20925081605E+03  0.80811594566E+02 0.  0.
         -6    2    1    2    0  502 -0.32673180439E+02  0.53662972272E+02 -0.96860787624E+02  0.20214389344E+03  0.16593037746E+03 0.  0.
        -24    2    5    5    0    0 -0.12658090843E+02  0.41365297374E+02 -0.13094929799E+03  0.16047912225E+03  0.82064090454E+02 0.  0.
          5    1    3    3  501    0  0.11541428698E+02  0.10657582460E+02  0.37935751740E+03  0.37971173888E+03  0.47000000000E+01 0. -1.
        -11    1    4    4    0    0 -0.13477709946E+01 -0.42002968988E+02  0.22129168698E+02  0.47494904966E+02  0.00000000000E+00 0.  1.
         12    1    4    4    0    0  0.22479522736E+02 -0.22317585744E+02  0.15862399313E+03  0.16175591109E+03  0.00000000000E+00 0. -1.
         -5    1    5    5    0  502 -0.20015089596E+02  0.12297674898E+02  0.34088510369E+02  0.41664771194E+02  0.47000000000E+01 0.  1.
         11    1    6    6    0    0 -0.39163888100E+02 -0.45619298600E+01 -0.49406237514E+02  0.63210739914E+02  0.00000000000E+00 0. -1.
        -12    1    6    6    0    0  0.26505797257E+02  0.45927227234E+02 -0.81543060480E+02  0.97268382335E+02  0.00000000000E+00 0.  1.
</event>
<event>
12    1  0.9962621E-001  0.1810391E+03  0.7818608E-02  0.1166965E+00
         21   -1    0    0  501  502  0.00000000000E+00  0.00000000000E+00  0.30432536449E+03  0.30432536449E+03  0.00000000000E+00 0. -1.
         21   -1    0    0  502  503 -0.00000000000E+00 -0.00000000000E+00 -0.11995447444E+03  0.11995447444E+03  0.00000000000E+00 0. -1.
         -6    2    1    2    0  503  0.80942187840E+01  0.55849083843E+02  0.16126246743E+03  0.24244742223E+03  0.17201898906E+03 0.  0.
        -24    2    3    3    0    0 -0.53647955750E+02 -0.10810836097E+01  0.73802755135E+02  0.12110315430E+03  0.79623209043E+02 0.  0.
          6    2    1    2  501    0 -0.80942187840E+01 -0.55849083843E+02  0.23108422622E+02  0.18183241671E+03  0.17130204910E+03 0.  0.
         24    2    5    5    0    0 -0.79582275200E+01 -0.47625805732E+02  0.82116871589E+02  0.12206848238E+03  0.76328127412E+02 0.  0.
          5    1    5    5  501    0 -0.13599126399E+00 -0.82232781117E+01 -0.59008448967E+02  0.59763934325E+02  0.47000000000E+01 0. -1.
        -11    1    6    6    0    0 -0.13203062295E+02  0.17136838235E+02  0.69731032041E+01  0.22729193715E+02  0.00000000000E+00 0.  1.
         12    1    6    6    0    0  0.52448347750E+01 -0.64762643967E+02  0.75143768385E+02  0.99339288665E+02  0.00000000000E+00 0. -1.
         -5    1    3    3    0  503  0.61742174534E+02  0.56930167453E+02  0.87459712300E+02  0.12134426792E+03  0.47000000000E+01 0.  1.
         13    1    4    4    0    0 -0.61599015361E+02  0.22021460110E+02  0.32333228562E+02  0.72971371565E+02  0.00000000000E+00 0. -1.
        -14    1    4    4    0    0  0.79510596104E+01 -0.23102543720E+02  0.41469526572E+02  0.48131782736E+02  0.00000000000E+00 0.  1.
</event>
<event>
12    1  0.9962621E-001  0.5120368E+03  0.7818608E-02  0.1010743E+00
         21   -1    0    0  501  502  0.00000000000E+00  0.00000000000E+00  0.48227219027E+03  0.48227219027E+03  0.00000000000E+00 0. -1.
         21   -1    0    0  502  503 -0.00000000000E+00 -0.00000000000E+00 -0.60239622187E+03  0.60239622187E+03  0.00000000000E+00 0. -1.
         -6    2    1    2    0  503 -0.55964353980E+02 -0.47912452835E+03  0.11067508716E+03  0.52386131053E+03  0.17172470751E+03 0.  0.
        -24    2    3    3    0    0 -0.96797996435E+02 -0.27014535953E+03  0.79167897926E+02  0.30856042264E+03  0.81201052725E+02 0.  0.
          6    2    1    2  501    0  0.55964353980E+02  0.47912452835E+03 -0.23079911877E+03  0.56080710161E+03  0.16894984288E+03 0.  0.
         24    2    5    5    0    0  0.12842804555E+02  0.44753326762E+03 -0.21870204960E+03  0.50579887621E+03  0.86896222122E+02 0.  0.
          5    1    5    5  501    0  0.43121549425E+02  0.31591260728E+02 -0.12097069171E+02  0.55008225401E+02  0.47000000000E+01 0. -1.
        -13    1    6    6    0    0  0.16044139042E+02  0.30277363773E+03 -0.10221821264E+03  0.31996539359E+03  0.00000000000E+00 0.  1.
         14    1    6    6    0    0 -0.32013344877E+01  0.14475962989E+03 -0.11648383696E+03  0.18583348261E+03  0.00000000000E+00 0. -1.
         -5    1    3    3    0  503  0.40833642455E+02 -0.20897916881E+03  0.31507189238E+02  0.21530088789E+03  0.47000000000E+01 0.  1.
         11    1    4    4    0    0 -0.40205440725E+02 -0.26931656982E+02  0.16212711479E+02  0.51035709314E+02  0.00000000000E+00 0. -1.
        -12    1    4    4    0    0 -0.56592555710E+02 -0.24321370255E+03  0.62955186446E+02  0.25752471332E+03  0.00000000000E+00 0.  1.
</event>
<event>
12    1  0.9962621E-001  0.1876824E+03  0.7818608E-02  0.1160768E+00
         21   -1    0    0  501  502  0.00000000000E+00  0.00000000000E+00  0.25191936353E+02  0.25191936353E+02  0.00000000000E+00 0. -1.
         21   -1    0    0  502  503 -0.00000000000E+00 -0.00000000000E+00 -0.17042493201E+04  0.17042493201E+04  0.00000000000E+00 0. -1.
         -6    2    1    2    0  503 -0.65334612257E+02 -0.38679194022E+02 -0.46768246570E+03  0.50361341837E+03  0.17068946900E+03 0.  0.
        -24    2    3    3    0    0 -0.10922490179E+03 -0.16473556884E+02 -0.33451160539E+03  0.36157111526E+03  0.81450598557E+02 0.  0.
          6    2    1    2  501    0  0.65334612257E+02  0.38679194022E+02 -0.12113749180E+04  0.12258278380E+04  0.17163917076E+03 0.  0.
         24    2    5    5    0    0  0.20368518447E+02  0.86879601298E+02 -0.74920639556E+03  0.75895841090E+03  0.82126150973E+02 0.  0.
          5    1    5    5  501    0  0.44966093809E+02 -0.48200407275E+02 -0.46216852245E+03  0.46686942714E+03  0.47000000000E+01 0. -1.
        -13    1    6    6    0    0 -0.27684030012E+02  0.78680238073E+01 -0.18349845340E+03  0.18574173930E+03  0.00000000000E+00 0.  1.
         14    1    6    6    0    0  0.48052548459E+02  0.79011577490E+02 -0.56570794215E+03  0.57321667161E+03  0.00000000000E+00 0. -1.
         -5    1    3    3    0  503  0.43890289531E+02 -0.22205637139E+02 -0.13317086031E+03  0.14204230311E+03  0.47000000000E+01 0.  1.
         13    1    4    4    0    0 -0.89157928465E+02  0.22529465252E+02 -0.24956057504E+03  0.26596464732E+03  0.00000000000E+00 0. -1.
        -14    1    4    4    0    0 -0.20066973323E+02 -0.39003022136E+02 -0.84951030355E+02  0.95606467942E+02  0.00000000000E+00 0.  1.
</event>
<event>
12    1  0.1054819E+000  0.1886794E+03  0.7818608E-02  0.1160017E+00
         21   -1    0    0  503  502  0.00000000000E+00  0.00000000000E+00  0.20277929872E+03  0.20277929872E+03  0.00000000000E+00 0. -1.
         21   -1    0    0  501  503 -0.00000000000E+00 -0.00000000000E+00 -0.78942353236E+03  0.78942353236E+03  0.00000000000E+00 0. -1.
          6    2    1    2  501    0  0.47698711983E+02 -0.54456500460E+02  0.14439954455E+03  0.23759447452E+03  0.17423899761E+03 0.  0.
         24    2    3    3    0    0  0.66586343176E+02 -0.29592798158E+01  0.14996140903E+03  0.18226156674E+03  0.79299155598E+02 0.  0.
         -6    2    1    2    0  502 -0.47698711983E+02  0.54456500460E+02 -0.73104377819E+03  0.75460835656E+03  0.17253431135E+03 0.  0.
        -24    2    5    5    0    0 -0.11751398542E+02  0.39442081697E+02 -0.69402825085E+03  0.70066504021E+03  0.86962707051E+02 0.  0.
          5    1    3    3  501    0 -0.18887631193E+02 -0.51497220644E+02 -0.55618644843E+01  0.55332907774E+02  0.47000000000E+01 0. -1.
        -13    1    4    4    0    0  0.22255971562E+02  0.35138074788E+02  0.86516650287E+02  0.95995538161E+02  0.00000000000E+00 0.  1.
         14    1    4    4    0    0  0.44330371614E+02 -0.38097354604E+02  0.63444758745E+02  0.86266028583E+02  0.00000000000E+00 0. -1.
         -5    1    5    5    0  502 -0.35947313441E+02  0.15014418763E+02 -0.37015527333E+02  0.53943316344E+02  0.47000000000E+01 0.  1.
         11    1    6    6    0    0 -0.28666150614E+02  0.36054374103E+02 -0.16371692773E+03  0.17007321514E+03  0.00000000000E+00 0. -1.
        -12    1    6    6    0    0  0.16914752072E+02  0.33877075941E+01 -0.53031132313E+03  0.53059182508E+03  0.00000000000E+00 0.  1.
</event>
<event>
12    1  0.9962621E-001  0.2284851E+03  0.7818608E-02  0.1127770E+00
         21   -1    0    0  501  502  0.00000000000E+00  0.00000000000E+00  0.11953386801E+03  0.11953386801E+03  0.00000000000E+00 0.  1.
         21   -1    0    0  502  503 -0.00000000000E+00 -0.00000000000E+00 -0.46857730857E+03  0.46857730857E+03  0.00000000000E+00 0. -1.
         -6    2    1    2    0  503  0.11325234351E+03 -0.99629018304E+02 -0.25181461652E+03  0.33979913589E+03  0.17117481432E+03 0.  0.
        -24    2    3    3    0    0  0.89664851476E+02 -0.96300865233E+02 -0.26918481614E+03  0.30994515428E+03  0.79321442164E+02 0.  0.
          6    2    1    2  501    0 -0.11325234351E+03  0.99629018304E+02 -0.97228824030E+02  0.24831204069E+03  0.17161990191E+03 0.  0.
         24    2    5    5    0    0 -0.13337568385E+03  0.52961724328E+02 -0.34953689235E+02  0.16779454218E+03  0.79619286019E+02 0.  0.
          5    1    5    5  501    0  0.20123340339E+02  0.46667293975E+02 -0.62275134795E+02  0.80517498515E+02  0.47000000000E+01 0. -1.
        -13    1    6    6    0    0 -0.46375822532E+02  0.35658624133E+02  0.21865955881E+02  0.62452977648E+02  0.00000000000E+00 0.  1.
         14    1    6    6    0    0 -0.86999861320E+02  0.17303100195E+02 -0.56819645116E+02  0.10534156453E+03  0.00000000000E+00 0. -1.
         -5    1    3    3    0  503  0.23587492036E+02 -0.33281530710E+01  0.17370199613E+02  0.29853981611E+02  0.47000000000E+01 0.  1.
         11    1    4    4    0    0  0.10138263237E+03 -0.98010833809E+02 -0.25564824651E+03  0.29195990758E+03  0.00000000000E+00 0. -1.
        -12    1    4    4    0    0 -0.11717780892E+02  0.17099685759E+01 -0.13536569626E+02  0.17985246698E+02  0.00000000000E+00 0.  1.
</event>
<event>
12    1  0.9962621E-001  0.2526705E+03  0.7818608E-02  0.1111896E+00
         21   -1    0    0  503  502  0.00000000000E+00  0.00000000000E+00  0.11584266405E+03  0.11584266405E+03  0.00000000000E+00 0.  1.
         21   -1    0    0  501  503 -0.00000000000E+00 -0.00000000000E+00 -0.77192289507E+03  0.77192289507E+03  0.00000000000E+00 0.  1.
          6    2    1    2  501    0  0.16865195445E+03  0.71308018068E+02 -0.87849538197E+02  0.26589056549E+03  0.17161566442E+03 0.  0.
         24    2    3    3    0    0  0.88617762603E+02 -0.28219122906E+02 -0.46113293172E+02  0.13144679359E+03  0.80637441621E+02 0.  0.
         -6    2    1    2    0  502 -0.16865195445E+03 -0.71308018068E+02 -0.56823069282E+03  0.62187499363E+03  0.17410936868E+03 0.  0.
        -24    2    5    5    0    0 -0.15478074278E+03 -0.70629924713E+02 -0.57607043527E+03  0.60524905350E+03  0.74320964558E+02 0.  0.
          5    1    3    3  501    0  0.80034191847E+02  0.99527140974E+02 -0.41736245025E+02  0.13444377190E+03  0.47000000000E+01 0. -1.
        -11    1    4    4    0    0  0.51066644744E+02 -0.14804354559E+02  0.17838431244E+02  0.56081911063E+02  0.00000000000E+00 0.  1.
         12    1    4    4    0    0  0.37551117859E+02 -0.13414768347E+02 -0.63951724415E+02  0.75364882525E+02  0.00000000000E+00 0. -1.
         -5    1    5    5    0  502 -0.13871211671E+02 -0.67809335473E+00  0.78397424440E+01  0.16625940136E+02  0.47000000000E+01 0.  1.
         11    1    6    6    0    0 -0.11387426848E+03 -0.35568184999E+02 -0.28061605943E+03  0.30492264202E+03  0.00000000000E+00 0. -1.
        -12    1    6    6    0    0 -0.40906474300E+02 -0.35061739714E+02 -0.29545437584E+03  0.30032641148E+03  0.00000000000E+00 0.  1.
</event>
<event>
12    1  0.9962621E-001  0.1760412E+03  0.7818608E-02  0.1171718E+00
         21   -1    0    0  503  502  0.00000000000E+00  0.00000000000E+00  0.12637862608E+03  0.12637862608E+03  0.00000000000E+00 0.  1.
         21   -1    0    0  501  503 -0.00000000000E+00 -0.00000000000E+00 -0.27462398118E+03  0.27462398118E+03  0.00000000000E+00 0.  1.
          6    2    1    2  501    0  0.17499333982E+02 -0.34570906724E+02 -0.13988380102E+03  0.22476291605E+03  0.17160861390E+03 0.  0.
         24    2    3    3    0    0 -0.26929910548E+02  0.35194392714E+02 -0.92971833806E+02  0.12955799264E+03  0.78598003885E+02 0.  0.
         -6    2    1    2    0  502 -0.17499333982E+02  0.34570906724E+02 -0.83615540812E+01  0.17623969121E+03  0.17172401955E+03 0.  0.
        -24    2    5    5    0    0  0.39851120063E+02  0.14290526910E+02  0.40618002934E+02  0.97999960957E+02  0.78497383750E+02 0.  0.
          5    1    3    3  501    0  0.44429244530E+02 -0.69765299438E+02 -0.46911967210E+02  0.95204923416E+02  0.47000000000E+01 0. -1.
        -11    1    4    4    0    0 -0.11408152268E+02  0.18034385861E+02 -0.10237967915E+03  0.10458003497E+03  0.00000000000E+00 0.  1.
         12    1    4    4    0    0 -0.15521758280E+02  0.17160006852E+02  0.94078453435E+01  0.24977957669E+02  0.00000000000E+00 0. -1.
         -5    1    5    5    0  502 -0.57350454045E+02  0.20280379814E+02 -0.48979557015E+02  0.78239730252E+02  0.47000000000E+01 0.  1.
         13    1    6    6    0    0 -0.25083329675E+01  0.20585340554E+02 -0.16577174889E+02  0.26549024602E+02  0.00000000000E+00 0. -1.
        -14    1    6    6    0    0  0.42359453030E+02 -0.62948136444E+01  0.57195177823E+02  0.71450936355E+02  0.00000000000E+00 0.  1.
</event>
<event>
12    1  0.9962621E-001  0.1836110E+03  0.7818608E-02  0.1164441E+00
         21   -1    0    0  503  502  0.00000000000E+00  0.00000000000E+00  0.41625264960E+03  0.41625264960E+03  0.00000000000E+00 0. -1.
         21   -1    0    0  501  503 -0.00000000000E+00 -0.00000000000E+00 -0.81326570785E+02  0.81326570785E+02  0.00000000000E+00 0. -1.
          6    2    1    2  501    0 -0.65522703253E+02 -0.41695329248E+01  0.14780555132E+03  0.23542069328E+03  0.17107253483E+03 0.  0.
         24    2    3    3    0    0 -0.93224241103E+02 -0.50594875030E+02  0.11875359278E+03  0.17386751396E+03  0.69834777182E+02 0.  0.
         -6    2    1    2    0  502  0.65522703253E+02  0.41695329248E+01  0.18712052749E+03  0.26215852711E+03  0.17147125672E+03 0.  0.
        -24    2    5    5    0    0  0.58505941925E+00  0.35292440458E+02  0.16634077218E+03  0.18706244738E+03  0.77956449903E+02 0.  0.
          5    1    3    3  501    0  0.27701537850E+02  0.46425342106E+02  0.29051958545E+02  0.61553179318E+02  0.47000000000E+01 0. -1.
        -11    1    4    4    0    0 -0.58415345631E+02 -0.66844771775E+01  0.97662973980E+02  0.11399601452E+03  0.00000000000E+00 0.  1.
         12    1    4    4    0    0 -0.34808895471E+02 -0.43910397853E+02  0.21090618800E+02  0.59871499437E+02  0.00000000000E+00 0. -1.
         -5    1    5    5    0  502  0.64937643834E+02 -0.31122907533E+02  0.20779755312E+02  0.75096079730E+02  0.47000000000E+01 0.  1.
         11    1    6    6    0    0  0.36717935829E+02  0.32618361886E+02  0.10242678113E+03  0.11359317690E+03  0.00000000000E+00 0. -1.
        -12    1    6    6    0    0 -0.36132876409E+02  0.26740785723E+01  0.63913991044E+02  0.73469270481E+02  0.00000000000E+00 0.  1.
</event>
<event>
12    1  0.9962621E-001  0.2408394E+03  0.7818608E-02  0.1119383E+00
         21   -1    0    0  501  502  0.00000000000E+00  0.00000000000E+00  0.18128956274E+03  0.18128956274E+03  0.00000000000E+00 0.  1.
         21   -1    0    0  502  503 -0.00000000000E+00 -0.00000000000E+00 -0.13969774700E+04  0.13969774700E+04  0.00000000000E+00 0.  1.
         -6    2    1    2    0  503  0.15448703344E+03 -0.67889757407E+02  0.85176721932E+02  0.25545784104E+03  0.17183821440E+03 0.  0.
        -24    2    3    3    0    0  0.15427177022E+03 -0.98410134386E+02  0.44150713014E+02  0.20410841887E+03  0.78908982731E+02 0.  0.
          6    2    1    2  501    0 -0.15448703344E+03  0.67889757407E+02 -0.13008646292E+04  0.13228091917E+04  0.17058754792E+03 0.  0.
         24    2    5    5    0    0 -0.32178369391E+02  0.78189856151E+02 -0.68962077325E+03  0.69934576634E+03  0.79740760845E+02 0.  0.
          5    1    5    5  501    0 -0.12230866405E+03 -0.10300098744E+02 -0.61124385597E+03  0.62346342539E+03  0.47000000000E+01 0. -1.
        -13    1    6    6    0    0  0.24487395665E+02  0.28695283293E+02 -0.31448899326E+03  0.31674339569E+03  0.00000000000E+00 0.  1.
         14    1    6    6    0    0 -0.56665765056E+02  0.49494572858E+02 -0.37513177999E+03  0.38260237065E+03  0.00000000000E+00 0. -1.
         -5    1    3    3    0  503  0.21526321305E+00  0.30520376979E+02  0.41026008918E+02  0.51349422167E+02  0.47000000000E+01 0.  1.
         13    1    4    4    0    0  0.50516664722E+02 -0.19716394984E+02 -0.21425285424E+02  0.58307053615E+02  0.00000000000E+00 0. -1.
        -14    1    4    4    0    0  0.10375510550E+03 -0.78693739402E+02  0.65575998437E+02  0.14580136525E+03  0.00000000000E+00 0.  1.
</event>
<event>
12    1  0.9962621E-001  0.1925237E+03  0.7818608E-02  0.1157121E+00
         21   -1    0    0  503  502  0.00000000000E+00  0.00000000000E+00  0.37360504990E+03  0.37360504990E+03  0.00000000000E+00 0.  1.
         21   -1    0    0  501  503 -0.00000000000E+00 -0.00000000000E+00 -0.10926265909E+03  0.10926265909E+03  0.00000000000E+00 0.  1.
          6    2    1    2  501    0 -0.77823646915E+02 -0.15382080454E+01  0.21392921552E+03  0.28780392426E+03  0.17608663624E+03 0.  0.
         24    2    3    3    0    0  0.12071772279E+02  0.36734874073E+02  0.13983324563E+03  0.16509158600E+03  0.78782717180E+02 0.  0.
         -6    2    1    2    0  502  0.77823646915E+02  0.15382080454E+01  0.50413175289E+02  0.19506378474E+03  0.17160858303E+03 0.  0.
        -24    2    5    5    0    0  0.64337533898E+02 -0.64424639401E+02  0.30722113788E+02  0.12475873236E+03  0.79567836427E+02 0.  0.
          5    1    3    3  501    0 -0.89895419193E+02 -0.38273082118E+02  0.74095969895E+02  0.12271233826E+03  0.47000000000E+01 0. -1.
        -13    1    4    4    0    0 -0.11202999871E+02 -0.36077067037E+01 -0.51233702265E+01  0.12836342012E+02  0.00000000000E+00 0.  1.
         14    1    4    4    0    0  0.23274772149E+02  0.40342580776E+02  0.14495661585E+03  0.15225524399E+03  0.00000000000E+00 0. -1.
         -5    1    5    5    0  502  0.13486113017E+02  0.65962847446E+02  0.19691061500E+02  0.70305052382E+02  0.47000000000E+01 0.  1.
         13    1    6    6    0    0  0.62834909114E+02 -0.23071013477E+02 -0.88292864469E+01  0.67516322215E+02  0.00000000000E+00 0. -1.
        -14    1    6    6    0    0  0.15026247838E+01 -0.41353625924E+02  0.39551400235E+02  0.57242410142E+02  0.00000000000E+00 0.  1.
</event>
<event>
12    1  0.9962621E-001  0.1760370E+03  0.7818608E-02  0.1171824E+00
         21   -1    0    0  501  502  0.00000000000E+00  0.00000000000E+00  0.65309499258E+03  0.65309499258E+03  0.00000000000E+00 0. -1.
         21   -1    0    0  502  503 -0.00000000000E+00 -0.00000000000E+00 -0.47423702663E+02  0.47423702663E+02  0.00000000000E+00 0. -1.
         -6    2    1    2    0  503 -0.37101286632E+02  0.66743435579E+01  0.28520762360E+03  0.33488775678E+03  0.17142161109E+03 0.  0.
        -24    2    3    3    0    0  0.14911313367E+01  0.51431167681E+02  0.86184197166E+02  0.12722225097E+03  0.78169027243E+02 0.  0.
          6    2    1    2  501    0  0.37101286632E+02 -0.66743435579E+01  0.32046366632E+03  0.36563093847E+03  0.17195339311E+03 0.  0.
         24    2    5    5    0    0  0.27907712885E+02  0.63993438863E+02  0.17751240379E+03  0.20583228163E+03  0.77345161476E+02 0.  0.
          5    1    5    5  501    0  0.91935737471E+01 -0.70667782421E+02  0.14295126252E+03  0.15979865684E+03  0.47000000000E+01 0. -1.
        -13    1    6    6    0    0  0.44546440548E+02  0.38872647198E+02  0.16091401485E+03  0.17143158472E+03  0.00000000000E+00 0.  1.
         14    1    6    6    0    0 -0.16638727663E+02  0.25120791666E+02  0.16598388947E+02  0.34400696908E+02  0.00000000000E+00 0. -1.
         -5    1    3    3    0  503 -0.38592417969E+02 -0.44756824123E+02  0.19902342644E+03  0.20766550581E+03  0.47000000000E+01 0.  1.
         13    1    4    4    0    0 -0.39215043462E+01 -0.74502431032E+01 -0.10763592109E+02  0.13665256446E+02  0.00000000000E+00 0. -1.
        -14    1    4    4    0    0  0.54126356829E+01  0.58881410784E+02  0.96947789275E+02  0.11355699453E+03  0.00000000000E+00 0.  1.
</event>
<event>
12    1  0.9962621E-001  0.2413275E+03  0.7818608E-02  0.1119036E+00
         21   -1    0    0  503  502  0.00000000000E+00  0.00000000000E+00  0.32669231572E+02  0.32669231572E+02  0.00000000000E+00 0.  1.
         21   -1    0    0  501  503 -0.00000000000E+00 -0.00000000000E+00 -0.19034724196E+04  0.19034724196E+04  0.00000000000E+00 0.  1.
          6    2    1    2  501    0  0.16689469354E+03  0.23249312834E+02 -0.68737462212E+03  0.72850725788E+03  0.17275585191E+03 0.  0.
         24    2    3    3    0    0  0.54229321625E+02  0.58734734536E+02 -0.44274893608E+03  0.45681530464E+03  0.79139205144E+02 0.  0.
         -6    2    1    2    0  502 -0.16689469354E+03 -0.23249312834E+02 -0.11834285659E+04  0.12076343933E+04  0.17170698290E+03 0.  0.
        -24    2    5    5    0    0 -0.72523165943E+02  0.12387637320E+02 -0.90126141991E+03  0.90794060671E+03  0.81675792795E+02 0.  0.
          5    1    3    3  501    0  0.11266537192E+03 -0.35485421702E+02 -0.24462568604E+03  0.27169195323E+03  0.47000000000E+01 0. -1.
        -11    1    4    4    0    0  0.48749873984E+02  0.71591751020E+02 -0.27113688439E+03  0.28463509816E+03  0.00000000000E+00 0.  1.
         12    1    4    4    0    0  0.54794476405E+01 -0.12857016484E+02 -0.17161205169E+03  0.17218020648E+03  0.00000000000E+00 0. -1.
         -5    1    5    5    0  502 -0.94371527599E+02 -0.35636950154E+02 -0.28216714596E+03  0.29969378655E+03  0.47000000000E+01 0.  1.
         11    1    6    6    0    0 -0.56018964760E+02 -0.20112560463E+02 -0.74964281677E+03  0.75200198952E+03  0.00000000000E+00 0. -1.
        -12    1    6    6    0    0 -0.16504201183E+02  0.32500197783E+02 -0.15161860314E+03  0.15593861719E+03  0.00000000000E+00 0.  1.
</event>
<event>
12    1  0.9962621E-001  0.4111456E+03  0.7818608E-02  0.1040003E+00
         21   -1    0    0  501  502  0.00000000000E+00  0.00000000000E+00  0.16124953815E+04  0.16124953815E+04  0.00000000000E+00 0. -1.
         21   -1    0    0  502  503 -0.00000000000E+00 -0.00000000000E+00 -0.14984911975E+03  0.14984911975E+03  0.00000000000E+00 0. -1.
         -6    2    1    2    0  503  0.77877561245E+02 -0.36538015146E+03  0.12146726277E+04  0.12823690301E+04  0.17167750954E+03 0.  0.
        -24    2    3    3    0    0  0.80694067535E+02 -0.13235176719E+03  0.60816728212E+03  0.63261447276E+03  0.79404693130E+02 0.  0.
          6    2    1    2  501    0 -0.77877561245E+02  0.36538015146E+03  0.24797363403E+03  0.47997547111E+03  0.17122488158E+03 0.  0.
         24    2    5    5    0    0  0.16172616838E+02  0.13632631829E+03  0.13217046458E+03  0.20658278917E+03  0.79755867995E+02 0.  0.
          5    1    5    5  501    0 -0.94050178083E+02  0.22905383317E+03  0.11580316945E+03  0.27339268195E+03  0.47000000000E+01 0. -1.
        -13    1    6    6    0    0  0.30870957405E+02  0.12085410296E+03  0.74969722604E+02  0.14553071676E+03  0.00000000000E+00 0.  1.
         14    1    6    6    0    0 -0.14698340567E+02  0.15472215327E+02  0.57200741975E+02  0.61052072406E+02  0.00000000000E+00 0. -1.
         -5    1    3    3    0  503 -0.28165062900E+01 -0.23302838427E+03  0.60650534558E+03  0.64975455735E+03  0.47000000000E+01 0.  1.
         13    1    4    4    0    0  0.89988681580E-01  0.14567765872E+01 -0.21637149431E+01  0.26099728625E+01  0.00000000000E+00 0. -1.
        -14    1    4    4    0    0  0.80604078854E+02 -0.13380854378E+03  0.61033099707E+03  0.63000449990E+03  0.00000000000E+00 0.  1.
</event>
<event>
12    1  0.9962621E-001  0.2716281E+03  0.7818608E-02  0.1100436E+00
         21   -1    0    0  503  502  0.00000000000E+00  0.00000000000E+00  0.14965232300E+04  0.14965232300E+04  0.00000000000E+00 0. -1.
         21   -1    0    0  501  503 -0.00000000000E+00 -0.00000000000E+00 -0.76289499347E+02  0.76289499347E+02  0.00000000000E+00 0.  1.
          6    2    1    2  501    0 -0.85652588078E+01 -0.20971388730E+03  0.24195628400E+03  0.36376460531E+03  0.17241973937E+03 0.  0.
         24    2    3    3    0    0  0.17653088149E+02 -0.22246072857E+03  0.18787323852E+03  0.30214521317E+03  0.78708124200E+02 0.  0.
         -6    2    1    2    0  502  0.85652588078E+01  0.20971388730E+03  0.11782774467E+04  0.12090481241E+04  0.17148278850E+03 0.  0.
        -24    2    5    5    0    0 -0.30154109368E+02  0.12741788159E+03  0.45956573906E+03  0.48458940840E+03  0.80508629070E+02 0.  0.
          5    1    3    3  501    0 -0.26218346957E+02  0.12746841264E+02  0.54083045479E+02  0.61619392139E+02  0.47000000000E+01 0. -1.
        -13    1    4    4    0    0  0.58085355435E+01 -0.75542861312E+02  0.19229820973E+02  0.78168081689E+02  0.00000000000E+00 0.  1.
         14    1    4    4    0    0  0.11844552605E+02 -0.14691786726E+03  0.16864341755E+03  0.22397713148E+03  0.00000000000E+00 0. -1.
         -5    1    5    5    0  502  0.38719368176E+02  0.82296005719E+02  0.71871170761E+03  0.72445871565E+03  0.47000000000E+01 0.  1.
         11    1    6    6    0    0 -0.29732535349E+02  0.11882721857E+03  0.45994881824E+03  0.47597988081E+03  0.00000000000E+00 0. -1.
        -12    1    6    6    0    0 -0.42157401908E+00  0.85906630198E+01 -0.38307917767E+00  0.86095275962E+01  0.00000000000E+00 0.  1.
</event>
<event>
12    1  0.9962621E-001  0.3160929E+03  0.7818608E-02  0.1077766E+00
         21   -1    0    0  501  502  0.00000000000E+00  0.00000000000E+00  0.11585623709E+03  0.11585623709E+03  0.00000000000E+00 0. -1.
         21   -1    0    0  502  503 -0.00000000000E+00 -0.00000000000E+00 -0.85663046890E+03  0.85663046890E+03  0.00000000000E+00 0. -1.
         -6    2    1    2    0  503  0.26219961450E+03  0.55936543072E+01 -0.35300038142E+03  0.47383965713E+03  0.17645062927E+03 0.  0.
        -24    2    3    3    0    0  0.96956153431E+02 -0.33010408716E+02 -0.83846599402E+02  0.15562349870E+03  0.81842765989E+02 0.  0.
          6    2    1    2  501    0 -0.26219961450E+03 -0.55936543072E+01 -0.38777385039E+03  0.49864704887E+03  0.17175678585E+03 0.  0.
         24    2    5    5    0    0 -0.26902336150E+03 -0.70883518617E+01 -0.30408461171E+03  0.41453535935E+03  0.83356459280E+02 0.  0.
          5    1    5    5  501    0  0.68237469988E+01  0.14946975545E+01 -0.83689238676E+02  0.84111689521E+02  0.47000000000E+01 0. -1.
        -11    1    6    6    0    0 -0.50076602621E+02 -0.19098764584E+02 -0.10715029384E+03  0.11980657081E+03  0.00000000000E+00 0.  1.
         12    1    6    6    0    0 -0.21894675888E+03  0.12010412722E+02 -0.19693431787E+03  0.29472878853E+03  0.00000000000E+00 0. -1.
         -5    1    3    3    0  503  0.16524346107E+03  0.38604063023E+02 -0.26915378202E+03  0.31821615843E+03  0.47000000000E+01 0.  1.
         11    1    4    4    0    0  0.42092357096E+02 -0.52870281039E+02 -0.66355497181E+02  0.94710533464E+02  0.00000000000E+00 0. -1.
        -12    1    4    4    0    0  0.54863796334E+02  0.19859872323E+02 -0.17491102221E+02  0.60912965236E+02  0.00000000000E+00 0.  1.
</event>
<event>
12    1  0.9962621E-001  0.1873870E+03  0.7818608E-02  0.1160853E+00
         21   -1    0    0  501  502  0.00000000000E+00  0.00000000000E+00  0.12524443676E+03  0.12524443676E+03  0.00000000000E+00 0.  1.
         21   -1    0    0  502  503 -0.00000000000E+00 -0.00000000000E+00 -0.30993973339E+03  0.30993973339E+03  0.00000000000E+00 0.  1.
         -6    2    1    2    0  503  0.77665322540E+02  0.76063665651E+01 -0.25017481244E+02  0.18899136186E+03  0.17030003333E+03 0.  0.
        -24    2    3    3    0    0 -0.19593951873E+02  0.38984307021E+01 -0.72120595670E+01  0.89934619086E+02  0.87390509754E+02 0.  0.
          6    2    1    2  501    0 -0.77665322540E+02 -0.76063665651E+01 -0.15967781539E+03  0.24619280830E+03  0.17036471170E+03 0.  0.
         24    2    5    5    0    0 -0.10567435638E+03 -0.31958097772E+02 -0.79054687920E+02  0.15731259975E+03  0.79430603334E+02 0.  0.
          5    1    5    5  501    0  0.28009033844E+02  0.24351731207E+02 -0.80623127468E+02  0.88880208552E+02  0.47000000000E+01 0. -1.
        -11    1    6    6    0    0 -0.11695786225E+02 -0.17510892508E+02 -0.55493317567E+02  0.59354284314E+02  0.00000000000E+00 0.  1.
         12    1    6    6    0    0 -0.93978570159E+02 -0.14447205263E+02 -0.23561370354E+02  0.97958315431E+02  0.00000000000E+00 0. -1.
         -5    1    3    3    0  503  0.97259274413E+02  0.37079358629E+01 -0.17805421677E+02  0.99056742773E+02  0.47000000000E+01 0.  1.
         11    1    4    4    0    0 -0.34947973422E+02  0.26084100086E+02  0.23104047110E+02  0.49351171379E+02  0.00000000000E+00 0. -1.
        -12    1    4    4    0    0  0.15354021549E+02 -0.22185669384E+02 -0.30316106677E+02  0.40583447707E+02  0.00000000000E+00 0.  1.
</event>
<event>
12    1  0.9962621E-001  0.2143540E+03  0.7818608E-02  0.1138514E+00
         21   -1    0    0  503  502  0.00000000000E+00  0.00000000000E+00  0.48263691496E+02  0.48263691496E+02  0.00000000000E+00 0.  1.
         21   -1    0    0  501  503 -0.00000000000E+00 -0.00000000000E+00 -0.95058789345E+03  0.95058789345E+03  0.00000000000E+00 0.  1.
          6    2    1    2  501    0 -0.29602912971E+02  0.12169222375E+03 -0.49082988706E+03  0.53487400767E+03  0.17172913635E+03 0.  0.
         24    2    3    3    0    0 -0.70174698151E+02  0.64430210746E+02 -0.19764953853E+03  0.23337472964E+03  0.79515306935E+02 0.  0.
         -6    2    1    2    0  502  0.29602912971E+02 -0.12169222375E+03 -0.41149431489E+03  0.46397757728E+03  0.17396060258E+03 0.  0.
        -24    2    5    5    0    0 -0.16091576677E+02 -0.12381264216E+03 -0.20499030927E+03  0.25241558424E+03  0.78128682795E+02 0.  0.
          5    1    3    3  501    0  0.40571785179E+02  0.57262013002E+02 -0.29318034854E+03  0.30149927803E+03  0.47000000000E+01 0. -1.
        -13    1    4    4    0    0  0.11720207594E+01  0.22225004863E+02 -0.38442653064E+01  0.22585456594E+02  0.00000000000E+00 0.  1.
         14    1    4    4    0    0 -0.71346718910E+02  0.42205205883E+02 -0.19380527322E+03  0.21078927305E+03  0.00000000000E+00 0. -1.
         -5    1    5    5    0  502  0.45694489649E+02  0.21204184118E+01 -0.20650400562E+03  0.21156199304E+03  0.47000000000E+01 0.  1.
         11    1    6    6    0    0  0.10822243295E+02 -0.10508149288E+02 -0.80674949431E+02  0.82073074861E+02  0.00000000000E+00 0. -1.
        -12    1    6    6    0    0 -0.26913819972E+02 -0.11330449287E+03 -0.12431535984E+03  0.17034250938E+03  0.00000000000E+00 0.  1.
</event>
<event>
12    1  0.9962621E-001  0.2521949E+03  0.7818608E-02  0.1111947E+00
         21   -1    0    0  503  502  0.00000000000E+00  0.00000000000E+00  0.25171394337E+03  0.25171394337E+03  0.00000000000E+00 0.  1.
         21   -1    0    0  501  503 -0.00000000000E+00 -0.00000000000E+00 -0.65240994593E+03  0.65240994593E+03  0.00000000000E+00 0.  1.
          6    2    1    2  501    0 -0.81708056977E+02  0.16447063986E+03 -0.55428205166E+03  0.60895883241E+03  0.17284521639E+03 0.  0.
         24    2    3    3    0    0 -0.11821652288E+03  0.89305898321E+02 -0.38677516082E+03  0.42170698347E+03  0.79316234926E+02 0.  0.
         -6    2    1    2    0  502  0.81708056977E+02 -0.16447063986E+03  0.15358604910E+03  0.29516505689E+03  0.17264686032E+03 0.  0.
        -24    2    5    5    0    0  0.39492616746E+02 -0.10196587317E+03  0.17024684734E+03  0.21777861460E+03  0.80540858427E+02 0.  0.
          5    1    3    3  501    0  0.36508465903E+02  0.75164741540E+02 -0.16750689084E+03  0.18725184894E+03  0.47000000000E+01 0. -1.
        -11    1    4    4    0    0 -0.21831704437E+02  0.27272454361E+02 -0.19644792758E+03  0.19952994346E+03  0.00000000000E+00 0.  1.
         12    1    4    4    0    0 -0.96384818443E+02  0.62033443960E+02 -0.19032723324E+03  0.22217704001E+03  0.00000000000E+00 0. -1.
         -5    1    5    5    0  502  0.42215440230E+02 -0.62504766687E+02 -0.16660798244E+02  0.77386442292E+02  0.47000000000E+01 0.  1.
         13    1    6    6    0    0  0.62571747210E+02 -0.67519334145E+02  0.13477380195E+03  0.16321170829E+03  0.00000000000E+00 0. -1.
        -14    1    6    6    0    0 -0.23079130463E+02 -0.34446539029E+02  0.35473045392E+02  0.54566906302E+02  0.00000000000E+00 0.  1.
</event>
<event>
12    1  0.9962621E-001  0.1897113E+03  0.7818608E-02  0.1159282E+00
         21   -1    0    0  503  502  0.00000000000E+00  0.00000000000E+00  0.25826580839E+03  0.25826580839E+03  0.00000000000E+00 0. -1.
         21   -1    0    0  501  503 -0.00000000000E+00 -0.00000000000E+00 -0.21738668384E+03  0.21738668384E+03  0.00000000000E+00 0. -1.
          6    2    1    2  501    0 -0.52252438943E+02  0.61592532491E+02 -0.12360050619E+03  0.22642320953E+03  0.17165787849E+03 0.  0.
         24    2    3    3    0    0 -0.60596618351E+02  0.76782130067E+02 -0.27970795386E+02  0.12912222909E+03  0.79515652537E+02 0.  0.
         -6    2    1    2    0  502  0.52252438943E+02 -0.61592532491E+02  0.16447963074E+03  0.24922928271E+03  0.16893113685E+03 0.  0.
        -24    2    5    5    0    0  0.74724597519E+02 -0.37447747844E+01  0.52929098689E+02  0.12149137845E+03  0.79755104774E+02 0.  0.
          5    1    3    3  501    0  0.83441794081E+01 -0.15189597576E+02 -0.95629710806E+02  0.97300980434E+02  0.47000000000E+01 0. -1.
        -13    1    4    4    0    0  0.15135517243E+02  0.31479348912E+02  0.42273371681E+01  0.35183855242E+02  0.00000000000E+00 0.  1.
         14    1    4    4    0    0 -0.75732135594E+02  0.45302781155E+02 -0.32198132554E+02  0.93938373852E+02  0.00000000000E+00 0. -1.
         -5    1    5    5    0  502 -0.22472158577E+02 -0.57847757707E+02  0.11155053205E+03  0.12773790426E+03  0.47000000000E+01 0.  1.
         13    1    6    6    0    0 -0.46986097805E+01  0.18858485307E+02 -0.56583814151E+01  0.20241953517E+02  0.00000000000E+00 0. -1.
        -14    1    6    6    0    0  0.79423207300E+02 -0.22603260092E+02  0.58587480104E+02  0.10124942493E+03  0.00000000000E+00 0.  1.
</event>
<event>
12    1  0.9962621E-001  0.2024377E+03  0.7818608E-02  0.1148160E+00
         21   -1    0    0  501  502  0.00000000000E+00  0.00000000000E+00  0.69390133526E+02  0.69390133526E+02  0.00000000000E+00 0.  1.
         21   -1    0    0  502  503 -0.00000000000E+00 -0.00000000000E+00 -0.64288049262E+03  0.64288049262E+03  0.00000000000E+00 0.  1.
         -6    2    1    2    0  503  0.89652652982E+01 -0.10476390614E+03 -0.17767679310E+03  0.26769285625E+03  0.17039533582E+03 0.  0.
        -24    2    3    3    0    0  0.12071809217E+02 -0.20329472308E+02 -0.11903737104E+02  0.81570261369E+02  0.77155638553E+02 0.  0.
          6    2    1    2  501    0 -0.89652652982E+01  0.10476390614E+03 -0.39581356600E+03  0.44457776991E+03  0.17298890846E+03 0.  0.
         24    2    5    5    0    0 -0.40112686961E+02  0.12610554239E+03 -0.24952639640E+03  0.29342336771E+03  0.79512355891E+02 0.  0.
          5    1    5    5  501    0  0.31147421663E+02 -0.21341636251E+02 -0.14628716960E+03  0.15115440220E+03  0.47000000000E+01 0. -1.
        -11    1    6    6    0    0  0.10931488053E+02  0.91711238520E+02 -0.16080867750E+03  0.18544508475E+03  0.00000000000E+00 0.  1.
         12    1    6    6    0    0 -0.51044175014E+02  0.34394303868E+02 -0.88717718908E+02  0.10797828295E+03  0.00000000000E+00 0. -1.
         -5    1    3    3    0  503 -0.31065439186E+01 -0.84434433828E+02 -0.16577305599E+03  0.18612259488E+03  0.47000000000E+01 0.  1.
         11    1    4    4    0    0 -0.27985403941E+02 -0.20070535447E+02 -0.21209297939E+02  0.40445562747E+02  0.00000000000E+00 0. -1.
        -12    1    4    4    0    0  0.40057213158E+02 -0.25893686148E+00  0.93055608348E+01  0.41124698621E+02  0.00000000000E+00 0.  1.
</event>
<event>
12    1  0.9962621E-001  0.3691666E+03  0.7818608E-02  0.1055084E+00
         21   -1    0    0  503  502  0.00000000000E+00  0.00000000000E+00  0.74286218311E+03  0.74286218311E+03  0.00000000000E+00 0. -1.
         21   -1    0    0  501  503 -0.00000000000E+00 -0.00000000000E+00 -0.20937118972E+03  0.20937118972E+03  0.00000000000E+00 0.  1.
          6    2    1    2  501    0 -0.23310283921E+03  0.22728463982E+03  0.98282483832E+02  0.38202542697E+03  0.17403660270E+03 0.  0.
         24    2    3    3    0    0 -0.13068075783E+03  0.21517671472E+03  0.54271024069E+02  0.26979359907E+03  0.80403750020E+02 0.  0.
         -6    2    1    2    0  502  0.23310283921E+03 -0.22728463982E+03  0.43520850956E+03  0.57020794586E+03  0.17243959399E+03 0.  0.
        -24    2    5    5    0    0  0.12090983922E+03 -0.72194156384E+02  0.27963026547E+03  0.32349554784E+03  0.81394709103E+02 0.  0.
          5    1    3    3  501    0 -0.10242208138E+03  0.12107925096E+02  0.44011459763E+02  0.11223182791E+03  0.47000000000E+01 0. -1.
        -13    1    4    4    0    0 -0.89500983046E+02  0.11137042316E+03 -0.57843144427E+01  0.14299389992E+03  0.00000000000E+00 0.  1.
         14    1    4    4    0    0 -0.41179774784E+02  0.10380629157E+03  0.60055338512E+02  0.12679969915E+03  0.00000000000E+00 0. -1.
         -5    1    5    5    0  502  0.11219299999E+03 -0.15509048344E+03  0.15557824409E+03  0.24671239802E+03  0.47000000000E+01 0.  1.
         13    1    6    6    0    0  0.77512088754E+01 -0.37656303839E+02  0.11124603412E+03  0.11770199049E+03  0.00000000000E+00 0. -1.
        -14    1    6    6    0    0  0.11315863034E+03 -0.34537852545E+02  0.16838423135E+03  0.20579355735E+03  0.00000000000E+00 0.  1.
</event>
<event>
12    1  0.9962621E-001  0.1798396E+03  0.7818608E-02  0.1169620E+00
         21   -1    0    0  503  502  0.00000000000E+00  0.00000000000E+00  0.27875760345E+03  0.27875760345E+03  0.00000000000E+00 0. -1.
         21   -1    0    0  501  503 -0.00000000000E+00 -0.00000000000E+00 -0.11173395094E+03  0.11173395094E+03  0.00000000000E+00 0. -1.
          6    2    1    2  501    0  0.51560062232E+02 -0.41586938453E+00  0.83522235751E+02  0.19221204433E+03  0.16526007732E+03 0.  0.
         24    2    3    3    0    0 -0.11738404877E+02 -0.20538871506E+02  0.93944455440E+02  0.12481513182E+03  0.78699561818E+02 0.  0.
         -6    2    1    2    0  502 -0.51560062232E+02  0.41586938453E+00  0.83501416758E+02  0.19827951006E+03  0.17228947891E+03 0.  0.
        -24    2    5    5    0    0  0.33197939285E+02 -0.25535759016E+02  0.50855598436E+02  0.10370020317E+03  0.80082845127E+02 0.  0.
          5    1    3    3  501    0  0.63298467109E+02  0.20123002122E+02 -0.10422219689E+02  0.67396912511E+02  0.47000000000E+01 0. -1.
        -11    1    4    4    0    0 -0.38846839350E+02 -0.15205038033E+02  0.20775011503E+02  0.46603339065E+02  0.00000000000E+00 0.  1.
         12    1    4    4    0    0  0.27108434473E+02 -0.53338334728E+01  0.73169443937E+02  0.78211792750E+02  0.00000000000E+00 0. -1.
         -5    1    5    5    0  502 -0.84758001518E+02  0.25951628400E+02  0.32645818322E+02  0.94579306890E+02  0.47000000000E+01 0.  1.
         13    1    6    6    0    0  0.39420334560E+02  0.16196644591E+02  0.76307791884E+01  0.43295760345E+02  0.00000000000E+00 0. -1.
        -14    1    6    6    0    0 -0.62223952748E+01 -0.41732403607E+02  0.43224819248E+02  0.60404442823E+02  0.00000000000E+00 0.  1.
</event>
<event>
12    1  0.9962621E-001  0.3023373E+03  0.7818608E-02  0.1084177E+00
         21   -1    0    0  503  502  0.00000000000E+00  0.00000000000E+00  0.14908298071E+03  0.14908298071E+03  0.00000000000E+00 0.  1.
         21   -1    0    0  501  503 -0.00000000000E+00 -0.00000000000E+00 -0.11067196986E+04  0.11067196986E+04  0.00000000000E+00 0.  1.
          6    2    1    2  501    0 -0.38419818513E+02  0.24446621056E+03 -0.89848358883E+03  0.94773303442E+03  0.17229432546E+03 0.  0.
         24    2    3    3    0    0  0.10855320568E+02  0.79209474062E+02 -0.51049412832E+03  0.52312057611E+03  0.81602103746E+02 0.  0.
         -6    2    1    2    0  502  0.38419818513E+02 -0.24446621056E+03 -0.59153129091E+02  0.30806964491E+03  0.17368938619E+03 0.  0.
        -24    2    5    5    0    0 -0.99384789833E+01 -0.22332464833E+03 -0.15402811503E+02  0.23935522955E+03  0.84148721867E+02 0.  0.
          5    1    3    3  501    0 -0.49275139081E+02  0.16525673650E+03 -0.38798946051E+03  0.42461245832E+03  0.47000000000E+01 0. -1.
        -11    1    4    4    0    0 -0.28791883739E+02  0.81297545404E+01 -0.90620780526E+02  0.95431605568E+02  0.00000000000E+00 0.  1.
         12    1    4    4    0    0  0.39647204307E+02  0.71079719522E+02 -0.41987334779E+03  0.42768897054E+03  0.00000000000E+00 0. -1.
         -5    1    5    5    0  502  0.48358297496E+02 -0.21141562228E+02 -0.43750317588E+02  0.68714415367E+02  0.47000000000E+01 0.  1.
         13    1    6    6    0    0  0.10935614125E+02 -0.21727039905E+02 -0.27009389487E+02  0.36347751509E+02  0.00000000000E+00 0. -1.
        -14    1    6    6    0    0 -0.20874093108E+02 -0.20159760843E+03  0.11606577984E+02  0.20300747804E+03  0.00000000000E+00 0.  1.
</event>
<event>
12    1  0.9962621E-001  0.2093852E+03  0.7818608E-02  0.1142093E+00
         21   -1    0    0  503  502  0.00000000000E+00  0.00000000000E+00  0.21822278812E+03  0.21822278812E+03  0.00000000000E+00 0.  1.
         21   -1    0    0  501  503 -0.00000000000E+00 -0.00000000000E+00 -0.24566198984E+03  0.24566198984E+03  0.00000000000E+00 0.  1.
          6    2    1    2  501    0  0.10247598612E+03  0.61165166408E+02  0.85485579240E+02  0.22616355418E+03  0.17204552788E+03 0.  0.
         24    2    3    3    0    0  0.28121053491E+02 -0.32710887024E+02  0.39527005568E+02  0.97806045985E+02  0.78376289033E+02 0.  0.
         -6    2    1    2    0  502 -0.10247598612E+03 -0.61165166408E+02 -0.11292478096E+03  0.23772122378E+03  0.17180474024E+03 0.  0.
        -24    2    5    5    0    0 -0.59855187179E+02 -0.10025194840E+03 -0.11018390584E+03  0.17963584330E+03  0.80594332945E+02 0.  0.
          5    1    3    3  501    0  0.74354932633E+02  0.93876053432E+02  0.45958573673E+02  0.12835750819E+03  0.47000000000E+01 0. -1.
        -13    1    4    4    0    0  0.11405508740E+02 -0.53222902214E+02  0.55098584889E+01  0.54709427801E+02  0.00000000000E+00 0.  1.
         14    1    4    4    0    0  0.16715544752E+02  0.20512015190E+02  0.34017147079E+02  0.43096618184E+02  0.00000000000E+00 0. -1.
         -5    1    5    5    0  502 -0.42620798945E+02  0.39086781993E+02 -0.27408751181E+01  0.58085380482E+02  0.47000000000E+01 0.  1.
         13    1    6    6    0    0  0.51004993643E+01 -0.60608425403E+02 -0.25974905797E+02  0.66136918999E+02  0.00000000000E+00 0. -1.
        -14    1    6    6    0    0 -0.64955686543E+02 -0.39643522998E+02 -0.84209000041E+02  0.11349892430E+03  0.00000000000E+00 0.  1.
</event>
<event>
12    1  0.9962621E-001  0.2456459E+03  0.7818608E-02  0.1116123E+00
         21   -1    0    0  503  502  0.00000000000E+00  0.00000000000E+00  0.56048711697E+03  0.56048711697E+03  0.00000000000E+00 0. -1.
         21   -1    0    0  501  503 -0.00000000000E+00 -0.00000000000E+00 -0.12618838214E+03  0.12618838214E+03  0.00000000000E+00 0. -1.
          6    2    1    2  501    0 -0.13289060090E+03  0.11448542937E+03  0.34896932520E+03  0.42663126507E+03  0.17166193831E+03 0.  0.
         24    2    3    3    0    0 -0.13379713833E+03  0.76285820825E+02  0.15719503252E+03  0.23103090405E+03  0.70312158907E+02 0.  0.
         -6    2    1    2    0  502  0.13289060090E+03 -0.11448542937E+03  0.85329409638E+02  0.26004423404E+03  0.17197403921E+03 0.  0.
        -24    2    5    5    0    0  0.10286599271E+03 -0.53547090735E+01  0.32070806861E+02  0.13486612102E+03  0.80933606008E+02 0.  0.
          5    1    3    3  501    0  0.90653743102E+00  0.38199608543E+02  0.19177429267E+03  0.19560036103E+03  0.47000000000E+01 0. -1.
        -13    1    4    4    0    0 -0.10249223183E+03  0.53955073507E+02  0.15364709350E+03  0.19241423254E+03  0.00000000000E+00 0.  1.
         14    1    4    4    0    0 -0.31304906502E+02  0.22330747318E+02  0.35479390203E+01  0.38616671506E+02  0.00000000000E+00 0. -1.
         -5    1    5    5    0  502  0.30024608195E+02 -0.10913072029E+03  0.53258602777E+02  0.12517811302E+03  0.47000000000E+01 0.  1.
         13    1    6    6    0    0  0.84474843425E+02  0.12012982092E+02 -0.98636464528E+01  0.85892970794E+02  0.00000000000E+00 0. -1.
        -14    1    6    6    0    0  0.18391149280E+02 -0.17367691165E+02  0.41934453314E+02  0.48973150225E+02  0.00000000000E+00 0.  1.
</event>
<event>
12    1  0.9962621E-001  0.1747971E+03  0.7818608E-02  0.1173752E+00
         21   -1    0    0  501  502  0.00000000000E+00  0.00000000000E+00  0.16322469695E+03  0.16322469695E+03  0.00000000000E+00 0. -1.
         21   -1    0    0  502  503 -0.00000000000E+00 -0.00000000000E+00 -0.20386867607E+03  0.20386867607E+03  0.00000000000E+00 0. -1.
         -6    2    1    2    0  503 -0.66951151264E+01 -0.14714529141E+02 -0.77788423705E+02  0.18839323426E+03  0.17082046106E+03 0.  0.
        -24    2    3    3    0    0 -0.18675407001E+02 -0.51700864889E+02 -0.10400121188E+03  0.14126875348E+03  0.78223132000E+02 0.  0.
          6    2    1    2  501    0  0.66951151264E+01  0.14714529141E+02  0.37144444589E+02  0.17870013876E+03  0.17404794711E+03 0.  0.
         24    2    5    5    0    0  0.24193441559E+02  0.71010090096E+01 -0.44572164780E+02  0.94653417444E+02  0.79604300243E+02 0.  0.
          5    1    5    5  501    0 -0.17498326433E+02  0.76135201310E+01  0.81716609369E+02  0.84046721313E+02  0.47000000000E+01 0. -1.
        -11    1    6    6    0    0  0.32343427201E+02  0.37501577058E+02 -0.15723911339E+02  0.51958704302E+02  0.00000000000E+00 0.  1.
         12    1    6    6    0    0 -0.81499856419E+01 -0.30400568049E+02 -0.28848253441E+02  0.42694713142E+02  0.00000000000E+00 0. -1.
         -5    1    3    3    0  503  0.11980291875E+02  0.36986335749E+02  0.26212788171E+02  0.47124480785E+02  0.47000000000E+01 0.  1.
         11    1    4    4    0    0  0.28730405875E+02 -0.23778235121E+02 -0.60756692069E+02  0.71289664878E+02  0.00000000000E+00 0. -1.
        -12    1    4    4    0    0 -0.47405812876E+02 -0.27922629768E+02 -0.43244519807E+02  0.69979088598E+02  0.00000000000E+00 0.  1.
</event>
<event>
12    1  0.9962621E-001  0.2909700E+03  0.7818608E-02  0.1089974E+00
         21   -1    0    0  503  502  0.00000000000E+00  0.00000000000E+00  0.29911378908E+03  0.29911378908E+03  0.00000000000E+00 0. -1.
         21   -1    0    0  501  503 -0.00000000000E+00 -0.00000000000E+00 -0.42629816880E+03  0.42629816880E+03  0.00000000000E+00 0. -1.
          6    2    1    2  501    0 -0.36212522465E+02 -0.22954254421E+03  0.14730219841E+03  0.32613108632E+03  0.17510688571E+03 0.  0.
         24    2    3    3    0    0 -0.84610453839E+02 -0.17476620844E+03  0.72877113626E+02  0.22170891451E+03  0.78368441160E+02 0.  0.
         -6    2    1    2    0  502  0.36212522465E+02  0.22954254421E+03 -0.27448657812E+03  0.39928087157E+03  0.17343934515E+03 0.  0.
        -24    2    5    5    0    0  0.28506852455E+02  0.17654086217E+03 -0.10564295393E+03  0.22208376358E+03  0.78622183111E+02 0.  0.
          5    1    3    3  501    0  0.48397931374E+02 -0.54776335763E+02  0.74425084779E+02  0.10442217181E+03  0.47000000000E+01 0. -1.
        -13    1    4    4    0    0 -0.36880605401E+02 -0.13724485749E+03  0.75530789421E+02  0.16093859112E+03  0.00000000000E+00 0.  1.
         14    1    4    4    0    0 -0.47729848438E+02 -0.37521350955E+02 -0.26536757942E+01  0.60770323388E+02  0.00000000000E+00 0. -1.
         -5    1    5    5    0  502  0.77056700096E+01  0.53001682036E+02 -0.16884362420E+03  0.17719710799E+03  0.47000000000E+01 0.  1.
         13    1    6    6    0    0  0.74127234241E+01  0.15824708817E+03 -0.11128038780E+03  0.19359859011E+03  0.00000000000E+00 0. -1.
        -14    1    6    6    0    0  0.21094129031E+02  0.18293774005E+02  0.56374338768E+01  0.28485173470E+02  0.00000000000E+00 0.  1.
</event>
<event>
12    1  0.9962621E-001  0.1966816E+03  0.7818608E-02  0.1152904E+00
         21   -1    0    0  501  502  0.00000000000E+00  0.00000000000E+00  0.40183168488E+02  0.40183168488E+02  0.00000000000E+00 0. -1.
         21   -1    0    0  502  503 -0.00000000000E+00 -0.00000000000E+00 -0.13006021531E+04  0.13006021531E+04  0.00000000000E+00 0. -1.
         -6    2    1    2    0  503 -0.85963484363E+02  0.41888610597E+02 -0.28287184255E+03  0.34364837957E+03  0.17009806916E+03 0.  0.
        -24    2    3    3    0    0 -0.31765435769E+02 -0.35909271914E+01 -0.57164656499E+02  0.10706511587E+03  0.84694766161E+02 0.  0.
          6    2    1    2  501    0  0.85963484363E+02 -0.41888610597E+02 -0.97754714205E+03  0.99713694201E+03  0.17186997948E+03 0.  0.
         24    2    5    5    0    0  0.48919514163E+02 -0.88685501693E+02 -0.78181297060E+03  0.79245142563E+03  0.80557457116E+02 0.  0.
          5    1    5    5  501    0  0.37043970200E+02  0.46796891096E+02 -0.19573417144E+03  0.20468551638E+03  0.47000000000E+01 0. -1.
        -13    1    6    6    0    0  0.64944299739E+02 -0.62020702784E+02 -0.43066155049E+03  0.43992465345E+03  0.00000000000E+00 0.  1.
         14    1    6    6    0    0 -0.16024785576E+02 -0.26664798908E+02 -0.35115142011E+03  0.35252677218E+03  0.00000000000E+00 0. -1.
         -5    1    3    3    0  503 -0.54198048595E+02  0.45479537788E+02 -0.22570718606E+03  0.23658326371E+03  0.47000000000E+01 0.  1.
         11    1    4    4    0    0  0.25584885137E+02  0.10761083033E+02 -0.49594355848E+01  0.28195447449E+02  0.00000000000E+00 0. -1.
        -12    1    4    4    0    0 -0.57350320906E+02 -0.14352010224E+02 -0.52205220914E+02  0.78869668417E+02  0.00000000000E+00 0.  1.
</event>
<event>
12    1  0.9962621E-001  0.1951993E+03  0.7818608E-02  0.1153949E+00
         21   -1    0    0  501  502  0.00000000000E+00  0.00000000000E+00  0.24353725031E+03  0.24353725031E+03  0.00000000000E+00 0.  1.
         21   -1    0    0  502  503 -0.00000000000E+00 -0.00000000000E+00 -0.34851399582E+03  0.34851399582E+03  0.00000000000E+00 0.  1.
         -6    2    1    2    0  503 -0.89438606393E+02  0.15598618898E+02  0.16743845364E+03  0.25717384530E+03  0.17280095405E+03 0.  0.
        -24    2    3    3    0    0 -0.90035991748E+02  0.32383149237E+02  0.42691812447E+02  0.13121396352E+03  0.78989652531E+02 0.  0.
          6    2    1    2  501    0  0.89438606393E+02 -0.15598618898E+02 -0.27241519915E+03  0.33487740084E+03  0.17230859421E+03 0.  0.
         24    2    5    5    0    0  0.32362318404E+02 -0.70232905030E+02 -0.12207290913E+03  0.16497300996E+03  0.79588430503E+02 0.  0.
          5    1    5    5  501    0  0.57076287989E+02  0.54634286132E+02 -0.15034229002E+03  0.16990439088E+03  0.47000000000E+01 0. -1.
        -11    1    6    6    0    0  0.17391784598E+02  0.13365091093E+01 -0.77282214234E+02  0.79226264995E+02  0.00000000000E+00 0.  1.
         12    1    6    6    0    0  0.14970533806E+02 -0.71569414139E+02 -0.44790694895E+02  0.85746744963E+02  0.00000000000E+00 0. -1.
         -5    1    3    3    0  503  0.59738535550E+00 -0.16784530339E+02  0.12474664120E+03  0.12595988178E+03  0.47000000000E+01 0.  1.
         11    1    4    4    0    0 -0.52325182616E+02 -0.10271982603E+01 -0.15171849594E+02  0.54490043973E+02  0.00000000000E+00 0. -1.
        -12    1    4    4    0    0 -0.37710809133E+02  0.33410347497E+02  0.57863662041E+02  0.76723919543E+02  0.00000000000E+00 0.  1.
</event>
<event>
12    1  0.9962621E-001  0.3083354E+03  0.7818608E-02  0.1081234E+00
         21   -1    0    0  503  502  0.00000000000E+00  0.00000000000E+00  0.64504687175E+03  0.64504687175E+03  0.00000000000E+00 0. -1.
         21   -1    0    0  501  503 -0.00000000000E+00 -0.00000000000E+00 -0.14714854262E+03  0.14714854262E+03  0.00000000000E+00 0. -1.
          6    2    1    2  501    0 -0.24942778532E+03  0.55662012263E+02  0.23847685800E+03  0.38979733066E+03  0.17250584769E+03 0.  0.
         24    2    3    3    0    0 -0.57329329767E+02  0.60389889464E+02  0.87634125911E+02  0.14546192742E+03  0.80906374934E+02 0.  0.
         -6    2    1    2    0  502  0.24942778532E+03 -0.55662012263E+02  0.25942147112E+03  0.40239808371E+03  0.17120817269E+03 0.  0.
        -24    2    5    5    0    0  0.22326050962E+03 -0.35285805459E+02  0.13887240496E+03  0.27728180390E+03  0.80680299278E+02 0.  0.
          5    1    3    3  501    0 -0.19209845556E+03 -0.47278772010E+01  0.15084273209E+03  0.24433540324E+03  0.47000000000E+01 0. -1.
        -13    1    4    4    0    0 -0.68393143438E+02  0.21732030072E+02  0.73800519354E+02  0.10293891323E+03  0.00000000000E+00 0.  1.
         14    1    4    4    0    0  0.11063813671E+02  0.38657859392E+02  0.13833606557E+02  0.42523014193E+02  0.00000000000E+00 0. -1.
         -5    1    5    5    0  502  0.26167275704E+02 -0.20376206803E+02  0.12054906616E+03  0.12511627981E+03  0.47000000000E+01 0.  1.
         13    1    6    6    0    0  0.77583083009E+02  0.16242089302E+02  0.77985961134E+02  0.11119689909E+03  0.00000000000E+00 0. -1.
        -14    1    6    6    0    0  0.14567742661E+03 -0.51527894761E+02  0.60886443827E+02  0.16608490481E+03  0.00000000000E+00 0.  1.
</event>
<event>
12    1  0.9962621E-001  0.1757484E+03  0.7818608E-02  0.1172312E+00
         21   -1    0    0  501  502  0.00000000000E+00  0.00000000000E+00  0.55411099176E+02  0.55411099176E+02  0.00000000000E+00 0.  1.
         21   -1    0    0  502  503 -0.00000000000E+00 -0.00000000000E+00 -0.72426411383E+03  0.72426411383E+03  0.00000000000E+00 0.  1.
         -6    2    1    2    0  503  0.32308649427E+02 -0.65623730604E+01 -0.14596029876E+03  0.22845550806E+03  0.17262849354E+03 0.  0.
        -24    2    3    3    0    0  0.50099475802E+02  0.19245377745E+02 -0.16520269440E+03  0.19137568478E+03  0.80326710671E+02 0.  0.
          6    2    1    2  501    0 -0.32308649427E+02  0.65623730604E+01 -0.52289271590E+03  0.55121970495E+03  0.17128764466E+03 0.  0.
         24    2    5    5    0    0 -0.82462236246E+02  0.61579150999E+01 -0.42465798014E+03  0.44082179208E+03  0.84566612474E+02 0.  0.
          5    1    5    5  501    0  0.50153586819E+02  0.40445796053E+00 -0.98234735753E+02  0.11039791287E+03  0.47000000000E+01 0. -1.
        -11    1    6    6    0    0 -0.61524937477E+02  0.14217045091E+02 -0.12236658480E+03  0.13769903187E+03  0.00000000000E+00 0.  1.
         12    1    6    6    0    0 -0.20937298769E+02 -0.80591299907E+01 -0.30229139535E+03  0.30312276021E+03  0.00000000000E+00 0. -1.
         -5    1    3    3    0  503 -0.17790826375E+02 -0.25807750805E+02  0.19242395641E+02  0.37079823284E+02  0.47000000000E+01 0.  1.
         11    1    4    4    0    0  0.57223562734E+02 -0.32300849478E+01 -0.15577281314E+03  0.16598234513E+03  0.00000000000E+00 0. -1.
        -12    1    4    4    0    0 -0.71240869323E+01  0.22475462693E+02 -0.94298812548E+01  0.25393339645E+02  0.00000000000E+00 0.  1.
</event>
<event>
12    1  0.9962621E-001  0.3169096E+03  0.7818608E-02  0.1077321E+00
         21   -1    0    0  501  502  0.00000000000E+00  0.00000000000E+00  0.35781152669E+03  0.35781152669E+03  0.00000000000E+00 0.  1.
         21   -1    0    0  502  503 -0.00000000000E+00 -0.00000000000E+00 -0.58581083063E+03  0.58581083063E+03  0.00000000000E+00 0.  1.
         -6    2    1    2    0  503 -0.52116274268E+02  0.25861682113E+03  0.22769800699E+03  0.38856221921E+03  0.17185880715E+03 0.  0.
        -24    2    3    3    0    0 -0.52786989313E+02  0.77710715740E+02  0.40491082237E+02  0.12818558527E+03  0.77243737281E+02 0.  0.
          6    2    1    2  501    0  0.52116274268E+02 -0.25861682113E+03 -0.45569731094E+03  0.55506013811E+03  0.17559314198E+03 0.  0.
         24    2    5    5    0    0  0.19897079613E+02 -0.11062935634E+03 -0.33340783209E+03  0.36034194976E+03  0.77786824060E+02 0.  0.
          5    1    5    5  501    0  0.32219194655E+02 -0.14798746479E+03 -0.12228947885E+03  0.19471818835E+03  0.47000000000E+01 0. -1.
        -13    1    6    6    0    0 -0.27604226253E+01 -0.68041331426E+02 -0.28090904411E+03  0.28904521061E+03  0.00000000000E+00 0.  1.
         14    1    6    6    0    0  0.22657502239E+02 -0.42588024916E+02 -0.52498787979E+02  0.71296739149E+02  0.00000000000E+00 0. -1.
         -5    1    3    3    0  503  0.67071504450E+00  0.18090610539E+03  0.18720692475E+03  0.26037663394E+03  0.47000000000E+01 0.  1.
         13    1    4    4    0    0 -0.45935146295E+02  0.90152553319E+02  0.19817945745E+02  0.10310320804E+03  0.00000000000E+00 0. -1.
        -14    1    4    4    0    0 -0.68518430181E+01 -0.12441837579E+02  0.20673136492E+02  0.25082377230E+02  0.00000000000E+00 0.  1.
</event>
<event>
12    1  0.9962621E-001  0.2820607E+03  0.7818608E-02  0.1094603E+00
         21   -1    0    0  501  502  0.00000000000E+00  0.00000000000E+00  0.12404709825E+03  0.12404709825E+03  0.00000000000E+00 0.  1.
         21   -1    0    0  502  503 -0.00000000000E+00 -0.00000000000E+00 -0.64520591907E+03  0.64520591907E+03  0.00000000000E+00 0.  1.
         -6    2    1    2    0  503 -0.74956403219E+02 -0.21123222751E+03 -0.29253881731E+03  0.40637078875E+03  0.17123300497E+03 0.  0.
        -24    2    3    3    0    0 -0.23704297397E+02 -0.21281012413E+03 -0.25111477057E+03  0.34028516431E+03  0.82977842867E+02 0.  0.
          6    2    1    2  501    0  0.74956403219E+02  0.21123222751E+03 -0.22862000351E+03  0.36288222857E+03  0.17081829377E+03 0.  0.
         24    2    5    5    0    0  0.66851147664E+02  0.66193992314E+02 -0.50680702890E+02  0.13312960173E+03  0.79399223225E+02 0.  0.
          5    1    5    5  501    0  0.81052555541E+01  0.14503823520E+03 -0.17793930062E+03  0.22975262684E+03  0.47000000000E+01 0. -1.
        -13    1    6    6    0    0  0.60532533884E+02  0.82334980815E+02 -0.30755413338E+02  0.10671987713E+03  0.00000000000E+00 0.  1.
         14    1    6    6    0    0  0.63186137809E+01 -0.16140988501E+02 -0.19925289552E+02  0.26409724603E+02  0.00000000000E+00 0. -1.
         -5    1    3    3    0  503 -0.51252105822E+02  0.15778966139E+01 -0.41424046742E+02  0.66085624438E+02  0.47000000000E+01 0.  1.
         11    1    4    4    0    0 -0.50115845943E+02 -0.11129100358E+03 -0.16071542891E+03  0.20180865834E+03  0.00000000000E+00 0. -1.
        -12    1    4    4    0    0  0.26411548547E+02 -0.10151912054E+03 -0.90399341662E+02  0.13847650597E+03  0.00000000000E+00 0.  1.
</event>
<event>
12    1  0.9962621E-001  0.2201019E+03  0.7818608E-02  0.1134163E+00
         21   -1    0    0  501  502  0.00000000000E+00  0.00000000000E+00  0.14062663245E+04  0.14062663245E+04  0.00000000000E+00 0.  1.
         21   -1    0    0  502  503 -0.00000000000E+00 -0.00000000000E+00 -0.89877623477E+02  0.89877623477E+02  0.00000000000E+00 0.  1.
         -6    2    1    2    0  503  0.38383085956E+01  0.13785125499E+03  0.12483155419E+04  0.12675711220E+04  0.17154345225E+03 0.  0.
        -24    2    3    3    0    0  0.28102863026E+02  0.14776106887E+03  0.12038516936E+04  0.12157435538E+04  0.78424385070E+02 0.  0.
          6    2    1    2  501    0 -0.38383085956E+01 -0.13785125499E+03  0.68073159061E+02  0.22857282594E+03  0.16909725207E+03 0.  0.
         24    2    5    5    0    0 -0.11341909703E+01 -0.79292379694E+02 -0.30064840166E+02  0.11416298799E+03  0.76424638337E+02 0.  0.
          5    1    5    5  501    0 -0.27041176253E+01 -0.58558875292E+02  0.98137999227E+02  0.11440983795E+03  0.47000000000E+01 0. -1.
        -11    1    6    6    0    0 -0.16167689464E+02 -0.81695582824E+02 -0.43412514233E+02  0.93915966840E+02  0.00000000000E+00 0.  1.
         12    1    6    6    0    0  0.15033498494E+02  0.24032031297E+01  0.13347674067E+02  0.20247021146E+02  0.00000000000E+00 0. -1.
         -5    1    3    3    0  503 -0.24264554431E+02 -0.99098138857E+01  0.44463848381E+02  0.51827568202E+02  0.47000000000E+01 0.  1.
         11    1    4    4    0    0 -0.21109560207E+02  0.36769839073E+02  0.19150545387E+03  0.19614273746E+03  0.00000000000E+00 0. -1.
        -12    1    4    4    0    0  0.49212423234E+02  0.11099122980E+03  0.10123462397E+04  0.10196008163E+04  0.00000000000E+00 0.  1.
</event>
<event>
12    1  0.9962621E-001  0.2042751E+03  0.7818608E-02  0.1146263E+00
         21   -1    0    0  501  502  0.00000000000E+00  0.00000000000E+00  0.44421004732E+03  0.44421004732E+03  0.00000000000E+00 0. -1.
         21   -1    0    0  502  503 -0.00000000000E+00 -0.00000000000E+00 -0.95120212572E+02  0.95120212572E+02  0.00000000000E+00 0. -1.
         -6    2    1    2    0  503 -0.10580398751E+03 -0.28113336595E+02  0.20667933451E+03  0.29031404848E+03  0.17199144154E+03 0.  0.
        -24    2    3    3    0    0 -0.35229078628E+02  0.52181595502E+02  0.88312864499E+02  0.13074962542E+03  0.73022569259E+02 0.  0.
          6    2    1    2  501    0  0.10580398751E+03  0.28113336595E+02  0.14241050024E+03  0.24901621141E+03  0.17246298008E+03 0.  0.
         24    2    5    5    0    0  0.38339673989E+02 -0.48819463651E+02  0.60362787550E+02  0.11777594887E+03  0.79838821257E+02 0.  0.
          5    1    5    5  501    0  0.67464313526E+02  0.76932800246E+02  0.82047712693E+02  0.13124026254E+03  0.47000000000E+01 0. -1.
        -13    1    6    6    0    0  0.30710090204E+02 -0.46350389818E+01  0.65651104779E+02  0.72626859945E+02  0.00000000000E+00 0.  1.
         14    1    6    6    0    0  0.76295837852E+01 -0.44184424669E+02 -0.52883172292E+01  0.45149088930E+02  0.00000000000E+00 0. -1.
         -5    1    3    3    0  503 -0.70574908887E+02 -0.80294932097E+02  0.11836647001E+03  0.15956442306E+03  0.47000000000E+01 0.  1.
         11    1    4    4    0    0 -0.54332440539E+00  0.15365197146E+02  0.77518609517E+02  0.79028598027E+02  0.00000000000E+00 0. -1.
        -12    1    4    4    0    0 -0.34685754223E+02  0.36816398355E+02  0.10794254983E+02  0.51721027392E+02  0.00000000000E+00 0.  1.
</event>
<event>
12    1  0.9962621E-001  0.3566831E+03  0.7818608E-02  0.1059947E+00
         21   -1    0    0  501  502  0.00000000000E+00  0.00000000000E+00  0.15599907995E+04  0.15599907995E+04  0.00000000000E+00 0.  1.
         21   -1    0    0  502  503 -0.00000000000E+00 -0.00000000000E+00 -0.89289314812E+02  0.89289314812E+02  0.00000000000E+00 0. -1.
         -6    2    1    2    0  503 -0.28382228548E+03 -0.13226160593E+03  0.49151218710E+03  0.60729485674E+03  0.17080571071E+03 0.  0.
        -24    2    3    3    0    0 -0.25053964989E+03 -0.13712374394E+03  0.34164589503E+03  0.45362843322E+03  0.86508962042E+02 0.  0.
          6    2    1    2  501    0  0.28382228548E+03  0.13226160593E+03  0.97918929754E+03  0.10419852575E+04  0.16992167121E+03 0.  0.
         24    2    5    5    0    0  0.10736748690E+03  0.33332224661E+02  0.25630062096E+03  0.29130993014E+03  0.80824826939E+02 0.  0.
          5    1    5    5  501    0  0.17645479859E+03  0.98929381271E+02  0.72288867658E+03  0.75067532739E+03  0.47000000000E+01 0. -1.
        -11    1    6    6    0    0  0.16256983877E+02  0.31669619364E+02  0.13487634547E+03  0.13949509985E+03  0.00000000000E+00 0.  1.
         12    1    6    6    0    0  0.91110503018E+02  0.16626052974E+01  0.12142427549E+03  0.15181483029E+03  0.00000000000E+00 0. -1.
         -5    1    3    3    0  503 -0.33282635587E+02  0.48621380097E+01  0.14986629207E+03  0.15366642352E+03  0.47000000000E+01 0.  1.
         11    1    4    4    0    0 -0.17227086427E+03 -0.70798993129E+02  0.27189862641E+03  0.32957337748E+03  0.00000000000E+00 0. -1.
        -12    1    4    4    0    0 -0.78268785624E+02 -0.66324750813E+02  0.69747268625E+02  0.12405505574E+03  0.00000000000E+00 0.  1.
</event>
<event>
12    1  0.9962621E-001  0.2344996E+03  0.7818608E-02  0.1123657E+00
         21   -1    0    0  503  502  0.00000000000E+00  0.00000000000E+00  0.36334642534E+03  0.36334642534E+03  0.00000000000E+00 0. -1.
         21   -1    0    0  501  503 -0.00000000000E+00 -0.00000000000E+00 -0.16027597415E+03  0.16027597415E+03  0.00000000000E+00 0. -1.
          6    2    1    2  501    0  0.14532949824E+03 -0.61291042753E+02  0.38046416659E+02  0.23756602011E+03  0.17353048467E+03 0.  0.
         24    2    3    3    0    0  0.31338546170E+02 -0.28807802663E+02  0.41624332753E+02  0.11889003465E+03  0.10290899519E+03 0.  0.
         -6    2    1    2    0  502 -0.14532949824E+03  0.61291042753E+02  0.16502403453E+03  0.28605637939E+03  0.17238928399E+03 0.  0.
        -24    2    5    5    0    0 -0.72005071122E+00  0.22135168870E+02  0.28436331957E+02  0.83267412061E+02  0.75062325851E+02 0.  0.
          5    1    3    3  501    0  0.11399095207E+03 -0.32483240090E+02 -0.35779160941E+01  0.11867598546E+03  0.47000000000E+01 0. -1.
        -13    1    4    4    0    0  0.54012302052E+02 -0.54726867001E+02  0.27333008333E+02  0.81605466051E+02  0.00000000000E+00 0.  1.
         14    1    4    4    0    0 -0.22673755882E+02  0.25919064338E+02  0.14291324420E+02  0.37284568599E+02  0.00000000000E+00 0. -1.
         -5    1    5    5    0  502 -0.14460944753E+03  0.39155873883E+02  0.13658770258E+03  0.20278896733E+03  0.47000000000E+01 0.  1.
         13    1    6    6    0    0 -0.24296355637E+02  0.13679244525E+02  0.45214330831E+02  0.53120338294E+02  0.00000000000E+00 0. -1.
        -14    1    6    6    0    0  0.23576304925E+02  0.84559243453E+01 -0.16777998874E+02  0.30147073766E+02  0.00000000000E+00 0.  1.
</event>
<event>
12    1  0.9962621E-001  0.2144848E+03  0.7818608E-02  0.1138225E+00
         21   -1    0    0  501  502  0.00000000000E+00  0.00000000000E+00  0.19241860049E+03  0.19241860049E+03  0.00000000000E+00 0. -1.
         21   -1    0    0  502  503 -0.00000000000E+00 -0.00000000000E+00 -0.27956757604E+03  0.27956757604E+03  0.00000000000E+00 0. -1.
         -6    2    1    2    0  503 -0.12510583337E+03 -0.20105376525E+02  0.47336027621E+02  0.21882627786E+03  0.17201321072E+03 0.  0.
        -24    2    3    3    0    0 -0.97504856454E+02 -0.72617300909E+02  0.47759841406E+01  0.14566369569E+03  0.80091402742E+02 0.  0.
          6    2    1    2  501    0  0.12510583337E+03  0.20105376525E+02 -0.13448500317E+03  0.25315989867E+03  0.17305496961E+03 0.  0.
         24    2    5    5    0    0  0.69333225638E+00  0.56658105783E+01 -0.20423493391E+02  0.83692823660E+02  0.80961642342E+02 0.  0.
          5    1    5    5  501    0  0.12441250112E+03  0.14439565947E+02 -0.11406150978E+03  0.16946707501E+03  0.47000000000E+01 0. -1.
        -13    1    6    6    0    0  0.32456880040E+02  0.26673835826E+02 -0.17461370272E+02  0.45495516608E+02  0.00000000000E+00 0.  1.
         14    1    6    6    0    0 -0.31763547784E+02 -0.21008025248E+02 -0.29621231188E+01  0.38197307052E+02  0.00000000000E+00 0. -1.
         -5    1    3    3    0  503 -0.27600976919E+02  0.52511924384E+02  0.42560043480E+02  0.73162582175E+02  0.47000000000E+01 0.  1.
         13    1    4    4    0    0  0.86177826710E+01 -0.28032675599E+02  0.83745310594E+01  0.30499669668E+02  0.00000000000E+00 0. -1.
        -14    1    4    4    0    0 -0.10612263913E+03 -0.44584625310E+02 -0.35985469187E+01  0.11516402602E+03  0.00000000000E+00 0.  1.
</event>
<event>
12    1  0.9962621E-001  0.1943528E+03  0.7818608E-02  0.1154800E+00
         21   -1    0    0  501  502  0.00000000000E+00  0.00000000000E+00  0.13575378025E+03  0.13575378025E+03  0.00000000000E+00 0. -1.
         21   -1    0    0  502  503 -0.00000000000E+00 -0.00000000000E+00 -0.33258808438E+03  0.33258808438E+03  0.00000000000E+00 0. -1.
         -6    2    1    2    0  503 -0.84664869231E+02 -0.26050917212E+02 -0.23977885714E+01  0.19342630286E+03  0.17193369326E+03 0.  0.
        -24    2    3    3    0    0 -0.11814976447E+03 -0.19953851085E+02  0.29371067671E+02  0.14663140301E+03  0.79250146462E+02 0.  0.
          6    2    1    2  501    0  0.84664869231E+02  0.26050917212E+02 -0.19443651555E+03  0.27491556177E+03  0.17299195690E+03 0.  0.
         24    2    5    5    0    0  0.99306237189E+02 -0.11836524544E+02 -0.20154864139E+03  0.23341254703E+03  0.62110628776E+02 0.  0.
          5    1    5    5  501    0 -0.14641367957E+02  0.37887441755E+02  0.71121258357E+01  0.41503014738E+02  0.47000000000E+01 0. -1.
        -11    1    6    6    0    0  0.77103376622E+02  0.12880838426E+01 -0.88158432727E+02  0.11712599672E+03  0.00000000000E+00 0.  1.
         12    1    6    6    0    0  0.22202860567E+02 -0.13124608386E+02 -0.11339020866E+03  0.11628655031E+03  0.00000000000E+00 0. -1.
         -5    1    3    3    0  503  0.33484895243E+02 -0.60970661267E+01 -0.31768856242E+02  0.46794899848E+02  0.47000000000E+01 0.  1.
         13    1    4    4    0    0 -0.67417970952E+01  0.97221906202E+01 -0.18365889531E+02  0.21846709519E+02  0.00000000000E+00 0. -1.
        -14    1    4    4    0    0 -0.11140796738E+03 -0.29676041705E+02  0.47736957203E+02  0.12478469349E+03  0.00000000000E+00 0.  1.
</event>
<event>
12    1  0.9962621E-001  0.2707438E+03  0.7818608E-02  0.1101068E+00
         21   -1    0    0  501  502  0.00000000000E+00  0.00000000000E+00  0.51893442696E+03  0.51893442696E+03  0.00000000000E+00 0. -1.
         21   -1    0    0  502  503 -0.00000000000E+00 -0.00000000000E+00 -0.14115811221E+03  0.14115811221E+03  0.00000000000E+00 0. -1.
         -6    2    1    2    0  503  0.60679859434E+02 -0.19815797655E+03  0.16548705732E+03  0.31604468294E+03  0.17190010605E+03 0.  0.
        -24    2    3    3    0    0  0.36854323563E+02 -0.10545706011E+03  0.16625176627E+02  0.13900495408E+03  0.81034240102E+02 0.  0.
          6    2    1    2  501    0 -0.60679859434E+02  0.19815797655E+03  0.21228925742E+03  0.34404785624E+03  0.17422275842E+03 0.  0.
         24    2    5    5    0    0 -0.62728248136E+01  0.11626501224E+03  0.19961839310E+03  0.24480460043E+03  0.80776779621E+02 0.  0.
          5    1    5    5  501    0 -0.54407034620E+02  0.81892964311E+02  0.12670864320E+02  0.99243255804E+02  0.47000000000E+01 0. -1.
        -13    1    6    6    0    0  0.12034681933E+02  0.87728231766E+02  0.76227753161E+02  0.11684068885E+03  0.00000000000E+00 0.  1.
         14    1    6    6    0    0 -0.18307506747E+02  0.28536780470E+02  0.12339063994E+03  0.12796391159E+03  0.00000000000E+00 0. -1.
         -5    1    3    3    0  503  0.23825535871E+02 -0.92700916434E+02  0.14886188070E+03  0.17703972885E+03  0.47000000000E+01 0.  1.
         11    1    4    4    0    0  0.96502797395E+01  0.11434399544E+02  0.11515930906E+02  0.18880944273E+02  0.00000000000E+00 0. -1.
        -12    1    4    4    0    0  0.27204043823E+02 -0.11689145966E+03  0.51092457209E+01  0.12012400981E+03  0.00000000000E+00 0.  1.
</event>
<event>
12    1  0.9962621E-001  0.1950130E+03  0.7818608E-02  0.1154498E+00
         21   -1    0    0  501  502  0.00000000000E+00  0.00000000000E+00  0.21823593325E+04  0.21823593325E+04  0.00000000000E+00 0.  1.
         21   -1    0    0  502  503 -0.00000000000E+00 -0.00000000000E+00 -0.28449824624E+02  0.28449824624E+02  0.00000000000E+00 0.  1.
         -6    2    1    2    0  503  0.13063691373E+02  0.90420867847E+02  0.17748186410E+04  0.17855002904E+04  0.17228895872E+03 0.  0.
        -24    2    3    3    0    0  0.15000795603E+02  0.10016486272E+03  0.77470986595E+03  0.78533112986E+03  0.79445475269E+02 0.  0.
          6    2    1    2  501    0 -0.13063691373E+02 -0.90420867847E+02  0.37909086688E+03  0.42530886670E+03  0.16979738917E+03 0.  0.
         24    2    5    5    0    0 -0.53427242375E+02 -0.11154064060E+03  0.28968666767E+03  0.32485757559E+03  0.79487698772E+02 0.  0.
          5    1    5    5  501    0  0.40363551001E+02  0.21119772754E+02  0.89404199209E+02  0.10045129112E+03  0.47000000000E+01 0. -1.
        -11    1    6    6    0    0  0.12060649569E+02 -0.36424668491E+02  0.13900311325E+03  0.14420152993E+03  0.00000000000E+00 0.  1.
         12    1    6    6    0    0 -0.65487891943E+02 -0.75115972110E+02  0.15068355442E+03  0.18065604565E+03  0.00000000000E+00 0. -1.
         -5    1    3    3    0  503 -0.19371042302E+01 -0.97439948697E+01  0.10001087750E+04  0.10001691605E+04  0.47000000000E+01 0.  1.
         11    1    4    4    0    0  0.55602995406E+01  0.34219921789E+02  0.54645463424E+03  0.54755327345E+03  0.00000000000E+00 0. -1.
        -12    1    4    4    0    0  0.94404960627E+01  0.65944940928E+02  0.22825523171E+03  0.23777785642E+03  0.00000000000E+00 0.  1.
</event>
<event>
12    1  0.9962621E-001  0.1867150E+03  0.7818608E-02  0.1161603E+00
         21   -1    0    0  503  502  0.00000000000E+00  0.00000000000E+00  0.13239256155E+03  0.13239256155E+03  0.00000000000E+00 0.  1.
         21   -1    0    0  501  503 -0.00000000000E+00 -0.00000000000E+00 -0.38848641178E+03  0.38848641178E+03  0.00000000000E+00 0.  1.
          6    2    1    2  501    0  0.65543639191E+02 -0.26606177335E+02  0.20155790947E+02  0.18779970310E+03  0.17279645617E+03 0.  0.
         24    2    3    3    0    0 -0.19626398456E+02 -0.33185292349E+02  0.44385572984E+02  0.98881806110E+02  0.79505178106E+02 0.  0.
         -6    2    1    2    0  502 -0.65543639191E+02  0.26606177335E+02 -0.27624964117E+03  0.33307927023E+03  0.17211646842E+03 0.  0.
        -24    2    5    5    0    0 -0.10840252315E+03  0.12810232259E+02 -0.18653710663E+03  0.23259225173E+03  0.85952628443E+02 0.  0.
          5    1    3    3  501    0  0.85170037647E+02  0.65791150135E+01 -0.24229782037E+02  0.88917896988E+02  0.47000000000E+01 0. -1.
        -13    1    4    4    0    0 -0.76330479859E+01  0.74645103331E+01  0.54313109493E+02  0.55352472383E+02  0.00000000000E+00 0.  1.
         14    1    4    4    0    0 -0.11993350470E+02 -0.40649802682E+02 -0.99275365090E+01  0.43529333727E+02  0.00000000000E+00 0. -1.
         -5    1    5    5    0  502  0.42858883964E+02  0.13795945076E+02 -0.89712534536E+02  0.10048701851E+03  0.47000000000E+01 0.  1.
         13    1    6    6    0    0 -0.60315559561E+02 -0.76306194509E+01 -0.30457873141E+02  0.67999081719E+02  0.00000000000E+00 0. -1.
        -14    1    6    6    0    0 -0.48086963593E+02  0.20440851710E+02 -0.15607923349E+03  0.16459317001E+03  0.00000000000E+00 0.  1.
</event>
<event>
12    1  0.9962621E-001  0.1750532E+03  0.7818608E-02  0.1172963E+00
         21   -1    0    0  501  502  0.00000000000E+00  0.00000000000E+00  0.29154312470E+03  0.29154312470E+03  0.00000000000E+00 0.  1.
         21   -1    0    0  502  503 -0.00000000000E+00 -0.00000000000E+00 -0.23852802185E+03  0.23852802185E+03  0.00000000000E+00 0.  1.
         -6    2    1    2    0  503 -0.17382551187E+02 -0.23208007047E+02 -0.17217629510E+03  0.24553677151E+03  0.17263506275E+03 0.  0.
        -24    2    3    3    0    0  0.75041872507E+01 -0.21131035000E+02 -0.19426210960E+03  0.21186873377E+03  0.81533794578E+02 0.  0.
          6    2    1    2  501    0  0.17382551187E+02  0.23208007047E+02  0.22519139795E+03  0.28453437503E+03  0.17148725955E+03 0.  0.
         24    2    5    5    0    0 -0.15354777229E+02  0.73769523107E+02  0.11955296401E+03  0.16283898357E+03  0.80906808389E+02 0.  0.
          5    1    5    5  501    0  0.32737328416E+02 -0.50561516060E+02  0.10563843394E+03  0.12169539146E+03  0.47000000000E+01 0. -1.
        -13    1    6    6    0    0  0.21548313568E+02  0.69604593903E+02  0.71254047820E+02  0.10191304451E+03  0.00000000000E+00 0.  1.
         14    1    6    6    0    0 -0.36903090797E+02  0.41649292045E+01  0.48298916188E+02  0.60925939062E+02  0.00000000000E+00 0. -1.
         -5    1    3    3    0  503 -0.24886738437E+02 -0.20769720469E+01  0.22085814499E+02  0.33668037736E+02  0.47000000000E+01 0.  1.
         11    1    4    4    0    0 -0.22001024194E+02 -0.17065408445E+02 -0.17311732869E+03  0.17534218751E+03  0.00000000000E+00 0. -1.
        -12    1    4    4    0    0  0.29505211445E+02 -0.40656265548E+01 -0.21144780912E+02  0.36526546258E+02  0.00000000000E+00 0.  1.
</event>
<event>
12    1  0.9962621E-001  0.2060965E+03  0.7818608E-02  0.1145088E+00
         21   -1    0    0  503  502  0.00000000000E+00  0.00000000000E+00  0.24863666132E+03  0.24863666132E+03  0.00000000000E+00 0. -1.
         21   -1    0    0  501  503 -0.00000000000E+00 -0.00000000000E+00 -0.18974159044E+03  0.18974159044E+03  0.00000000000E+00 0. -1.
          6    2    1    2  501    0  0.86444284492E+02  0.68926698559E+02 -0.42474886453E+02  0.21042787278E+03  0.17393179573E+03 0.  0.
         24    2    3    3    0    0  0.30701368335E+02 -0.12464655645E+02  0.16534661006E+02  0.95379874391E+02  0.87897575429E+02 0.  0.
         -6    2    1    2    0  502 -0.86444284492E+02 -0.68926698559E+02  0.10136995734E+03  0.22795037899E+03  0.17164499099E+03 0.  0.
        -24    2    5    5    0    0 -0.10245117263E+02  0.14071587128E+02  0.75591631387E+02  0.11227133766E+03  0.81165180539E+02 0.  0.
          5    1    3    3  501    0  0.55742916157E+02  0.81391354204E+02 -0.59009547459E+02  0.11504799838E+03  0.47000000000E+01 0. -1.
        -11    1    4    4    0    0  0.37896207467E+02 -0.27097764567E+01 -0.29294196370E+02  0.47975153672E+02  0.00000000000E+00 0.  1.
         12    1    4    4    0    0 -0.71948391325E+01 -0.97548791881E+01  0.45828857376E+02  0.47404720720E+02  0.00000000000E+00 0. -1.
         -5    1    5    5    0  502 -0.76199167229E+02 -0.82998285687E+02  0.25778325952E+02  0.11567904133E+03  0.47000000000E+01 0.  1.
         13    1    6    6    0    0 -0.15401749776E+02  0.53140704573E+01 -0.14377891664E+02  0.21729634366E+02  0.00000000000E+00 0. -1.
        -14    1    6    6    0    0  0.51566325127E+01  0.87575166705E+01  0.89969523051E+02  0.90541703292E+02  0.00000000000E+00 0.  1.
</event>
<event>
12    1  0.9962621E-001  0.3757690E+03  0.7818608E-02  0.1052527E+00
         21   -1    0    0  503  502  0.00000000000E+00  0.00000000000E+00  0.75565736941E+03  0.75565736941E+03  0.00000000000E+00 0. -1.
         21   -1    0    0  501  503 -0.00000000000E+00 -0.00000000000E+00 -0.23943871850E+03  0.23943871850E+03  0.00000000000E+00 0.  1.
          6    2    1    2  501    0 -0.32894865755E+03  0.60870499831E+02  0.24793286417E+02  0.37658602155E+03  0.17114288627E+03 0.  0.
         24    2    3    3    0    0 -0.24892320939E+03  0.86156070862E+02  0.65991261050E+02  0.28297621667E+03  0.79593089824E+02 0.  0.
         -6    2    1    2    0  502  0.32894865755E+03 -0.60870499831E+02  0.49142536449E+03  0.61851006636E+03  0.17071431186E+03 0.  0.
        -24    2    5    5    0    0  0.77703452688E+02 -0.33068823615E+02  0.21549941523E+03  0.24427176575E+03  0.78085363069E+02 0.  0.
          5    1    3    3  501    0 -0.80025448161E+02 -0.25285571030E+02 -0.41197974632E+02  0.93609804879E+02  0.47000000000E+01 0. -1.
        -11    1    4    4    0    0 -0.81214760892E+02  0.38801587207E+02 -0.14241790875E+02  0.91127543388E+02  0.00000000000E+00 0.  1.
         12    1    4    4    0    0 -0.16770844850E+03  0.47354483654E+02  0.80233051925E+02  0.19184867328E+03  0.00000000000E+00 0. -1.
         -5    1    5    5    0  502  0.25124520486E+03 -0.27801676216E+02  0.27592594926E+03  0.37423830061E+03  0.47000000000E+01 0.  1.
         11    1    6    6    0    0 -0.66336391444E+01  0.13427787012E+02  0.12205994014E+02  0.19320893411E+02  0.00000000000E+00 0. -1.
        -12    1    6    6    0    0  0.84337091833E+02 -0.46496610627E+02  0.20329342121E+03  0.22495087234E+03  0.00000000000E+00 0.  1.
</event>
<event>
12    1  0.1073461E+000  0.2224099E+03  0.7818608E-02  0.1135054E+00
         21   -1    0    0  503  502  0.00000000000E+00  0.00000000000E+00  0.49107347049E+03  0.49107347049E+03  0.00000000000E+00 0.  1.
         21   -1    0    0  501  503 -0.00000000000E+00 -0.00000000000E+00 -0.55268318284E+03  0.55268318284E+03  0.00000000000E+00 0. -1.
          6    2    1    2  501    0 -0.14109562137E+03  0.12461741600E+02  0.44446579090E+03  0.49700702846E+03  0.17147267328E+03 0.  0.
         24    2    3    3    0    0 -0.61883019000E+02  0.51399392894E+02  0.14193617423E+03  0.18182924367E+03  0.80278207921E+02 0.  0.
         -6    2    1    2    0  502  0.14109562137E+03 -0.12461741600E+02 -0.50607550326E+03  0.54674962487E+03  0.15086241389E+03 0.  0.
        -24    2    5    5    0    0  0.23384069177E+02 -0.59905509614E+01 -0.27564179868E+03  0.28786805342E+03  0.79416079050E+02 0.  0.
          5    1    3    3  501    0 -0.79212602369E+02 -0.38937651294E+02  0.30252961667E+03  0.31517778479E+03  0.47000000000E+01 0. -1.
        -11    1    4    4    0    0  0.15537999079E+02 -0.16100997600E+01  0.61723739235E+01  0.16796429277E+02  0.00000000000E+00 0.  1.
         12    1    4    4    0    0 -0.77421018078E+02  0.53009492654E+02  0.13576380030E+03  0.16503281439E+03  0.00000000000E+00 0. -1.
         -5    1    5    5    0  502  0.11771155219E+03 -0.64711906383E+01 -0.23043370458E+03  0.25888157144E+03  0.47000000000E+01 0.  1.
         13    1    6    6    0    0  0.50013085797E+02  0.15955124157E+01 -0.12393681753E+03  0.13365698317E+03  0.00000000000E+00 0. -1.
        -14    1    6    6    0    0 -0.26629016620E+02 -0.75860633771E+01 -0.15170498115E+03  0.15421107025E+03  0.00000000000E+00 0.  1.
</event>
<event>
12    1  0.9962621E-001  0.4248424E+03  0.7818608E-02  0.1035591E+00
         21   -1    0    0  503  502  0.00000000000E+00  0.00000000000E+00  0.38587032699E+03  0.38587032699E+03  0.00000000000E+00 0. -1.
         21   -1    0    0  501  503 -0.00000000000E+00 -0.00000000000E+00 -0.48969245451E+03  0.48969245451E+03  0.00000000000E+00 0.  1.
          6    2    1    2  501    0 -0.25344857159E+03  0.29501004602E+03 -0.14719730465E+03  0.44961993173E+03  0.17095008281E+03 0.  0.
         24    2    3    3    0    0 -0.14394722672E+03  0.96842393658E+02 -0.24741150274E+02  0.19217369905E+03  0.78862873407E+02 0.  0.
         -6    2    1    2    0  502  0.25344857159E+03 -0.29501004602E+03  0.43375177127E+02  0.42594284978E+03  0.16816301492E+03 0.  0.
        -24    2    5    5    0    0  0.20219669120E+03 -0.22060188821E+03  0.92789480044E+02  0.32285457438E+03  0.77951867030E+02 0.  0.
          5    1    3    3  501    0 -0.10950134488E+03  0.19816765236E+03 -0.12245615438E+03  0.25744623267E+03  0.47000000000E+01 0. -1.
        -13    1    4    4    0    0 -0.83948206913E+02  0.36259127784E+02 -0.48703148565E+02  0.10360512763E+03  0.00000000000E+00 0.  1.
         14    1    4    4    0    0 -0.59999019802E+02  0.60583265874E+02  0.23961998291E+02  0.88568571420E+02  0.00000000000E+00 0. -1.
         -5    1    5    5    0  502  0.51251880394E+02 -0.74408157808E+02 -0.49414302916E+02  0.10308827540E+03  0.47000000000E+01 0.  1.
         13    1    6    6    0    0  0.73705322494E+02 -0.64754523823E+02 -0.54166213403E+01  0.98259669785E+02  0.00000000000E+00 0. -1.
        -14    1    6    6    0    0  0.12849136870E+03 -0.15584736439E+03  0.98206101384E+02  0.22459490459E+03  0.00000000000E+00 0.  1.
</event>
<event>
12    1  0.9962621E-001  0.1849426E+03  0.7818608E-02  0.1163168E+00
         21   -1    0    0  503  502  0.00000000000E+00  0.00000000000E+00  0.36274248256E+02  0.36274248256E+02  0.00000000000E+00 0. -1.
         21   -1    0    0  501  503 -0.00000000000E+00 -0.00000000000E+00 -0.94542354664E+03  0.94542354664E+03  0.00000000000E+00 0. -1.
          6    2    1    2  501    0 -0.61096429208E+02  0.29143074871E+02 -0.42265480722E+03  0.46123582206E+03  0.17181183025E+03 0.  0.
         24    2    3    3    0    0 -0.71033132869E+02  0.40468066220E+02 -0.42924773966E+03  0.44413172119E+03  0.79473224508E+02 0.  0.
         -6    2    1    2    0  502  0.61096429208E+02 -0.29143074871E+02 -0.48649449117E+03  0.52046197283E+03  0.17210950804E+03 0.  0.
        -24    2    5    5    0    0 -0.12550549295E+02 -0.28400020227E+02 -0.11988467626E+03  0.14649770187E+03  0.78263424502E+02 0.  0.
          5    1    3    3  501    0  0.99367036618E+01 -0.11324991350E+02  0.65929324360E+01  0.17104100878E+02  0.47000000000E+01 0. -1.
        -13    1    4    4    0    0 -0.42987119647E+02  0.64148769669E+02 -0.29899388748E+03  0.30880463380E+03  0.00000000000E+00 0.  1.
         14    1    4    4    0    0 -0.28046013222E+02 -0.23680703448E+02 -0.13025385218E+03  0.13532708739E+03  0.00000000000E+00 0. -1.
         -5    1    5    5    0  502  0.73646978502E+02 -0.74305464398E+00 -0.36660981491E+03  0.37396427097E+03  0.47000000000E+01 0.  1.
         13    1    6    6    0    0 -0.90664196159E+01  0.26485264701E+02 -0.29285661252E+02  0.40513197429E+02  0.00000000000E+00 0. -1.
        -14    1    6    6    0    0 -0.34841296786E+01 -0.54885284928E+02 -0.90599015006E+02  0.10598450444E+03  0.00000000000E+00 0.  1.
</event>
<event>
12    1  0.9962621E-001  0.2337442E+03  0.7818608E-02  0.1124200E+00
         21   -1    0    0  501  502  0.00000000000E+00  0.00000000000E+00  0.37228716682E+03  0.37228716682E+03  0.00000000000E+00 0. -1.
         21   -1    0    0  502  503 -0.00000000000E+00 -0.00000000000E+00 -0.18021970389E+03  0.18021970389E+03  0.00000000000E+00 0. -1.
         -6    2    1    2    0  503 -0.15420143426E+03  0.35390520316E+02 -0.23921890548E+02  0.23496509306E+03  0.17206326410E+03 0.  0.
        -24    2    3    3    0    0 -0.39518938762E+02  0.43096939654E+02 -0.57006353962E+02  0.11526490345E+03  0.81346056121E+02 0.  0.
          6    2    1    2  501    0  0.15420143426E+03 -0.35390520316E+02  0.21598935348E+03  0.31754177764E+03  0.17073607843E+03 0.  0.
         24    2    5    5    0    0  0.15555309631E+03  0.18306807090E+02  0.18579180817E+03  0.25574200658E+03  0.79708675750E+02 0.  0.
          5    1    5    5  501    0 -0.13516620447E+01 -0.53697327406E+02  0.30197545308E+02  0.61799771064E+02  0.47000000000E+01 0. -1.
        -13    1    6    6    0    0  0.40236341055E+02 -0.19906615384E+02  0.17495241576E+02  0.48180078407E+02  0.00000000000E+00 0.  1.
         14    1    6    6    0    0  0.11531675525E+03  0.38213422475E+02  0.16829656660E+03  0.20756192817E+03  0.00000000000E+00 0. -1.
         -5    1    3    3    0  503 -0.11468249550E+03 -0.77064193385E+01  0.33084463414E+02  0.11970018961E+03  0.47000000000E+01 0.  1.
         13    1    4    4    0    0 -0.63030338093E+02  0.34958534598E+02 -0.54294287147E+02  0.90237421717E+02  0.00000000000E+00 0. -1.
        -14    1    4    4    0    0  0.23511399331E+02  0.81384050567E+01 -0.27120668146E+01  0.25027481731E+02  0.00000000000E+00 0.  1.
</event>
<event>
12    1  0.9962621E-001  0.2545794E+03  0.7818608E-02  0.1110458E+00
         21   -1    0    0  503  502  0.00000000000E+00  0.00000000000E+00  0.30612305470E+03  0.30612305470E+03  0.00000000000E+00 0.  1.
         21   -1    0    0  501  503 -0.00000000000E+00 -0.00000000000E+00 -0.21187723319E+03  0.21187723319E+03  0.00000000000E+00 0. -1.
          6    2    1    2  501    0 -0.14326017864E+03 -0.12181930813E+03  0.55745945043E+02  0.26061136183E+03  0.17160200730E+03 0.  0.
         24    2    3    3    0    0 -0.78115186615E+02 -0.50034215570E+02  0.96044147721E+02  0.15552566043E+03  0.79739247762E+02 0.  0.
         -6    2    1    2    0  502  0.14326017864E+03  0.12181930813E+03  0.38499876467E+02  0.25738892606E+03  0.17147418509E+03 0.  0.
        -24    2    5    5    0    0  0.44789638192E+02  0.10438487180E+03 -0.21499607830E+02  0.14067373843E+03  0.80153318065E+02 0.  0.
          5    1    3    3  501    0 -0.65144992028E+02 -0.71785092556E+02 -0.40298202678E+02  0.10508570140E+03  0.47000000000E+01 0. -1.
        -11    1    4    4    0    0 -0.94838147722E+02 -0.41288255756E+02  0.82193347395E+02  0.13211639067E+03  0.00000000000E+00 0.  1.
         12    1    4    4    0    0  0.16722961107E+02 -0.87459598140E+01  0.13850800326E+02  0.23409269765E+02  0.00000000000E+00 0. -1.
         -5    1    5    5    0  502  0.98470540451E+02  0.17434436325E+02  0.59999484297E+02  0.11671518763E+03  0.47000000000E+01 0.  1.
         13    1    6    6    0    0  0.44953912024E+02  0.11677179673E+03 -0.13329057138E+02  0.12583390037E+03  0.00000000000E+00 0. -1.
        -14    1    6    6    0    0 -0.16427383176E+00 -0.12386924929E+02 -0.81705506916E+01  0.14839838062E+02  0.00000000000E+00 0.  1.
</event>
<event>
12    1  0.9962621E-001  0.1878541E+03  0.7818608E-02  0.1160798E+00
         21   -1    0    0  503  502  0.00000000000E+00  0.00000000000E+00  0.45808617316E+03  0.45808617316E+03  0.00000000000E+00 0. -1.
         21   -1    0    0  501  503 -0.00000000000E+00 -0.00000000000E+00 -0.83965265892E+02  0.83965265892E+02  0.00000000000E+00 0. -1.
          6    2    1    2  501    0  0.18015375759E+01 -0.70014578460E+02  0.10466629107E+03  0.21357775767E+03  0.17249678070E+03 0.  0.
         24    2    3    3    0    0 -0.21532605718E+02 -0.58080181541E+02 -0.43434369859E+01  0.10136312902E+03  0.80116526899E+02 0.  0.
         -6    2    1    2    0  502 -0.18015375759E+01  0.70014578460E+02  0.26945461620E+03  0.32847368138E+03  0.17430973133E+03 0.  0.
        -24    2    5    5    0    0 -0.57055693456E+01 -0.35122848531E+01  0.46018966360E+02  0.93171703678E+02  0.80736184173E+02 0.  0.
          5    1    3    3  501    0  0.23334143294E+02 -0.11934396919E+02  0.10900972806E+03  0.11221462865E+03  0.47000000000E+01 0. -1.
        -13    1    4    4    0    0 -0.37796213377E+02 -0.58968436398E+02  0.19300320864E+02  0.72652134327E+02  0.00000000000E+00 0.  1.
         14    1    4    4    0    0  0.16263607659E+02  0.88825485670E+00 -0.23643757850E+02  0.28710994689E+02  0.00000000000E+00 0. -1.
         -5    1    5    5    0  502  0.39040317698E+01  0.73526863313E+02  0.22343564984E+03  0.23530197771E+03  0.47000000000E+01 0.  1.
         11    1    6    6    0    0  0.28910675264E+02  0.72711576286E+01  0.48391821446E+02  0.56837182023E+02  0.00000000000E+00 0. -1.
        -12    1    6    6    0    0 -0.34616244610E+02 -0.10783442482E+02 -0.23728550854E+01  0.36334521655E+02  0.00000000000E+00 0.  1.
</event>
<event>
12    1  0.9962621E-001  0.1985281E+03  0.7818608E-02  0.1151475E+00
         21   -1    0    0  501  502  0.00000000000E+00  0.00000000000E+00  0.12545152594E+04  0.12545152594E+04  0.00000000000E+00 0. -1.
         21   -1    0    0  502  503 -0.00000000000E+00 -0.00000000000E+00 -0.45694772989E+02  0.45694772989E+02  0.00000000000E+00 0. -1.
         -6    2    1    2    0  503 -0.58443023999E+02 -0.76252040116E+02  0.96997414735E+03  0.98962833741E+03  0.17112696747E+03 0.  0.
        -24    2    3    3    0    0 -0.29575957412E+02 -0.11802212452E+03  0.71721191210E+03  0.73177395010E+03  0.79348774765E+02 0.  0.
          6    2    1    2  501    0  0.58443023999E+02  0.76252040116E+02  0.23884633911E+03  0.31058169503E+03  0.17373386229E+03 0.  0.
         24    2    5    5    0    0  0.30608819696E+02  0.76730415859E+02  0.59734575905E+02  0.12925854292E+03  0.79467570734E+02 0.  0.
          5    1    5    5  501    0  0.27834204303E+02 -0.47837574289E+00  0.17911176320E+03  0.18132315211E+03  0.47000000000E+01 0. -1.
        -13    1    6    6    0    0  0.47072790293E+02  0.16106294212E+02  0.38629582099E+02  0.62988133107E+02  0.00000000000E+00 0.  1.
         14    1    6    6    0    0 -0.16463970597E+02  0.60624121647E+02  0.21104993806E+02  0.66270409813E+02  0.00000000000E+00 0. -1.
         -5    1    3    3    0  503 -0.28867066587E+02  0.41770084402E+02  0.25276223525E+03  0.25785438730E+03  0.47000000000E+01 0.  1.
         13    1    4    4    0    0 -0.25042432244E+02 -0.18633098601E+02  0.66039904246E+02  0.73045086960E+02  0.00000000000E+00 0. -1.
        -14    1    4    4    0    0 -0.45335251677E+01 -0.99389025917E+02  0.65117200786E+03  0.65872886314E+03  0.00000000000E+00 0.  1.
</event>
<event>
12    1  0.9962621E-001  0.2702277E+03  0.7818608E-02  0.1101434E+00
         21   -1    0    0  501  502  0.00000000000E+00  0.00000000000E+00  0.10091636451E+03  0.10091636451E+03  0.00000000000E+00 0. -1.
         21   -1    0    0  502  503 -0.00000000000E+00 -0.00000000000E+00 -0.16133654897E+04  0.16133654897E+04  0.00000000000E+00 0. -1.
         -6    2    1    2    0  503  0.13929763374E+03  0.15133976370E+03 -0.11655579346E+03  0.29247272262E+03  0.17218445240E+03 0.  0.
        -24    2    3    3    0    0  0.23186571936E+02  0.80494054039E+02 -0.47420497379E+01  0.11633273133E+03  0.80584784471E+02 0.  0.
          6    2    1    2  501    0 -0.13929763374E+03 -0.15133976370E+03 -0.13958933317E+04  0.14218091316E+04  0.17525826147E+03 0.  0.
         24    2    5    5    0    0 -0.11329653723E+03 -0.87758492629E+02 -0.12579139616E+04  0.12676046192E+04  0.62739760086E+02 0.  0.
          5    1    5    5  501    0 -0.26001096514E+02 -0.63581271067E+02 -0.13797937016E+03  0.15420451239E+03  0.47000000000E+01 0. -1.
        -13    1    6    6    0    0 -0.55900673050E+01 -0.36690777713E+02 -0.27743105742E+03  0.27990257884E+03  0.00000000000E+00 0.  1.
         14    1    6    6    0    0 -0.10770646992E+03 -0.51067714916E+02 -0.98048290414E+03  0.98770204033E+03  0.00000000000E+00 0. -1.
         -5    1    3    3    0  503  0.11611106181E+03  0.70845709657E+02 -0.11181374372E+03  0.17613999130E+03  0.47000000000E+01 0.  1.
         11    1    4    4    0    0 -0.19852722825E+02  0.13103043200E+01  0.13938360191E+02  0.24292496492E+02  0.00000000000E+00 0. -1.
        -12    1    4    4    0    0  0.43039294761E+02  0.79183749719E+02 -0.18680409929E+02  0.92040234834E+02  0.00000000000E+00 0.  1.
</event>
<event>
12    1  0.9962621E-001  0.1774769E+03  0.7818608E-02  0.1170489E+00
         21   -1    0    0  503  502  0.00000000000E+00  0.00000000000E+00  0.29921013437E+03  0.29921013437E+03  0.00000000000E+00 0. -1.
         21   -1    0    0  501  503 -0.00000000000E+00 -0.00000000000E+00 -0.10657327437E+03  0.10657327437E+03  0.00000000000E+00 0. -1.
          6    2    1    2  501    0  0.32474316064E+02 -0.24955516933E+02  0.12268534243E+03  0.21501842385E+03  0.17176690694E+03 0.  0.
         24    2    3    3    0    0  0.22163860958E+01 -0.72517092098E+02  0.37943348294E+02  0.11313151925E+03  0.78073055244E+02 0.  0.
         -6    2    1    2    0  502 -0.32474316064E+02  0.24955516933E+02  0.69951517568E+02  0.19076498489E+03  0.17268672683E+03 0.  0.
        -24    2    5    5    0    0 -0.37336110045E+01 -0.29333949908E+02  0.89962801080E+02  0.12598909582E+03  0.83099495904E+02 0.  0.
          5    1    3    3  501    0  0.30257929968E+02  0.47561575165E+02  0.84741994134E+02  0.10188690459E+03  0.47000000000E+01 0. -1.
        -11    1    4    4    0    0  0.32067398926E+02 -0.60498544712E+01  0.19331710989E+02  0.37929327212E+02  0.00000000000E+00 0.  1.
         12    1    4    4    0    0 -0.29851012830E+02 -0.66467237627E+02  0.18611637305E+02  0.75202192042E+02  0.00000000000E+00 0. -1.
         -5    1    5    5    0  502 -0.28740705060E+02  0.54289466841E+02 -0.20011283512E+02  0.64775889072E+02  0.47000000000E+01 0.  1.
         13    1    6    6    0    0  0.31121405317E+02  0.11512288087E+02  0.45258000558E+02  0.56119170168E+02  0.00000000000E+00 0. -1.
        -14    1    6    6    0    0 -0.34855016322E+02 -0.40846237995E+02  0.44704800523E+02  0.69869925654E+02  0.00000000000E+00 0.  1.
</event>
<event>
12    1  0.9962621E-001  0.3780589E+03  0.7818608E-02  0.1051709E+00
         21   -1    0    0  501  502  0.00000000000E+00  0.00000000000E+00  0.15447473214E+03  0.15447473214E+03  0.00000000000E+00 0.  1.
         21   -1    0    0  502  503 -0.00000000000E+00 -0.00000000000E+00 -0.11205035596E+04  0.11205035596E+04  0.00000000000E+00 0.  1.
         -6    2    1    2    0  503  0.86918379779E+02  0.32499136666E+03 -0.21560314528E+03  0.43470023161E+03  0.17118814784E+03 0.  0.
        -24    2    3    3    0    0  0.68838009404E+02  0.98862914633E+02 -0.46488285543E+02  0.15171100497E+03  0.79639945436E+02 0.  0.
          6    2    1    2  501    0 -0.86918379779E+02 -0.32499136666E+03 -0.75042568216E+03  0.84027806011E+03  0.17249440774E+03 0.  0.
         24    2    5    5    0    0 -0.79318867750E+02 -0.11022793034E+03 -0.24783256533E+03  0.29364928548E+03  0.79795006211E+02 0.  0.
          5    1    5    5  501    0 -0.75995120292E+01 -0.21476343632E+03 -0.50259311683E+03  0.54662877463E+03  0.47000000000E+01 0. -1.
        -11    1    6    6    0    0 -0.15946303997E+02  0.99329524851E+00 -0.85182453290E+02  0.86667880989E+02  0.00000000000E+00 0.  1.
         12    1    6    6    0    0 -0.63372563753E+02 -0.11122122559E+03 -0.16265011204E+03  0.20698140449E+03  0.00000000000E+00 0. -1.
         -5    1    3    3    0  503  0.18080370376E+02  0.22612845203E+03 -0.16911485973E+03  0.28298922663E+03  0.47000000000E+01 0.  1.
         13    1    4    4    0    0  0.63250024539E+02  0.11033548438E+03 -0.52519488159E+02  0.13759644383E+03  0.00000000000E+00 0. -1.
        -14    1    4    4    0    0  0.55879848643E+01 -0.11472569745E+02  0.60312026165E+01  0.14114561148E+02  0.00000000000E+00 0.  1.
</event>
<event>
12    1  0.9962621E-001  0.2186571E+03  0.7818608E-02  0.1134990E+00
         21   -1    0    0  501  502  0.00000000000E+00  0.00000000000E+00  0.21831197584E+03  0.21831197584E+03  0.00000000000E+00 0.  1.
         21   -1    0    0  502  503 -0.00000000000E+00 -0.00000000000E+00 -0.27286992844E+03  0.27286992844E+03  0.00000000000E+00 0.  1.
         -6    2    1    2    0  503 -0.49748441645E+02  0.12720528213E+03  0.82411747546E+02  0.23316708332E+03  0.17005617120E+03 0.  0.
        -24    2    3    3    0    0  0.34971056014E+02  0.90669758927E+02  0.44244112940E+02  0.13321161288E+03  0.79648052917E+02 0.  0.
          6    2    1    2  501    0  0.49748441645E+02 -0.12720528213E+03 -0.13696970014E+03  0.25801482097E+03  0.17074793654E+03 0.  0.
         24    2    5    5    0    0  0.21648970459E+02 -0.12980664112E+03 -0.16086924231E+03  0.22073714044E+03  0.74347360714E+02 0.  0.
          5    1    5    5  501    0  0.28099471186E+02  0.26013589920E+01  0.23899542170E+02  0.37277680527E+02  0.47000000000E+01 0. -1.
        -11    1    6    6    0    0 -0.12553758437E+02 -0.29612611894E+02 -0.83872393885E+02  0.89828069611E+02  0.00000000000E+00 0.  1.
         12    1    6    6    0    0  0.34202728896E+02 -0.10019402923E+03 -0.76996848428E+02  0.13090907083E+03  0.00000000000E+00 0. -1.
         -5    1    3    3    0  503 -0.84719497659E+02  0.36535523204E+02  0.38167634606E+02  0.99955470440E+02  0.47000000000E+01 0.  1.
         11    1    4    4    0    0  0.18776131111E+02  0.66275651134E+02 -0.11887317541E+02  0.69902169860E+02  0.00000000000E+00 0. -1.
        -12    1    4    4    0    0  0.16194924903E+02  0.24394107793E+02  0.56131430481E+02  0.63309443020E+02  0.00000000000E+00 0.  1.
</event>
<event>
12    1  0.9962621E-001  0.1831008E+03  0.7818608E-02  0.1165238E+00
         21   -1    0    0  503  502  0.00000000000E+00  0.00000000000E+00  0.42891201671E+02  0.42891201671E+02  0.00000000000E+00 0. -1.
         21   -1    0    0  501  503 -0.00000000000E+00 -0.00000000000E+00 -0.79857919459E+03  0.79857919459E+03  0.00000000000E+00 0. -1.
          6    2    1    2  501    0 -0.32051309901E+02  0.50250689397E+02 -0.30299390365E+03  0.35314893991E+03  0.17133724014E+03 0.  0.
         24    2    3    3    0    0  0.22792222264E+02  0.79555062198E+02 -0.22426490907E+03  0.25271536049E+03  0.81986649364E+02 0.  0.
         -6    2    1    2    0  502  0.32051309901E+02 -0.50250689397E+02 -0.45269408927E+03  0.48832145636E+03  0.17312853036E+03 0.  0.
        -24    2    5    5    0    0 -0.12126986331E+02  0.38335013465E+02 -0.12285312753E+03  0.14391428649E+03  0.63259733311E+02 0.  0.
          5    1    3    3  501    0 -0.54843532165E+02 -0.29304372801E+02 -0.78728994583E+02  0.10043357941E+03  0.47000000000E+01 0. -1.
        -13    1    4    4    0    0  0.62217280294E+01 -0.92765758180E+01 -0.91117753886E+02  0.91799835685E+02  0.00000000000E+00 0.  1.
         14    1    4    4    0    0  0.16570494234E+02  0.88831638016E+02 -0.13314715518E+03  0.16091552481E+03  0.00000000000E+00 0. -1.
         -5    1    5    5    0  502  0.44178296232E+02 -0.88585702863E+02 -0.32984096174E+03  0.34440716986E+03  0.47000000000E+01 0.  1.
         13    1    6    6    0    0  0.21698125467E+02 -0.13579362436E+01 -0.25811512241E+02  0.33747396993E+02  0.00000000000E+00 0. -1.
        -14    1    6    6    0    0 -0.33825111798E+02  0.39692949709E+02 -0.97041615286E+02  0.11016688950E+03  0.00000000000E+00 0.  1.
</event>
<event>
12    1  0.9962621E-001  0.2782588E+03  0.7818608E-02  0.1097028E+00
         21   -1    0    0  501  502  0.00000000000E+00  0.00000000000E+00  0.12864417230E+03  0.12864417230E+03  0.00000000000E+00 0.  1.
         21   -1    0    0  502  503 -0.00000000000E+00 -0.00000000000E+00 -0.68050303277E+03  0.68050303277E+03  0.00000000000E+00 0.  1.
         -6    2    1    2    0  503 -0.21125199604E+03 -0.51809812432E+02 -0.13447786070E+03  0.30905055730E+03  0.17354045479E+03 0.  0.
        -24    2    3    3    0    0 -0.14200745439E+03 -0.10262816489E+03 -0.92967971532E+02  0.21353892243E+03  0.79102277662E+02 0.  0.
          6    2    1    2  501    0  0.21125199604E+03  0.51809812432E+02 -0.41738099977E+03  0.50009664778E+03  0.16905057129E+03 0.  0.
         24    2    5    5    0    0  0.14336602312E+03  0.76125901202E+02 -0.37334693061E+03  0.41547474317E+03  0.82960003608E+02 0.  0.
          5    1    5    5  501    0  0.67885972920E+02 -0.24316088770E+02 -0.44034069162E+02  0.84621904608E+02  0.47000000000E+01 0. -1.
        -13    1    6    6    0    0  0.51052073370E+02  0.38073637721E+02 -0.63489600944E+02  0.89926889820E+02  0.00000000000E+00 0.  1.
         14    1    6    6    0    0  0.92313949755E+02  0.38052263482E+02 -0.30985732966E+03  0.32554785335E+03  0.00000000000E+00 0. -1.
         -5    1    3    3    0  503 -0.69244541660E+02  0.50818352457E+02 -0.41509889173E+02  0.95511634868E+02  0.47000000000E+01 0.  1.
         13    1    4    4    0    0 -0.72822613235E+02 -0.75761208623E+01 -0.23067541266E+02  0.76763546464E+02  0.00000000000E+00 0. -1.
        -14    1    4    4    0    0 -0.69184841151E+02 -0.95052044027E+02 -0.69900430266E+02  0.13677537596E+03  0.00000000000E+00 0.  1.
</event>
<event>
12    1  0.9962621E-001  0.2225318E+03  0.7818608E-02  0.1132717E+00
         21   -1    0    0  501  502  0.00000000000E+00  0.00000000000E+00  0.14027962767E+03  0.14027962767E+03  0.00000000000E+00 0.  1.
         21   -1    0    0  502  503 -0.00000000000E+00 -0.00000000000E+00 -0.37189517735E+03  0.37189517735E+03  0.00000000000E+00 0.  1.
         -6    2    1    2    0  503  0.13258258923E+03  0.25738470759E+02 -0.50459391045E+02  0.22818099800E+03  0.17686097891E+03 0.  0.
        -24    2    3    3    0    0  0.11823219010E+03  0.34456459498E+02  0.25961613279E+02  0.14979606842E+03  0.81232742007E+02 0.  0.
          6    2    1    2  501    0 -0.13258258923E+03 -0.25738470759E+02 -0.18115615863E+03  0.28399380702E+03  0.17202998799E+03 0.  0.
         24    2    5    5    0    0 -0.10677181209E+03 -0.70001291839E+02 -0.80481383028E+02  0.17093234590E+03  0.80250938593E+02 0.  0.
          5    1    5    5  501    0 -0.25810777140E+02  0.44262821079E+02 -0.10067477561E+03  0.11306146112E+03  0.47000000000E+01 0. -1.
        -13    1    6    6    0    0 -0.10220409441E+02  0.10973022868E+02  0.79640250606E+01  0.16979095829E+02  0.00000000000E+00 0.  1.
         14    1    6    6    0    0 -0.96551402650E+02 -0.80974314707E+02 -0.88445408088E+02  0.15395325007E+03  0.00000000000E+00 0. -1.
         -5    1    3    3    0  503  0.14350399129E+02 -0.87179887389E+01 -0.76421004324E+02  0.78384929576E+02  0.47000000000E+01 0.  1.
         13    1    4    4    0    0  0.75920691983E+02  0.14961770893E+02 -0.24452842813E+02  0.81152619065E+02  0.00000000000E+00 0. -1.
        -14    1    4    4    0    0  0.42311498118E+02  0.19494688605E+02  0.50414456093E+02  0.68643449359E+02  0.00000000000E+00 0.  1.
</event>
<event>
12    1  0.9962621E-001  0.2660080E+03  0.7818608E-02  0.1104200E+00
         21   -1    0    0  503  502  0.00000000000E+00  0.00000000000E+00  0.13139539547E+04  0.13139539547E+04  0.00000000000E+00 0.  1.
         21   -1    0    0  501  503 -0.00000000000E+00 -0.00000000000E+00 -0.62746054847E+02  0.62746054847E+02  0.00000000000E+00 0.  1.
          6    2    1    2  501    0  0.17513353502E+03 -0.90887069401E+02  0.90091163098E+03  0.93936256486E+03  0.17840416739E+03 0.  0.
         24    2    3    3    0    0  0.13935762357E+03 -0.91161111160E+02  0.44232821819E+03  0.47936166548E+03  0.80015362837E+02 0.  0.
         -6    2    1    2    0  502 -0.17513353502E+03  0.90887069401E+02  0.35029626887E+03  0.43733744469E+03  0.17211725675E+03 0.  0.
        -24    2    5    5    0    0 -0.92562041385E+02  0.11721580558E+02  0.84772626492E+02  0.14818329748E+03  0.77889437630E+02 0.  0.
          5    1    3    3  501    0  0.35775911454E+02  0.27404175919E+00  0.45858341279E+03  0.46000089938E+03  0.47000000000E+01 0. -1.
        -13    1    4    4    0    0  0.16009256211E+02  0.14063133100E+02  0.72230049386E+02  0.75307689058E+02  0.00000000000E+00 0.  1.
         14    1    4    4    0    0  0.12334836736E+03 -0.10522424426E+03  0.37009816881E+03  0.40405397642E+03  0.00000000000E+00 0. -1.
         -5    1    5    5    0  502 -0.82571493639E+02  0.79165488843E+02  0.26552364238E+03  0.28915414721E+03  0.47000000000E+01 0.  1.
         13    1    6    6    0    0 -0.26009199137E+01  0.15975605807E+02 -0.87055532358E+01  0.18378558769E+02  0.00000000000E+00 0. -1.
        -14    1    6    6    0    0 -0.89961121471E+02 -0.42540252492E+01  0.93478179728E+02  0.12980473871E+03  0.00000000000E+00 0.  1.
</event>
<event>
12    1  0.9962621E-001  0.1919762E+03  0.7818608E-02  0.1157015E+00
         21   -1    0    0  501  502  0.00000000000E+00  0.00000000000E+00  0.70801371768E+03  0.70801371768E+03  0.00000000000E+00 0.  1.
         21   -1    0    0  502  503 -0.00000000000E+00 -0.00000000000E+00 -0.52133643392E+02  0.52133643392E+02  0.00000000000E+00 0.  1.
         -6    2    1    2    0  503 -0.74705659739E+01 -0.83628169455E+02  0.36535552616E+03  0.41272210601E+03  0.17264239403E+03 0.  0.
        -24    2    3    3    0    0 -0.26772249480E+02  0.37335520365E+01  0.86233022348E+02  0.11957353020E+03  0.78300716655E+02 0.  0.
          6    2    1    2  501    0  0.74705659739E+01  0.83628169455E+02  0.29052454813E+03  0.34742525505E+03  0.17102723380E+03 0.  0.
         24    2    5    5    0    0 -0.70661231679E+00 -0.19100274825E+01  0.66092706239E+02  0.10706013480E+03  0.84199044768E+02 0.  0.
          5    1    5    5  501    0  0.81771782907E+01  0.85538196937E+02  0.22443184189E+03  0.24036512025E+03  0.47000000000E+01 0. -1.
        -11    1    6    6    0    0  0.36015830665E+02 -0.25236066498E+01  0.59717809755E+02  0.69783418167E+02  0.00000000000E+00 0.  1.
         12    1    6    6    0    0 -0.36722442982E+02  0.61357916732E+00  0.63748964831E+01  0.37276716635E+02  0.00000000000E+00 0. -1.
         -5    1    3    3    0  503  0.19301683506E+02 -0.87361721491E+02  0.27912250381E+03  0.29314857581E+03  0.47000000000E+01 0.  1.
         13    1    4    4    0    0  0.23381994110E+00 -0.32281348379E+02  0.15694537491E+02  0.35895105961E+02  0.00000000000E+00 0. -1.
        -14    1    4    4    0    0 -0.27006069422E+02  0.36014900415E+02  0.70538484857E+02  0.83678424241E+02  0.00000000000E+00 0.  1.
</event>
<event>
12    1  0.9962621E-001  0.2886544E+03  0.7818608E-02  0.1091621E+00
         21   -1    0    0  501  502  0.00000000000E+00  0.00000000000E+00  0.25700411800E+04  0.25700411800E+04  0.00000000000E+00 0. -1.
         21   -1    0    0  502  503 -0.00000000000E+00 -0.00000000000E+00 -0.43365964186E+02  0.43365964186E+02  0.00000000000E+00 0. -1.
         -6    2    1    2    0  503  0.22535734569E+03 -0.19238579133E+02  0.58566886481E+03  0.65105472721E+03  0.17236061740E+03 0.  0.
        -24    2    3    3    0    0  0.18091296020E+03  0.44473677085E+02  0.46783603049E+03  0.50984133607E+03  0.79751046502E+02 0.  0.
          6    2    1    2  501    0 -0.22535734569E+03  0.19238579133E+02  0.19410063510E+04  0.19623524170E+04  0.17934686389E+03 0.  0.
         24    2    5    5    0    0 -0.60866271054E+02 -0.38451169099E+01  0.11313914190E+04  0.11358606754E+04  0.80083975984E+02 0.  0.
          5    1    5    5  501    0 -0.16449107464E+03  0.23083696043E+02  0.80961493206E+03  0.82649174156E+03  0.47000000000E+01 0. -1.
        -13    1    6    6    0    0 -0.39468771418E+02 -0.40571823583E+02  0.54525165778E+03  0.54818174641E+03  0.00000000000E+00 0.  1.
         14    1    6    6    0    0 -0.21397499636E+02  0.36726706673E+02  0.58613976120E+03  0.58767892904E+03  0.00000000000E+00 0. -1.
         -5    1    3    3    0  503  0.44444385491E+02 -0.63712256218E+02  0.11783283432E+03  0.14121339115E+03  0.47000000000E+01 0.  1.
         11    1    4    4    0    0  0.50438166889E+02  0.25737247745E+02  0.24030832788E+03  0.24688966574E+03  0.00000000000E+00 0. -1.
        -12    1    4    4    0    0  0.13047479331E+03  0.18736429340E+02  0.22752770261E+03  0.26295167033E+03  0.00000000000E+00 0.  1.
</event>
<event>
12    1  0.9962621E-001  0.4105169E+03  0.7818608E-02  0.1040524E+00
         21   -1    0    0  501  502  0.00000000000E+00  0.00000000000E+00  0.36415318517E+03  0.36415318517E+03  0.00000000000E+00 0. -1.
         21   -1    0    0  502  503 -0.00000000000E+00 -0.00000000000E+00 -0.68382492648E+03  0.68382492648E+03  0.00000000000E+00 0. -1.
         -6    2    1    2    0  503 -0.36955774192E+03 -0.89797279192E+01  0.14150607749E+03  0.43055680829E+03  0.16941556917E+03 0.  0.
        -24    2    3    3    0    0 -0.21979329429E+03  0.53638227059E+02  0.51175873745E+02  0.24472884009E+03  0.78019763524E+02 0.  0.
          6    2    1    2  501    0  0.36955774192E+03  0.89797279192E+01 -0.46117781880E+03  0.61742130335E+03  0.17852317819E+03 0.  0.
         24    2    5    5    0    0  0.11902211089E+03  0.57727658306E+02 -0.18435675857E+03  0.24086260604E+03  0.80799969951E+02 0.  0.
          5    1    5    5  501    0  0.25053563103E+03 -0.48747930387E+02 -0.27682106023E+03  0.37655869731E+03  0.47000000000E+01 0. -1.
        -11    1    6    6    0    0  0.71516567759E+02 -0.80410633692E+01 -0.67985796060E+02  0.99001750641E+02  0.00000000000E+00 0.  1.
         12    1    6    6    0    0  0.47505543128E+02  0.65768721675E+02 -0.11637096251E+03  0.14186085540E+03  0.00000000000E+00 0. -1.
         -5    1    3    3    0  503 -0.14976444763E+03 -0.62617954978E+02  0.90330203741E+02  0.18582796821E+03  0.47000000000E+01 0.  1.
         11    1    4    4    0    0 -0.12559674814E+03 -0.85418180907E+01  0.18602951399E+02  0.12725398068E+03  0.00000000000E+00 0. -1.
        -12    1    4    4    0    0 -0.94196546149E+02  0.62180045150E+02  0.32572922345E+02  0.11747485940E+03  0.00000000000E+00 0.  1.
</event>
<event>
12    1  0.9962621E-001  0.1801009E+03  0.7818608E-02  0.1168393E+00
         21   -1    0    0  503  502  0.00000000000E+00  0.00000000000E+00  0.50707397604E+02  0.50707397604E+02  0.00000000000E+00 0.  1.
         21   -1    0    0  501  503 -0.00000000000E+00 -0.00000000000E+00 -0.64597317313E+03  0.64597317313E+03  0.00000000000E+00 0.  1.
          6    2    1    2  501    0  0.64995434891E+01 -0.52510434055E+02 -0.35062362040E+03  0.39289427171E+03  0.16920223347E+03 0.  0.
         24    2    3    3    0    0  0.51202870545E+02 -0.29386297807E+02 -0.31707692802E+03  0.33222645737E+03  0.79695371552E+02 0.  0.
         -6    2    1    2    0  502 -0.64995434891E+01  0.52510434055E+02 -0.24464215513E+03  0.30378629902E+03  0.17215325050E+03 0.  0.
        -24    2    5    5    0    0  0.54048121884E+02  0.11536215245E+02 -0.16478970286E+03  0.19541928134E+03  0.89323936362E+02 0.  0.
          5    1    3    3  501    0 -0.44703327056E+02 -0.23124136248E+02 -0.33546692384E+02  0.60667814341E+02  0.47000000000E+01 0. -1.
        -11    1    4    4    0    0  0.51010344327E+02  0.15699046767E+02 -0.19163208696E+03  0.19892554399E+03  0.00000000000E+00 0.  1.
         12    1    4    4    0    0  0.19252621827E+00 -0.45085344574E+02 -0.12544484105E+03  0.13330091338E+03  0.00000000000E+00 0. -1.
         -5    1    5    5    0  502 -0.60547665373E+02  0.40974218810E+02 -0.79852452266E+02  0.10836701769E+03  0.47000000000E+01 0.  1.
         11    1    6    6    0    0  0.19981828706E+02  0.37591904018E+02 -0.13900159681E+03  0.14537492439E+03  0.00000000000E+00 0. -1.
        -12    1    6    6    0    0  0.34066293178E+02 -0.26055688773E+02 -0.25788106054E+02  0.50044356946E+02  0.00000000000E+00 0.  1.
</event>
<event>
12    1  0.9962621E-001  0.1800968E+03  0.7818608E-02  0.1168100E+00
         21   -1    0    0  501  502  0.00000000000E+00  0.00000000000E+00  0.32923958138E+03  0.32923958138E+03  0.00000000000E+00 0.  1.
         21   -1    0    0  502  503 -0.00000000000E+00 -0.00000000000E+00 -0.10490630780E+03  0.10490630780E+03  0.00000000000E+00 0.  1.
         -6    2    1    2    0  503  0.50723705414E+02  0.94030115233E+01  0.16883849137E+03  0.24569288893E+03  0.17087202400E+03 0.  0.
        -24    2    3    3    0    0  0.10440187288E+02 -0.18694446199E+02  0.17197063824E+03  0.19625475277E+03  0.92106176438E+02 0.  0.
          6    2    1    2  501    0 -0.50723705414E+02 -0.94030115233E+01  0.55494782204E+02  0.18845300025E+03  0.17255014209E+03 0.  0.
         24    2    5    5    0    0  0.44171718697E+01  0.37896594427E+02 -0.13139555437E+02  0.88400357235E+02  0.78653111609E+02 0.  0.
          5    1    5    5  501    0 -0.55140877284E+02 -0.47299605950E+02  0.68634337641E+02  0.10005264301E+03  0.47000000000E+01 0. -1.
        -13    1    6    6    0    0 -0.36341254104E+02  0.26800443396E+02 -0.77751970715E+01  0.45819255838E+02  0.00000000000E+00 0.  1.
         14    1    6    6    0    0  0.40758425973E+02  0.11096151031E+02 -0.53643583653E+01  0.42581101397E+02  0.00000000000E+00 0. -1.
         -5    1    3    3    0  503  0.40283518126E+02  0.28097457722E+02 -0.31321468739E+01  0.49438136161E+02  0.47000000000E+01 0.  1.
         13    1    4    4    0    0  0.20962134870E+01  0.19313242867E+02 -0.51572203664E+00  0.19433513070E+02  0.00000000000E+00 0. -1.
        -14    1    4    4    0    0  0.83439738015E+01 -0.38007689065E+02  0.17248636028E+03  0.17682123970E+03  0.00000000000E+00 0.  1.
</event>
<event>
12    1  0.9962621E-001  0.2259818E+03  0.7818608E-02  0.1129795E+00
         21   -1    0    0  501  502  0.00000000000E+00  0.00000000000E+00  0.50888750258E+03  0.50888750258E+03  0.00000000000E+00 0.  1.
         21   -1    0    0  502  503 -0.00000000000E+00 -0.00000000000E+00 -0.16904879009E+03  0.16904879009E+03  0.00000000000E+00 0.  1.
         -6    2    1    2    0  503 -0.36562000208E+02  0.14158285954E+03  0.38750076470E+03  0.44858066061E+03  0.17229416838E+03 0.  0.
        -24    2    3    3    0    0 -0.76871796003E+02  0.14488950592E+03  0.33799636776E+03  0.38448238557E+03  0.81749117718E+02 0.  0.
          6    2    1    2  501    0  0.36562000208E+02 -0.14158285954E+03 -0.47662052211E+02  0.22935563206E+03  0.17014655083E+03 0.  0.
         24    2    5    5    0    0  0.33748829418E+02 -0.29741093411E+02  0.24342216230E+02  0.96227125509E+02  0.81508282207E+02 0.  0.
          5    1    5    5  501    0  0.28131707898E+01 -0.11184176613E+03 -0.72004268441E+02  0.13312850655E+03  0.47000000000E+01 0. -1.
        -13    1    6    6    0    0  0.51918690234E+01  0.27734544790E+02  0.12944583370E+02  0.31043883734E+02  0.00000000000E+00 0.  1.
         14    1    6    6    0    0  0.28556960395E+02 -0.57475638200E+02  0.11397632861E+02  0.65183241775E+02  0.00000000000E+00 0. -1.
         -5    1    3    3    0  503  0.40309795795E+02 -0.33066463798E+01  0.49504396943E+02  0.64098275047E+02  0.47000000000E+01 0.  1.
         11    1    4    4    0    0 -0.64060495935E+02  0.99706895804E+02  0.15251466478E+03  0.19314744415E+03  0.00000000000E+00 0. -1.
        -12    1    4    4    0    0 -0.12811300068E+02  0.45182610119E+02  0.18548170298E+03  0.19133494141E+03  0.00000000000E+00 0.  1.
</event>
<event>
12    1  0.9962621E-001  0.1889670E+03  0.7818608E-02  0.1160249E+00
         21   -1    0    0  501  502  0.00000000000E+00  0.00000000000E+00  0.19342642475E+03  0.19342642475E+03  0.00000000000E+00 0. -1.
         21   -1    0    0  502  503 -0.00000000000E+00 -0.00000000000E+00 -0.23107385090E+03  0.23107385090E+03  0.00000000000E+00 0. -1.
         -6    2    1    2    0  503 -0.55676709962E+01 -0.77696039289E+02 -0.11747828756E+03  0.21936257194E+03  0.16808068431E+03 0.  0.
        -24    2    3    3    0    0  0.90674726436E+01 -0.16379199728E+02 -0.13166010048E+03  0.15457711014E+03  0.78798500487E+02 0.  0.
          6    2    1    2  501    0  0.55676709962E+01  0.77696039289E+02  0.79830861419E+02  0.20513770370E+03  0.17216514619E+03 0.  0.
         24    2    5    5    0    0  0.10984704457E+02  0.12089626792E+03  0.80334842066E+02  0.16134332048E+03  0.69580233438E+02 0.  0.
          5    1    5    5  501    0 -0.54170334604E+01 -0.43200228630E+02 -0.50398064640E+00  0.43794383220E+02  0.47000000000E+01 0. -1.
        -11    1    6    6    0    0 -0.21327058885E+01  0.79182908428E+02  0.11855715061E+02  0.80093941102E+02  0.00000000000E+00 0.  1.
         12    1    6    6    0    0  0.13117410345E+02  0.41713359491E+02  0.68479127005E+02  0.81249379379E+02  0.00000000000E+00 0. -1.
         -5    1    3    3    0  503 -0.14635143640E+02 -0.61316839562E+02  0.14181812912E+02  0.64785461800E+02  0.47000000000E+01 0.  1.
         11    1    4    4    0    0  0.24764790911E+02 -0.39388888562E+02 -0.10952803879E+03  0.11900071719E+03  0.00000000000E+00 0. -1.
        -12    1    4    4    0    0 -0.15697318268E+02  0.23009688834E+02 -0.22132061690E+02  0.35576392955E+02  0.00000000000E+00 0.  1.
</event>
<event>
12    1  0.9962621E-001  0.1982478E+03  0.7818608E-02  0.1151656E+00
         21   -1    0    0  501  502  0.00000000000E+00  0.00000000000E+00  0.63059888741E+03  0.63059888741E+03  0.00000000000E+00 0. -1.
         21   -1    0    0  502  503 -0.00000000000E+00 -0.00000000000E+00 -0.61944548555E+02  0.61944548555E+02  0.00000000000E+00 0. -1.
         -6    2    1    2    0  503  0.35290802456E+02  0.90784966168E+02  0.26383797605E+03  0.33001920191E+03  0.17266975763E+03 0.  0.
        -24    2    3    3    0    0  0.63098551055E+02  0.25540853162E+02  0.70098027284E+02  0.12365224013E+03  0.75778497837E+02 0.  0.
          6    2    1    2  501    0 -0.35290802456E+02 -0.90784966168E+02  0.30481636280E+03  0.36252423406E+03  0.17036271431E+03 0.  0.
         24    2    5    5    0    0 -0.74175654789E+02 -0.19674832334E+02  0.21464558072E+03  0.24119186898E+03  0.78814120232E+02 0.  0.
          5    1    5    5  501    0  0.38884852332E+02 -0.71110133833E+02  0.90170782080E+02  0.12133236508E+03  0.47000000000E+01 0. -1.
        -13    1    6    6    0    0 -0.72285214178E+02 -0.33895570982E+02  0.11196765565E+03  0.13751660930E+03  0.00000000000E+00 0.  1.
         14    1    6    6    0    0 -0.18904406111E+01  0.14220738648E+02  0.10267792507E+03  0.10367525968E+03  0.00000000000E+00 0. -1.
         -5    1    3    3    0  503 -0.27807748599E+02  0.65244113006E+02  0.19373994877E+03  0.20636696178E+03  0.47000000000E+01 0.  1.
         13    1    4    4    0    0  0.41561316401E+02 -0.20410474360E+02  0.52352917154E+02  0.69891046773E+02  0.00000000000E+00 0. -1.
        -14    1    4    4    0    0  0.21537234655E+02  0.45951327521E+02  0.17745110131E+02  0.53761193357E+02  0.00000000000E+00 0.  1.
</event>
<event>
12    1  0.9962621E-001  0.1954359E+03  0.7818608E-02  0.1153651E+00
         21   -1    0    0  503  502  0.00000000000E+00  0.00000000000E+00  0.20158800336E+02  0.20158800336E+02  0.00000000000E+00 0.  1.
         21   -1    0    0  501  503 -0.00000000000E+00 -0.00000000000E+00 -0.26099176660E+04  0.26099176660E+04  0.00000000000E+00 0.  1.
          6    2    1    2  501    0 -0.58667609073E+02 -0.72326966209E+02 -0.60644816690E+03  0.63716134231E+03  0.17182001804E+03 0.  0.
         24    2    3    3    0    0  0.64796865362E+01  0.55320916590E+01 -0.39755865636E+03  0.40486170685E+03  0.76075791519E+02 0.  0.
         -6    2    1    2    0  502  0.58667609073E+02  0.72326966209E+02 -0.19833106987E+04  0.19929151240E+04  0.17180304235E+03 0.  0.
        -24    2    5    5    0    0  0.10832840158E+03  0.58790675852E+02 -0.13999390601E+04  0.14072582413E+04  0.73177862829E+02 0.  0.
          5    1    3    3  501    0 -0.65147295609E+02 -0.77859057868E+02 -0.20888951054E+03  0.23229963545E+03  0.47000000000E+01 0. -1.
        -13    1    4    4    0    0 -0.97890662385E+01  0.34315553786E+01 -0.38235523012E+03  0.38249591291E+03  0.00000000000E+00 0.  1.
         14    1    4    4    0    0  0.16268752775E+02  0.21005362804E+01 -0.15203426239E+02  0.22365793948E+02  0.00000000000E+00 0. -1.
         -5    1    5    5    0  502 -0.49660792511E+02  0.13536290357E+02 -0.58337163860E+03  0.58565688265E+03  0.47000000000E+01 0.  1.
         11    1    6    6    0    0  0.10279103507E+03  0.55311644942E+02 -0.13923745823E+04  0.13972588709E+04  0.00000000000E+00 0. -1.
        -12    1    6    6    0    0  0.55373665103E+01  0.34790309102E+01 -0.75644778346E+01  0.99993704228E+01  0.00000000000E+00 0.  1.
</event>
<event>
12    1  0.9962621E-001  0.3119635E+03  0.7818608E-02  0.1079559E+00
         21   -1    0    0  503  502  0.00000000000E+00  0.00000000000E+00  0.19397880222E+04  0.19397880222E+04  0.00000000000E+00 0. -1.
         21   -1    0    0  501  503 -0.00000000000E+00 -0.00000000000E+00 -0.51045317216E+02  0.51045317216E+02  0.00000000000E+00 0. -1.
          6    2    1    2  501    0 -0.81489659325E+02 -0.24556292850E+03  0.79792644783E+03  0.85628437079E+03  0.17203078529E+03 0.  0.
         24    2    3    3    0    0  0.21444400135E+02 -0.14009914401E+03  0.44450469556E+03  0.47333913265E+03  0.79861615789E+02 0.  0.
         -6    2    1    2    0  502  0.81489659325E+02  0.24556292850E+03  0.10908162571E+04  0.11345489686E+04  0.17429727163E+03 0.  0.
        -24    2    5    5    0    0  0.78925159893E+01  0.85322791645E+02  0.63143859049E+03  0.64246831304E+03  0.81905855205E+02 0.  0.
          5    1    3    3  501    0 -0.10293405946E+03 -0.10546378449E+03  0.35342175227E+03  0.38294523814E+03  0.47000000000E+01 0. -1.
        -11    1    4    4    0    0 -0.14847554007E+02 -0.11011381408E+03  0.35810667347E+03  0.37494785170E+03  0.00000000000E+00 0.  1.
         12    1    4    4    0    0  0.36291954142E+02 -0.29985329924E+02  0.86398022096E+02  0.98391280956E+02  0.00000000000E+00 0. -1.
         -5    1    5    5    0  502  0.73597143336E+02  0.16024013686E+03  0.45937766664E+03  0.49208065556E+03  0.47000000000E+01 0.  1.
         13    1    6    6    0    0  0.33927411544E+02  0.16070456695E+02  0.12082861589E+03  0.12652621566E+03  0.00000000000E+00 0. -1.
        -14    1    6    6    0    0 -0.26034895554E+02  0.69252334950E+02  0.51060997460E+03  0.51594209738E+03  0.00000000000E+00 0.  1.
</event>
<event>
12    1  0.9962621E-001  0.2943771E+03  0.7818608E-02  0.1088134E+00
         21   -1    0    0  501  502  0.00000000000E+00  0.00000000000E+00  0.16632196545E+03  0.16632196545E+03  0.00000000000E+00 0.  1.
         21   -1    0    0  502  503 -0.00000000000E+00 -0.00000000000E+00 -0.12216941527E+04  0.12216941527E+04  0.00000000000E+00 0. -1.
         -6    2    1    2    0  503  0.19011962571E+03 -0.14370787096E+03 -0.10533734015E+04  0.10936321900E+04  0.17215812404E+03 0.  0.
        -24    2    3    3    0    0  0.13682195923E+03 -0.30831740009E+02 -0.71185251506E+03  0.72998363975E+03  0.80444181852E+02 0.  0.
          6    2    1    2  501    0 -0.19011962571E+03  0.14370787096E+03 -0.19987857265E+01  0.29438392816E+03  0.17280184536E+03 0.  0.
         24    2    5    5    0    0 -0.59711571377E+02  0.12740106240E+03  0.11087620633E+02  0.16222676161E+03  0.79988026569E+02 0.  0.
          5    1    5    5  501    0 -0.13040805433E+03  0.16306808564E+02 -0.13086406359E+02  0.13215716656E+03  0.47000000000E+01 0. -1.
        -11    1    6    6    0    0 -0.68631265380E+02  0.11367905158E+03  0.31091079536E+02  0.13638120319E+03  0.00000000000E+00 0.  1.
         12    1    6    6    0    0  0.89196940032E+01  0.13722010814E+02 -0.20003458904E+02  0.25845558419E+02  0.00000000000E+00 0. -1.
         -5    1    3    3    0  503  0.53297666483E+02 -0.11287613095E+03 -0.34152088646E+03  0.36364855022E+03  0.47000000000E+01 0.  1.
         11    1    4    4    0    0  0.13879464413E+02 -0.33936794245E+02 -0.11945848873E+03  0.12495869744E+03  0.00000000000E+00 0. -1.
        -12    1    4    4    0    0  0.12294249481E+03  0.31050542358E+01 -0.59239402633E+03  0.60502494231E+03  0.00000000000E+00 0.  1.
</event>
<event>
12    1  0.9962621E-001  0.1952614E+03  0.7818608E-02  0.1153933E+00
         21   -1    0    0  501  502  0.00000000000E+00  0.00000000000E+00  0.13047710179E+02  0.13047710179E+02  0.00000000000E+00 0. -1.
         21   -1    0    0  502  503 -0.00000000000E+00 -0.00000000000E+00 -0.30775178659E+04  0.30775178659E+04  0.00000000000E+00 0. -1.
         -6    2    1    2    0  503 -0.91708199479E+02  0.67755518798E+00 -0.11726092516E+04  0.11886547729E+04  0.17168826190E+03 0.  0.
        -24    2    3    3    0    0 -0.52076419456E+02  0.15148257722E+02 -0.11028411012E+04  0.11069861496E+04  0.78856945001E+02 0.  0.
          6    2    1    2  501    0  0.91708199479E+02 -0.67755518798E+00 -0.18918609041E+04  0.19019108032E+04  0.17238378626E+03 0.  0.
         24    2    5    5    0    0  0.25549694951E+02 -0.59839244376E+02 -0.11596548253E+04  0.11643303770E+04  0.81439492432E+02 0.  0.
          5    1    5    5  501    0  0.66158504528E+02  0.59161689188E+02 -0.73220607885E+03  0.73758042619E+03  0.47000000000E+01 0. -1.
        -11    1    6    6    0    0  0.23643522081E+02 -0.15374530266E+02 -0.92860592947E+03  0.92903410302E+03  0.00000000000E+00 0.  1.
         12    1    6    6    0    0  0.19061728703E+01 -0.44464714110E+02 -0.23104889581E+03  0.23529627398E+03  0.00000000000E+00 0. -1.
         -5    1    3    3    0  503 -0.39631780023E+02 -0.14470702534E+02 -0.69768150427E+02  0.81668623312E+02  0.47000000000E+01 0.  1.
         13    1    4    4    0    0  0.12339286098E+02  0.17094789606E+02 -0.54959607702E+03  0.55000030699E+03  0.00000000000E+00 0. -1.
        -14    1    4    4    0    0 -0.64415705553E+02 -0.19465318837E+01 -0.55324502415E+03  0.55698584260E+03  0.00000000000E+00 0.  1.
</event>
<event>
12    1  0.9962621E-001  0.2140613E+03  0.7818608E-02  0.1138498E+00
         21   -1    0    0  503  502  0.00000000000E+00  0.00000000000E+00  0.39339136093E+02  0.39339136093E+02  0.00000000000E+00 0. -1.
         21   -1    0    0  501  503 -0.00000000000E+00 -0.00000000000E+00 -0.12567989131E+04  0.12567989131E+04  0.00000000000E+00 0. -1.
          6    2    1    2  501    0 -0.79690750371E+02  0.96710693778E+02 -0.43124527951E+03  0.48145067037E+03  0.17354735066E+03 0.  0.
         24    2    3    3    0    0 -0.99192818310E+02  0.84955545404E+02 -0.22700271728E+03  0.27588893173E+03  0.86762947751E+02 0.  0.
         -6    2    1    2    0  502  0.79690750371E+02 -0.96710693778E+02 -0.78621449748E+03  0.81468737880E+03  0.17285460694E+03 0.  0.
        -24    2    5    5    0    0  0.91463244422E+01 -0.56018735711E+02 -0.19630141849E+03  0.21916081999E+03  0.79217827013E+02 0.  0.
          5    1    3    3  501    0  0.19502067939E+02  0.11755148374E+02 -0.20424256223E+03  0.20556173864E+03  0.47000000000E+01 0. -1.
        -11    1    4    4    0    0 -0.93932999001E+02  0.99580024375E+02 -0.21935973394E+03  0.25856968583E+03  0.00000000000E+00 0.  1.
         12    1    4    4    0    0 -0.52598193089E+01 -0.14624478971E+02 -0.76429833352E+01  0.17319245902E+02  0.00000000000E+00 0. -1.
         -5    1    5    5    0  502  0.70544425928E+02 -0.40691958067E+02 -0.58991307899E+03  0.59552655881E+03  0.47000000000E+01 0.  1.
         13    1    6    6    0    0  0.21169674263E+02 -0.24379316409E+02 -0.17755969015E+03  0.18047146518E+03  0.00000000000E+00 0. -1.
        -14    1    6    6    0    0 -0.12023349821E+02 -0.31639419303E+02 -0.18741728339E+02  0.38689354813E+02  0.00000000000E+00 0.  1.
</event>
<event>
12    1  0.9962621E-001  0.3395158E+03  0.7818608E-02  0.1067170E+00
         21   -1    0    0  501  502  0.00000000000E+00  0.00000000000E+00  0.79428539981E+03  0.79428539981E+03  0.00000000000E+00 0. -1.
         21   -1    0    0  502  503 -0.00000000000E+00 -0.00000000000E+00 -0.14456861134E+03  0.14456861134E+03  0.00000000000E+00 0. -1.
         -6    2    1    2    0  503  0.16495659385E+03  0.24151094739E+03  0.31250770029E+03  0.46144563238E+03  0.17243199629E+03 0.  0.
        -24    2    3    3    0    0  0.11474907750E+03  0.24850703530E+03  0.24295955394E+03  0.37525529299E+03  0.82849820075E+02 0.  0.
          6    2    1    2  501    0 -0.16495659385E+03 -0.24151094739E+03  0.33720908818E+03  0.47740837877E+03  0.16932387725E+03 0.  0.
         24    2    5    5    0    0 -0.13618021644E+03 -0.85731474875E+02  0.16317211797E+03  0.24202299063E+03  0.77814206765E+02 0.  0.
          5    1    5    5  501    0 -0.28776377410E+02 -0.15577947251E+03  0.17403697021E+03  0.23538538815E+03  0.47000000000E+01 0. -1.
        -11    1    6    6    0    0 -0.12049693907E+03 -0.92532368951E+02  0.16562692542E+03  0.22475326484E+03  0.00000000000E+00 0.  1.
         12    1    6    6    0    0 -0.15683277367E+02  0.68008940766E+01 -0.24548074515E+01  0.17269725789E+02  0.00000000000E+00 0. -1.
         -5    1    3    3    0  503  0.50207516348E+02 -0.69960879131E+01  0.69548146352E+02  0.86190339394E+02  0.47000000000E+01 0.  1.
         13    1    4    4    0    0 -0.11392524135E+02  0.22079412119E+02  0.35135460945E+02  0.43032437318E+02  0.00000000000E+00 0. -1.
        -14    1    4    4    0    0  0.12614160164E+03  0.22642762318E+03  0.20782409299E+03  0.33222285567E+03  0.00000000000E+00 0.  1.
</event>
<event>
12    1  0.9962621E-001  0.1759293E+03  0.7818608E-02  0.1172211E+00
         21   -1    0    0  501  502  0.00000000000E+00  0.00000000000E+00  0.14801055052E+04  0.14801055052E+04  0.00000000000E+00 0.  1.
         21   -1    0    0  502  503 -0.00000000000E+00 -0.00000000000E+00 -0.20968246591E+02  0.20968246591E+02  0.00000000000E+00 0.  1.
         -6    2    1    2    0  503  0.31769686046E+02 -0.11947999833E+02  0.65092649722E+03  0.67428216130E+03  0.17262404411E+03 0.  0.
        -24    2    3    3    0    0  0.12684656664E+02 -0.64707826835E+02  0.53837698704E+03  0.54843574722E+03  0.81141760483E+02 0.  0.
          6    2    1    2  501    0 -0.31769686046E+02  0.11947999833E+02  0.80821076140E+03  0.82679159051E+03  0.17096090676E+03 0.  0.
         24    2    5    5    0    0 -0.62427690658E+02  0.53886474051E+02  0.63956828112E+03  0.65026645059E+03  0.83653463215E+02 0.  0.
          5    1    5    5  501    0  0.30658004612E+02 -0.41938474218E+02  0.16864248028E+03  0.17652513992E+03  0.47000000000E+01 0. -1.
        -13    1    6    6    0    0 -0.41273156214E+02  0.42298004604E+02  0.16817805474E+03  0.17825950946E+03  0.00000000000E+00 0.  1.
         14    1    6    6    0    0 -0.21154534444E+02  0.11588469448E+02  0.47139022638E+03  0.47200694113E+03  0.00000000000E+00 0. -1.
         -5    1    3    3    0  503  0.19085029382E+02  0.52759827001E+02  0.11254951019E+03  0.12584641407E+03  0.47000000000E+01 0.  1.
         11    1    4    4    0    0  0.26802995217E+02 -0.18580129942E+02  0.66164180853E+02  0.73765307626E+02  0.00000000000E+00 0. -1.
        -12    1    4    4    0    0 -0.14118338553E+02 -0.46127696893E+02  0.47221280618E+03  0.47467043960E+03  0.00000000000E+00 0.  1.
</event>
<event>
12    1  0.9962621E-001  0.2448718E+03  0.7818608E-02  0.1116712E+00
         21   -1    0    0  503  502  0.00000000000E+00  0.00000000000E+00  0.25332257714E+03  0.25332257714E+03  0.00000000000E+00 0. -1.
         21   -1    0    0  501  503 -0.00000000000E+00 -0.00000000000E+00 -0.23612849709E+03  0.23612849709E+03  0.00000000000E+00 0. -1.
          6    2    1    2  501    0 -0.12362424451E+03 -0.12234626243E+03  0.14882989293E+02  0.24532363092E+03  0.17236768478E+03 0.  0.
         24    2    3    3    0    0 -0.61088893933E+02 -0.12121568519E+02 -0.36521956760E+02  0.10848536252E+03  0.80971817139E+02 0.  0.
         -6    2    1    2    0  502  0.12362424451E+03  0.12234626243E+03  0.23110907578E+01  0.24412744332E+03  0.17129304037E+03 0.  0.
        -24    2    5    5    0    0  0.55431380710E+02  0.86817634292E+02  0.58095611377E+02  0.14901407501E+03  0.90665069886E+02 0.  0.
          5    1    3    3  501    0 -0.62535350578E+02 -0.11022469391E+03  0.51404946053E+02  0.13683826840E+03  0.47000000000E+01 0. -1.
        -11    1    4    4    0    0 -0.36489604888E+02 -0.44551709706E+02 -0.35733643309E+02  0.67773441456E+02  0.00000000000E+00 0.  1.
         12    1    4    4    0    0 -0.24599289045E+02  0.32430141187E+02 -0.78831345105E+00  0.40711921067E+02  0.00000000000E+00 0. -1.
         -5    1    5    5    0  502  0.68192863801E+02  0.35528628134E+02 -0.55784520619E+02  0.95113368310E+02  0.47000000000E+01 0.  1.
         11    1    6    6    0    0 -0.13492045548E+02 -0.21068615916E+01  0.30133950391E+02  0.33083668554E+02  0.00000000000E+00 0. -1.
        -12    1    6    6    0    0  0.68923426258E+02  0.88924495883E+02  0.27961660986E+02  0.11593040645E+03  0.00000000000E+00 0.  1.
</event>
<event>
12    1  0.9962621E-001  0.2488279E+03  0.7818608E-02  0.1114453E+00
         21   -1    0    0  503  502  0.00000000000E+00  0.00000000000E+00  0.29654366411E+03  0.29654366411E+03  0.00000000000E+00 0. -1.
         21   -1    0    0  501  503 -0.00000000000E+00 -0.00000000000E+00 -0.20710603691E+03  0.20710603691E+03  0.00000000000E+00 0. -1.
          6    2    1    2  501    0 -0.83998670714E+02 -0.15849391096E+03  0.33350822730E+02  0.25105294501E+03  0.17245059388E+03 0.  0.
         24    2    3    3    0    0 -0.69649973469E+02 -0.18773080872E+03  0.30796330876E+02  0.21804844937E+03  0.80639549416E+02 0.  0.
         -6    2    1    2    0  502  0.83998670714E+02  0.15849391096E+03  0.56086804475E+02  0.25259675601E+03  0.16876994702E+03 0.  0.
        -24    2    5    5    0    0  0.95099144692E+02  0.18193569894E+03  0.55200094838E+02  0.22622225695E+03  0.77362867050E+02 0.  0.
          5    1    3    3  501    0 -0.14348697246E+02  0.29236897768E+02  0.25544918544E+01  0.33004495639E+02  0.47000000000E+01 0. -1.
        -13    1    4    4    0    0 -0.31277563383E+02 -0.86281903937E+02  0.54894157717E+02  0.10694027057E+03  0.00000000000E+00 0.  1.
         14    1    4    4    0    0 -0.38372410086E+02 -0.10144890479E+03 -0.24097826842E+02  0.11110817880E+03  0.00000000000E+00 0. -1.
         -5    1    5    5    0  502 -0.11100473978E+02 -0.23441787988E+02  0.88670963763E+00  0.26374499058E+02  0.47000000000E+01 0.  1.
         11    1    6    6    0    0  0.11831997165E+02  0.24509171361E+02  0.38777931141E+02  0.47375347823E+02  0.00000000000E+00 0. -1.
        -12    1    6    6    0    0  0.83267147526E+02  0.15742652758E+03  0.16422163696E+02  0.17884690913E+03  0.00000000000E+00 0.  1.
</event>
<event>
12    1  0.9962621E-001  0.2201897E+03  0.7818608E-02  0.1134317E+00
         21   -1    0    0  503  502  0.00000000000E+00  0.00000000000E+00  0.85108060545E+02  0.85108060545E+02  0.00000000000E+00 0.  1.
         21   -1    0    0  501  503 -0.00000000000E+00 -0.00000000000E+00 -0.81376365044E+03  0.81376365044E+03  0.00000000000E+00 0.  1.
          6    2    1    2  501    0 -0.13064495561E+03 -0.42845392282E+02 -0.11246374218E+03  0.24452020390E+03  0.16804227072E+03 0.  0.
         24    2    3    3    0    0 -0.11930323804E+03 -0.39812410323E+02 -0.14612760838E+03  0.20855939990E+03  0.79532727416E+02 0.  0.
         -6    2    1    2    0  502  0.13064495561E+03  0.42845392282E+02 -0.61619184772E+03  0.65435150708E+03  0.17198741104E+03 0.  0.
        -24    2    5    5    0    0  0.13662949941E+03  0.68815950653E+02 -0.59560342817E+03  0.62034771779E+03  0.81759355077E+02 0.  0.
          5    1    3    3  501    0 -0.11341717568E+02 -0.30329819586E+01  0.33663866207E+02  0.35960804009E+02  0.47000000000E+01 0. -1.
        -11    1    4    4    0    0 -0.65855442453E+02  0.18375523095E+02 -0.82261488039E+02  0.10696518856E+03  0.00000000000E+00 0.  1.
         12    1    4    4    0    0 -0.53447795587E+02 -0.58187933418E+02 -0.63866120344E+02  0.10159421133E+03  0.00000000000E+00 0. -1.
         -5    1    5    5    0  502 -0.59845438018E+01 -0.25970558371E+02 -0.20588419545E+02  0.34003789288E+02  0.47000000000E+01 0.  1.
         11    1    6    6    0    0  0.34902787952E+02 -0.18318745278E+02 -0.12689920525E+03  0.13288035720E+03  0.00000000000E+00 0. -1.
        -12    1    6    6    0    0  0.10172671146E+03  0.87134695930E+02 -0.46870422292E+03  0.48746736059E+03  0.00000000000E+00 0.  1.
</event>
<event>
12    1  0.9962621E-001  0.2183359E+03  0.7818608E-02  0.1135190E+00
         21   -1    0    0  503  502  0.00000000000E+00  0.00000000000E+00  0.81953964067E+02  0.81953964067E+02  0.00000000000E+00 0. -1.
         21   -1    0    0  501  503 -0.00000000000E+00 -0.00000000000E+00 -0.60653093512E+03  0.60653093512E+03  0.00000000000E+00 0. -1.
          6    2    1    2  501    0 -0.75415577666E+01  0.13458996524E+03 -0.33297053542E+03  0.39799637209E+03  0.17134876976E+03 0.  0.
         24    2    3    3    0    0  0.51022707254E+02  0.34652417403E+02 -0.16374453353E+03  0.19287002975E+03  0.81132419088E+02 0.  0.
         -6    2    1    2    0  502  0.75415577666E+01 -0.13458996524E+03 -0.19160643563E+03  0.29048852710E+03  0.17175338240E+03 0.  0.
        -24    2    5    5    0    0 -0.66630559386E+01 -0.12921879301E+03 -0.21235552571E+03  0.26434975741E+03  0.89688528606E+02 0.  0.
          5    1    3    3  501    0 -0.58564265020E+02  0.99937547832E+02 -0.16922600189E+03  0.20512634234E+03  0.47000000000E+01 0. -1.
        -13    1    4    4    0    0  0.54792056651E+02  0.33897066545E+02 -0.56905083679E+02  0.85961439849E+02  0.00000000000E+00 0.  1.
         14    1    4    4    0    0 -0.37693493969E+01  0.75535085781E+00 -0.10683944985E+03  0.10690858990E+03  0.00000000000E+00 0. -1.
         -5    1    5    5    0  502  0.14204613705E+02 -0.53711722263E+01  0.20749090080E+02  0.26138769687E+02  0.47000000000E+01 0.  1.
         13    1    6    6    0    0 -0.22118162737E+02 -0.12940972804E+02 -0.95106010086E+02  0.98497893655E+02  0.00000000000E+00 0. -1.
        -14    1    6    6    0    0  0.15455106798E+02 -0.11627782021E+03 -0.11724951562E+03  0.16585186375E+03  0.00000000000E+00 0.  1.
</event>
<event>
12    1  0.9962621E-001  0.3090304E+03  0.7818608E-02  0.1080996E+00
         21   -1    0    0  503  502  0.00000000000E+00  0.00000000000E+00  0.12685991029E+04  0.12685991029E+04  0.00000000000E+00 0. -1.
         21   -1    0    0  501  503 -0.00000000000E+00 -0.00000000000E+00 -0.80527040798E+02  0.80527040798E+02  0.00000000000E+00 0.  1.
          6    2    1    2  501    0  0.79641067887E+02  0.24230589021E+03  0.41720390261E+03  0.51919058258E+03  0.17448472873E+03 0.  0.
         24    2    3    3    0    0 -0.20482302113E+02  0.70398809066E+02  0.12352839369E+03  0.16444542292E+03  0.80046961539E+02 0.  0.
         -6    2    1    2    0  502 -0.79641067887E+02 -0.24230589021E+03  0.77086815953E+03  0.82993556116E+03  0.17175701493E+03 0.  0.
        -24    2    5    5    0    0 -0.31638907996E+02 -0.16886860836E+03  0.66582368427E+03  0.69299150871E+03  0.86014098973E+02 0.  0.
          5    1    3    3  501    0  0.10012337000E+03  0.17190708114E+03  0.29367550892E+03  0.35474515966E+03  0.47000000000E+01 0. -1.
        -11    1    4    4    0    0  0.13508357628E+01  0.22731084969E+02 -0.69655167189E+01  0.23812715181E+02  0.00000000000E+00 0.  1.
         12    1    4    4    0    0 -0.21833137876E+02  0.47667724098E+02  0.13049391041E+03  0.14063270774E+03  0.00000000000E+00 0. -1.
         -5    1    5    5    0  502 -0.48002159891E+02 -0.73437281842E+02  0.10504447527E+03  0.13694405245E+03  0.47000000000E+01 0.  1.
         11    1    6    6    0    0 -0.25915397831E+02 -0.20272629453E+02  0.52992093773E+02  0.62375871554E+02  0.00000000000E+00 0. -1.
        -12    1    6    6    0    0 -0.57235101648E+01 -0.14859597891E+03  0.61283159049E+03  0.63061563716E+03  0.00000000000E+00 0.  1.
</event>
<event>
12    1  0.9962621E-001  0.1737681E+03  0.7818608E-02  0.1174234E+00
         21   -1    0    0  501  502  0.00000000000E+00  0.00000000000E+00  0.13022821795E+03  0.13022821795E+03  0.00000000000E+00 0. -1.
         21   -1    0    0  502  503 -0.00000000000E+00 -0.00000000000E+00 -0.29313075705E+03  0.29313075705E+03  0.00000000000E+00 0. -1.
         -6    2    1    2    0  503 -0.16322463827E+02  0.11633945615E+02  0.16203129284E+02  0.17452194426E+03  0.17260821566E+03 0.  0.
        -24    2    3    3    0    0 -0.37378327223E+02 -0.51369789138E+02 -0.89035955609E+01  0.10335132105E+03  0.81032258800E+02 0.  0.
          6    2    1    2  501    0  0.16322463827E+02 -0.11633945615E+02 -0.17910566838E+03  0.24883703074E+03  0.17157871635E+03 0.  0.
         24    2    5    5    0    0  0.52790599914E+02 -0.54492306718E+02 -0.86272489452E+02  0.14017768610E+03  0.80315517270E+02 0.  0.
          5    1    5    5  501    0 -0.36468136088E+02  0.42858361103E+02 -0.92833178929E+02  0.10865934463E+03  0.47000000000E+01 0. -1.
        -11    1    6    6    0    0  0.45703744820E+02  0.78240939039E+01 -0.25842101415E+02  0.53083546807E+02  0.00000000000E+00 0.  1.
         12    1    6    6    0    0  0.70868550941E+01 -0.62316400622E+02 -0.60430388037E+02  0.87094139297E+02  0.00000000000E+00 0. -1.
         -5    1    3    3    0  503  0.21055863396E+02  0.63003734754E+02  0.25106724845E+02  0.71170623214E+02  0.47000000000E+01 0.  1.
         13    1    4    4    0    0 -0.22443543812E+01 -0.55299839223E+02  0.18784397861E+02  0.58446239808E+02  0.00000000000E+00 0. -1.
        -14    1    4    4    0    0 -0.35133972842E+02  0.39300500851E+01 -0.27687993422E+02  0.44905081239E+02  0.00000000000E+00 0.  1.
</event>
<event>
12    1  0.9962621E-001  0.2603545E+03  0.7818608E-02  0.1107009E+00
         21   -1    0    0  503  502  0.00000000000E+00  0.00000000000E+00  0.15580554649E+03  0.15580554649E+03  0.00000000000E+00 0.  1.
         21   -1    0    0  501  503 -0.00000000000E+00 -0.00000000000E+00 -0.44698846506E+03  0.44698846506E+03  0.00000000000E+00 0.  1.
          6    2    1    2  501    0 -0.19535071620E+03  0.14221417980E+02 -0.94715816037E+02  0.27704787649E+03  0.17152343575E+03 0.  0.
         24    2    3    3    0    0 -0.12236857263E+03  0.38268037176E+02 -0.10942161861E+03  0.19867068718E+03  0.10515912271E+03 0.  0.
         -6    2    1    2    0  502  0.19535071620E+03 -0.14221417980E+02 -0.19646710254E+03  0.32574613506E+03  0.17072513311E+03 0.  0.
        -24    2    5    5    0    0  0.12362271245E+03  0.57736178310E+02 -0.11450576001E+03  0.19512242414E+03  0.79656449871E+02 0.  0.
          5    1    3    3  501    0 -0.72982143569E+02 -0.24046619196E+02  0.14705802573E+02  0.78377189309E+02  0.47000000000E+01 0. -1.
        -13    1    4    4    0    0  0.96144781828E+01  0.29634944809E+02 -0.35184843531E+02  0.46996184514E+02  0.00000000000E+00 0.  1.
         14    1    4    4    0    0 -0.13198305082E+03  0.86330923670E+01 -0.74236775079E+02  0.15167450267E+03  0.00000000000E+00 0. -1.
         -5    1    5    5    0  502  0.71728003754E+02 -0.71957596290E+02 -0.81961342524E+02  0.13062371092E+03  0.47000000000E+01 0.  1.
         13    1    6    6    0    0  0.27696077080E+02 -0.59191651730E+01 -0.62855244162E+02  0.68941213513E+02  0.00000000000E+00 0. -1.
        -14    1    6    6    0    0  0.95926635367E+02  0.63655343483E+02 -0.51650515853E+02  0.12618121062E+03  0.00000000000E+00 0.  1.
</event>
<event>
12    1  0.9962621E-001  0.1982489E+03  0.7818608E-02  0.1151896E+00
         21   -1    0    0  503  502  0.00000000000E+00  0.00000000000E+00  0.29204245744E+03  0.29204245744E+03  0.00000000000E+00 0. -1.
         21   -1    0    0  501  503 -0.00000000000E+00 -0.00000000000E+00 -0.21538463144E+03  0.21538463144E+03  0.00000000000E+00 0. -1.
          6    2    1    2  501    0  0.44558841081E+02  0.80220575768E+02  0.19555728894E+03  0.27625677411E+03  0.17220429985E+03 0.  0.
         24    2    3    3    0    0  0.85495061639E+02  0.87703829147E+02  0.18004229658E+03  0.23159607301E+03  0.78867897536E+02 0.  0.
         -6    2    1    2    0  502 -0.44558841081E+02 -0.80220575768E+02 -0.11889946295E+03  0.23117031478E+03  0.17573218558E+03 0.  0.
        -24    2    5    5    0    0  0.22895452086E+02 -0.47952373828E+02 -0.12347910496E+03  0.15610779654E+03  0.79365753937E+02 0.  0.
          5    1    3    3  501    0 -0.40936220558E+02 -0.74832533796E+01  0.15514992362E+02  0.44660701099E+02  0.47000000000E+01 0. -1.
        -11    1    4    4    0    0 -0.45383810850E+01  0.87707585387E+01  0.64336396935E+02  0.65089899975E+02  0.00000000000E+00 0.  1.
         12    1    4    4    0    0  0.90033442724E+02  0.78933070609E+02  0.11570589965E+03  0.16650617303E+03  0.00000000000E+00 0. -1.
         -5    1    5    5    0  502 -0.67454293167E+02 -0.32268201940E+02  0.45796420066E+01  0.75062518236E+02  0.47000000000E+01 0.  1.
         13    1    6    6    0    0  0.33647115421E+01  0.38033163647E+01 -0.92630364674E+02  0.92769450569E+02  0.00000000000E+00 0. -1.
        -14    1    6    6    0    0  0.19530740544E+02 -0.51755690192E+02 -0.30848740283E+02  0.63338345972E+02  0.00000000000E+00 0.  1.
</event>
<event>
12    1  0.9962621E-001  0.1738441E+03  0.7818608E-02  0.1174198E+00
         21   -1    0    0  503  502  0.00000000000E+00  0.00000000000E+00  0.19862379181E+02  0.19862379181E+02  0.00000000000E+00 0.  1.
         21   -1    0    0  501  503 -0.00000000000E+00 -0.00000000000E+00 -0.19965444887E+04  0.19965444887E+04  0.00000000000E+00 0.  1.
          6    2    1    2  501    0  0.21673686543E+01  0.25793702981E+02 -0.48871757408E+03  0.51832134634E+03  0.17071068584E+03 0.  0.
         24    2    3    3    0    0 -0.19257972144E+02  0.55033191306E+02 -0.46311020030E+03  0.47369153010E+03  0.80703695285E+02 0.  0.
         -6    2    1    2    0  502 -0.21673686543E+01 -0.25793702981E+02 -0.14879645354E+04  0.14980855215E+04  0.17190624921E+03 0.  0.
        -24    2    5    5    0    0  0.37622727412E+02 -0.69012923811E+02 -0.10883887332E+04  0.10941869395E+04  0.80478387551E+02 0.  0.
          5    1    3    3  501    0  0.21425340798E+02 -0.29239488325E+02 -0.25607373783E+02  0.44629816243E+02  0.47000000000E+01 0. -1.
        -11    1    4    4    0    0 -0.18227808989E+02 -0.17191597250E+02 -0.80020459132E+02  0.83851523041E+02  0.00000000000E+00 0.  1.
         12    1    4    4    0    0 -0.10301631546E+01  0.72224788555E+02 -0.38308974117E+03  0.38984000706E+03  0.00000000000E+00 0. -1.
         -5    1    5    5    0  502 -0.39790096066E+02  0.43219220830E+02 -0.39957580226E+03  0.40389858201E+03  0.47000000000E+01 0.  1.
         11    1    6    6    0    0 -0.89719248077E+01 -0.34547235354E+02 -0.15741401052E+03  0.16140996751E+03  0.00000000000E+00 0. -1.
        -12    1    6    6    0    0  0.46594652219E+02 -0.34465688457E+02 -0.93097472266E+03  0.93277697202E+03  0.00000000000E+00 0.  1.
</event>
<event>
12    1  0.9962621E-001  0.4222467E+03  0.7818608E-02  0.1036457E+00
         21   -1    0    0  503  502  0.00000000000E+00  0.00000000000E+00  0.12528823158E+03  0.12528823158E+03  0.00000000000E+00 0.  1.
         21   -1    0    0  501  503 -0.00000000000E+00 -0.00000000000E+00 -0.14227769888E+04  0.14227769888E+04  0.00000000000E+00 0. -1.
          6    2    1    2  501    0 -0.17626945391E+03 -0.34224957965E+03 -0.69429615734E+03  0.81261270632E+03  0.17345478149E+03 0.  0.
         24    2    3    3    0    0 -0.11910326903E+03 -0.14420510166E+03 -0.24773593223E+03  0.32075122927E+03  0.80793309875E+02 0.  0.
         -6    2    1    2    0  502  0.17626945391E+03  0.34224957965E+03 -0.60319259991E+03  0.73545251409E+03  0.16983342648E+03 0.  0.
        -24    2    5    5    0    0  0.75668732081E+02  0.26154145603E+03 -0.47717935725E+03  0.55507586989E+03  0.79242615440E+02 0.  0.
          5    1    3    3  501    0 -0.57166184881E+02 -0.19804447799E+03 -0.44656022510E+03  0.49186147704E+03  0.47000000000E+01 0. -1.
        -11    1    4    4    0    0 -0.22870713419E+02 -0.12949170186E+02 -0.24707927584E+01  0.26398018063E+02  0.00000000000E+00 0.  1.
         12    1    4    4    0    0 -0.96232555614E+02 -0.13125593148E+03 -0.24526513947E+03  0.29435321121E+03  0.00000000000E+00 0. -1.
         -5    1    5    5    0  502  0.10060072183E+03  0.80708123618E+02 -0.12601324265E+03  0.18037664421E+03  0.47000000000E+01 0.  1.
         13    1    6    6    0    0 -0.10417800543E+02  0.63264731446E+02 -0.14772737910E+03  0.16104140881E+03  0.00000000000E+00 0. -1.
        -14    1    6    6    0    0  0.86086532623E+02  0.19827672459E+03 -0.32945197815E+03  0.39403446108E+03  0.00000000000E+00 0.  1.
</event>
<event>
12    1  0.9962621E-001  0.1731448E+03  0.7818608E-02  0.1174764E+00
         21   -1    0    0  503  502  0.00000000000E+00  0.00000000000E+00  0.95578732864E+02  0.95578732864E+02  0.00000000000E+00 0.  1.
         21   -1    0    0  501  503 -0.00000000000E+00 -0.00000000000E+00 -0.32032436999E+03  0.32032436999E+03  0.00000000000E+00 0.  1.
          6    2    1    2  501    0  0.24256926376E+02  0.14458168758E+02 -0.14458395066E+03  0.22510207389E+03  0.17020278423E+03 0.  0.
         24    2    3    3    0    0  0.43893041291E+02 -0.17654015816E+02 -0.21054078185E+02  0.95879441196E+02  0.80692810632E+02 0.  0.
         -6    2    1    2    0  502 -0.24256926376E+02 -0.14458168758E+02 -0.80161686465E+02  0.19080102896E+03  0.17082651889E+03 0.  0.
        -24    2    5    5    0    0 -0.79111418358E+02 -0.10761245218E+02 -0.73984715294E+02  0.13527691251E+03  0.80322375769E+02 0.  0.
          5    1    3    3  501    0 -0.19636114915E+02  0.32112184574E+02 -0.12352987247E+03  0.12922263269E+03  0.47000000000E+01 0. -1.
        -13    1    4    4    0    0 -0.77507883985E+01 -0.23710778553E+02  0.18073436074E+02  0.30804623548E+02  0.00000000000E+00 0.  1.
         14    1    4    4    0    0  0.51643829690E+02  0.60567627368E+01 -0.39127514259E+02  0.65074817648E+02  0.00000000000E+00 0. -1.
         -5    1    5    5    0  502  0.54854491982E+02 -0.36969235398E+01 -0.61769711707E+01  0.55524116446E+02  0.47000000000E+01 0.  1.
         13    1    6    6    0    0 -0.79990460957E+02 -0.70183458532E-01 -0.23079157786E+02  0.83253386081E+02  0.00000000000E+00 0. -1.
        -14    1    6    6    0    0  0.87904259942E+00 -0.10691061760E+02 -0.50905557508E+02  0.52023526434E+02  0.00000000000E+00 0.  1.
</event>
<event>
12    1  0.9962621E-001  0.1833505E+03  0.7818608E-02  0.1164803E+00
         21   -1    0    0  503  502  0.00000000000E+00  0.00000000000E+00  0.52666619539E+03  0.52666619539E+03  0.00000000000E+00 0.  1.
         21   -1    0    0  501  503 -0.00000000000E+00 -0.00000000000E+00 -0.85500564635E+02  0.85500564635E+02  0.00000000000E+00 0.  1.
          6    2    1    2  501    0 -0.61190007138E+02 -0.15096696385E+02  0.65043543659E+02  0.19373487465E+03  0.17126123866E+03 0.  0.
         24    2    3    3    0    0 -0.16804079229E+02 -0.35012822013E+02 -0.24449162307E+02  0.91765285666E+02  0.79465913019E+02 0.  0.
         -6    2    1    2    0  502  0.61190007138E+02  0.15096696385E+02  0.37612208709E+03  0.41843188537E+03  0.17217807956E+03 0.  0.
        -24    2    5    5    0    0  0.77077220075E+02  0.11084480604E+02  0.38399124979E+03  0.39965649904E+03  0.78817978577E+02 0.  0.
          5    1    3    3  501    0 -0.44385927909E+02  0.19916125628E+02  0.89492705966E+02  0.10196958898E+03  0.47000000000E+01 0. -1.
        -13    1    4    4    0    0  0.30018654929E+02 -0.18677843621E+02  0.22830192928E+01  0.35428712411E+02  0.00000000000E+00 0.  1.
         14    1    4    4    0    0 -0.46822734157E+02 -0.16334978392E+02 -0.26732181600E+02  0.56336573255E+02  0.00000000000E+00 0. -1.
         -5    1    5    5    0  502 -0.15887212937E+02  0.40122157811E+01 -0.78691626952E+01  0.18775386332E+02  0.47000000000E+01 0.  1.
         13    1    6    6    0    0  0.28112612380E+02 -0.29821064510E+02  0.91063280219E+02  0.99860582151E+02  0.00000000000E+00 0. -1.
        -14    1    6    6    0    0  0.48964607695E+02  0.40905545114E+02  0.29292796957E+03  0.29979591689E+03  0.00000000000E+00 0.  1.
</event>
<event>
12    1  0.9962621E-001  0.3111576E+03  0.7818608E-02  0.1079826E+00
         21   -1    0    0  501  502  0.00000000000E+00  0.00000000000E+00  0.38755716348E+03  0.38755716348E+03  0.00000000000E+00 0. -1.
         21   -1    0    0  502  503 -0.00000000000E+00 -0.00000000000E+00 -0.31851930288E+03  0.31851930288E+03  0.00000000000E+00 0. -1.
         -6    2    1    2    0  503 -0.15248249855E+03 -0.20974113358E+03 -0.12970110673E+03  0.33710745952E+03  0.17197908798E+03 0.  0.
        -24    2    3    3    0    0 -0.13041559000E+03 -0.20863448237E+03 -0.15624703404E+03  0.30225133543E+03  0.80038495553E+02 0.  0.
          6    2    1    2  501    0  0.15248249855E+03  0.20974113358E+03  0.19873896732E+03  0.36896900684E+03  0.17146047765E+03 0.  0.
         24    2    5    5    0    0  0.99509864444E+02  0.19318484469E+03  0.21007537564E+03  0.31212874981E+03  0.77910818687E+02 0.  0.
          5    1    5    5  501    0  0.52972634103E+02  0.16556288889E+02 -0.11336408312E+02  0.56840257028E+02  0.47000000000E+01 0. -1.
        -11    1    6    6    0    0  0.97688533916E+02  0.16575031421E+03  0.14325046775E+03  0.23986853239E+03  0.00000000000E+00 0.  1.
         12    1    6    6    0    0  0.18213305277E+01  0.27434530482E+02  0.66824907888E+02  0.72260217422E+02  0.00000000000E+00 0. -1.
         -5    1    3    3    0  503 -0.22066908549E+02 -0.11066512056E+01  0.26545927316E+02  0.34856124095E+02  0.47000000000E+01 0.  1.
         11    1    4    4    0    0 -0.69797276194E+02 -0.72964004282E+02 -0.10343570398E+03  0.14454878257E+03  0.00000000000E+00 0. -1.
        -12    1    4    4    0    0 -0.60618313803E+02 -0.13567047809E+03 -0.52811330062E+02  0.15770255285E+03  0.00000000000E+00 0.  1.
</event>
<event>
12    1  0.9962621E-001  0.3142311E+03  0.7818608E-02  0.1078547E+00
         21   -1    0    0  503  502  0.00000000000E+00  0.00000000000E+00  0.44630684258E+02  0.44630684258E+02  0.00000000000E+00 0. -1.
         21   -1    0    0  501  503 -0.00000000000E+00 -0.00000000000E+00 -0.22752070613E+04  0.22752070613E+04  0.00000000000E+00 0.  1.
          6    2    1    2  501    0 -0.25525386567E+03 -0.58841061222E+02 -0.13295223808E+04  0.13661518833E+04  0.17356382324E+03 0.  0.
         24    2    3    3    0    0 -0.15291744109E+03 -0.31643006915E+02 -0.10931922742E+04  0.11071412903E+04  0.79419549344E+02 0.  0.
         -6    2    1    2    0  502  0.25525386567E+03  0.58841061222E+02 -0.90105399624E+03  0.95368586227E+03  0.17029860049E+03 0.  0.
        -24    2    5    5    0    0  0.90413311106E+02  0.80719891840E+02 -0.40854764691E+03  0.43384388072E+03  0.81357638081E+02 0.  0.
          5    1    3    3  501    0 -0.10233642458E+03 -0.27198054308E+02 -0.23633010662E+03  0.25901059293E+03  0.47000000000E+01 0. -1.
        -11    1    4    4    0    0 -0.10272237189E+03  0.15733020413E+02 -0.56740677429E+03  0.57684474613E+03  0.00000000000E+00 0.  1.
         12    1    4    4    0    0 -0.50195069202E+02 -0.47376027328E+02 -0.52578549987E+03  0.53029654422E+03  0.00000000000E+00 0. -1.
         -5    1    5    5    0  502  0.16484055456E+03 -0.21878830617E+02 -0.49250634933E+03  0.51984198155E+03  0.47000000000E+01 0.  1.
         13    1    6    6    0    0  0.87703647796E+02  0.61947350131E+02 -0.39781409394E+03  0.41205030926E+03  0.00000000000E+00 0. -1.
        -14    1    6    6    0    0  0.27096633101E+01  0.18772541709E+02 -0.10733552976E+02  0.21793571459E+02  0.00000000000E+00 0.  1.
</event>
<event>
12    1  0.9962621E-001  0.2436219E+03  0.7818608E-02  0.1118284E+00
         21   -1    0    0  501  502  0.00000000000E+00  0.00000000000E+00  0.30311427526E+03  0.30311427526E+03  0.00000000000E+00 0.  1.
         21   -1    0    0  502  503 -0.00000000000E+00 -0.00000000000E+00 -0.19310279935E+03  0.19310279935E+03  0.00000000000E+00 0.  1.
         -6    2    1    2    0  503  0.10683704404E+02  0.16839217237E+03  0.33337521002E+02  0.24589231230E+03  0.17573153868E+03 0.  0.
        -24    2    3    3    0    0  0.38448572958E+01  0.19311608762E+03  0.77963334931E+01  0.20938910595E+03  0.80463710139E+02 0.  0.
          6    2    1    2  501    0 -0.10683704404E+02 -0.16839217237E+03  0.76673954907E+02  0.25032476230E+03  0.16826623548E+03 0.  0.
         24    2    5    5    0    0  0.45531783092E+02 -0.13491226591E+03  0.22207789402E+02  0.16506200164E+03  0.80484878768E+02 0.  0.
          5    1    5    5  501    0 -0.56215487496E+02 -0.33479906464E+02  0.54466165505E+02  0.85262760664E+02  0.47000000000E+01 0. -1.
        -11    1    6    6    0    0 -0.17787541359E+02 -0.42363780054E+01  0.99415794180E+00  0.18312069140E+02  0.00000000000E+00 0.  1.
         12    1    6    6    0    0  0.63319324451E+02 -0.13067588790E+03  0.21213631460E+02  0.14674993249E+03  0.00000000000E+00 0. -1.
         -5    1    3    3    0  503  0.68388471082E+01 -0.24723915247E+02  0.25541187509E+02  0.36503206356E+02  0.47000000000E+01 0.  1.
         13    1    4    4    0    0  0.11568263801E+02  0.10786047147E+03  0.43183698348E+02  0.11675845938E+03  0.00000000000E+00 0. -1.
        -14    1    4    4    0    0 -0.77234065052E+01  0.85255616145E+02 -0.35387364855E+02  0.92630646568E+02  0.00000000000E+00 0.  1.
</event>
<event>
12    1  0.9962621E-001  0.1959892E+03  0.7818608E-02  0.1153507E+00
         21   -1    0    0  503  502  0.00000000000E+00  0.00000000000E+00  0.93204765250E+02  0.93204765250E+02  0.00000000000E+00 0. -1.
         21   -1    0    0  501  503 -0.00000000000E+00 -0.00000000000E+00 -0.40998519649E+03  0.40998519649E+03  0.00000000000E+00 0. -1.
          6    2    1    2  501    0  0.72114757248E+02  0.57322363434E+02 -0.14451703667E+03  0.24225615389E+03  0.17122055556E+03 0.  0.
         24    2    3    3    0    0  0.91264319289E+02  0.75040237380E+02 -0.15704076829E+03  0.21293785521E+03  0.81978741605E+02 0.  0.
         -6    2    1    2    0  502 -0.72114757248E+02 -0.57322363434E+02 -0.17226339457E+03  0.26093380785E+03  0.17298954711E+03 0.  0.
        -24    2    5    5    0    0  0.10592492156E+02 -0.65252595463E+02 -0.54538048126E+02  0.11676472351E+03  0.79306367075E+02 0.  0.
          5    1    3    3  501    0 -0.19149562041E+02 -0.17717873945E+02  0.12523731623E+02  0.29318298677E+02  0.47000000000E+01 0. -1.
        -11    1    4    4    0    0  0.72763890830E+02  0.76907847464E+01 -0.91499243413E+02  0.11715734516E+03  0.00000000000E+00 0.  1.
         12    1    4    4    0    0  0.18500428459E+02  0.67349452633E+02 -0.65541524882E+02  0.95780510058E+02  0.00000000000E+00 0. -1.
         -5    1    5    5    0  502 -0.82707249404E+02  0.79302320289E+01 -0.11772534645E+03  0.14416908434E+03  0.47000000000E+01 0.  1.
         11    1    6    6    0    0  0.26356445910E+02  0.68473178775E+01 -0.25957137754E+02  0.37620752298E+02  0.00000000000E+00 0. -1.
        -12    1    6    6    0    0 -0.15763953754E+02 -0.72099913341E+02 -0.28580910372E+02  0.79143971213E+02  0.00000000000E+00 0.  1.
</event>
<event>
12    1  0.9962621E-001  0.1875546E+03  0.7818608E-02  0.1162010E+00
         21   -1    0    0  501  502  0.00000000000E+00  0.00000000000E+00  0.15772812252E+03  0.15772812252E+03  0.00000000000E+00 0.  1.
         21   -1    0    0  502  503 -0.00000000000E+00 -0.00000000000E+00 -0.22129091166E+03  0.22129091166E+03  0.00000000000E+00 0.  1.
         -6    2    1    2    0  503 -0.27800847335E+02  0.67523744283E+02 -0.38554629661E+01  0.18759422500E+03  0.17275527634E+03 0.  0.
        -24    2    3    3    0    0  0.23465955914E+01  0.94100337758E+02 -0.43415523019E+02  0.13100560435E+03  0.80107307119E+02 0.  0.
          6    2    1    2  501    0  0.27800847335E+02 -0.67523744283E+02 -0.59707326175E+02  0.19142480918E+03  0.16657175516E+03 0.  0.
         24    2    5    5    0    0  0.28860919687E+02 -0.75648472275E+02 -0.10022846758E+03  0.14981726349E+03  0.76444899650E+02 0.  0.
          5    1    5    5  501    0 -0.10600723518E+01  0.81247279922E+01  0.40521141403E+02  0.41607545697E+02  0.47000000000E+01 0. -1.
        -13    1    6    6    0    0  0.80838955470E+01 -0.17229615123E+02 -0.83437227436E+02  0.85580254304E+02  0.00000000000E+00 0.  1.
         14    1    6    6    0    0  0.20777024140E+02 -0.58418857152E+02 -0.16791240141E+02  0.64237009181E+02  0.00000000000E+00 0. -1.
         -5    1    3    3    0  503 -0.30147442927E+02 -0.26576593476E+02  0.39560060053E+02  0.56588620651E+02  0.47000000000E+01 0.  1.
         11    1    4    4    0    0 -0.28846669845E+02  0.57351897972E+02  0.27569666780E+01  0.64257072976E+02  0.00000000000E+00 0. -1.
        -12    1    4    4    0    0  0.31193265436E+02  0.36748439786E+02 -0.46172489697E+02  0.66748531370E+02  0.00000000000E+00 0.  1.
</event>
<event>
12    1  0.9962621E-001  0.1949145E+03  0.7818608E-02  0.1154191E+00
         21   -1    0    0  503  502  0.00000000000E+00  0.00000000000E+00  0.64888739639E+03  0.64888739639E+03  0.00000000000E+00 0.  1.
         21   -1    0    0  501  503 -0.00000000000E+00 -0.00000000000E+00 -0.58474122296E+02  0.58474122296E+02  0.00000000000E+00 0.  1.
          6    2    1    2  501    0 -0.19307673120E+02 -0.88264158033E+02  0.28486692272E+03  0.34493877765E+03  0.17225054088E+03 0.  0.
         24    2    3    3    0    0 -0.76195827802E+02 -0.78104694418E+02  0.18562857938E+03  0.23000481560E+03  0.80858507600E+02 0.  0.
         -6    2    1    2    0  502  0.19307673120E+02  0.88264158033E+02  0.30554635138E+03  0.36242274104E+03  0.17270877959E+03 0.  0.
        -24    2    5    5    0    0  0.19475792391E+02  0.12684983229E+03  0.18505438517E+03  0.23581592272E+03  0.69955968292E+02 0.  0.
          5    1    3    3  501    0  0.56888154682E+02 -0.10159463615E+02  0.99238343335E+02  0.11493396205E+03  0.47000000000E+01 0. -1.
        -11    1    4    4    0    0 -0.48986251623E+02 -0.91025133067E+02  0.15983739593E+03  0.19035025830E+03  0.00000000000E+00 0.  1.
         12    1    4    4    0    0 -0.27209576179E+02  0.12920438649E+02  0.25791183454E+02  0.39654557300E+02  0.00000000000E+00 0. -1.
         -5    1    5    5    0  502 -0.16811927082E+00 -0.38585674258E+02  0.12049196621E+03  0.12660681831E+03  0.47000000000E+01 0.  1.
         11    1    6    6    0    0  0.11361399889E+02  0.45862709511E+02  0.19075195373E+02  0.50954220725E+02  0.00000000000E+00 0. -1.
        -12    1    6    6    0    0  0.81143925026E+01  0.80987122780E+02  0.16597918979E+03  0.18486170200E+03  0.00000000000E+00 0.  1.
</event>
<event>
12    1  0.9962621E-001  0.2370705E+03  0.7818608E-02  0.1121791E+00
         21   -1    0    0  503  502  0.00000000000E+00  0.00000000000E+00  0.11611066226E+03  0.11611066226E+03  0.00000000000E+00 0.  1.
         21   -1    0    0  501  503 -0.00000000000E+00 -0.00000000000E+00 -0.48895615451E+03  0.48895615451E+03  0.00000000000E+00 0.  1.
          6    2    1    2  501    0 -0.14957848240E+03  0.66775222177E+02 -0.15489720929E+03  0.28303597017E+03  0.17112440583E+03 0.  0.
         24    2    3    3    0    0 -0.13099409706E+03  0.44599324420E+02 -0.18306774881E+03  0.24238109203E+03  0.78014357116E+02 0.  0.
         -6    2    1    2    0  502  0.14957848240E+03 -0.66775222177E+02 -0.21794828296E+03  0.32203084660E+03  0.17137607599E+03 0.  0.
        -24    2    5    5    0    0  0.10230548140E+03 -0.80552694324E+02 -0.22515162223E+03  0.27204551416E+03  0.79751869528E+02 0.  0.
          5    1    3    3  501    0 -0.18584385345E+02  0.22175897758E+02  0.28170539520E+02  0.40654878144E+02  0.47000000000E+01 0. -1.
        -11    1    4    4    0    0 -0.44225349643E+02 -0.21866085157E+02 -0.51137561415E+02  0.71056719729E+02  0.00000000000E+00 0.  1.
         12    1    4    4    0    0 -0.86768747413E+02  0.66465409576E+02 -0.13193018740E+03  0.17132437230E+03  0.00000000000E+00 0. -1.
         -5    1    5    5    0  502  0.47273000998E+02  0.13777472147E+02  0.72033392711E+01  0.49985332437E+02  0.47000000000E+01 0.  1.
         11    1    6    6    0    0  0.98334158740E+02 -0.36054865191E+02 -0.13010797230E+03  0.16702587984E+03  0.00000000000E+00 0. -1.
        -12    1    6    6    0    0  0.39713226627E+01 -0.44497829133E+02 -0.95043649930E+02  0.10501963432E+03  0.00000000000E+00 0.  1.
</event>
<event>
12    1  0.9962621E-001  0.3330981E+03  0.7818608E-02  0.1069845E+00
         21   -1    0    0  503  502  0.00000000000E+00  0.00000000000E+00  0.57328318811E+03  0.57328318811E+03  0.00000000000E+00 0. -1.
         21   -1    0    0  501  503 -0.00000000000E+00 -0.00000000000E+00 -0.20709757091E+03  0.20709757091E+03  0.00000000000E+00 0. -1.
          6    2    1    2  501    0  0.25141474245E+03  0.13315477514E+03  0.82057796008E+02  0.34305663666E+03  0.17324782021E+03 0.  0.
         24    2    3    3    0    0  0.11198665886E+03  0.11101249549E+03  0.97041242143E+02  0.20101064164E+03  0.78252728126E+02 0.  0.
         -6    2    1    2    0  502 -0.25141474245E+03 -0.13315477514E+03  0.28412782120E+03  0.43732412235E+03  0.17200058823E+03 0.  0.
        -24    2    5    5    0    0 -0.18737501470E+03 -0.13959754143E+03  0.15239102662E+03  0.29062964729E+03  0.81521145634E+02 0.  0.
          5    1    3    3  501    0  0.13942808359E+03  0.22142279645E+02 -0.14983446135E+02  0.14204599502E+03  0.47000000000E+01 0. -1.
        -11    1    4    4    0    0  0.91382996416E+02  0.43744307958E+02  0.78747424970E+02  0.12831825066E+03  0.00000000000E+00 0.  1.
         12    1    4    4    0    0  0.20603662442E+02  0.67268187534E+02  0.18293817173E+02  0.72692390983E+02  0.00000000000E+00 0. -1.
         -5    1    5    5    0  502 -0.64039727757E+02  0.64427662895E+01  0.13173679458E+03  0.14669447507E+03  0.47000000000E+01 0.  1.
         11    1    6    6    0    0 -0.58727223023E+01  0.10962617602E+01 -0.83855557521E+01  0.10296028475E+02  0.00000000000E+00 0. -1.
        -12    1    6    6    0    0 -0.18150229239E+03 -0.14069380319E+03  0.16077658237E+03  0.28033361881E+03  0.00000000000E+00 0.  1.
</event>
<event>
12    1  0.9962621E-001  0.2042494E+03  0.7818608E-02  0.1148268E+00
         21   -1    0    0  501  502  0.00000000000E+00  0.00000000000E+00  0.31761171843E+03  0.31761171843E+03  0.00000000000E+00 0. -1.
         21   -1    0    0  502  503 -0.00000000000E+00 -0.00000000000E+00 -0.16506223489E+03  0.16506223489E+03  0.00000000000E+00 0. -1.
         -6    2    1    2    0  503  0.58772163326E+01 -0.85305418025E+02  0.19638815740E+03  0.28334806631E+03  0.18548925117E+03 0.  0.
        -24    2    3    3    0    0  0.71729024171E+02 -0.37962406573E+02  0.70167788261E+02  0.13324312664E+03  0.79019080387E+02 0.  0.
          6    2    1    2  501    0 -0.58772163326E+01  0.85305418025E+02 -0.43838673861E+02  0.19932588701E+03  0.17463511643E+03 0.  0.
         24    2    5    5    0    0  0.23265957385E+02  0.11736800698E+03 -0.56076723103E+02  0.15405786260E+03  0.79200204026E+02 0.  0.
          5    1    5    5  501    0 -0.29143173718E+02 -0.32062588956E+02  0.12238049243E+02  0.45268024412E+02  0.47000000000E+01 0. -1.
        -13    1    6    6    0    0  0.26215561795E+02  0.57807590746E+02  0.10875148696E+02  0.64399084522E+02  0.00000000000E+00 0.  1.
         14    1    6    6    0    0 -0.29496044095E+01  0.59560416235E+02 -0.66951871800E+02  0.89658778074E+02  0.00000000000E+00 0. -1.
         -5    1    3    3    0  503 -0.65851807839E+02 -0.47343011451E+02  0.12622036914E+03  0.15010493967E+03  0.47000000000E+01 0.  1.
         13    1    4    4    0    0  0.29183647420E+02  0.21871099160E+02  0.39258728270E+02  0.53584307410E+02  0.00000000000E+00 0. -1.
        -14    1    4    4    0    0  0.42545376751E+02 -0.59833505733E+02  0.30909059991E+02  0.79658819228E+02  0.00000000000E+00 0.  1.
</event>
<event>
12    1  0.9962621E-001  0.2751814E+03  0.7818608E-02  0.1098640E+00
         21   -1    0    0  503  502  0.00000000000E+00  0.00000000000E+00  0.47892452493E+03  0.47892452493E+03  0.00000000000E+00 0. -1.
         21   -1    0    0  501  503 -0.00000000000E+00 -0.00000000000E+00 -0.18033537719E+03  0.18033537719E+03  0.00000000000E+00 0. -1.
          6    2    1    2  501    0  0.11695440574E+03  0.17783422262E+03  0.30055822136E+02  0.27476679888E+03  0.17114349992E+03 0.  0.
         24    2    3    3    0    0  0.14499858118E+03  0.13634125927E+03  0.50969168385E+02  0.22029111775E+03  0.79478254313E+02 0.  0.
         -6    2    1    2    0  502 -0.11695440574E+03 -0.17783422262E+03  0.26853332560E+03  0.38449310324E+03  0.17441747540E+03 0.  0.
        -24    2    5    5    0    0 -0.13420264288E+03 -0.88366531449E+02  0.20725180821E+03  0.27458639817E+03  0.81396466846E+02 0.  0.
          5    1    3    3  501    0 -0.28044175440E+02  0.41492963342E+02 -0.20913346248E+02  0.54475681128E+02  0.47000000000E+01 0. -1.
        -11    1    4    4    0    0  0.63178443805E+01  0.34509576728E+02  0.31484043094E+02  0.47138848237E+02  0.00000000000E+00 0.  1.
         12    1    4    4    0    0  0.13868073680E+03  0.10183168255E+03  0.19485125290E+02  0.17315226951E+03  0.00000000000E+00 0. -1.
         -5    1    5    5    0  502  0.17248237137E+02 -0.89467691167E+02  0.61281517391E+02  0.10990670508E+03  0.47000000000E+01 0.  1.
         11    1    6    6    0    0 -0.41107391893E+02  0.10346888045E+02  0.32908903440E+02  0.53664435952E+02  0.00000000000E+00 0. -1.
        -12    1    6    6    0    0 -0.93095250986E+02 -0.98713419494E+02  0.17434290477E+03  0.22092196221E+03  0.00000000000E+00 0.  1.
</event>
<event>
12    1  0.9962621E-001  0.3210847E+03  0.7818608E-02  0.1075286E+00
         21   -1    0    0  503  502  0.00000000000E+00  0.00000000000E+00  0.10586105919E+04  0.10586105919E+04  0.00000000000E+00 0. -1.
         21   -1    0    0  501  503 -0.00000000000E+00 -0.00000000000E+00 -0.10419148212E+03  0.10419148212E+03  0.00000000000E+00 0. -1.
          6    2    1    2  501    0 -0.16347581716E+03  0.21597587023E+03  0.62879680326E+03  0.70549988149E+03  0.17021969241E+03 0.  0.
         24    2    3    3    0    0 -0.58936888685E+02  0.96505878260E+02  0.43127175605E+03  0.45204436109E+03  0.74577714112E+02 0.  0.
         -6    2    1    2    0  502  0.16347581716E+03 -0.21597587023E+03  0.32562230650E+03  0.45730219252E+03  0.17241081599E+03 0.  0.
        -24    2    5    5    0    0  0.16994824202E+03 -0.22501431500E+03  0.26239018918E+03  0.39292846783E+03  0.77655151396E+02 0.  0.
          5    1    3    3  501    0 -0.10453892847E+03  0.11946999197E+03  0.19752504721E+03  0.25345552040E+03  0.47000000000E+01 0. -1.
        -13    1    4    4    0    0 -0.61269879271E+02  0.62477229986E+02  0.20047733182E+03  0.21874314377E+03  0.00000000000E+00 0.  1.
         14    1    4    4    0    0  0.23329905853E+01  0.34028648274E+02  0.23079442423E+03  0.23330121733E+03  0.00000000000E+00 0. -1.
         -5    1    5    5    0  502 -0.64724248619E+01  0.90384447715E+01  0.63232117330E+02  0.64373724682E+02  0.47000000000E+01 0.  1.
         13    1    6    6    0    0  0.14108684809E+02 -0.57600765756E+02  0.84203609597E+02  0.10299102423E+03  0.00000000000E+00 0. -1.
        -14    1    6    6    0    0  0.15583955721E+03 -0.16741354925E+03  0.17818657958E+03  0.28993744360E+03  0.00000000000E+00 0.  1.
</event>
<event>
12    1  0.9962621E-001  0.1980596E+03  0.7818608E-02  0.1151667E+00
         21   -1    0    0  501  502  0.00000000000E+00  0.00000000000E+00  0.59424851951E+02  0.59424851951E+02  0.00000000000E+00 0.  1.
         21   -1    0    0  502  503 -0.00000000000E+00 -0.00000000000E+00 -0.72620964400E+03  0.72620964400E+03  0.00000000000E+00 0.  1.
         -6    2    1    2    0  503 -0.47162553910E+02  0.84786809263E+02 -0.21205218135E+03  0.29016155275E+03  0.17266872781E+03 0.  0.
        -24    2    3    3    0    0 -0.48319479681E+00  0.84371831463E+01 -0.17531565054E+03  0.19331171707E+03  0.81008784064E+02 0.  0.
          6    2    1    2  501    0  0.47162553910E+02 -0.84786809263E+02 -0.45473261070E+03  0.49547294320E+03  0.17116828179E+03 0.  0.
         24    2    5    5    0    0  0.97077327609E+02 -0.47743528549E+02 -0.32373662868E+03  0.35040148982E+03  0.79198151916E+02 0.  0.
          5    1    5    5  501    0 -0.49914773699E+02 -0.37043280714E+02 -0.13099598202E+03  0.14507145338E+03  0.47000000000E+01 0. -1.
        -11    1    6    6    0    0  0.20385129368E+02  0.15167609633E+02 -0.25075952653E+02  0.35698925512E+02  0.00000000000E+00 0.  1.
         12    1    6    6    0    0  0.76692198241E+02 -0.62911138182E+02 -0.29866067602E+03  0.31470256431E+03  0.00000000000E+00 0. -1.
         -5    1    3    3    0  503 -0.46679359113E+02  0.76349626117E+02 -0.36736530808E+02  0.96849835680E+02  0.47000000000E+01 0.  1.
         13    1    4    4    0    0  0.31615584759E+02  0.28111603889E+02 -0.74182445738E+02  0.85398142418E+02  0.00000000000E+00 0. -1.
        -14    1    4    4    0    0 -0.32098779556E+02 -0.19674420743E+02 -0.10113320480E+03  0.10791357465E+03  0.00000000000E+00 0.  1.
</event>
<event>
12    1  0.9962621E-001  0.2664738E+03  0.7818608E-02  0.1103376E+00
         21   -1    0    0  501  502  0.00000000000E+00  0.00000000000E+00  0.58810245165E+03  0.58810245165E+03  0.00000000000E+00 0.  1.
         21   -1    0    0  502  503 -0.00000000000E+00 -0.00000000000E+00 -0.14349182819E+03  0.14349182819E+03  0.00000000000E+00 0.  1.
         -6    2    1    2    0  503  0.98635568554E+02  0.17822683251E+03  0.36871958792E+03  0.45493124107E+03  0.17179790563E+03 0.  0.
        -24    2    3    3    0    0  0.10693369204E+03  0.13408921938E+03  0.36274169788E+03  0.40938112674E+03  0.81219666991E+02 0.  0.
          6    2    1    2  501    0 -0.98635568554E+02 -0.17822683251E+03  0.75891035540E+02  0.27666303877E+03  0.17114090258E+03 0.  0.
         24    2    5    5    0    0 -0.12081032789E+02 -0.58987201496E+02 -0.18498679022E+02  0.10161651501E+03  0.79738784183E+02 0.  0.
          5    1    5    5  501    0 -0.86554535765E+02 -0.11923963101E+03  0.94389714562E+02  0.17504652376E+03  0.47000000000E+01 0. -1.
        -13    1    6    6    0    0 -0.24230190825E+02 -0.71662951392E+01  0.22966285348E+02  0.34145397876E+02  0.00000000000E+00 0.  1.
         14    1    6    6    0    0  0.12149158036E+02 -0.51820906357E+02 -0.41464964370E+02  0.67471117131E+02  0.00000000000E+00 0. -1.
         -5    1    3    3    0  503 -0.82981234885E+01  0.44137613128E+02  0.59778900418E+01  0.45550114329E+02  0.47000000000E+01 0.  1.
         13    1    4    4    0    0  0.61403962686E+02  0.12828173282E+03  0.24944254061E+03  0.28713799936E+03  0.00000000000E+00 0. -1.
        -14    1    4    4    0    0  0.45529729356E+02  0.58074865601E+01  0.11329915727E+03  0.12224312738E+03  0.00000000000E+00 0.  1.
</event>
<event>
12    1  0.9962621E-001  0.4230168E+03  0.7818608E-02  0.1036118E+00
         21   -1    0    0  501  502  0.00000000000E+00  0.00000000000E+00  0.72616405112E+03  0.72616405112E+03  0.00000000000E+00 0.  1.
         21   -1    0    0  502  503 -0.00000000000E+00 -0.00000000000E+00 -0.46345446342E+03  0.46345446342E+03  0.00000000000E+00 0.  1.
         -6    2    1    2    0  503  0.50442034754E+02 -0.38290989413E+03 -0.27591271753E+03  0.50474101316E+03  0.17167200348E+03 0.  0.
        -24    2    3    3    0    0  0.54875962221E+02 -0.37757989445E+03 -0.21886666398E+03  0.44708330912E+03  0.80018252745E+02 0.  0.
          6    2    1    2  501    0 -0.50442034754E+02  0.38290989413E+03  0.53862230522E+03  0.68487750138E+03  0.17256540304E+03 0.  0.
         24    2    5    5    0    0 -0.46061198631E+02  0.38857424573E+03  0.54397543581E+03  0.67477687708E+03  0.79391313183E+02 0.  0.
          5    1    5    5  501    0 -0.43808361237E+01 -0.56643515988E+01 -0.53531305937E+01  0.10100624304E+02  0.47000000000E+01 0. -1.
        -11    1    6    6    0    0 -0.95999879095E+01  0.47800530434E+02  0.12053414514E+03  0.13002126988E+03  0.00000000000E+00 0.  1.
         12    1    6    6    0    0 -0.36461210721E+02  0.34077371529E+03  0.42344129067E+03  0.54475560719E+03  0.00000000000E+00 0. -1.
         -5    1    3    3    0  503 -0.44339274662E+01 -0.53299996793E+01 -0.57046053545E+02  0.57657704033E+02  0.47000000000E+01 0.  1.
         13    1    4    4    0    0  0.44550761626E+02 -0.36881486692E+03 -0.22253884699E+03  0.43305047609E+03  0.00000000000E+00 0. -1.
        -14    1    4    4    0    0  0.10325200595E+02 -0.87650275298E+01  0.36721830072E+01  0.14032833034E+02  0.00000000000E+00 0.  1.
</event>
<event>
12    1  0.9962621E-001  0.1955859E+03  0.7818608E-02  0.1154394E+00
         21   -1    0    0  501  502  0.00000000000E+00  0.00000000000E+00  0.41626194357E+02  0.41626194357E+02  0.00000000000E+00 0.  1.
         21   -1    0    0  502  503 -0.00000000000E+00 -0.00000000000E+00 -0.91564920225E+03  0.91564920225E+03  0.00000000000E+00 0.  1.
         -6    2    1    2    0  503  0.71863492299E+02  0.59594993520E+02 -0.37950947752E+03  0.42694412034E+03  0.17186597567E+03 0.  0.
        -24    2    3    3    0    0 -0.12729086464E+02  0.60264769283E+02 -0.13434883635E+03  0.16755602702E+03  0.78940105792E+02 0.  0.
          6    2    1    2  501    0 -0.71863492299E+02 -0.59594993520E+02 -0.49451353038E+03  0.53033127627E+03  0.16730722065E+03 0.  0.
         24    2    5    5    0    0 -0.78531385752E+02  0.14784708000E+02 -0.32716244235E+03  0.34701385357E+03  0.83651567491E+02 0.  0.
          5    1    5    5  501    0  0.66678934522E+01 -0.74379701520E+02 -0.16735108803E+03  0.18331742270E+03  0.47000000000E+01 0. -1.
        -11    1    6    6    0    0 -0.42292852398E+02 -0.13639158387E+02 -0.53709387110E+02  0.69709470441E+02  0.00000000000E+00 0.  1.
         12    1    6    6    0    0 -0.36238533353E+02  0.28423866387E+02 -0.27345305524E+03  0.27730438313E+03  0.00000000000E+00 0. -1.
         -5    1    3    3    0  503  0.84592578764E+02 -0.66977576305E+00 -0.24516064116E+03  0.25938809332E+03  0.47000000000E+01 0.  1.
         13    1    4    4    0    0  0.15071737639E+02 -0.43925940432E+01 -0.71483407982E+02  0.73186950849E+02  0.00000000000E+00 0. -1.
        -14    1    4    4    0    0 -0.27800824103E+02  0.64657363327E+02 -0.62865428372E+02  0.94369076172E+02  0.00000000000E+00 0.  1.
</event>
<event>
12    1  0.9962621E-001  0.1807456E+03  0.7818608E-02  0.1167112E+00
         21   -1    0    0  503  502  0.00000000000E+00  0.00000000000E+00  0.18070792402E+02  0.18070792402E+02  0.00000000000E+00 0.  1.
         21   -1    0    0  501  503 -0.00000000000E+00 -0.00000000000E+00 -0.34093560545E+04  0.34093560545E+04  0.00000000000E+00 0.  1.
          6    2    1    2  501    0 -0.17969739389E+02 -0.53375213261E+02 -0.52096177900E+03  0.55142555463E+03  0.17174732077E+03 0.  0.
         24    2    3    3    0    0 -0.11865219039E+02 -0.10014494056E+03 -0.32097648254E+03  0.34589968920E+03  0.80317495614E+02 0.  0.
         -6    2    1    2    0  502  0.17969739389E+02  0.53375213261E+02 -0.28703234831E+04  0.28760012922E+04  0.17162374725E+03 0.  0.
        -24    2    5    5    0    0  0.31974435857E+02  0.18044949246E+02 -0.72843032300E+03  0.73376583408E+03  0.80334171146E+02 0.  0.
          5    1    3    3  501    0 -0.61045203503E+01  0.46769727297E+02 -0.19998529646E+03  0.20552586542E+03  0.47000000000E+01 0. -1.
        -11    1    4    4    0    0 -0.12852407472E+02 -0.57818856251E+02 -0.71454441020E+02  0.92811322895E+02  0.00000000000E+00 0.  1.
         12    1    4    4    0    0  0.98718843389E+00 -0.42326084307E+02 -0.24952204153E+03  0.25308836631E+03  0.00000000000E+00 0. -1.
         -5    1    5    5    0  502 -0.14004696469E+02  0.35330264015E+02 -0.21418931601E+04  0.21422354582E+04  0.47000000000E+01 0.  1.
         11    1    6    6    0    0 -0.19224777155E+02 -0.12402157824E+02 -0.10326295692E+03  0.10576693173E+03  0.00000000000E+00 0. -1.
        -12    1    6    6    0    0  0.51199213012E+02  0.30447107070E+02 -0.62516736608E+03  0.62799890235E+03  0.00000000000E+00 0.  1.
</event>
<event>
12    1  0.9962621E-001  0.1988160E+03  0.7818608E-02  0.1151473E+00
         21   -1    0    0  501  502  0.00000000000E+00  0.00000000000E+00  0.64748679181E+03  0.64748679181E+03  0.00000000000E+00 0. -1.
         21   -1    0    0  502  503 -0.00000000000E+00 -0.00000000000E+00 -0.60157623191E+02  0.60157623191E+02  0.00000000000E+00 0. -1.
         -6    2    1    2    0  503  0.10879938843E+02  0.91671063884E+02  0.31391854459E+03  0.37158126546E+03  0.17608471592E+03 0.  0.
        -24    2    3    3    0    0 -0.40591914380E+02 -0.43806207090E+01  0.10603037093E+03  0.13681572170E+03  0.76218165778E+02 0.  0.
          6    2    1    2  501    0 -0.10879938843E+02 -0.91671063884E+02  0.27341062402E+03  0.33606314954E+03  0.17222982937E+03 0.  0.
         24    2    5    5    0    0 -0.64711595394E+02 -0.53847368863E+02  0.12145393151E+03  0.17040867314E+03  0.84858285920E+02 0.  0.
          5    1    5    5  501    0  0.53831656551E+02 -0.37823695021E+02  0.15195669251E+03  0.16565447640E+03  0.47000000000E+01 0. -1.
        -13    1    6    6    0    0  0.15335410463E+02 -0.16148777228E+02  0.56251000996E+02  0.60499032497E+02  0.00000000000E+00 0.  1.
         14    1    6    6    0    0 -0.80047005858E+02 -0.37698591635E+02  0.65202930516E+02  0.10990964064E+03  0.00000000000E+00 0. -1.
         -5    1    3    3    0  503  0.51471853224E+02  0.96051684593E+02  0.20788817366E+03  0.23476554376E+03  0.47000000000E+01 0.  1.
         11    1    4    4    0    0 -0.12262696167E+02  0.31559681393E+02  0.19875221174E+02  0.39260815371E+02  0.00000000000E+00 0. -1.
        -12    1    4    4    0    0 -0.28329218213E+02 -0.35940302102E+02  0.86155149758E+02  0.97554906332E+02  0.00000000000E+00 0.  1.
</event>
<event>
12    1  0.9962621E-001  0.2052970E+03  0.7818608E-02  0.1145374E+00
         21   -1    0    0  501  502  0.00000000000E+00  0.00000000000E+00  0.44642812012E+02  0.44642812012E+02  0.00000000000E+00 0.  1.
         21   -1    0    0  502  503 -0.00000000000E+00 -0.00000000000E+00 -0.10358710214E+04  0.10358710214E+04  0.00000000000E+00 0.  1.
         -6    2    1    2    0  503  0.10568957729E+03 -0.36798652117E+02 -0.65683522784E+03  0.68812941929E+03  0.17194520527E+03 0.  0.
        -24    2    3    3    0    0  0.10481817620E+02 -0.52710208397E+02 -0.20316800481E+03  0.22428274810E+03  0.78340783414E+02 0.  0.
          6    2    1    2  501    0 -0.10568957729E+03  0.36798652117E+02 -0.33439298159E+03  0.39238441416E+03  0.17211169279E+03 0.  0.
         24    2    5    5    0    0 -0.12514868103E+03  0.62850883915E+02 -0.21878635546E+03  0.27219973334E+03  0.81319121503E+02 0.  0.
          5    1    5    5  501    0  0.19459103737E+02 -0.26052231799E+02 -0.11560662613E+03  0.12018468082E+03  0.47000000000E+01 0. -1.
        -11    1    6    6    0    0 -0.75657462214E+02  0.50678378406E+01 -0.15639580137E+03  0.17380846140E+03  0.00000000000E+00 0.  1.
         12    1    6    6    0    0 -0.49491218812E+02  0.57783046075E+02 -0.62390554088E+02  0.98391271933E+02  0.00000000000E+00 0. -1.
         -5    1    3    3    0  503  0.95207759669E+02  0.15911556280E+02 -0.45366722303E+03  0.46384667120E+03  0.47000000000E+01 0.  1.
         11    1    4    4    0    0  0.25935314765E+02 -0.67353834749E+02 -0.17208651371E+03  0.18660907751E+03  0.00000000000E+00 0. -1.
        -12    1    4    4    0    0 -0.15453497144E+02  0.14643626352E+02 -0.31081491094E+02  0.37673670585E+02  0.00000000000E+00 0.  1.
</event>
<event>
12    1  0.9962621E-001  0.2609407E+03  0.7818608E-02  0.1106661E+00
         21   -1    0    0  503  502  0.00000000000E+00  0.00000000000E+00  0.10671260477E+04  0.10671260477E+04  0.00000000000E+00 0.  1.
         21   -1    0    0  501  503 -0.00000000000E+00 -0.00000000000E+00 -0.75535401238E+02  0.75535401238E+02  0.00000000000E+00 0.  1.
          6    2    1    2  501    0  0.75399851572E+02  0.18088420590E+03  0.72264137750E+03  0.76831024163E+03  0.17229577290E+03 0.  0.
         24    2    3    3    0    0  0.64636081197E+02  0.62248679741E+02  0.51112258335E+03  0.52550880609E+03  0.82828068619E+02 0.  0.
         -6    2    1    2    0  502 -0.75399851572E+02 -0.18088420590E+03  0.26894926892E+03  0.37435120727E+03  0.17146685851E+03 0.  0.
        -24    2    5    5    0    0 -0.38108353087E+02 -0.11607828935E+03  0.70839117895E+02  0.16254897730E+03  0.80483374455E+02 0.  0.
          5    1    3    3  501    0  0.10763770375E+02  0.11863552616E+03  0.21151879416E+03  0.24280143554E+03  0.47000000000E+01 0. -1.
        -11    1    4    4    0    0  0.61779217445E+02  0.10400909805E+02  0.18604098519E+03  0.19630613542E+03  0.00000000000E+00 0.  1.
         12    1    4    4    0    0  0.28568637523E+01  0.51847769936E+02  0.32508159815E+03  0.32920267067E+03  0.00000000000E+00 0. -1.
         -5    1    5    5    0  502 -0.37291498486E+02 -0.64805916548E+02  0.19811015103E+03  0.21180222997E+03  0.47000000000E+01 0.  1.
         11    1    6    6    0    0  0.20144225523E+02 -0.34133924935E+02  0.42452580806E+02  0.58078707548E+02  0.00000000000E+00 0. -1.
        -12    1    6    6    0    0 -0.58252578610E+02 -0.81944364417E+02  0.28386537089E+02  0.10447026975E+03  0.00000000000E+00 0.  1.
</event>
<event>
12    1  0.9962621E-001  0.3143513E+03  0.7818608E-02  0.1078388E+00
         21   -1    0    0  503  502  0.00000000000E+00  0.00000000000E+00  0.18137508997E+04  0.18137508997E+04  0.00000000000E+00 0.  1.
         21   -1    0    0  501  503 -0.00000000000E+00 -0.00000000000E+00 -0.58855174401E+02  0.58855174401E+02  0.00000000000E+00 0. -1.
          6    2    1    2  501    0 -0.22413417072E+02  0.26201769016E+03  0.61877849430E+03  0.69404868266E+03  0.17222403337E+03 0.  0.
         24    2    3    3    0    0  0.47386262872E+02  0.19641440617E+03  0.39819290880E+03  0.45351619687E+03  0.79342745994E+02 0.  0.
         -6    2    1    2    0  502  0.22413417072E+02 -0.26201769016E+03  0.11361172310E+04  0.11785573915E+04  0.17052721523E+03 0.  0.
        -24    2    5    5    0    0  0.13090718675E+02 -0.25408366798E+03  0.11344345119E+04  0.11653368409E+04  0.79614154736E+02 0.  0.
          5    1    3    3  501    0 -0.69799679944E+02  0.65603283983E+02  0.22058558550E+03  0.24053248579E+03  0.47000000000E+01 0. -1.
        -11    1    4    4    0    0 -0.14047101066E+02  0.76343406777E+01  0.52429406128E+02  0.54812834563E+02  0.00000000000E+00 0.  1.
         12    1    4    4    0    0  0.61433363938E+02  0.18878006549E+03  0.34576350267E+03  0.39870336231E+03  0.00000000000E+00 0. -1.
         -5    1    5    5    0  502  0.93226983965E+01 -0.79340221727E+01  0.16827190617E+01  0.13220550543E+02  0.47000000000E+01 0.  1.
         11    1    6    6    0    0  0.39122105722E+02 -0.71312989278E+02  0.38496152772E+03  0.39346087407E+03  0.00000000000E+00 0. -1.
        -12    1    6    6    0    0 -0.26031387046E+02 -0.18277067870E+03  0.74947298423E+03  0.77187596684E+03  0.00000000000E+00 0.  1.
</event>
<event>
12    1  0.9962621E-001  0.2623856E+03  0.7818608E-02  0.1105853E+00
         21   -1    0    0  501  502  0.00000000000E+00  0.00000000000E+00  0.45786241794E+03  0.45786241794E+03  0.00000000000E+00 0. -1.
         21   -1    0    0  502  503 -0.00000000000E+00 -0.00000000000E+00 -0.15004383475E+03  0.15004383475E+03  0.00000000000E+00 0. -1.
         -6    2    1    2    0  503 -0.19943593250E+03  0.17972297565E+02  0.16466034083E+03  0.30900749537E+03  0.16815144870E+03 0.  0.
        -24    2    3    3    0    0 -0.19233260446E+03 -0.20821900629E+02  0.99104514983E+02  0.23235827237E+03  0.82117474181E+02 0.  0.
          6    2    1    2  501    0  0.19943593250E+03 -0.17972297565E+02  0.14315824236E+03  0.29889875733E+03  0.16955379714E+03 0.  0.
         24    2    5    5    0    0  0.21593018246E+02 -0.19362997182E+02  0.62269344492E+02  0.10346298784E+03  0.77368821197E+02 0.  0.
          5    1    5    5  501    0  0.17784291425E+03  0.13906996171E+01  0.80888897868E+02  0.19543576948E+03  0.47000000000E+01 0. -1.
        -13    1    6    6    0    0  0.41660052187E+02  0.10117622804E+02  0.49735407160E+02  0.65662294849E+02  0.00000000000E+00 0.  1.
         14    1    6    6    0    0 -0.20067033941E+02 -0.29480619986E+02  0.12533937331E+02  0.37800692996E+02  0.00000000000E+00 0. -1.
         -5    1    3    3    0  503 -0.71033280344E+01  0.38794198194E+02  0.65555825848E+02  0.76649222993E+02  0.47000000000E+01 0.  1.
         11    1    4    4    0    0 -0.12345599193E+03 -0.35635763251E+01  0.18411058327E+02  0.12487212695E+03  0.00000000000E+00 0. -1.
        -12    1    4    4    0    0 -0.68876612531E+02 -0.17258324304E+02  0.80693456656E+02  0.10748614543E+03  0.00000000000E+00 0.  1.
</event>
<event>
12    1  0.9962621E-001  0.2166796E+03  0.7818608E-02  0.1136748E+00
         21   -1    0    0  503  502  0.00000000000E+00  0.00000000000E+00  0.70997580039E+02  0.70997580039E+02  0.00000000000E+00 0. -1.
         21   -1    0    0  501  503 -0.00000000000E+00 -0.00000000000E+00 -0.10975934913E+04  0.10975934913E+04  0.00000000000E+00 0. -1.
          6    2    1    2  501    0 -0.34667586168E+02 -0.12504524755E+03 -0.14382166339E+03  0.26006671921E+03  0.17352772722E+03 0.  0.
         24    2    3    3    0    0  0.23992992583E+02 -0.12820208333E+03 -0.84618463074E+02  0.17653146893E+03  0.83616011438E+02 0.  0.
         -6    2    1    2    0  502  0.34667586168E+02  0.12504524755E+03 -0.88277424791E+03  0.90852435216E+03  0.17113728477E+03 0.  0.
        -24    2    5    5    0    0 -0.94860484054E+01  0.17186261852E+02 -0.20607031583E+03  0.22184145159E+03  0.79770306936E+02 0.  0.
          5    1    3    3  501    0 -0.58660578751E+02  0.31568357739E+01 -0.59203200316E+02  0.83535250279E+02  0.47000000000E+01 0. -1.
        -13    1    4    4    0    0 -0.48907163489E+01 -0.87430888780E+02 -0.90846657550E+02  0.12617921623E+03  0.00000000000E+00 0.  1.
         14    1    4    4    0    0  0.28883708932E+02 -0.40771194546E+02  0.62281944761E+01  0.50352252708E+02  0.00000000000E+00 0. -1.
         -5    1    5    5    0  502  0.44153634573E+02  0.10785898570E+03 -0.67670393208E+03  0.68668290057E+03  0.47000000000E+01 0.  1.
         13    1    6    6    0    0  0.27499214093E+02 -0.61826304223E+01 -0.13853977138E+03  0.14137786230E+03  0.00000000000E+00 0. -1.
        -14    1    6    6    0    0 -0.36985262499E+02  0.23368892275E+02 -0.67530544442E+02  0.80463589287E+02  0.00000000000E+00 0.  1.
</event>
<event>
12    1  0.9962621E-001  0.1958374E+03  0.7818608E-02  0.1154394E+00
         21   -1    0    0  501  502  0.00000000000E+00  0.00000000000E+00  0.27284518714E+03  0.27284518714E+03  0.00000000000E+00 0.  1.
         21   -1    0    0  502  503 -0.00000000000E+00 -0.00000000000E+00 -0.23367920242E+03  0.23367920242E+03  0.00000000000E+00 0.  1.
         -6    2    1    2    0  503 -0.70022449416E+02 -0.48102604695E+02 -0.14315397005E+03  0.24258057193E+03  0.17645189354E+03 0.  0.
        -24    2    3    3    0    0 -0.36580512468E+02  0.39996459993E+02 -0.90201428908E+02  0.13438690317E+03  0.83580447845E+02 0.  0.
          6    2    1    2  501    0  0.70022449416E+02  0.48102604695E+02  0.18231995477E+03  0.26394381764E+03  0.17090573121E+03 0.  0.
         24    2    5    5    0    0  0.58663534154E+01 -0.11987581046E+02  0.14870094172E+03  0.16971450630E+03  0.80702709857E+02 0.  0.
          5    1    5    5  501    0  0.64156096001E+02  0.60090185741E+02  0.33619013052E+02  0.94229311337E+02  0.47000000000E+01 0. -1.
        -11    1    6    6    0    0 -0.19535556356E+02 -0.17224833643E+02  0.88931045940E+01  0.27521267512E+02  0.00000000000E+00 0.  1.
         12    1    6    6    0    0  0.25401909771E+02  0.52372525970E+01  0.13980783713E+03  0.14219323879E+03  0.00000000000E+00 0. -1.
         -5    1    3    3    0  503 -0.33441936948E+02 -0.88099064688E+02 -0.52952541146E+02  0.10819366876E+03  0.47000000000E+01 0.  1.
         11    1    4    4    0    0 -0.16529694793E+02 -0.24533062147E+02 -0.42050032168E+02  0.51413102937E+02  0.00000000000E+00 0. -1.
        -12    1    4    4    0    0 -0.20050817675E+02  0.64529522140E+02 -0.48151396740E+02  0.82973800233E+02  0.00000000000E+00 0.  1.
</event>
<event>
12    1  0.9962621E-001  0.2793765E+03  0.7818608E-02  0.1096238E+00
         21   -1    0    0  501  502  0.00000000000E+00  0.00000000000E+00  0.36962462024E+03  0.36962462024E+03  0.00000000000E+00 0. -1.
         21   -1    0    0  502  503 -0.00000000000E+00 -0.00000000000E+00 -0.21889986411E+03  0.21889986411E+03  0.00000000000E+00 0. -1.
         -6    2    1    2    0  503 -0.55916645841E+02  0.21205672509E+03  0.15895623410E+02  0.27831471477E+03  0.17062146311E+03 0.  0.
        -24    2    3    3    0    0 -0.60762847772E+02  0.16610227078E+03 -0.42010800306E+02  0.20408169347E+03  0.92748812589E+02 0.  0.
          6    2    1    2  501    0  0.55916645841E+02 -0.21205672509E+03  0.13482913271E+03  0.31020976958E+03  0.17307940426E+03 0.  0.
         24    2    5    5    0    0 -0.27908797667E+02 -0.53944082543E+02  0.64660835630E+02  0.11792874444E+03  0.77700064822E+02 0.  0.
          5    1    5    5  501    0  0.83825443508E+02 -0.15811264255E+03  0.70168297081E+02  0.19228102514E+03  0.47000000000E+01 0. -1.
        -11    1    6    6    0    0 -0.38772171133E+02 -0.56177314792E+02  0.18876293834E+02  0.70820098987E+02  0.00000000000E+00 0.  1.
         12    1    6    6    0    0  0.10863373466E+02  0.22332322500E+01  0.45784541797E+02  0.47108645458E+02  0.00000000000E+00 0. -1.
         -5    1    3    3    0  503  0.48462019312E+01  0.45954454308E+02  0.57906423715E+02  0.74233021300E+02  0.47000000000E+01 0.  1.
         13    1    4    4    0    0  0.19407734842E+02  0.78459106803E+02 -0.20297556175E+02  0.83333561059E+02  0.00000000000E+00 0. -1.
        -14    1    4    4    0    0 -0.80170582614E+02  0.87643163980E+02 -0.21713244131E+02  0.12074813241E+03  0.00000000000E+00 0.  1.
</event>
<event>
12    1  0.9962621E-001  0.1892334E+03  0.7818608E-02  0.1159764E+00
         21   -1    0    0  503  502  0.00000000000E+00  0.00000000000E+00  0.25659061260E+02  0.25659061260E+02  0.00000000000E+00 0.  1.
         21   -1    0    0  501  503 -0.00000000000E+00 -0.00000000000E+00 -0.14249237959E+04  0.14249237959E+04  0.00000000000E+00 0.  1.
          6    2    1    2  501    0  0.71028456559E+02 -0.56725457790E+00 -0.82926033317E+03  0.84998791044E+03  0.17251488141E+03 0.  0.
         24    2    3    3    0    0  0.37265486161E+02 -0.12018261586E+02 -0.18828231157E+03  0.20800194649E+03  0.79255446656E+02 0.  0.
         -6    2    1    2    0  502 -0.71028456559E+02  0.56725457790E+00 -0.57000440151E+03  0.60059494676E+03  0.17539643358E+03 0.  0.
        -24    2    5    5    0    0 -0.45427219269E+02  0.46347914668E+02 -0.19143987028E+03  0.21838494362E+03  0.82649853148E+02 0.  0.
          5    1    3    3  501    0  0.33762970397E+02  0.11451007008E+02 -0.64097802160E+03  0.64198596395E+03  0.47000000000E+01 0. -1.
        -13    1    4    4    0    0  0.35682628014E+02 -0.20047394705E+02 -0.19383718797E+03  0.19811108858E+03  0.00000000000E+00 0.  1.
         14    1    4    4    0    0  0.15828581475E+01  0.80291331189E+01  0.55548763994E+01  0.98908579188E+01  0.00000000000E+00 0. -1.
         -5    1    5    5    0  502 -0.25601237290E+02 -0.45780660090E+02 -0.37856453124E+03  0.38221000314E+03  0.47000000000E+01 0.  1.
         11    1    6    6    0    0 -0.93898859533E+00  0.43826384236E+02 -0.15420908824E+03  0.16031867187E+03  0.00000000000E+00 0. -1.
        -12    1    6    6    0    0 -0.44488230673E+02  0.25215304318E+01 -0.37230782037E+02  0.58066271753E+02  0.00000000000E+00 0.  1.
</event>
<event>
12    1  0.9962621E-001  0.2185406E+03  0.7818608E-02  0.1137392E+00
         21   -1    0    0  503  502  0.00000000000E+00  0.00000000000E+00  0.15058027219E+04  0.15058027219E+04  0.00000000000E+00 0.  1.
         21   -1    0    0  501  503 -0.00000000000E+00 -0.00000000000E+00 -0.41243264767E+02  0.41243264767E+02  0.00000000000E+00 0.  1.
          6    2    1    2  501    0  0.71017389568E+02 -0.93727001751E+02  0.11527648473E+04  0.11732973950E+04  0.18420576395E+03 0.  0.
         24    2    3    3    0    0  0.17213264007E+02 -0.66514842034E+02  0.28676878007E+03  0.30519218017E+03  0.78647396304E+02 0.  0.
         -6    2    1    2    0  502 -0.71017389568E+02  0.93727001751E+02  0.31179460984E+03  0.37374859167E+03  0.16924511979E+03 0.  0.
        -24    2    5    5    0    0 -0.33826695508E+02  0.45749204375E+02  0.29451881928E+03  0.31045910040E+03  0.80039259642E+02 0.  0.
          5    1    3    3  501    0  0.53804125561E+02 -0.27212159717E+02  0.86599606722E+03  0.86810521483E+03  0.47000000000E+01 0. -1.
        -11    1    4    4    0    0  0.12104735084E+02 -0.60253397735E+02  0.29003593453E+03  0.29647569861E+03  0.00000000000E+00 0.  1.
         12    1    4    4    0    0  0.51085289235E+01 -0.62614442987E+01 -0.32671544591E+01  0.87164815567E+01  0.00000000000E+00 0. -1.
         -5    1    5    5    0  502 -0.37190694060E+02  0.47977797376E+02  0.17275790566E+02  0.63289491272E+02  0.47000000000E+01 0.  1.
         11    1    6    6    0    0 -0.59254780526E+02  0.33672371870E+02  0.17835665271E+03  0.19093468309E+03  0.00000000000E+00 0. -1.
        -12    1    6    6    0    0  0.25428085018E+02  0.12076832505E+02  0.11616216657E+03  0.11952441731E+03  0.00000000000E+00 0.  1.
</event>
<event>
12    1  0.9962621E-001  0.2708094E+03  0.7818608E-02  0.1100849E+00
         21   -1    0    0  501  502  0.00000000000E+00  0.00000000000E+00  0.23076478599E+03  0.23076478599E+03  0.00000000000E+00 0.  1.
         21   -1    0    0  502  503 -0.00000000000E+00 -0.00000000000E+00 -0.39701745531E+03  0.39701745531E+03  0.00000000000E+00 0. -1.
         -6    2    1    2    0  503 -0.13968683928E+03  0.15578165791E+03  0.57340467716E+02  0.27659619122E+03  0.17157268359E+03 0.  0.
        -24    2    3    3    0    0 -0.97712486815E+02  0.18025285438E+03  0.31388889089E+02  0.22131273841E+03  0.77170228932E+02 0.  0.
          6    2    1    2  501    0  0.13968683928E+03 -0.15578165791E+03 -0.22359313704E+03  0.35118605007E+03  0.17192269433E+03 0.  0.
         24    2    5    5    0    0  0.42104187932E+02 -0.13218628142E+02 -0.40874060546E+02  0.99680697816E+02  0.79486212138E+02 0.  0.
          5    1    5    5  501    0  0.97582651345E+02 -0.14256302976E+03 -0.18271907650E+03  0.25150535226E+03  0.47000000000E+01 0. -1.
        -13    1    6    6    0    0 -0.31117268530E+01 -0.38348544558E+02 -0.11328156164E+02  0.40107615683E+02  0.00000000000E+00 0.  1.
         14    1    6    6    0    0  0.45215914785E+02  0.25129916417E+02 -0.29545904382E+02  0.59573082132E+02  0.00000000000E+00 0. -1.
         -5    1    3    3    0  503 -0.41974352462E+02 -0.24471196474E+02  0.25951578626E+02  0.55283452811E+02  0.47000000000E+01 0.  1.
         13    1    4    4    0    0 -0.64358617316E+01  0.79571138772E+02  0.30365366307E+02  0.85411017513E+02  0.00000000000E+00 0. -1.
        -14    1    4    4    0    0 -0.91276625083E+02  0.10068171561E+03  0.10235227828E+01  0.13590172090E+03  0.00000000000E+00 0.  1.
</event>
<event>
12    1  0.9962621E-001  0.2535185E+03  0.7818608E-02  0.1111331E+00
         21   -1    0    0  503  502  0.00000000000E+00  0.00000000000E+00  0.11952186474E+03  0.11952186474E+03  0.00000000000E+00 0. -1.
         21   -1    0    0  501  503 -0.00000000000E+00 -0.00000000000E+00 -0.79127449662E+03  0.79127449662E+03  0.00000000000E+00 0.  1.
          6    2    1    2  501    0  0.12833221074E+03  0.13488002910E+03 -0.75851642211E+02  0.26320881096E+03  0.16989298979E+03 0.  0.
         24    2    3    3    0    0  0.64260237519E+02  0.13540988117E+03 -0.92554580593E+02  0.19682676033E+03  0.87802102195E+02 0.  0.
         -6    2    1    2    0  502 -0.12833221074E+03 -0.13488002910E+03 -0.59590098967E+03  0.64758755040E+03  0.17207517945E+03 0.  0.
        -24    2    5    5    0    0 -0.10702173730E+03 -0.15411509402E+03 -0.57985674057E+03  0.61436659422E+03  0.77507148387E+02 0.  0.
          5    1    3    3  501    0  0.64071973218E+02 -0.52985206602E+00  0.16702938382E+02  0.66382050630E+02  0.47000000000E+01 0. -1.
        -11    1    4    4    0    0  0.94098818432E+01  0.89105838861E+02 -0.14471119963E+02  0.90762380469E+02  0.00000000000E+00 0.  1.
         12    1    4    4    0    0  0.54850355676E+02  0.46304042308E+02 -0.78083460630E+02  0.10606437986E+03  0.00000000000E+00 0. -1.
         -5    1    5    5    0  502 -0.21310473433E+02  0.19235064920E+02 -0.16044249107E+02  0.33220956185E+02  0.47000000000E+01 0.  1.
         11    1    6    6    0    0 -0.16085909637E+02 -0.13627708881E+02 -0.16773548573E+02  0.26941100014E+02  0.00000000000E+00 0. -1.
        -12    1    6    6    0    0 -0.90935827666E+02 -0.14048738514E+03 -0.56308319199E+03  0.58742549421E+03  0.00000000000E+00 0.  1.
</event>
<event>
12    1  0.9962621E-001  0.1789426E+03  0.7818608E-02  0.1169197E+00
         21   -1    0    0  503  502  0.00000000000E+00  0.00000000000E+00  0.22198613112E+03  0.22198613112E+03  0.00000000000E+00 0.  1.
         21   -1    0    0  501  503 -0.00000000000E+00 -0.00000000000E+00 -0.15644618937E+03  0.15644618937E+03  0.00000000000E+00 0.  1.
          6    2    1    2  501    0 -0.28268000917E+02 -0.32475393827E+02  0.88032178045E+02  0.19808169917E+03  0.17214227864E+03 0.  0.
         24    2    3    3    0    0  0.11418857368E+02 -0.40797309919E+02 -0.12749326614E+02  0.89346687842E+02  0.77623929938E+02 0.  0.
         -6    2    1    2    0  502  0.28268000917E+02  0.32475393827E+02 -0.22492236289E+02  0.18035062132E+03  0.17368567827E+03 0.  0.
        -24    2    5    5    0    0  0.76144684538E+02  0.57968987011E+02 -0.18016780689E+02  0.12572260808E+03  0.79518258009E+02 0.  0.
          5    1    3    3  501    0 -0.39686858285E+02  0.83219160918E+01  0.10078150466E+03  0.10873501133E+03  0.47000000000E+01 0. -1.
        -11    1    4    4    0    0 -0.22330002359E+02 -0.16122268264E+02 -0.32925098131E+02  0.42925733847E+02  0.00000000000E+00 0.  1.
         12    1    4    4    0    0  0.33748859727E+02 -0.24675041655E+02  0.20175771517E+02  0.46420953995E+02  0.00000000000E+00 0. -1.
         -5    1    5    5    0  502 -0.47876683620E+02 -0.25493593184E+02 -0.44754556001E+01  0.54628013242E+02  0.47000000000E+01 0.  1.
         11    1    6    6    0    0  0.33586943992E+02 -0.85264539405E+00 -0.37700590993E+02  0.50498954169E+02  0.00000000000E+00 0. -1.
        -12    1    6    6    0    0  0.42557740546E+02  0.58821632405E+02  0.19683810305E+02  0.75223653908E+02  0.00000000000E+00 0.  1.
</event>
<event>
12    1  0.9962621E-001  0.2434770E+03  0.7818608E-02  0.1117684E+00
         21   -1    0    0  501  502  0.00000000000E+00  0.00000000000E+00  0.22722779032E+03  0.22722779032E+03  0.00000000000E+00 0.  1.
         21   -1    0    0  502  503 -0.00000000000E+00 -0.00000000000E+00 -0.27085613291E+03  0.27085613291E+03  0.00000000000E+00 0.  1.
         -6    2    1    2    0  503 -0.14867538054E+03 -0.84820704013E+02  0.28741504725E+02  0.24516750300E+03  0.17315342856E+03 0.  0.
        -24    2    3    3    0    0 -0.80287261623E+02 -0.11823926766E+03  0.37469605374E+02  0.16840810653E+03  0.80813057248E+02 0.  0.
          6    2    1    2  501    0  0.14867538054E+03  0.84820704013E+02 -0.72369847312E+02  0.25291642023E+03  0.17155290792E+03 0.  0.
         24    2    5    5    0    0  0.15100445065E+03  0.54978062226E+02 -0.10527866270E+03  0.20818289850E+03  0.80197200505E+02 0.  0.
          5    1    5    5  501    0 -0.23290701015E+01  0.29842641787E+02  0.32908815385E+02  0.44733521730E+02  0.47000000000E+01 0. -1.
        -11    1    6    6    0    0  0.12409009484E+03  0.62721223014E+02 -0.52856072286E+02  0.14874833724E+03  0.00000000000E+00 0.  1.
         12    1    6    6    0    0  0.26914355810E+02 -0.77431607880E+01 -0.52422590411E+02  0.59434561267E+02  0.00000000000E+00 0. -1.
         -5    1    3    3    0  503 -0.68388118922E+02  0.33418563645E+02 -0.87281006488E+01  0.76759396471E+02  0.47000000000E+01 0.  1.
         13    1    4    4    0    0  0.69675040824E+01  0.19726663362E+01  0.16981782112E+02  0.18461268898E+02  0.00000000000E+00 0. -1.
        -14    1    4    4    0    0 -0.87254765705E+02 -0.12021193399E+03  0.20487823262E+02  0.14994683763E+03  0.00000000000E+00 0.  1.
</event>
<event>
12    1  0.9962621E-001  0.6119260E+03  0.7818608E-02  0.9881141E-01
         21   -1    0    0  501  502  0.00000000000E+00  0.00000000000E+00  0.13027389902E+04  0.13027389902E+04  0.00000000000E+00 0. -1.
         21   -1    0    0  502  503 -0.00000000000E+00 -0.00000000000E+00 -0.39972961822E+03  0.39972961822E+03  0.00000000000E+00 0.  1.
         -6    2    1    2    0  503 -0.18985411010E+03 -0.55523552010E+03  0.90309187873E+03  0.10908841897E+04  0.17355779447E+03 0.  0.
        -24    2    3    3    0    0 -0.12968823255E+03 -0.18998928015E+03  0.40720487290E+03  0.47205403435E+03  0.64064331777E+02 0.  0.
          6    2    1    2  501    0  0.18985411010E+03  0.55523552010E+03 -0.82506792668E-01  0.61158441867E+03  0.17234972713E+03 0.  0.
         24    2    5    5    0    0  0.16413735614E+03  0.29928353393E+03  0.35914974725E+02  0.35179473578E+03  0.77187727970E+02 0.  0.
          5    1    5    5  501    0  0.25716753964E+02  0.25595198617E+03 -0.35997481518E+02  0.25978968289E+03  0.47000000000E+01 0. -1.
        -11    1    6    6    0    0  0.92090548472E+02  0.19649540080E+03  0.57347737259E+02  0.22445461595E+03  0.00000000000E+00 0.  1.
         12    1    6    6    0    0  0.72046807668E+02  0.10278813314E+03 -0.21432762534E+02  0.12734011983E+03  0.00000000000E+00 0. -1.
         -5    1    3    3    0  503 -0.60165877559E+02 -0.36524623996E+03  0.49588700583E+03  0.61883015536E+03  0.47000000000E+01 0.  1.
         11    1    4    4    0    0 -0.98987171700E+02 -0.13125549659E+03  0.22880107595E+03  0.28173817261E+03  0.00000000000E+00 0. -1.
        -12    1    4    4    0    0 -0.30701060845E+02 -0.58733783553E+02  0.17840379695E+03  0.19031586175E+03  0.00000000000E+00 0.  1.
</event>
<event>
12    1  0.9962621E-001  0.1827721E+03  0.7818608E-02  0.1165635E+00
         21   -1    0    0  503  502  0.00000000000E+00  0.00000000000E+00  0.51414456731E+03  0.51414456731E+03  0.00000000000E+00 0.  1.
         21   -1    0    0  501  503 -0.00000000000E+00 -0.00000000000E+00 -0.64634122283E+02  0.64634122283E+02  0.00000000000E+00 0.  1.
          6    2    1    2  501    0  0.43455986395E+02 -0.39021165713E+02  0.20365603324E+03  0.27364469569E+03  0.17318939194E+03 0.  0.
         24    2    3    3    0    0  0.78894130435E+02 -0.65360979256E+02  0.18150023875E+03  0.22401993313E+03  0.82135572958E+02 0.  0.
         -6    2    1    2    0  502 -0.43455986395E+02  0.39021165713E+02  0.24585441179E+03  0.30513399390E+03  0.17103008013E+03 0.  0.
        -24    2    5    5    0    0 -0.53653916209E+02 -0.45790010698E+01  0.61792893892E+02  0.11564598719E+03  0.81583838119E+02 0.  0.
          5    1    3    3  501    0 -0.35438144041E+02  0.26339813542E+02  0.22155794488E+02  0.49624762568E+02  0.47000000000E+01 0. -1.
        -11    1    4    4    0    0 -0.10926864522E+02  0.50934323626E+01  0.34901448874E+01  0.12550718420E+02  0.00000000000E+00 0.  1.
         12    1    4    4    0    0  0.89820994957E+02 -0.70454411618E+02  0.17801009386E+03  0.21146921471E+03  0.00000000000E+00 0. -1.
         -5    1    5    5    0  502  0.10197929815E+02  0.43600166783E+02  0.18406151790E+03  0.18948800671E+03  0.47000000000E+01 0.  1.
         13    1    6    6    0    0 -0.30033187247E+02  0.37870207255E+02  0.38386891283E+02  0.61722753958E+02  0.00000000000E+00 0. -1.
        -14    1    6    6    0    0 -0.23620728962E+02 -0.42449208325E+02  0.23406002609E+02  0.53923233232E+02  0.00000000000E+00 0.  1.
</event>
<event>
12    1  0.9962621E-001  0.3246082E+03  0.7818608E-02  0.1073604E+00
         21   -1    0    0  503  502  0.00000000000E+00  0.00000000000E+00  0.26043240906E+03  0.26043240906E+03  0.00000000000E+00 0. -1.
         21   -1    0    0  501  503 -0.00000000000E+00 -0.00000000000E+00 -0.41818811605E+03  0.41818811605E+03  0.00000000000E+00 0.  1.
          6    2    1    2  501    0 -0.10962823001E+03 -0.25189970770E+03 -0.14147485672E+03  0.35409835511E+03  0.17291240110E+03 0.  0.
         24    2    3    3    0    0 -0.86766563478E+02 -0.26847080946E+03 -0.11552968435E+03  0.31546547819E+03  0.81033004957E+02 0.  0.
         -6    2    1    2    0  502  0.10962823001E+03  0.25189970770E+03 -0.16280850270E+02  0.32452217000E+03  0.17198186295E+03 0.  0.
        -24    2    5    5    0    0  0.77052196175E+02  0.18931150075E+03 -0.75238283945E+02  0.23245398540E+03  0.81229124747E+02 0.  0.
          5    1    3    3  501    0 -0.22861666536E+02  0.16571101761E+02 -0.25945172365E+02  0.38632876924E+02  0.47000000000E+01 0. -1.
        -13    1    4    4    0    0 -0.11870342173E+02 -0.11215636185E+03 -0.11633533658E+02  0.11338118729E+03  0.00000000000E+00 0.  1.
         14    1    4    4    0    0 -0.74896221305E+02 -0.15631444761E+03 -0.10389615070E+03  0.20208429089E+03  0.00000000000E+00 0. -1.
         -5    1    5    5    0  502  0.32576033840E+02  0.62588206945E+02  0.58957433675E+02  0.92068184596E+02  0.47000000000E+01 0.  1.
         13    1    6    6    0    0 -0.70167923868E+01  0.67668826370E+02 -0.35458017977E+01  0.68123990988E+02  0.00000000000E+00 0. -1.
        -14    1    6    6    0    0  0.84068988561E+02  0.12164267438E+03 -0.71692482148E+02  0.16432999442E+03  0.00000000000E+00 0.  1.
</event>
<event>
12    1  0.9962621E-001  0.3567511E+03  0.7818608E-02  0.1059906E+00
         21   -1    0    0  501  502  0.00000000000E+00  0.00000000000E+00  0.11947246158E+03  0.11947246158E+03  0.00000000000E+00 0. -1.
         21   -1    0    0  502  503 -0.00000000000E+00 -0.00000000000E+00 -0.11203319209E+04  0.11203319209E+04  0.00000000000E+00 0. -1.
         -6    2    1    2    0  503  0.31091585851E+03  0.32666299715E+02 -0.36215171193E+03  0.50835537723E+03  0.17185915423E+03 0.  0.
        -24    2    3    3    0    0  0.73125153927E+02  0.10288933299E+02 -0.17478973075E+03  0.20475734083E+03  0.76947828832E+02 0.  0.
          6    2    1    2  501    0 -0.31091585851E+03 -0.32666299715E+02 -0.63870774735E+03  0.73144900521E+03  0.17127259699E+03 0.  0.
         24    2    5    5    0    0 -0.29965960032E+03  0.43642616818E+01 -0.60555216295E+03  0.68026943308E+03  0.79108512131E+02 0.  0.
          5    1    5    5  501    0 -0.11256258195E+02 -0.37030561397E+02 -0.33155584404E+02  0.51179572127E+02  0.47000000000E+01 0. -1.
        -11    1    6    6    0    0 -0.17962732631E+03 -0.34216308800E+02 -0.33096009344E+03  0.37811547918E+03  0.00000000000E+00 0.  1.
         12    1    6    6    0    0 -0.12003227401E+03  0.38580570482E+02 -0.27459206950E+03  0.30215395390E+03  0.00000000000E+00 0. -1.
         -5    1    3    3    0  503  0.23779070459E+03  0.22377366416E+02 -0.18736198118E+03  0.30359803640E+03  0.47000000000E+01 0.  1.
         11    1    4    4    0    0 -0.45762616797E+01 -0.20168207107E+02 -0.55017577639E+02  0.58776122688E+02  0.00000000000E+00 0. -1.
        -12    1    4    4    0    0  0.77701415607E+02  0.30457140406E+02 -0.11977215311E+03  0.14598121814E+03  0.00000000000E+00 0.  1.
</event>
<event>
12    1  0.9962621E-001  0.1820230E+03  0.7818608E-02  0.1165874E+00
         21   -1    0    0  501  502  0.00000000000E+00  0.00000000000E+00  0.30850630333E+03  0.30850630333E+03  0.00000000000E+00 0. -1.
         21   -1    0    0  502  503 -0.00000000000E+00 -0.00000000000E+00 -0.11077014885E+03  0.11077014885E+03  0.00000000000E+00 0. -1.
         -6    2    1    2    0  503  0.36171811763E+02  0.47751529918E+02  0.13567290296E+03  0.22702316601E+03  0.17188302049E+03 0.  0.
        -24    2    3    3    0    0  0.19732716918E+02  0.19160238945E+02  0.16319747086E+03  0.18380976997E+03  0.79975759869E+02 0.  0.
          6    2    1    2  501    0 -0.36171811763E+02 -0.47751529918E+02  0.62063251523E+02  0.19225328617E+03  0.17181638536E+03 0.  0.
         24    2    5    5    0    0  0.41294349413E+02 -0.87713977543E+01  0.27188851820E+02  0.98664982488E+02  0.84931645422E+02 0.  0.
          5    1    5    5  501    0 -0.77466161175E+02 -0.38980132164E+02  0.34874399703E+02  0.93588303678E+02  0.47000000000E+01 0. -1.
        -11    1    6    6    0    0  0.11843531640E+02  0.37770406816E+02  0.14407953356E+02  0.42124363410E+02  0.00000000000E+00 0.  1.
         12    1    6    6    0    0  0.29450817772E+02 -0.46541804571E+02  0.12780898464E+02  0.56540619078E+02  0.00000000000E+00 0. -1.
         -5    1    3    3    0  503  0.16439094845E+02  0.28591290974E+02 -0.27524567906E+02  0.43213396040E+02  0.47000000000E+01 0.  1.
         11    1    4    4    0    0  0.63798952745E+01  0.17622138153E+02 -0.12789438404E+01  0.18785060930E+02  0.00000000000E+00 0. -1.
        -12    1    4    4    0    0  0.13352821644E+02  0.15381007918E+01  0.16447641470E+03  0.16502470904E+03  0.00000000000E+00 0.  1.
</event>
<event>
12    1  0.9962621E-001  0.2519166E+03  0.7818608E-02  0.1112139E+00
         21   -1    0    0  503  502  0.00000000000E+00  0.00000000000E+00  0.22409318787E+04  0.22409318787E+04  0.00000000000E+00 0. -1.
         21   -1    0    0  501  503 -0.00000000000E+00 -0.00000000000E+00 -0.69605836466E+02  0.69605836466E+02  0.00000000000E+00 0. -1.
          6    2    1    2  501    0  0.11428598251E+03 -0.14459516174E+03  0.19754883465E+04  0.19914540814E+04  0.17136541245E+03 0.  0.
         24    2    3    3    0    0  0.12547856886E+03 -0.16160948735E+03  0.15548812434E+04  0.15703279881E+04  0.80073788193E+02 0.  0.
         -6    2    1    2    0  502 -0.11428598251E+03  0.14459516174E+03  0.19583769575E+03  0.31908363378E+03  0.17173501586E+03 0.  0.
        -24    2    5    5    0    0 -0.23270475936E+02  0.37706537967E+01  0.50166645702E+02  0.96918133988E+02  0.79502826833E+02 0.  0.
          5    1    3    3  501    0 -0.11192586353E+02  0.17014325602E+02  0.42060710314E+03  0.42112609332E+03  0.47000000000E+01 0. -1.
        -11    1    4    4    0    0  0.43585518053E+02 -0.11969463997E+03  0.94520873780E+03  0.95375366958E+03  0.00000000000E+00 0.  1.
         12    1    4    4    0    0  0.81893050808E+02 -0.41914847374E+02  0.60967250559E+03  0.61657431853E+03  0.00000000000E+00 0. -1.
         -5    1    5    5    0  502 -0.91015506571E+02  0.14082450795E+03  0.14567105005E+03  0.22216549979E+03  0.47000000000E+01 0.  1.
         11    1    6    6    0    0  0.22864061343E+02  0.19172535641E+02  0.44520340841E+01  0.30169057517E+02  0.00000000000E+00 0. -1.
        -12    1    6    6    0    0 -0.46134537280E+02 -0.15401881844E+02  0.45714611618E+02  0.66749076471E+02  0.00000000000E+00 0.  1.
</event>
<event>
12    1  0.9962621E-001  0.2077843E+03  0.7818608E-02  0.1143837E+00
         21   -1    0    0  503  502  0.00000000000E+00  0.00000000000E+00  0.67280363682E+02  0.67280363682E+02  0.00000000000E+00 0.  1.
         21   -1    0    0  501  503 -0.00000000000E+00 -0.00000000000E+00 -0.74501940317E+03  0.74501940317E+03  0.00000000000E+00 0.  1.
          6    2    1    2  501    0 -0.10873402863E+03 -0.40722707086E+02 -0.49738083638E+03  0.53903805050E+03  0.17231626630E+03 0.  0.
         24    2    3    3    0    0 -0.40255169068E+02 -0.61674896629E+02 -0.15245541250E+03  0.18672570826E+03  0.78737321608E+02 0.  0.
         -6    2    1    2    0  502  0.10873402863E+03  0.40722707086E+02 -0.18035820310E+03  0.27326171635E+03  0.16929694723E+03 0.  0.
        -24    2    5    5    0    0  0.78457305908E+02  0.93733799617E+02 -0.12383790372E+03  0.18993410921E+03  0.76141745450E+02 0.  0.
          5    1    3    3  501    0 -0.68478859564E+02  0.20952189542E+02 -0.34492542389E+03  0.35231234224E+03  0.47000000000E+01 0. -1.
        -11    1    4    4    0    0 -0.71802586448E+01 -0.72594376099E+02 -0.10537841983E+03  0.12816439023E+03  0.00000000000E+00 0.  1.
         12    1    4    4    0    0 -0.33074910423E+02  0.10919479470E+02 -0.47076992664E+02  0.58561318032E+02  0.00000000000E+00 0. -1.
         -5    1    5    5    0  502  0.30276722724E+02 -0.53011092531E+02 -0.56520299378E+02  0.83327607142E+02  0.47000000000E+01 0.  1.
         13    1    6    6    0    0  0.63771439114E+02  0.17931876522E+02 -0.48917648811E+02  0.82348558017E+02  0.00000000000E+00 0. -1.
        -14    1    6    6    0    0  0.14685866794E+02  0.75801923095E+02 -0.74920254912E+02  0.10758555119E+03  0.00000000000E+00 0.  1.
</event>
<event>
12    1  0.9962621E-001  0.1959778E+03  0.7818608E-02  0.1153999E+00
         21   -1    0    0  501  502  0.00000000000E+00  0.00000000000E+00  0.20366813922E+03  0.20366813922E+03  0.00000000000E+00 0. -1.
         21   -1    0    0  502  503 -0.00000000000E+00 -0.00000000000E+00 -0.50286756343E+03  0.50286756343E+03  0.00000000000E+00 0. -1.
         -6    2    1    2    0  503 -0.36185593669E+02  0.86151893205E+02  0.13073800769E+03  0.23558379361E+03  0.17226651231E+03 0.  0.
        -24    2    3    3    0    0 -0.83085541183E+02  0.18431486800E+02  0.96439004947E+02  0.14622961010E+03  0.69567882932E+02 0.  0.
          6    2    1    2  501    0  0.36185593669E+02 -0.86151893205E+02 -0.42993743190E+03  0.47095190905E+03  0.16798202103E+03 0.  0.
         24    2    5    5    0    0 -0.42073249989E+02 -0.56963883926E+02 -0.19466192144E+03  0.22124599738E+03  0.77726991846E+02 0.  0.
          5    1    5    5  501    0  0.78258843658E+02 -0.29188009278E+02 -0.23527551046E+03  0.24970591166E+03  0.47000000000E+01 0. -1.
        -13    1    6    6    0    0  0.64486660735E+01  0.79145889196E+01 -0.81140365563E+02  0.81780101098E+02  0.00000000000E+00 0.  1.
         14    1    6    6    0    0 -0.48521916062E+02 -0.64878472846E+02 -0.11352155588E+03  0.13946589629E+03  0.00000000000E+00 0. -1.
         -5    1    3    3    0  503  0.46899947514E+02  0.67720406405E+02  0.34299002746E+02  0.89354183505E+02  0.47000000000E+01 0.  1.
         13    1    4    4    0    0 -0.39036398047E+02  0.16199555392E+02  0.23659760634E+01  0.42330412355E+02  0.00000000000E+00 0. -1.
        -14    1    4    4    0    0 -0.44049143136E+02  0.22319314082E+01  0.94073028884E+02  0.10389919775E+03  0.00000000000E+00 0.  1.
</event>
<event>
12    1  0.9962621E-001  0.3950179E+03  0.7818608E-02  0.1045569E+00
         21   -1    0    0  503  502  0.00000000000E+00  0.00000000000E+00  0.20333091790E+03  0.20333091790E+03  0.00000000000E+00 0. -1.
         21   -1    0    0  501  503 -0.00000000000E+00 -0.00000000000E+00 -0.77127351052E+03  0.77127351052E+03  0.00000000000E+00 0. -1.
          6    2    1    2  501    0 -0.35475868090E+03  0.12367094874E+02 -0.32325205028E+03  0.51042236742E+03  0.17329869717E+03 0.  0.
         24    2    3    3    0    0 -0.16863411776E+03 -0.25904311776E+01 -0.77010501714E+02  0.20135429914E+03  0.78541456573E+02 0.  0.
         -6    2    1    2    0  502  0.35475868090E+03 -0.12367094874E+02 -0.24469054233E+03  0.46418206100E+03  0.17200249283E+03 0.  0.
        -24    2    5    5    0    0  0.15211309579E+03 -0.36905342257E+02 -0.52360074341E+02  0.18368169083E+03  0.80603895460E+02 0.  0.
          5    1    3    3  501    0 -0.18612456313E+03  0.14957526052E+02 -0.24624154857E+03  0.30906806828E+03  0.47000000000E+01 0. -1.
        -13    1    4    4    0    0 -0.15827682921E+03  0.20781058672E+02 -0.59475830885E+02  0.17035486939E+03  0.00000000000E+00 0.  1.
         14    1    4    4    0    0 -0.10357288553E+02 -0.23371489850E+02 -0.17534670828E+02  0.30999429753E+02  0.00000000000E+00 0. -1.
         -5    1    5    5    0  502  0.20264558510E+03  0.24538247383E+02 -0.19233046799E+03  0.28050037017E+03  0.47000000000E+01 0.  1.
         13    1    6    6    0    0  0.39919236825E+02  0.24149864344E+02 -0.30235870088E+01  0.46753646863E+02  0.00000000000E+00 0. -1.
        -14    1    6    6    0    0  0.11219385897E+03 -0.61055206601E+02 -0.49336487332E+02  0.13692804397E+03  0.00000000000E+00 0.  1.
</event>
<event>
12    1  0.9962621E-001  0.1925993E+03  0.7818608E-02  0.1158117E+00
         21   -1    0    0  501  502  0.00000000000E+00  0.00000000000E+00  0.10976391595E+03  0.10976391595E+03  0.00000000000E+00 0. -1.
         21   -1    0    0  502  503 -0.00000000000E+00 -0.00000000000E+00 -0.33963982020E+03  0.33963982020E+03  0.00000000000E+00 0. -1.
         -6    2    1    2    0  503 -0.85162145236E+02 -0.10161240467E+02 -0.16238744746E+03  0.24532246645E+03  0.16265788534E+03 0.  0.
        -24    2    3    3    0    0 -0.95468881983E+02 -0.45985009839E+02 -0.16000181279E+03  0.20767472379E+03  0.79368017806E+02 0.  0.
          6    2    1    2  501    0  0.85162145236E+02  0.10161240467E+02 -0.67488456787E+02  0.20408126969E+03  0.17244892302E+03 0.  0.
         24    2    5    5    0    0 -0.68035782767E+01 -0.52215891897E+01 -0.75657633040E+02  0.11036280198E+03  0.79889404512E+02 0.  0.
          5    1    5    5  501    0  0.91965723512E+02  0.15382829657E+02  0.81691762536E+01  0.93718467711E+02  0.47000000000E+01 0. -1.
        -11    1    6    6    0    0  0.13317253918E+02  0.15868802175E+02 -0.78394738109E+02  0.81085776173E+02  0.00000000000E+00 0.  1.
         12    1    6    6    0    0 -0.20120832195E+02 -0.21090391365E+02  0.27371050687E+01  0.29277025810E+02  0.00000000000E+00 0. -1.
         -5    1    3    3    0  503  0.10306736748E+02  0.35823769372E+02 -0.23856346763E+01  0.37647742658E+02  0.47000000000E+01 0.  1.
         11    1    4    4    0    0 -0.69161809310E+02 -0.33400369283E+02 -0.16112139159E+03  0.17849101760E+03  0.00000000000E+00 0. -1.
        -12    1    4    4    0    0 -0.26307072674E+02 -0.12584640556E+02  0.11195788037E+01  0.29183706195E+02  0.00000000000E+00 0.  1.
</event>
<event>
12    1  0.9962621E-001  0.2351201E+03  0.7818608E-02  0.1123184E+00
         21   -1    0    0  503  502  0.00000000000E+00  0.00000000000E+00  0.13693612123E+03  0.13693612123E+03  0.00000000000E+00 0. -1.
         21   -1    0    0  501  503 -0.00000000000E+00 -0.00000000000E+00 -0.50775253711E+03  0.50775253711E+03  0.00000000000E+00 0. -1.
          6    2    1    2  501    0 -0.21998850470E+02 -0.15819944700E+03 -0.33182841624E+03  0.40635796420E+03  0.17177218283E+03 0.  0.
         24    2    3    3    0    0  0.19645449042E+02 -0.92139349729E+02 -0.29637048542E+03  0.32046536271E+03  0.77375581639E+02 0.  0.
         -6    2    1    2    0  502  0.21998850470E+02  0.15819944700E+03 -0.38987999641E+02  0.23833069414E+03  0.17254112902E+03 0.  0.
        -24    2    5    5    0    0  0.13035655810E+02  0.94585734598E+02 -0.92835755626E+02  0.15437407387E+03  0.78080007987E+02 0.  0.
          5    1    3    3  501    0 -0.41644299512E+02 -0.66060097267E+02 -0.35457930820E+02  0.85892601491E+02  0.47000000000E+01 0. -1.
        -11    1    4    4    0    0  0.46357703156E+02 -0.79654060622E+02 -0.23324800039E+03  0.25079560543E+03  0.00000000000E+00 0.  1.
         12    1    4    4    0    0 -0.26712254114E+02 -0.12485289107E+02 -0.63122485027E+02  0.69669757284E+02  0.00000000000E+00 0. -1.
         -5    1    5    5    0  502  0.89631946594E+01  0.63613712399E+02  0.53847755986E+02  0.83956620277E+02  0.47000000000E+01 0.  1.
         11    1    6    6    0    0  0.31189227039E+02  0.50236372548E+01 -0.29178814123E+02  0.43004744019E+02  0.00000000000E+00 0. -1.
        -12    1    6    6    0    0 -0.18153571228E+02  0.89562097343E+02 -0.63656941504E+02  0.11136932985E+03  0.00000000000E+00 0.  1.
</event>
<event>
12    1  0.9962621E-001  0.2035899E+03  0.7818608E-02  0.1147633E+00
         21   -1    0    0  501  502  0.00000000000E+00  0.00000000000E+00  0.18959298977E+04  0.18959298977E+04  0.00000000000E+00 0.  1.
         21   -1    0    0  502  503 -0.00000000000E+00 -0.00000000000E+00 -0.22193095489E+02  0.22193095489E+02  0.00000000000E+00 0.  1.
         -6    2    1    2    0  503  0.84901583385E+02  0.49637234387E+02  0.11269042702E+04  0.11451471952E+04  0.17826028903E+03 0.  0.
        -24    2    3    3    0    0  0.47837406928E+02  0.16756516053E+02  0.10450611987E+04  0.10493595490E+04  0.80208202499E+02 0.  0.
          6    2    1    2  501    0 -0.84901583385E+02 -0.49637234387E+02  0.74683253205E+03  0.77297579800E+03  0.17337998577E+03 0.  0.
         24    2    5    5    0    0 -0.43711923162E+02  0.23027335130E+02  0.21824758435E+03  0.23781146370E+03  0.80506482985E+02 0.  0.
          5    1    5    5  501    0 -0.41189660223E+02 -0.72664569517E+02  0.52858494770E+03  0.53516433430E+03  0.47000000000E+01 0. -1.
        -11    1    6    6    0    0  0.11930884102E+02 -0.17714104218E+02  0.86594760225E+02  0.89189618130E+02  0.00000000000E+00 0.  1.
         12    1    6    6    0    0 -0.55642807264E+02  0.40741439349E+02  0.13165282412E+03  0.14862184557E+03  0.00000000000E+00 0. -1.
         -5    1    3    3    0  503  0.37064176456E+02  0.32880718334E+02  0.81843071498E+02  0.95787646212E+02  0.47000000000E+01 0.  1.
         13    1    4    4    0    0  0.23690592154E+02 -0.21632759886E+02  0.16265287119E+03  0.16578654035E+03  0.00000000000E+00 0. -1.
        -14    1    4    4    0    0  0.24146814775E+02  0.38389275939E+02  0.88240832752E+03  0.88357300867E+03  0.00000000000E+00 0.  1.
</event>
<event>
12    1  0.9962621E-001  0.2566109E+03  0.7818608E-02  0.1110134E+00
         21   -1    0    0  501  502  0.00000000000E+00  0.00000000000E+00  0.27071537924E+03  0.27071537924E+03  0.00000000000E+00 0.  1.
         21   -1    0    0  502  503 -0.00000000000E+00 -0.00000000000E+00 -0.17507225850E+04  0.17507225850E+04  0.00000000000E+00 0.  1.
         -6    2    1    2    0  503 -0.17736426027E+03 -0.45079518406E+02  0.20084151666E+03  0.32111399329E+03  0.17113339263E+03 0.  0.
        -24    2    3    3    0    0 -0.13682926830E+03 -0.65864832777E+02  0.21495387969E+03  0.27319360454E+03  0.73274486062E+02 0.  0.
          6    2    1    2  501    0  0.17736426027E+03  0.45079518406E+02 -0.16808487225E+04  0.17003239710E+04  0.17988589362E+03 0.  0.
         24    2    5    5    0    0  0.92694229205E+02 -0.18873715785E+02 -0.52306376167E+03  0.53767736271E+03  0.80949430616E+02 0.  0.
          5    1    5    5  501    0  0.84670031061E+02  0.63953234191E+02 -0.11577849608E+04  0.11626466083E+04  0.47000000000E+01 0. -1.
        -13    1    6    6    0    0  0.36770148493E+02  0.23533559240E+02 -0.31693577670E+03  0.31992836508E+03  0.00000000000E+00 0.  1.
         14    1    6    6    0    0  0.55924080712E+02 -0.42407275025E+02 -0.20612798498E+03  0.21774899763E+03  0.00000000000E+00 0. -1.
         -5    1    3    3    0  503 -0.40534991970E+02  0.20785314370E+02 -0.14112363036E+02  0.47920388750E+02  0.47000000000E+01 0.  1.
         11    1    4    4    0    0 -0.10467907591E+03 -0.23247699066E+02  0.10077915793E+03  0.14715503090E+03  0.00000000000E+00 0. -1.
        -12    1    4    4    0    0 -0.32150192385E+02 -0.42617133711E+02  0.11417472177E+03  0.12603857364E+03  0.00000000000E+00 0.  1.
</event>
<event>
12    1  0.9962621E-001  0.2313385E+03  0.7818608E-02  0.1127168E+00
         21   -1    0    0  503  502  0.00000000000E+00  0.00000000000E+00  0.11334847830E+03  0.11334847830E+03  0.00000000000E+00 0. -1.
         21   -1    0    0  501  503 -0.00000000000E+00 -0.00000000000E+00 -0.71180429162E+03  0.71180429162E+03  0.00000000000E+00 0.  1.
          6    2    1    2  501    0  0.37197928190E+02  0.13597231727E+03 -0.54330828554E+03  0.58733192734E+03  0.17292409551E+03 0.  0.
         24    2    3    3    0    0  0.89967479045E+02  0.89287505600E+02 -0.37730325192E+03  0.40693276347E+03  0.84676585493E+02 0.  0.
         -6    2    1    2    0  502 -0.37197928190E+02 -0.13597231727E+03 -0.55147527777E+02  0.23782084258E+03  0.18342667859E+03 0.  0.
        -24    2    5    5    0    0 -0.76864224081E+02 -0.15119418068E+03 -0.54145417675E+02  0.19506321893E+03  0.79687790210E+02 0.  0.
          5    1    3    3  501    0 -0.52769550855E+02  0.46684811665E+02 -0.16600503362E+03  0.18039916387E+03  0.47000000000E+01 0. -1.
        -11    1    4    4    0    0  0.73503706358E+02  0.36679124295E+02 -0.30583544661E+03  0.31667565964E+03  0.00000000000E+00 0.  1.
         12    1    4    4    0    0  0.16463772687E+02  0.52608381306E+02 -0.71467805310E+02  0.90257103823E+02  0.00000000000E+00 0. -1.
         -5    1    5    5    0  502  0.39666295891E+02  0.15221863414E+02 -0.10021101024E+01  0.42757623649E+02  0.47000000000E+01 0.  1.
         11    1    6    6    0    0 -0.76669475262E+02 -0.91001802956E+02 -0.80830160546E+01  0.11926806667E+03  0.00000000000E+00 0. -1.
        -12    1    6    6    0    0 -0.19474881851E+00 -0.60192377723E+02 -0.46062401620E+02  0.75795152260E+02  0.00000000000E+00 0.  1.
</event>
<event>
12    1  0.9962621E-001  0.1755111E+03  0.7818608E-02  0.1172532E+00
         21   -1    0    0  501  502  0.00000000000E+00  0.00000000000E+00  0.53971480983E+02  0.53971480983E+02  0.00000000000E+00 0.  1.
         21   -1    0    0  502  503 -0.00000000000E+00 -0.00000000000E+00 -0.75726234066E+03  0.75726234066E+03  0.00000000000E+00 0.  1.
         -6    2    1    2    0  503 -0.13356309459E+02 -0.32230580028E+02 -0.14723840414E+03  0.22813994235E+03  0.17073805771E+03 0.  0.
        -24    2    3    3    0    0 -0.68593635775E+02 -0.25370890364E+02 -0.55713069870E+02  0.12091497150E+03  0.78534802676E+02 0.  0.
          6    2    1    2  501    0  0.13356309459E+02  0.32230580028E+02 -0.55605245553E+03  0.58309387929E+03  0.17200853894E+03 0.  0.
         24    2    5    5    0    0 -0.75745177380E+00  0.47018149200E+02 -0.55419546612E+03  0.56203660340E+03  0.80877987163E+02 0.  0.
          5    1    5    5  501    0  0.14113761233E+02 -0.14787569173E+02 -0.18569894133E+01  0.21057275889E+02  0.47000000000E+01 0. -1.
        -11    1    6    6    0    0 -0.40422504979E+02  0.21868029967E+02 -0.30668757831E+03  0.31011201256E+03  0.00000000000E+00 0.  1.
         12    1    6    6    0    0  0.39665053205E+02  0.25150119233E+02 -0.24750788781E+03  0.25192459084E+03  0.00000000000E+00 0. -1.
         -5    1    3    3    0  503  0.55237326316E+02 -0.68596896635E+01 -0.91525334273E+02  0.10722497085E+03  0.47000000000E+01 0.  1.
         11    1    4    4    0    0  0.94543257767E+01 -0.19878008305E+02 -0.32592632796E+02  0.39329368196E+02  0.00000000000E+00 0. -1.
        -12    1    4    4    0    0 -0.78047961552E+02 -0.54928820592E+01 -0.23120437073E+02  0.81585603302E+02  0.00000000000E+00 0.  1.
</event>
<event>
12    1  0.9962621E-001  0.3133327E+03  0.7818608E-02  0.1079044E+00
         21   -1    0    0  501  502  0.00000000000E+00  0.00000000000E+00  0.79526150754E+03  0.79526150754E+03  0.00000000000E+00 0. -1.
         21   -1    0    0  502  503 -0.00000000000E+00 -0.00000000000E+00 -0.16420167032E+03  0.16420167032E+03  0.00000000000E+00 0.  1.
         -6    2    1    2    0  503  0.10518212621E+03 -0.23840168745E+03  0.55635373142E+03  0.63734771841E+03  0.16965846703E+03 0.  0.
        -24    2    3    3    0    0  0.71819256479E+02 -0.17444500835E+03  0.51423631091E+03  0.55368467406E+03  0.80862032479E+02 0.  0.
          6    2    1    2  501    0 -0.10518212621E+03  0.23840168745E+03  0.74706105793E+02  0.32211545946E+03  0.17400782375E+03 0.  0.
         24    2    5    5    0    0 -0.11327970150E+03  0.18484047616E+03  0.16679897106E+01  0.23106036360E+03  0.79923820225E+02 0.  0.
          5    1    5    5  501    0  0.80975752863E+01  0.53561211286E+02  0.73038116083E+02  0.91055095853E+02  0.47000000000E+01 0. -1.
        -13    1    6    6    0    0 -0.20842055179E+02  0.19610715984E+02 -0.27272682474E+02  0.39531894147E+02  0.00000000000E+00 0.  1.
         14    1    6    6    0    0 -0.92437646316E+02  0.16522976018E+03  0.28940672185E+02  0.19152846946E+03  0.00000000000E+00 0. -1.
         -5    1    3    3    0  503  0.33362869731E+02 -0.63956679099E+02  0.42117420518E+02  0.83663044345E+02  0.47000000000E+01 0.  1.
         13    1    4    4    0    0  0.78255657870E+02 -0.15535779625E+03  0.37972384062E+03  0.41767234524E+03  0.00000000000E+00 0. -1.
        -14    1    4    4    0    0 -0.64364013911E+01 -0.19087212103E+02  0.13451247029E+03  0.13601232882E+03  0.00000000000E+00 0.  1.
</event>
<event>
12    1  0.9962621E-001  0.2362938E+03  0.7818608E-02  0.1122586E+00
         21   -1    0    0  503  502  0.00000000000E+00  0.00000000000E+00  0.46063278938E+03  0.46063278938E+03  0.00000000000E+00 0.  1.
         21   -1    0    0  501  503 -0.00000000000E+00 -0.00000000000E+00 -0.13287096269E+03  0.13287096269E+03  0.00000000000E+00 0.  1.
          6    2    1    2  501    0  0.15862231142E+03  0.29607946677E+02  0.73209061932E+02  0.24737487094E+03  0.17261834154E+03 0.  0.
         24    2    3    3    0    0  0.55827947261E+02  0.64636391037E+02  0.73423659871E+02  0.13867432232E+03  0.80900624851E+02 0.  0.
         -6    2    1    2    0  502 -0.15862231142E+03 -0.29607946677E+02  0.25455276476E+03  0.34612888113E+03  0.17020700373E+03 0.  0.
        -24    2    5    5    0    0 -0.11630062105E+03 -0.44559432636E+02  0.26158889740E+03  0.30045318113E+03  0.79573772753E+02 0.  0.
          5    1    3    3  501    0  0.10279436416E+03 -0.35028444361E+02 -0.21459793934E+00  0.10870054862E+03  0.47000000000E+01 0. -1.
        -11    1    4    4    0    0  0.61360657541E+02  0.43062282892E+02  0.85197337820E+02  0.11348161469E+03  0.00000000000E+00 0.  1.
         12    1    4    4    0    0 -0.55327102799E+01  0.21574108145E+02 -0.11773677949E+02  0.25192707630E+02  0.00000000000E+00 0. -1.
         -5    1    5    5    0  502 -0.42321690368E+02  0.14951485960E+02 -0.70361326476E+01  0.45675700002E+02  0.47000000000E+01 0.  1.
         11    1    6    6    0    0 -0.77757632097E+02 -0.86147808012E+00  0.20489781504E+03  0.21915771969E+03  0.00000000000E+00 0. -1.
        -12    1    6    6    0    0 -0.38542988955E+02 -0.43697954556E+02  0.56691082370E+02  0.81295461437E+02  0.00000000000E+00 0.  1.
</event>
<event>
12    1  0.9962621E-001  0.3679905E+03  0.7818608E-02  0.1055644E+00
         21   -1    0    0  503  502  0.00000000000E+00  0.00000000000E+00  0.20788454364E+03  0.20788454364E+03  0.00000000000E+00 0.  1.
         21   -1    0    0  501  503 -0.00000000000E+00 -0.00000000000E+00 -0.10320693956E+04  0.10320693956E+04  0.00000000000E+00 0.  1.
          6    2    1    2  501    0  0.27588612492E+03  0.17079519203E+03 -0.33290275516E+02  0.36764019097E+03  0.16960812489E+03 0.  0.
         24    2    3    3    0    0  0.17658119052E+03  0.14376669138E+03  0.35699286743E+02  0.24364962865E+03  0.78999519445E+02 0.  0.
         -6    2    1    2    0  502 -0.27588612492E+03 -0.17079519203E+03 -0.79089457648E+03  0.87231374832E+03  0.17358828546E+03 0.  0.
        -24    2    5    5    0    0 -0.10968937214E+03 -0.13026336049E+02 -0.21946009462E+03  0.25662565390E+03  0.74111735337E+02 0.  0.
          5    1    3    3  501    0  0.99304934402E+02  0.27028500649E+02 -0.68989562260E+02  0.12399056232E+03  0.47000000000E+01 0. -1.
        -13    1    4    4    0    0 -0.81422702535E+01  0.93277534160E+01  0.39014512739E+01  0.12981712935E+02  0.00000000000E+00 0.  1.
         14    1    4    4    0    0  0.18472346077E+03  0.13443893796E+03  0.31797835469E+02  0.23066791572E+03  0.00000000000E+00 0. -1.
         -5    1    5    5    0  502 -0.16619675278E+03 -0.15776885598E+03 -0.57143448186E+03  0.61568809442E+03  0.47000000000E+01 0.  1.
         11    1    6    6    0    0 -0.10729937173E+03 -0.43939815765E+01 -0.22258695867E+03  0.24713845597E+03  0.00000000000E+00 0. -1.
        -12    1    6    6    0    0 -0.23900004143E+01 -0.86323544729E+01  0.31268640512E+01  0.94871979278E+01  0.00000000000E+00 0.  1.
</event>
<event>
12    1  0.9962621E-001  0.6741714E+03  0.7818608E-02  0.9762824E-01
         21   -1    0    0  501  502  0.00000000000E+00  0.00000000000E+00  0.49086770346E+03  0.49086770346E+03  0.00000000000E+00 0. -1.
         21   -1    0    0  502  503 -0.00000000000E+00 -0.00000000000E+00 -0.96081264862E+03  0.96081264862E+03  0.00000000000E+00 0. -1.
         -6    2    1    2    0  503  0.40684018379E+03  0.50920415900E+03 -0.94559547338E+02  0.68077057990E+03  0.17233474338E+03 0.  0.
        -24    2    3    3    0    0  0.13673965220E+03  0.17472675535E+03  0.18610527932E+02  0.23618202105E+03  0.78793551779E+02 0.  0.
          6    2    1    2  501    0 -0.40684018379E+03 -0.50920415900E+03 -0.37538539782E+03  0.77090977217E+03  0.16905581692E+03 0.  0.
         24    2    5    5    0    0 -0.32748120159E+03 -0.44164596777E+03 -0.36871645491E+03  0.66637020044E+03  0.76172972023E+02 0.  0.
          5    1    5    5  501    0 -0.79358982200E+02 -0.67558191229E+02 -0.66689429134E+01  0.10453957173E+03  0.47000000000E+01 0. -1.
        -11    1    6    6    0    0 -0.21525330067E+03 -0.22698748015E+03 -0.21045633404E+03  0.37702674723E+03  0.00000000000E+00 0.  1.
         12    1    6    6    0    0 -0.11222790092E+03 -0.21465848763E+03 -0.15826012087E+03  0.28934345321E+03  0.00000000000E+00 0. -1.
         -5    1    3    3    0  503  0.27010053159E+03  0.33447740366E+03 -0.11317007527E+03  0.44458855885E+03  0.47000000000E+01 0.  1.
         13    1    4    4    0    0  0.60248482198E+02  0.13723523454E+03  0.18344881500E+02  0.15099643666E+03  0.00000000000E+00 0. -1.
        -14    1    4    4    0    0  0.76491170000E+02  0.37491520803E+02  0.26564643191E+00  0.85185584391E+02  0.00000000000E+00 0.  1.
</event>
<event>
12    1  0.9962621E-001  0.1850663E+03  0.7818608E-02  0.1163071E+00
         21   -1    0    0  503  502  0.00000000000E+00  0.00000000000E+00  0.42581028327E+03  0.42581028327E+03  0.00000000000E+00 0. -1.
         21   -1    0    0  501  503 -0.00000000000E+00 -0.00000000000E+00 -0.86846890118E+02  0.86846890118E+02  0.00000000000E+00 0. -1.
          6    2    1    2  501    0  0.14910426171E+02  0.66838655609E+02  0.23982147217E+03  0.30270796492E+03  0.17154604867E+03 0.  0.
         24    2    3    3    0    0  0.23253392471E+02  0.11047355085E+03  0.16026919637E+03  0.21147056165E+03  0.79299794707E+02 0.  0.
         -6    2    1    2    0  502 -0.14910426171E+02 -0.66838655609E+02  0.99141920977E+02  0.20994920847E+03  0.17192970351E+03 0.  0.
        -24    2    5    5    0    0  0.35195015669E+02  0.11514334431E+02  0.26812682747E+02  0.92036719509E+02  0.79878462408E+02 0.  0.
          5    1    3    3  501    0 -0.83429663002E+01 -0.43634895239E+02  0.79552275804E+02  0.91237403267E+02  0.47000000000E+01 0. -1.
        -11    1    4    4    0    0  0.20148931317E+02  0.60482478038E+02  0.14612263081E+03  0.15942375236E+03  0.00000000000E+00 0.  1.
         12    1    4    4    0    0  0.31044611540E+01  0.49991072811E+02  0.14146565563E+02  0.52046809288E+02  0.00000000000E+00 0. -1.
         -5    1    5    5    0  502 -0.50105441839E+02 -0.78352990041E+02  0.72329238231E+02  0.11791248896E+03  0.47000000000E+01 0.  1.
         13    1    6    6    0    0 -0.18614577391E+02  0.21592256887E+02  0.23921661610E+02  0.37215238050E+02  0.00000000000E+00 0. -1.
        -14    1    6    6    0    0  0.53809593059E+02 -0.10077922456E+02  0.28910211365E+01  0.54821481460E+02  0.00000000000E+00 0.  1.
</event>
<event>
12    1  0.9962621E-001  0.5730132E+03  0.7818608E-02  0.9963390E-01
         21   -1    0    0  503  502  0.00000000000E+00  0.00000000000E+00  0.84491014511E+03  0.84491014511E+03  0.00000000000E+00 0. -1.
         21   -1    0    0  501  503 -0.00000000000E+00 -0.00000000000E+00 -0.38818919425E+03  0.38818919425E+03  0.00000000000E+00 0. -1.
          6    2    1    2  501    0 -0.52339444652E+03  0.15588524757E+03  0.23231740757E+03  0.61831663924E+03  0.17349965834E+03 0.  0.
         24    2    3    3    0    0 -0.42226897337E+03  0.18394445777E+03  0.18384944553E+03  0.50262345041E+03  0.81750014476E+02 0.  0.
         -6    2    1    2    0  502  0.52339444652E+03 -0.15588524757E+03  0.22440354328E+03  0.61478270012E+03  0.17134427645E+03 0.  0.
        -24    2    5    5    0    0  0.10189714940E+03 -0.26959267934E+02  0.85154424528E+02  0.15251190635E+03  0.69991245000E+02 0.  0.
          5    1    3    3  501    0 -0.10112547315E+03 -0.28059210200E+02  0.48467962045E+02  0.11569318883E+03  0.47000000000E+01 0. -1.
        -13    1    4    4    0    0 -0.17277787653E+03  0.55130150863E+02  0.11067315708E+03  0.21246193977E+03  0.00000000000E+00 0.  1.
         14    1    4    4    0    0 -0.24949109684E+03  0.12881430690E+03  0.73176288443E+02  0.29016151064E+03  0.00000000000E+00 0. -1.
         -5    1    5    5    0  502  0.42149729712E+03 -0.12892597963E+03  0.13924911875E+03  0.46227079377E+03  0.47000000000E+01 0.  1.
         11    1    6    6    0    0  0.23891106836E+02  0.23459495997E+02  0.19227361266E+02  0.38611194743E+02  0.00000000000E+00 0. -1.
        -12    1    6    6    0    0  0.78006042567E+02 -0.50418763931E+02  0.65927063262E+02  0.11390071160E+03  0.00000000000E+00 0.  1.
</event>
<event>
12    1  0.9962621E-001  0.2888698E+03  0.7818608E-02  0.1091070E+00
         21   -1    0    0  501  502  0.00000000000E+00  0.00000000000E+00  0.30770140887E+03  0.30770140887E+03  0.00000000000E+00 0.  1.
         21   -1    0    0  502  503 -0.00000000000E+00 -0.00000000000E+00 -0.36545761445E+03  0.36545761445E+03  0.00000000000E+00 0.  1.
         -6    2    1    2    0  503 -0.11511466006E+03  0.20252519984E+03  0.14293425656E+03  0.32141701973E+03  0.16914744261E+03 0.  0.
        -24    2    3    3    0    0 -0.65955669661E+02  0.13316603487E+03  0.16246324858E+03  0.23406273173E+03  0.79421105777E+02 0.  0.
          6    2    1    2  501    0  0.11511466006E+03 -0.20252519984E+03 -0.20069046214E+03  0.35174200360E+03  0.17081549687E+03 0.  0.
         24    2    5    5    0    0  0.15574664070E+02 -0.31791334405E+02 -0.35260403087E+02  0.93967959045E+02  0.79582800887E+02 0.  0.
          5    1    5    5  501    0  0.99539995990E+02 -0.17073386543E+03 -0.16543005905E+03  0.25777404455E+03  0.47000000000E+01 0. -1.
        -13    1    6    6    0    0 -0.20450673996E+02 -0.36622411881E+02  0.18974140926E+01  0.41988466263E+02  0.00000000000E+00 0.  1.
         14    1    6    6    0    0  0.36025338066E+02  0.48310774760E+01 -0.37157817180E+02  0.51979492783E+02  0.00000000000E+00 0. -1.
         -5    1    3    3    0  503 -0.49158990400E+02  0.69359164967E+02 -0.19528992016E+02  0.87354287996E+02  0.47000000000E+01 0.  1.
         11    1    4    4    0    0 -0.62936486857E+02  0.10490979346E+03  0.78348571325E+02  0.14527754393E+03  0.00000000000E+00 0. -1.
        -12    1    4    4    0    0 -0.30191828041E+01  0.28256241414E+02  0.84114677255E+02  0.88785187804E+02  0.00000000000E+00 0.  1.
</event>
<event>
12    1  0.9962621E-001  0.1879246E+03  0.7818608E-02  0.1160460E+00
         21   -1    0    0  503  502  0.00000000000E+00  0.00000000000E+00  0.68340029707E+02  0.68340029707E+02  0.00000000000E+00 0. -1.
         21   -1    0    0  501  503 -0.00000000000E+00 -0.00000000000E+00 -0.51742183357E+03  0.51742183357E+03  0.00000000000E+00 0. -1.
          6    2    1    2  501    0 -0.71620001787E+02  0.13828771178E+02 -0.20597284911E+03  0.27848733179E+03  0.17265491545E+03 0.  0.
         24    2    3    3    0    0 -0.11436258063E+03  0.12912777188E+01 -0.17706416117E+03  0.22517767951E+03  0.79201028615E+02 0.  0.
         -6    2    1    2    0  502  0.71620001787E+02 -0.13828771178E+02 -0.24310895475E+03  0.30727453148E+03  0.17319068753E+03 0.  0.
        -24    2    5    5    0    0  0.17600784534E+02  0.43476464944E+02 -0.19381184622E+03  0.21424625175E+03  0.78348159098E+02 0.  0.
          5    1    3    3  501    0  0.42742578840E+02  0.12537493460E+02 -0.28908687945E+02  0.53309652286E+02  0.47000000000E+01 0. -1.
        -11    1    4    4    0    0 -0.53707106192E+02 -0.12482859130E+02 -0.14514619368E+03  0.15526652108E+03  0.00000000000E+00 0.  1.
         12    1    4    4    0    0 -0.60655474434E+02  0.13774136848E+02 -0.31917967485E+02  0.69911158431E+02  0.00000000000E+00 0. -1.
         -5    1    5    5    0  502  0.54019217253E+02 -0.57305236122E+02 -0.49297108525E+02  0.93028279725E+02  0.47000000000E+01 0.  1.
         13    1    6    6    0    0 -0.22700345311E+02 -0.30237161366E+00 -0.10442849249E+03  0.10686770864E+03  0.00000000000E+00 0. -1.
        -14    1    6    6    0    0  0.40301129845E+02  0.43778836557E+02 -0.89383353732E+02  0.10737854311E+03  0.00000000000E+00 0.  1.
</event>
<event>
12    1  0.9962621E-001  0.2264319E+03  0.7818608E-02  0.1129567E+00
         21   -1    0    0  501  502  0.00000000000E+00  0.00000000000E+00  0.67738001723E+02  0.67738001723E+02  0.00000000000E+00 0.  1.
         21   -1    0    0  502  503 -0.00000000000E+00 -0.00000000000E+00 -0.75983297491E+03  0.75983297491E+03  0.00000000000E+00 0.  1.
         -6    2    1    2    0  503  0.13422888191E+03  0.51492924906E+02 -0.39219463410E+03  0.45178963232E+03  0.17212880875E+03 0.  0.
        -24    2    3    3    0    0  0.40450575125E+02  0.50134696764E+02 -0.94269999323E+02  0.13941582802E+03  0.80001271752E+02 0.  0.
          6    2    1    2  501    0 -0.13422888191E+03 -0.51492924906E+02 -0.29990033909E+03  0.37578134432E+03  0.17493567760E+03 0.  0.
         24    2    5    5    0    0 -0.50156663982E+01 -0.13535289185E+02 -0.60049521402E+02  0.10066801873E+03  0.79496817613E+02 0.  0.
          5    1    5    5  501    0 -0.12921321551E+03 -0.37957635721E+02 -0.23985081769E+03  0.27511332559E+03  0.47000000000E+01 0. -1.
        -11    1    6    6    0    0 -0.79245457954E+01  0.33028972768E+02 -0.22046750878E+02  0.40494082191E+02  0.00000000000E+00 0.  1.
         12    1    6    6    0    0  0.29088793971E+01 -0.46564261953E+02 -0.38002770524E+02  0.60173936535E+02  0.00000000000E+00 0. -1.
         -5    1    3    3    0  503  0.93778306784E+02  0.13582281421E+01 -0.29792463478E+03  0.31237380430E+03  0.47000000000E+01 0.  1.
         11    1    4    4    0    0 -0.96628050360E+00  0.17876427367E+02 -0.84047027237E+02  0.85932549949E+02  0.00000000000E+00 0. -1.
        -12    1    4    4    0    0  0.41416855629E+02  0.32258269397E+02 -0.10222972086E+02  0.53483278068E+02  0.00000000000E+00 0.  1.
</event>
<event>
12    1  0.9962621E-001  0.1783626E+03  0.7818608E-02  0.1170808E+00
         21   -1    0    0  501  502  0.00000000000E+00  0.00000000000E+00  0.66436925425E+02  0.66436925425E+02  0.00000000000E+00 0. -1.
         21   -1    0    0  502  503 -0.00000000000E+00 -0.00000000000E+00 -0.46427340266E+03  0.46427340266E+03  0.00000000000E+00 0. -1.
         -6    2    1    2    0  503 -0.16092982666E+02 -0.41911422134E+02 -0.20446376845E+03  0.26763960574E+03  0.16676322904E+03 0.  0.
        -24    2    3    3    0    0  0.45744128717E+02  0.51228569482E+01 -0.93789893004E+02  0.13233680290E+03  0.81226328216E+02 0.  0.
          6    2    1    2  501    0  0.16092982666E+02  0.41911422134E+02 -0.19337270879E+03  0.26307072234E+03  0.17261995555E+03 0.  0.
         24    2    5    5    0    0 -0.47107382751E+02  0.61183814255E+02 -0.12701994446E+03  0.16931310601E+03  0.81057368191E+02 0.  0.
          5    1    5    5  501    0  0.63200365417E+02 -0.19272392121E+02 -0.66352764323E+02  0.93757616332E+02  0.47000000000E+01 0. -1.
        -13    1    6    6    0    0 -0.31627900994E+02 -0.25933048223E+01 -0.86610959063E+02  0.92241571869E+02  0.00000000000E+00 0.  1.
         14    1    6    6    0    0 -0.15479481757E+02  0.63777119078E+02 -0.40408985401E+02  0.77071534138E+02  0.00000000000E+00 0. -1.
         -5    1    3    3    0  503 -0.61837111383E+02 -0.47034279082E+02 -0.11067387544E+03  0.13530280285E+03  0.47000000000E+01 0.  1.
         13    1    4    4    0    0 -0.13917710402E+02 -0.14517083080E+02 -0.54883187397E+02  0.58451797431E+02  0.00000000000E+00 0. -1.
        -14    1    4    4    0    0  0.59661839119E+02  0.19639940028E+02 -0.38906705607E+02  0.73885005465E+02  0.00000000000E+00 0.  1.
</event>
<event>
12    1  0.9962621E-001  0.1765584E+03  0.7818608E-02  0.1172123E+00
         21   -1    0    0  503  502  0.00000000000E+00  0.00000000000E+00  0.17042868760E+03  0.17042868760E+03  0.00000000000E+00 0.  1.
         21   -1    0    0  501  503 -0.00000000000E+00 -0.00000000000E+00 -0.21486981794E+03  0.21486981794E+03  0.00000000000E+00 0.  1.
          6    2    1    2  501    0 -0.30999258081E+02 -0.17455905405E+02  0.56265510886E+02  0.18530695553E+03  0.17293697528E+03 0.  0.
         24    2    3    3    0    0 -0.12888121440E+02 -0.58390990174E+02 -0.16272001526E+02  0.99940245730E+02  0.78407035877E+02 0.  0.
         -6    2    1    2    0  502  0.30999258081E+02  0.17455905405E+02 -0.10070664123E+03  0.19999155001E+03  0.16908320393E+03 0.  0.
        -24    2    5    5    0    0  0.63024501516E+02  0.75860422097E+01 -0.84867037169E+01  0.10175898264E+03  0.79077370852E+02 0.  0.
          5    1    3    3  501    0 -0.18111136642E+02  0.40935084768E+02  0.72537512412E+02  0.85366709802E+02  0.47000000000E+01 0. -1.
        -11    1    4    4    0    0  0.16756267668E+02 -0.17673200846E+02  0.24942680495E+02  0.34860462484E+02  0.00000000000E+00 0.  1.
         12    1    4    4    0    0 -0.29644389107E+02 -0.40717789327E+02 -0.41214682021E+02  0.65079783246E+02  0.00000000000E+00 0. -1.
         -5    1    5    5    0  502 -0.32025243434E+02  0.98698631956E+01 -0.92219937511E+02  0.98232567365E+02  0.47000000000E+01 0.  1.
         13    1    6    6    0    0  0.50378895957E+02  0.24221296694E+02 -0.36537220417E+02  0.66780782019E+02  0.00000000000E+00 0. -1.
        -14    1    6    6    0    0  0.12645605559E+02 -0.16635254484E+02  0.28050516700E+02  0.34978200623E+02  0.00000000000E+00 0.  1.
</event>
<event>
12    1  0.9962621E-001  0.7723163E+03  0.7818608E-02  0.9601856E-01
         21   -1    0    0  501  502  0.00000000000E+00  0.00000000000E+00  0.55080905822E+03  0.55080905822E+03  0.00000000000E+00 0.  1.
         21   -1    0    0  502  503 -0.00000000000E+00 -0.00000000000E+00 -0.10983812947E+04  0.10983812947E+04  0.00000000000E+00 0.  1.
         -6    2    1    2    0  503  0.65670697534E+03 -0.36244815779E+03 -0.16650204270E+03  0.79006038647E+03  0.18395587922E+03 0.  0.
        -24    2    3    3    0    0  0.58745637138E+03 -0.29141744035E+03 -0.94535002070E+02  0.66741311212E+03  0.80462928086E+02 0.  0.
          6    2    1    2  501    0 -0.65670697534E+03  0.36244815779E+03 -0.38107019375E+03  0.85912996642E+03  0.17394564696E+03 0.  0.
         24    2    5    5    0    0 -0.51807110988E+03  0.21365620170E+03 -0.29279649382E+03  0.63737946363E+03  0.80474508071E+02 0.  0.
          5    1    5    5  501    0 -0.13863586546E+03  0.14879195609E+03 -0.88273699923E+02  0.22175050279E+03  0.47000000000E+01 0. -1.
        -13    1    6    6    0    0 -0.22386112150E+03  0.67803440052E+02 -0.85483265044E+02  0.24903513167E+03  0.00000000000E+00 0.  1.
         14    1    6    6    0    0 -0.29420998838E+03  0.14585276165E+03 -0.20731322878E+03  0.38834433196E+03  0.00000000000E+00 0. -1.
         -5    1    3    3    0  503  0.69250603953E+02 -0.71030717436E+02 -0.71967040626E+02  0.12264727434E+03  0.47000000000E+01 0.  1.
         11    1    4    4    0    0  0.41529684695E+03 -0.24579008142E+03 -0.69007457899E+02  0.48748975831E+03  0.00000000000E+00 0. -1.
        -12    1    4    4    0    0  0.17215952443E+03 -0.45627358937E+02 -0.25527544170E+02  0.17992335381E+03  0.00000000000E+00 0.  1.
</event>
<event>
12    1  0.9962621E-001  0.3216814E+03  0.7818608E-02  0.1075001E+00
         21   -1    0    0  501  502  0.00000000000E+00  0.00000000000E+00  0.81972167544E+03  0.81972167544E+03  0.00000000000E+00 0. -1.
         21   -1    0    0  502  503 -0.00000000000E+00 -0.00000000000E+00 -0.15771854420E+03  0.15771854420E+03  0.00000000000E+00 0.  1.
         -6    2    1    2    0  503  0.20612071033E+03  0.17571652112E+03  0.11075758419E+03  0.33919998183E+03  0.17154399492E+03 0.  0.
        -24    2    3    3    0    0  0.16402766234E+03  0.96421561204E+02  0.13460550017E+03  0.24619283987E+03  0.79310038791E+02 0.  0.
          6    2    1    2  501    0 -0.20612071033E+03 -0.17571652112E+03  0.55124554706E+03  0.63824023781E+03  0.17354222825E+03 0.  0.
         24    2    5    5    0    0 -0.16223613878E+03 -0.67613241362E+02  0.41795655444E+03  0.46103916482E+03  0.83530323642E+02 0.  0.
          5    1    5    5  501    0 -0.43884571550E+02 -0.10810327976E+03  0.13328899262E+03  0.17720107299E+03  0.47000000000E+01 0. -1.
        -11    1    6    6    0    0 -0.91007862800E+02 -0.45099144332E+02  0.13838131038E+03  0.17165590865E+03  0.00000000000E+00 0.  1.
         12    1    6    6    0    0 -0.71228275982E+02 -0.22514097031E+02  0.27957524406E+03  0.28938325617E+03  0.00000000000E+00 0. -1.
         -5    1    3    3    0  503  0.42093047994E+02  0.79294959915E+02 -0.23847915982E+02  0.93007141952E+02  0.47000000000E+01 0.  1.
         11    1    4    4    0    0  0.13463147638E+03  0.10129578215E+03  0.85954502850E+02  0.18914186864E+03  0.00000000000E+00 0. -1.
        -12    1    4    4    0    0  0.29396185956E+02 -0.48742209415E+01  0.48650997318E+02  0.57050971232E+02  0.00000000000E+00 0.  1.
</event>
<event>
12    1  0.9962621E-001  0.2135297E+03  0.7818608E-02  0.1138839E+00
         21   -1    0    0  503  502  0.00000000000E+00  0.00000000000E+00  0.24339975900E+03  0.24339975900E+03  0.00000000000E+00 0. -1.
         21   -1    0    0  501  503 -0.00000000000E+00 -0.00000000000E+00 -0.19715788419E+03  0.19715788419E+03  0.00000000000E+00 0. -1.
          6    2    1    2  501    0  0.93723451273E+02 -0.83245988709E+02  0.72753695950E+02  0.22558375681E+03  0.17286107459E+03 0.  0.
         24    2    3    3    0    0  0.10437228088E+03 -0.94309811894E+02  0.10307604414E+03  0.19127136029E+03  0.78563024103E+02 0.  0.
         -6    2    1    2    0  502 -0.93723451273E+02  0.83245988709E+02 -0.26511821143E+02  0.21497388638E+03  0.17261782993E+03 0.  0.
        -24    2    5    5    0    0  0.16433300746E+02  0.13933708482E+02 -0.19203211574E+02  0.84535364537E+02  0.79456043931E+02 0.  0.
          5    1    3    3  501    0 -0.10648829605E+02  0.11063823185E+02 -0.30322348191E+02  0.34312396524E+02  0.47000000000E+01 0. -1.
        -11    1    4    4    0    0  0.19222869779E+02 -0.37167811827E+02  0.73447583631E+02  0.84531133317E+02  0.00000000000E+00 0.  1.
         12    1    4    4    0    0  0.85149411099E+02 -0.57142000067E+02  0.29628460510E+02  0.10674022697E+03  0.00000000000E+00 0. -1.
         -5    1    5    5    0  502 -0.11015675202E+03  0.69312280227E+02 -0.73086095692E+01  0.13043852184E+03  0.47000000000E+01 0.  1.
         11    1    6    6    0    0  0.37527290204E+02  0.28944827001E+02  0.67563141372E+01  0.47872208022E+02  0.00000000000E+00 0. -1.
        -12    1    6    6    0    0 -0.21093989458E+02 -0.15011118519E+02 -0.25959525711E+02  0.36663156514E+02  0.00000000000E+00 0.  1.
</event>
<event>
12    1  0.9962621E-001  0.3713587E+03  0.7818608E-02  0.1054180E+00
         21   -1    0    0  503  502  0.00000000000E+00  0.00000000000E+00  0.31454971080E+03  0.31454971080E+03  0.00000000000E+00 0.  1.
         21   -1    0    0  501  503 -0.00000000000E+00 -0.00000000000E+00 -0.47760970127E+03  0.47760970127E+03  0.00000000000E+00 0.  1.
          6    2    1    2  501    0  0.13036285062E+03  0.30237861011E+03 -0.19507114232E+03  0.41942358500E+03  0.17156950899E+03 0.  0.
         24    2    3    3    0    0  0.68614602997E+02  0.66141574909E+02 -0.42745355043E+02  0.13159374229E+03  0.80044212509E+02 0.  0.
         -6    2    1    2    0  502 -0.13036285062E+03 -0.30237861011E+03  0.32011151849E+02  0.37273582708E+03  0.17169736826E+03 0.  0.
        -24    2    5    5    0    0 -0.16434126932E+03 -0.25231159387E+03  0.20327160698E+02  0.31093093486E+03  0.74804141515E+02 0.  0.
          5    1    3    3  501    0  0.61748247627E+02  0.23623703520E+03 -0.15232578727E+03  0.28782984271E+03  0.47000000000E+01 0. -1.
        -11    1    4    4    0    0  0.39616805833E+02  0.22698850690E+02 -0.61060750699E+02  0.76243979454E+02  0.00000000000E+00 0.  1.
         12    1    4    4    0    0  0.28997797164E+02  0.43442724219E+02  0.18315395656E+02  0.55349762836E+02  0.00000000000E+00 0. -1.
         -5    1    5    5    0  502  0.33978418696E+02 -0.50067016245E+02  0.11683991151E+02  0.61804892217E+02  0.47000000000E+01 0.  1.
         11    1    6    6    0    0 -0.16626805365E+03 -0.24887545611E+03  0.95521565057E+01  0.29945834771E+03  0.00000000000E+00 0. -1.
        -12    1    6    6    0    0  0.19267843339E+01 -0.34361377621E+01  0.10775004192E+02  0.11472587151E+02  0.00000000000E+00 0.  1.
</event>
<event>
12    1  0.9962621E-001  0.1872489E+03  0.7818608E-02  0.1160991E+00
         21   -1    0    0  503  502  0.00000000000E+00  0.00000000000E+00  0.22750944999E+03  0.22750944999E+03  0.00000000000E+00 0. -1.
         21   -1    0    0  501  503 -0.00000000000E+00 -0.00000000000E+00 -0.37101658592E+03  0.37101658592E+03  0.00000000000E+00 0. -1.
          6    2    1    2  501    0  0.55802387704E+02  0.45449332858E+02  0.15710165419E+03  0.24442399414E+03  0.17286587526E+03 0.  0.
         24    2    3    3    0    0  0.40635293203E+01 -0.50402478536E+01  0.98708058811E+01  0.80335237908E+02  0.79463207034E+02 0.  0.
         -6    2    1    2    0  502 -0.55802387704E+02 -0.45449332858E+02 -0.30060879012E+03  0.35410204178E+03  0.17275144851E+03 0.  0.
        -24    2    5    5    0    0 -0.55929392082E+02  0.34016341411E+02 -0.12943778935E+03  0.16532595478E+03  0.79330458399E+02 0.  0.
          5    1    3    3  501    0  0.51738858384E+02  0.50489580711E+02  0.14723084831E+03  0.16408875623E+03  0.47000000000E+01 0. -1.
        -11    1    4    4    0    0  0.39944473186E+02 -0.10795799638E+01 -0.68668826912E+01  0.40544796323E+02  0.00000000000E+00 0.  1.
         12    1    4    4    0    0 -0.35880943865E+02 -0.39606678898E+01  0.16737688572E+02  0.39790441585E+02  0.00000000000E+00 0. -1.
         -5    1    5    5    0  502  0.12700437765E+00 -0.79465674269E+02 -0.17117100077E+03  0.18877608700E+03  0.47000000000E+01 0.  1.
         13    1    6    6    0    0 -0.37189108134E+02  0.11687698411E+02 -0.13045764045E+03  0.13615736488E+03  0.00000000000E+00 0. -1.
        -14    1    6    6    0    0 -0.18740283948E+02  0.22328643000E+02  0.10198510990E+01  0.29168589904E+02  0.00000000000E+00 0.  1.
</event>
<event>
12    1  0.9962621E-001  0.3666109E+03  0.7818608E-02  0.1056065E+00
         21   -1    0    0  501  502  0.00000000000E+00  0.00000000000E+00  0.71308413207E+03  0.71308413207E+03  0.00000000000E+00 0.  1.
         21   -1    0    0  502  503 -0.00000000000E+00 -0.00000000000E+00 -0.18825982906E+03  0.18825982906E+03  0.00000000000E+00 0. -1.
         -6    2    1    2    0  503 -0.12122846925E+03 -0.29936476889E+03  0.27508379624E+03  0.45833899893E+03  0.17345874547E+03 0.  0.
        -24    2    3    3    0    0 -0.15497147334E+03 -0.25777912920E+03  0.23575698540E+03  0.39173086275E+03  0.86055073474E+02 0.  0.
          6    2    1    2  501    0  0.12122846925E+03  0.29936476889E+03  0.24974050678E+03  0.44300496220E+03  0.17195193864E+03 0.  0.
         24    2    5    5    0    0  0.13046445559E+03  0.29331652751E+03  0.18856970081E+03  0.38066843864E+03  0.79337057104E+02 0.  0.
          5    1    5    5  501    0 -0.92359863380E+01  0.60482413794E+01  0.61170805968E+02  0.62336523565E+02  0.47000000000E+01 0. -1.
        -11    1    6    6    0    0 -0.10852512617E+02  0.25737885550E+02  0.19145316672E+02  0.33863829275E+02  0.00000000000E+00 0.  1.
         12    1    6    6    0    0  0.14131696820E+03  0.26757864196E+03  0.16942438414E+03  0.34680460936E+03  0.00000000000E+00 0. -1.
         -5    1    3    3    0  503  0.33743004095E+02 -0.41585639691E+02  0.39326810839E+02  0.66608136174E+02  0.47000000000E+01 0.  1.
         11    1    4    4    0    0 -0.46405894454E+02 -0.16007154455E+03  0.13111666740E+03  0.21205656529E+03  0.00000000000E+00 0. -1.
        -12    1    4    4    0    0 -0.10856557889E+03 -0.97707584649E+02  0.10464031800E+03  0.17967429746E+03  0.00000000000E+00 0.  1.
</event>
<event>
12    1  0.9962621E-001  0.3516711E+03  0.7818608E-02  0.1061968E+00
         21   -1    0    0  501  502  0.00000000000E+00  0.00000000000E+00  0.26227978013E+03  0.26227978013E+03  0.00000000000E+00 0.  1.
         21   -1    0    0  502  503 -0.00000000000E+00 -0.00000000000E+00 -0.47313268443E+03  0.47313268443E+03  0.00000000000E+00 0.  1.
         -6    2    1    2    0  503 -0.25155573430E+03  0.17538495646E+03 -0.80924978698E+02  0.36050739496E+03  0.17139591370E+03 0.  0.
        -24    2    3    3    0    0 -0.20188938023E+03  0.19827005877E+03 -0.52324306001E+02  0.29861585181E+03  0.79770018792E+02 0.  0.
          6    2    1    2  501    0  0.25155573430E+03 -0.17538495646E+03 -0.12992792560E+03  0.37490506961E+03  0.17214056743E+03 0.  0.
         24    2    5    5    0    0  0.16262162292E+03 -0.44207089605E+02 -0.10673388177E+03  0.21466474201E+03  0.79301771304E+02 0.  0.
          5    1    5    5  501    0  0.88934111378E+02 -0.13117786686E+03 -0.23194043827E+02  0.16024032760E+03  0.47000000000E+01 0. -1.
        -11    1    6    6    0    0  0.69448753335E+02 -0.12211456428E+02 -0.90651011991E+02  0.11484709392E+03  0.00000000000E+00 0.  1.
         12    1    6    6    0    0  0.93172869583E+02 -0.31995633176E+02 -0.16082869780E+02  0.99817648084E+02  0.00000000000E+00 0. -1.
         -5    1    3    3    0  503 -0.49666354070E+02 -0.22885102315E+02 -0.28600672697E+02  0.61891543148E+02  0.47000000000E+01 0.  1.
         11    1    4    4    0    0 -0.17226698868E+03  0.15555838822E+03 -0.11273839263E+02  0.23238207114E+03  0.00000000000E+00 0. -1.
        -12    1    4    4    0    0 -0.29622391546E+02  0.42711670558E+02 -0.41050466738E+02  0.66233780673E+02  0.00000000000E+00 0.  1.
</event>
<event>
12    1  0.9962621E-001  0.1767398E+03  0.7818608E-02  0.1170997E+00
         21   -1    0    0  503  502  0.00000000000E+00  0.00000000000E+00  0.59121610328E+03  0.59121610328E+03  0.00000000000E+00 0.  1.
         21   -1    0    0  501  503 -0.00000000000E+00 -0.00000000000E+00 -0.77837205004E+02  0.77837205004E+02  0.00000000000E+00 0.  1.
          6    2    1    2  501    0  0.14655379457E+02 -0.35427981663E+02  0.44628565594E+03  0.48000709818E+03  0.17252827470E+03 0.  0.
         24    2    3    3    0    0  0.16317681327E+02  0.42550018660E+02  0.16392407549E+03  0.18703357736E+03  0.77676803004E+02 0.  0.
         -6    2    1    2    0  502 -0.14655379457E+02  0.35427981663E+02  0.67093242335E+02  0.18904621011E+03  0.17253128515E+03 0.  0.
        -24    2    5    5    0    0  0.10443087512E+01  0.69738187365E+02 -0.96196434970E+01  0.10342712767E+03  0.75763631373E+02 0.  0.
          5    1    3    3  501    0 -0.16623018704E+01 -0.77978000323E+02  0.28236158046E+03  0.29297352082E+03  0.47000000000E+01 0. -1.
        -11    1    4    4    0    0 -0.29981486695E+02  0.60073448610E+01  0.65570786421E+02  0.72349884371E+02  0.00000000000E+00 0.  1.
         12    1    4    4    0    0  0.46299168022E+02  0.36542673799E+02  0.98353289067E+02  0.11468369299E+03  0.00000000000E+00 0. -1.
         -5    1    5    5    0  502 -0.15699688208E+02 -0.34310205702E+02  0.76712885832E+02  0.85619082440E+02  0.47000000000E+01 0.  1.
         13    1    6    6    0    0  0.30756196577E+02  0.65670831435E+02 -0.11298737031E+02  0.73391165597E+02  0.00000000000E+00 0. -1.
        -14    1    6    6    0    0 -0.29711887825E+02  0.40673559300E+01  0.16790935336E+01  0.30035962071E+02  0.00000000000E+00 0.  1.
</event>
<event>
12    1  0.9962621E-001  0.2207249E+03  0.7818608E-02  0.1133556E+00
         21   -1    0    0  503  502  0.00000000000E+00  0.00000000000E+00  0.90200882124E+02  0.90200882124E+02  0.00000000000E+00 0.  1.
         21   -1    0    0  501  503 -0.00000000000E+00 -0.00000000000E+00 -0.53840149278E+03  0.53840149278E+03  0.00000000000E+00 0.  1.
          6    2    1    2  501    0 -0.52392385103E+02 -0.12640547148E+03 -0.20955156032E+03  0.30352876991E+03  0.17173978133E+03 0.  0.
         24    2    3    3    0    0 -0.78975613672E+02 -0.14723112532E+03 -0.17991045194E+03  0.25835066453E+03  0.80393677180E+02 0.  0.
         -6    2    1    2    0  502  0.52392385103E+02  0.12640547148E+03 -0.23864905033E+03  0.32507360499E+03  0.17319403628E+03 0.  0.
        -24    2    5    5    0    0  0.77008319044E+02  0.70574006906E+02 -0.77785708057E+02  0.15296258987E+03  0.80224471755E+02 0.  0.
          5    1    3    3  501    0  0.26583228569E+02  0.20825653837E+02 -0.29641108386E+02  0.45178105375E+02  0.47000000000E+01 0. -1.
        -11    1    4    4    0    0 -0.43832494915E+02 -0.33716058817E+02 -0.19323601726E+02  0.58578680561E+02  0.00000000000E+00 0.  1.
         12    1    4    4    0    0 -0.35143118757E+02 -0.11351506650E+03 -0.16058685021E+03  0.19977198397E+03  0.00000000000E+00 0. -1.
         -5    1    5    5    0  502 -0.24615933942E+02  0.55831464578E+02 -0.16086334227E+03  0.17211101512E+03  0.47000000000E+01 0.  1.
         11    1    6    6    0    0  0.51287212807E+02 -0.24937827359E+01 -0.15714166194E+02  0.53698530418E+02  0.00000000000E+00 0. -1.
        -12    1    6    6    0    0  0.25721106237E+02  0.73067789642E+02 -0.62071541864E+02  0.99264059450E+02  0.00000000000E+00 0.  1.
</event>
<event>
12    1  0.9962621E-001  0.2976480E+03  0.7818608E-02  0.1086438E+00
         21   -1    0    0  501  502  0.00000000000E+00  0.00000000000E+00  0.19448486966E+04  0.19448486966E+04  0.00000000000E+00 0. -1.
         21   -1    0    0  502  503 -0.00000000000E+00 -0.00000000000E+00 -0.46161068415E+02  0.46161068415E+02  0.00000000000E+00 0. -1.
         -6    2    1    2    0  503  0.94256329228E+02 -0.22354471489E+03  0.10655323398E+04  0.11063243183E+04  0.17244661500E+03 0.  0.
        -24    2    3    3    0    0  0.13168170874E+03 -0.20281381620E+03  0.90563101725E+03  0.94073158859E+03  0.79591870810E+02 0.  0.
          6    2    1    2  501    0 -0.94256329228E+02  0.22354471489E+03  0.83315528837E+03  0.88468544666E+03  0.17223272002E+03 0.  0.
         24    2    5    5    0    0 -0.11371388005E+03  0.11053462385E+03  0.58700774352E+03  0.61309645426E+03  0.78488353827E+02 0.  0.
          5    1    5    5  501    0  0.19457550819E+02  0.11301009104E+03  0.24614754485E+03  0.27158899240E+03  0.47000000000E+01 0. -1.
        -11    1    6    6    0    0 -0.89169120116E+02  0.11330445897E+03  0.41520752028E+03  0.43952965463E+03  0.00000000000E+00 0.  1.
         12    1    6    6    0    0 -0.24544759930E+02 -0.27698351201E+01  0.17180022324E+03  0.17356679963E+03  0.00000000000E+00 0. -1.
         -5    1    3    3    0  503 -0.37425379517E+02 -0.20730898687E+02  0.15990132252E+03  0.16559272972E+03  0.47000000000E+01 0.  1.
         13    1    4    4    0    0  0.24629589800E+02  0.93212556905E-01  0.71301763528E+02  0.75435846019E+02  0.00000000000E+00 0. -1.
        -14    1    4    4    0    0  0.10705211894E+03 -0.20290702876E+03  0.83432925372E+03  0.86529574257E+03  0.00000000000E+00 0.  1.
</event>
<event>
12    1  0.9962621E-001  0.3370157E+03  0.7818608E-02  0.1068280E+00
         21   -1    0    0  501  502  0.00000000000E+00  0.00000000000E+00  0.97776692418E+03  0.97776692418E+03  0.00000000000E+00 0.  1.
         21   -1    0    0  502  503 -0.00000000000E+00 -0.00000000000E+00 -0.11600968753E+03  0.11600968753E+03  0.00000000000E+00 0.  1.
         -6    2    1    2    0  503 -0.25334149685E+03 -0.14091504871E+03  0.39609366038E+03  0.52006706016E+03  0.17187377430E+03 0.  0.
        -24    2    3    3    0    0 -0.17021592997E+03 -0.15883616440E+03  0.33178976491E+03  0.41335198517E+03  0.81074198181E+02 0.  0.
          6    2    1    2  501    0  0.25334149685E+03  0.14091504871E+03  0.46566357627E+03  0.57370955155E+03  0.16811043484E+03 0.  0.
         24    2    5    5    0    0  0.15604232531E+03  0.15745278502E+03  0.30559689394E+03  0.38560304370E+03  0.78483494608E+02 0.  0.
          5    1    5    5  501    0  0.97299171544E+02 -0.16537736312E+02  0.16006668233E+03  0.18810650786E+03  0.47000000000E+01 0. -1.
        -11    1    6    6    0    0  0.43720570978E+02  0.98440971008E+02  0.15370801283E+03  0.18769194524E+03  0.00000000000E+00 0.  1.
         12    1    6    6    0    0  0.11232175433E+03  0.59011814013E+02  0.15188888111E+03  0.19791109846E+03  0.00000000000E+00 0. -1.
         -5    1    3    3    0  503 -0.83125566882E+02  0.17921115689E+02  0.64303895470E+02  0.10671507499E+03  0.47000000000E+01 0.  1.
         11    1    4    4    0    0 -0.72158218744E+02 -0.19868942141E+02  0.80520624540E+02  0.10993249915E+03  0.00000000000E+00 0. -1.
        -12    1    4    4    0    0 -0.98057711223E+02 -0.13896722226E+03  0.25126914037E+03  0.30341948602E+03  0.00000000000E+00 0.  1.
</event>
<event>
12    1  0.9962621E-001  0.2602564E+03  0.7818608E-02  0.1107020E+00
         21   -1    0    0  501  502  0.00000000000E+00  0.00000000000E+00  0.80821170076E+02  0.80821170076E+02  0.00000000000E+00 0. -1.
         21   -1    0    0  502  503 -0.00000000000E+00 -0.00000000000E+00 -0.85982007397E+03  0.85982007397E+03  0.00000000000E+00 0.  1.
         -6    2    1    2    0  503  0.18613115968E+03 -0.59731672922E+02 -0.46528325620E+03  0.53302510403E+03  0.17150676858E+03 0.  0.
        -24    2    3    3    0    0  0.11144861741E+03 -0.12748468232E+02 -0.40065942339E+03  0.42355714794E+03  0.79305524745E+02 0.  0.
          6    2    1    2  501    0 -0.18613115968E+03  0.59731672922E+02 -0.31371564769E+03  0.40761614002E+03  0.17181597319E+03 0.  0.
         24    2    5    5    0    0 -0.51173817227E+02 -0.29367463116E+02 -0.11972878410E+03  0.15501935942E+03  0.78834082681E+02 0.  0.
          5    1    5    5  501    0 -0.13495734245E+03  0.89099136037E+02 -0.19398686359E+03  0.25259678060E+03  0.47000000000E+01 0. -1.
        -11    1    6    6    0    0 -0.10350066326E+02 -0.75841313448E+01 -0.10597165327E+03  0.10674565198E+03  0.00000000000E+00 0.  1.
         12    1    6    6    0    0 -0.40823750901E+02 -0.21783331771E+02 -0.13757130836E+02  0.48273707435E+02  0.00000000000E+00 0. -1.
         -5    1    3    3    0  503  0.74682542273E+02 -0.46983204690E+02 -0.64623832813E+02  0.10946795609E+03  0.47000000000E+01 0.  1.
         11    1    4    4    0    0  0.62589936167E+01  0.14727623888E+01  0.23174936402E+01  0.68348231081E+01  0.00000000000E+00 0. -1.
        -12    1    4    4    0    0  0.10518962379E+03 -0.14221230621E+02 -0.40297691703E+03  0.41672232483E+03  0.00000000000E+00 0.  1.
</event>
<event>
12    1  0.9962621E-001  0.2172467E+03  0.7818608E-02  0.1136475E+00
         21   -1    0    0  501  502  0.00000000000E+00  0.00000000000E+00  0.95813461345E+02  0.95813461345E+02  0.00000000000E+00 0. -1.
         21   -1    0    0  502  503 -0.00000000000E+00 -0.00000000000E+00 -0.81718038337E+03  0.81718038337E+03  0.00000000000E+00 0.  1.
         -6    2    1    2    0  503 -0.52988474279E+02  0.11889291561E+03 -0.68886038974E+02  0.22529663882E+03  0.17049922378E+03 0.  0.
        -24    2    3    3    0    0 -0.61864786060E+02  0.12251810745E+03 -0.41099015317E+01  0.15964628537E+03  0.81437747598E+02 0.  0.
          6    2    1    2  501    0  0.52988474279E+02 -0.11889291561E+03 -0.65248088305E+03  0.68769720590E+03  0.17393343686E+03 0.  0.
         24    2    5    5    0    0  0.83540014179E+02 -0.10961268029E+03 -0.36123501822E+03  0.39466860125E+03  0.79238202748E+02 0.  0.
          5    1    5    5  501    0 -0.30551539900E+02 -0.92802353223E+01 -0.29124586484E+03  0.29302860465E+03  0.47000000000E+01 0. -1.
        -11    1    6    6    0    0  0.21272237072E+02 -0.39568572503E+02 -0.22416018440E+03  0.22861751523E+03  0.00000000000E+00 0.  1.
         12    1    6    6    0    0  0.62267777106E+02 -0.70044107787E+02 -0.13707483382E+03  0.16605108602E+03  0.00000000000E+00 0. -1.
         -5    1    3    3    0  503  0.88763117811E+01 -0.36251918392E+01 -0.64776137442E+02  0.65650353454E+02  0.47000000000E+01 0.  1.
         13    1    4    4    0    0  0.11556726633E+02  0.25140913691E+02  0.21488080576E+02  0.35033713456E+02  0.00000000000E+00 0. -1.
        -14    1    4    4    0    0 -0.73421512693E+02  0.97377193760E+02 -0.25597982108E+02  0.12461257191E+03  0.00000000000E+00 0.  1.
</event>
<event>
12    1  0.9962621E-001  0.2255089E+03  0.7818608E-02  0.1129895E+00
         21   -1    0    0  503  502  0.00000000000E+00  0.00000000000E+00  0.13050868799E+03  0.13050868799E+03  0.00000000000E+00 0.  1.
         21   -1    0    0  501  503 -0.00000000000E+00 -0.00000000000E+00 -0.41630981884E+03  0.41630981884E+03  0.00000000000E+00 0.  1.
          6    2    1    2  501    0 -0.74315595328E+02  0.12589022729E+03 -0.21283150047E+03  0.31008307642E+03  0.17170646364E+03 0.  0.
         24    2    3    3    0    0 -0.51345724562E+01  0.85613511793E+01 -0.43469991793E+02  0.92695197926E+02  0.81259454611E+02 0.  0.
         -6    2    1    2    0  502  0.74315595328E+02 -0.12589022729E+03 -0.72969630372E+02  0.23673543041E+03  0.17131240474E+03 0.  0.
        -24    2    5    5    0    0 -0.16808014990E+02 -0.67872053646E+02 -0.73590339226E+02  0.12860543406E+03  0.78960082372E+02 0.  0.
          5    1    3    3  501    0 -0.69181022872E+02  0.11732887612E+03 -0.16936150868E+03  0.21738787850E+03  0.47000000000E+01 0. -1.
        -11    1    4    4    0    0 -0.16502365253E+02 -0.26847587824E+02  0.46760493468E+01  0.31858852277E+02  0.00000000000E+00 0.  1.
         12    1    4    4    0    0  0.11367792797E+02  0.35408939003E+02 -0.48146041140E+02  0.60836345649E+02  0.00000000000E+00 0. -1.
         -5    1    5    5    0  502  0.91123610318E+02 -0.58018173648E+02  0.62070885417E+00  0.10812999635E+03  0.47000000000E+01 0.  1.
         13    1    6    6    0    0  0.10625894752E+02 -0.52775609015E+02 -0.80208797403E+02  0.96600340202E+02  0.00000000000E+00 0. -1.
        -14    1    6    6    0    0 -0.27433909742E+02 -0.15096444631E+02  0.66184581766E+01  0.32005093858E+02  0.00000000000E+00 0.  1.
</event>
<event>
12    1  0.9962621E-001  0.2158234E+03  0.7818608E-02  0.1137036E+00
         21   -1    0    0  503  502  0.00000000000E+00  0.00000000000E+00  0.67160205465E+03  0.67160205465E+03  0.00000000000E+00 0.  1.
         21   -1    0    0  501  503 -0.00000000000E+00 -0.00000000000E+00 -0.82310789741E+02  0.82310789741E+02  0.00000000000E+00 0.  1.
          6    2    1    2  501    0 -0.61206277098E+02  0.11415370517E+03  0.14509884642E+03  0.26006401880E+03  0.17263354796E+03 0.  0.
         24    2    3    3    0    0 -0.41773327651E+01 -0.26843195586E+01  0.28683114390E+02  0.85484131133E+02  0.80375120180E+02 0.  0.
         -6    2    1    2    0  502  0.61206277098E+02 -0.11415370517E+03  0.44419241848E+03  0.49384882558E+03  0.17263395128E+03 0.  0.
        -24    2    5    5    0    0  0.72441961641E+02 -0.13082981045E+03  0.44092391286E+03  0.47294174010E+03  0.83040444908E+02 0.  0.
          5    1    3    3  501    0 -0.57028944333E+02  0.11683802473E+03  0.11641573203E+03  0.17457988767E+03  0.47000000000E+01 0. -1.
        -13    1    4    4    0    0 -0.18637276854E+02 -0.18825963861E+02  0.49048673502E+02  0.55745290170E+02  0.00000000000E+00 0.  1.
         14    1    4    4    0    0  0.14459944089E+02  0.16141644303E+02 -0.20365559112E+02  0.29738840963E+02  0.00000000000E+00 0. -1.
         -5    1    5    5    0  502 -0.11235684543E+02  0.16676105276E+02  0.32685056183E+01  0.20907085481E+02  0.47000000000E+01 0.  1.
         13    1    6    6    0    0  0.18280557799E+02  0.30045572360E+01  0.11483830476E+03  0.11632300890E+03  0.00000000000E+00 0. -1.
        -14    1    6    6    0    0  0.54161403842E+02 -0.13383436768E+03  0.32608560810E+03  0.35661873121E+03  0.00000000000E+00 0.  1.
</event>
<event>
12    1  0.9962621E-001  0.2100038E+03  0.7818608E-02  0.1142080E+00
         21   -1    0    0  501  502  0.00000000000E+00  0.00000000000E+00  0.44623162816E+03  0.44623162816E+03  0.00000000000E+00 0.  1.
         21   -1    0    0  502  503 -0.00000000000E+00 -0.00000000000E+00 -0.99889791361E+02  0.99889791361E+02  0.00000000000E+00 0.  1.
         -6    2    1    2    0  503  0.11110122102E+03 -0.43073657713E+02  0.13301624673E+03  0.24858583938E+03  0.17292419248E+03 0.  0.
        -24    2    3    3    0    0  0.11754652152E+03 -0.16803384458E+02  0.26453165971E+02  0.13854289623E+03  0.66293481256E+02 0.  0.
          6    2    1    2  501    0 -0.11110122102E+03  0.43073657713E+02  0.21332559007E+03  0.29753558014E+03  0.16976687772E+03 0.  0.
         24    2    5    5    0    0 -0.63458940500E+01 -0.92126380577E+01  0.40804097509E+02  0.88985129051E+02  0.78283048915E+02 0.  0.
          5    1    5    5  501    0 -0.10475532697E+03  0.52286295771E+02  0.17252149256E+03  0.20855045109E+03  0.47000000000E+01 0. -1.
        -13    1    6    6    0    0  0.11714596140E+02  0.31355161493E+02  0.25270884165E+02  0.41940380321E+02  0.00000000000E+00 0.  1.
         14    1    6    6    0    0 -0.18060490190E+02 -0.40567799551E+02  0.15533213344E+02  0.47044748730E+02  0.00000000000E+00 0. -1.
         -5    1    3    3    0  503 -0.64453004916E+01 -0.26270273255E+02  0.10656308076E+03  0.11004294315E+03  0.47000000000E+01 0.  1.
         11    1    4    4    0    0  0.94701249982E+02  0.34140348401E+01 -0.47800559097E+01  0.94883250980E+02  0.00000000000E+00 0. -1.
        -12    1    4    4    0    0  0.22845271533E+02 -0.20217419298E+02  0.31233221881E+02  0.43659645252E+02  0.00000000000E+00 0.  1.
</event>
<event>
12    1  0.9962621E-001  0.2793950E+03  0.7818608E-02  0.1096189E+00
         21   -1    0    0  503  502  0.00000000000E+00  0.00000000000E+00  0.99128930896E+02  0.99128930896E+02  0.00000000000E+00 0. -1.
         21   -1    0    0  501  503 -0.00000000000E+00 -0.00000000000E+00 -0.81098329421E+03  0.81098329421E+03  0.00000000000E+00 0. -1.
          6    2    1    2  501    0 -0.21777868321E+03  0.33976740939E+02 -0.27218419070E+03  0.38917898840E+03  0.16968817744E+03 0.  0.
         24    2    3    3    0    0 -0.10494524017E+03  0.79149299974E+01 -0.23121587471E+03  0.26625178729E+03  0.79706235447E+02 0.  0.
         -6    2    1    2    0  502  0.21777868321E+03 -0.33976740939E+02 -0.43967017261E+03  0.52093323670E+03  0.17169625107E+03 0.  0.
        -24    2    5    5    0    0  0.57778432658E+02 -0.51034816785E+02 -0.12361028568E+03  0.16624041150E+03  0.80084155007E+02 0.  0.
          5    1    3    3  501    0 -0.11283344304E+03  0.26061810941E+02 -0.40968315996E+02  0.12292720111E+03  0.47000000000E+01 0. -1.
        -13    1    4    4    0    0 -0.28792439003E+02  0.36224397094E+02 -0.52790653115E+02  0.70200174821E+02  0.00000000000E+00 0.  1.
         14    1    4    4    0    0 -0.76152801165E+02 -0.28309467097E+02 -0.17842522159E+03  0.19605161247E+03  0.00000000000E+00 0. -1.
         -5    1    5    5    0  502  0.16000025055E+03  0.17058075846E+02 -0.31605988692E+03  0.35469282520E+03  0.47000000000E+01 0.  1.
         11    1    6    6    0    0  0.16278082859E+02  0.14326497017E+02 -0.66740884440E+02  0.70175281647E+02  0.00000000000E+00 0. -1.
        -12    1    6    6    0    0  0.41500349798E+02 -0.65361313802E+02 -0.56869401244E+02  0.96065129850E+02  0.00000000000E+00 0.  1.
</event>
<event>
12    1  0.9962621E-001  0.1791886E+03  0.7818608E-02  0.1169118E+00
         21   -1    0    0  501  502  0.00000000000E+00  0.00000000000E+00  0.66572832172E+02  0.66572832172E+02  0.00000000000E+00 0.  1.
         21   -1    0    0  502  503 -0.00000000000E+00 -0.00000000000E+00 -0.97905860186E+03  0.97905860186E+03  0.00000000000E+00 0.  1.
         -6    2    1    2    0  503  0.36062249379E+02  0.18318782953E+02 -0.80339961485E+02  0.19441160643E+03  0.17235225459E+03 0.  0.
        -24    2    3    3    0    0  0.43365221925E+02  0.16717762800E+02  0.12234348791E+02  0.10141703886E+03  0.89306832971E+02 0.  0.
          6    2    1    2  501    0 -0.36062249379E+02 -0.18318782953E+02 -0.83214580821E+03  0.85121982761E+03  0.17456369944E+03 0.  0.
         24    2    5    5    0    0 -0.35977196608E+02 -0.80264878150E+01 -0.16460662361E+03  0.18358475398E+03  0.72451626443E+02 0.  0.
          5    1    5    5  501    0 -0.85052770359E-01 -0.10292295138E+02 -0.66753918460E+03  0.66763507363E+03  0.47000000000E+01 0. -1.
        -13    1    6    6    0    0 -0.40760490803E+01 -0.27096208104E+02 -0.19086281934E+02  0.33393185349E+02  0.00000000000E+00 0.  1.
         14    1    6    6    0    0 -0.31901147528E+02  0.19069720289E+02 -0.14552034168E+03  0.15019156863E+03  0.00000000000E+00 0. -1.
         -5    1    3    3    0  503 -0.73029725460E+01  0.16010201531E+01 -0.92574310276E+02  0.92994567565E+02  0.47000000000E+01 0.  1.
         11    1    4    4    0    0 -0.20226492255E+02  0.27699806995E+02  0.13530701560E+02  0.36870993765E+02  0.00000000000E+00 0. -1.
        -12    1    4    4    0    0  0.63591714180E+02 -0.10982044195E+02 -0.12963527692E+01  0.64546045096E+02  0.00000000000E+00 0.  1.
</event>
<event>
12    1  0.9962621E-001  0.1889524E+03  0.7818608E-02  0.1160065E+00
         21   -1    0    0  503  502  0.00000000000E+00  0.00000000000E+00  0.94021748127E+03  0.94021748127E+03  0.00000000000E+00 0.  1.
         21   -1    0    0  501  503 -0.00000000000E+00 -0.00000000000E+00 -0.39105430454E+02  0.39105430454E+02  0.00000000000E+00 0. -1.
          6    2    1    2  501    0 -0.35791291713E+02  0.63783785559E+02  0.35158652427E+03  0.39914418166E+03  0.17422286257E+03 0.  0.
         24    2    3    3    0    0 -0.43005919671E+02  0.38589492905E+02  0.35848956769E+03  0.37163881405E+03  0.79132672642E+02 0.  0.
         -6    2    1    2    0  502  0.35791291713E+02 -0.63783785559E+02  0.54952552654E+03  0.58017873006E+03  0.17111302298E+03 0.  0.
        -24    2    5    5    0    0 -0.16297967042E+02 -0.94342667304E+02  0.37542125784E+03  0.39583795185E+03  0.81119668912E+02 0.  0.
          5    1    3    3  501    0  0.72146279582E+01  0.25194292655E+02 -0.69030434145E+01  0.27505367609E+02  0.47000000000E+01 0. -1.
        -13    1    4    4    0    0 -0.45793123383E+02  0.59483233639E+02  0.24628554704E+03  0.25747200996E+03  0.00000000000E+00 0.  1.
         14    1    4    4    0    0  0.27872037125E+01 -0.20893740734E+02  0.11220402065E+03  0.11416680409E+03  0.00000000000E+00 0. -1.
         -5    1    5    5    0  502  0.52089258755E+02  0.30558881744E+02  0.17410426870E+03  0.18434077821E+03  0.47000000000E+01 0.  1.
         13    1    6    6    0    0  0.21506664307E+02  0.20455131904E+01  0.76590390485E+02  0.79578946012E+02  0.00000000000E+00 0. -1.
        -14    1    6    6    0    0 -0.37804631349E+02 -0.96388180494E+02  0.29883086736E+03  0.31625900584E+03  0.00000000000E+00 0.  1.
</event>
<event>
12    1  0.9962621E-001  0.1937064E+03  0.7818608E-02  0.1155350E+00
         21   -1    0    0  501  502  0.00000000000E+00  0.00000000000E+00  0.68752079127E+02  0.68752079127E+02  0.00000000000E+00 0. -1.
         21   -1    0    0  502  503 -0.00000000000E+00 -0.00000000000E+00 -0.58837924085E+03  0.58837924085E+03  0.00000000000E+00 0. -1.
         -6    2    1    2    0  503 -0.84470154277E+02  0.17868991629E+02 -0.35126302188E+03  0.40113325119E+03  0.17340030809E+03 0.  0.
        -24    2    3    3    0    0 -0.84997850724E+02  0.22973569979E+02 -0.11868338220E+03  0.16844953028E+03  0.80852207734E+02 0.  0.
          6    2    1    2  501    0  0.84470154277E+02 -0.17868991629E+02 -0.16836413984E+03  0.25599806878E+03  0.17243555263E+03 0.  0.
         24    2    5    5    0    0 -0.85866707243E+01 -0.48405844557E+02 -0.65590930657E+02  0.11395408056E+03  0.79161263186E+02 0.  0.
          5    1    5    5  501    0  0.93056825001E+02  0.30536852929E+02 -0.10277320918E+03  0.14204398823E+03  0.47000000000E+01 0. -1.
        -13    1    6    6    0    0  0.19676917698E+02  0.52904060362E+01  0.48861200029E+01  0.20953368579E+02  0.00000000000E+00 0.  1.
         14    1    6    6    0    0 -0.28263588422E+02 -0.53696250594E+02 -0.70477050660E+02  0.93000711976E+02  0.00000000000E+00 0. -1.
         -5    1    3    3    0  503  0.52769644686E+00 -0.51045783502E+01 -0.23257963968E+03  0.23268372091E+03  0.47000000000E+01 0.  1.
         13    1    4    4    0    0 -0.95279811965E+01  0.14608763757E+02  0.92023930266E+01  0.19720102474E+02  0.00000000000E+00 0. -1.
        -14    1    4    4    0    0 -0.75469869528E+02  0.83648062222E+01 -0.12788577523E+03  0.14872942781E+03  0.00000000000E+00 0.  1.
</event>
<event>
12    1  0.9962621E-001  0.4120656E+03  0.7818608E-02  0.1039744E+00
         21   -1    0    0  501  502  0.00000000000E+00  0.00000000000E+00  0.77122137667E+03  0.77122137667E+03  0.00000000000E+00 0. -1.
         21   -1    0    0  502  503 -0.00000000000E+00 -0.00000000000E+00 -0.29176959304E+03  0.29176959304E+03  0.00000000000E+00 0. -1.
         -6    2    1    2    0  503 -0.75783983666E+02  0.36631450630E+03 -0.24153686431E+02  0.41277293269E+03  0.17282524032E+03 0.  0.
        -24    2    3    3    0    0 -0.95343446476E+02  0.36883831271E+03 -0.12416493166E+02  0.38934658236E+03  0.79400996125E+02 0.  0.
          6    2    1    2  501    0  0.75783983666E+02 -0.36631450630E+03  0.50360547006E+03  0.65021803701E+03  0.17098390706E+03 0.  0.
         24    2    5    5    0    0  0.92322708177E+02 -0.36205080263E+03  0.43316439445E+03  0.57758372204E+03  0.79795345862E+02 0.  0.
          5    1    5    5  501    0 -0.16538724511E+02 -0.42637036679E+01  0.70441075609E+02  0.72634314965E+02  0.47000000000E+01 0. -1.
        -13    1    6    6    0    0  0.32650253492E+02 -0.23153977581E+03  0.31115034957E+03  0.38921876480E+03  0.00000000000E+00 0.  1.
         14    1    6    6    0    0  0.59672454685E+02 -0.13051102682E+03  0.12201404488E+03  0.18836495725E+03  0.00000000000E+00 0. -1.
         -5    1    3    3    0  503  0.19559462810E+02 -0.25238064114E+01 -0.11737193265E+02  0.23426350333E+02  0.47000000000E+01 0.  1.
         13    1    4    4    0    0 -0.50268986031E+02  0.13158056243E+03 -0.39608797728E+02  0.14631907676E+03  0.00000000000E+00 0. -1.
        -14    1    4    4    0    0 -0.45074460445E+02  0.23725775028E+03  0.27192304563E+02  0.24302750560E+03  0.00000000000E+00 0.  1.
</event>
<event>
12    1  0.9962621E-001  0.4131643E+03  0.7818608E-02  0.1039321E+00
         21   -1    0    0  503  502  0.00000000000E+00  0.00000000000E+00  0.15737849001E+04  0.15737849001E+04  0.00000000000E+00 0.  1.
         21   -1    0    0  501  503 -0.00000000000E+00 -0.00000000000E+00 -0.10857413155E+03  0.10857413155E+03  0.00000000000E+00 0.  1.
          6    2    1    2  501    0 -0.14611557554E+02  0.37516696406E+03  0.76124752779E+03  0.86610602198E+03  0.17227331254E+03 0.  0.
         24    2    3    3    0    0 -0.15447435057E+02  0.28365123798E+03  0.41264375122E+03  0.50565836996E+03  0.68694058206E+02 0.  0.
         -6    2    1    2    0  502  0.14611557554E+02 -0.37516696406E+03  0.70396324074E+03  0.81625300964E+03  0.17245574185E+03 0.  0.
        -24    2    5    5    0    0  0.18203265959E+02 -0.13181099310E+03  0.17869505918E+03  0.23731969610E+03  0.81750946084E+02 0.  0.
          5    1    3    3  501    0  0.83587750261E+00  0.91515726084E+02  0.34860377657E+03  0.36044765203E+03  0.47000000000E+01 0. -1.
        -13    1    4    4    0    0 -0.33506082564E+02  0.24624742690E+03  0.32943881217E+03  0.41266255438E+03  0.00000000000E+00 0.  1.
         14    1    4    4    0    0  0.18058647507E+02  0.37403811078E+02  0.83204939050E+02  0.92995815580E+02  0.00000000000E+00 0. -1.
         -5    1    5    5    0  502 -0.35917084044E+01 -0.24335597096E+03  0.52526818156E+03  0.57893331355E+03  0.47000000000E+01 0.  1.
         11    1    6    6    0    0 -0.25374041640E+02 -0.79421789428E+02  0.12640077991E+03  0.15142265282E+03  0.00000000000E+00 0. -1.
        -12    1    6    6    0    0  0.43577307598E+02 -0.52389203676E+02  0.52294279267E+02  0.85897043276E+02  0.00000000000E+00 0.  1.
</event>
<event>
12    1  0.9962621E-001  0.2409105E+03  0.7818608E-02  0.1119638E+00
         21   -1    0    0  503  502  0.00000000000E+00  0.00000000000E+00  0.29892633618E+03  0.29892633618E+03  0.00000000000E+00 0. -1.
         21   -1    0    0  501  503 -0.00000000000E+00 -0.00000000000E+00 -0.33993235416E+03  0.33993235416E+03  0.00000000000E+00 0. -1.
          6    2    1    2  501    0  0.14719908165E+03  0.84185120910E+02  0.19016433058E+03  0.30692075139E+03  0.17112326198E+03 0.  0.
         24    2    3    3    0    0  0.14935076741E+03  0.11331562957E+03  0.13519919154E+03  0.24449901803E+03  0.79717405838E+02 0.  0.
         -6    2    1    2    0  502 -0.14719908165E+03 -0.84185120910E+02 -0.23117034856E+03  0.33193793894E+03  0.16729722364E+03 0.  0.
        -24    2    5    5    0    0 -0.50491088424E+02  0.17329744496E+02 -0.11333436847E+03  0.14873010054E+03  0.80164167015E+02 0.  0.
          5    1    3    3  501    0 -0.21516857609E+01 -0.29130508659E+02  0.54965139040E+02  0.62421733363E+02  0.47000000000E+01 0. -1.
        -13    1    4    4    0    0  0.34175079150E+02  0.42103331369E+02  0.15653332674E+01  0.54250131940E+02  0.00000000000E+00 0.  1.
         14    1    4    4    0    0  0.11517568826E+03  0.71212298200E+02  0.13363385828E+03  0.19024888609E+03  0.00000000000E+00 0. -1.
         -5    1    5    5    0  502 -0.96707993225E+02 -0.10151486541E+03 -0.11783598008E+03  0.18320783841E+03  0.47000000000E+01 0.  1.
         13    1    6    6    0    0  0.20251004847E+02 -0.46789316028E+01 -0.15101768847E+02  0.25691613818E+02  0.00000000000E+00 0. -1.
        -14    1    6    6    0    0 -0.70742093272E+02  0.22008676098E+02 -0.98232599627E+02  0.12303848672E+03  0.00000000000E+00 0.  1.
</event>
<event>
12    1  0.9962621E-001  0.2009615E+03  0.7818608E-02  0.1149355E+00
         21   -1    0    0  501  502  0.00000000000E+00  0.00000000000E+00  0.86127668433E+02  0.86127668433E+02  0.00000000000E+00 0.  1.
         21   -1    0    0  502  503 -0.00000000000E+00 -0.00000000000E+00 -0.66571548941E+03  0.66571548941E+03  0.00000000000E+00 0.  1.
         -6    2    1    2    0  503  0.93031705067E+02 -0.29139559568E+02 -0.49763105992E+03  0.53667697930E+03  0.17573131832E+03 0.  0.
        -24    2    3    3    0    0  0.12052046085E+03 -0.56040866799E+02 -0.40749498327E+03  0.43856523516E+03  0.92852269026E+02 0.  0.
          6    2    1    2  501    0 -0.93031705067E+02  0.29139559568E+02 -0.81956761060E+02  0.21516617854E+03  0.17342307120E+03 0.  0.
         24    2    5    5    0    0 -0.20131146344E+02 -0.44972120970E+02 -0.61028931809E+02  0.10901959738E+03  0.75716493437E+02 0.  0.
          5    1    5    5  501    0 -0.72900558723E+02  0.74111680538E+02 -0.20927829251E+02  0.10614658116E+03  0.47000000000E+01 0. -1.
        -11    1    6    6    0    0  0.16164336674E+02 -0.50313779618E+02 -0.43062895523E+02  0.68170192683E+02  0.00000000000E+00 0.  1.
         12    1    6    6    0    0 -0.36295483018E+02  0.53416586477E+01 -0.17966036286E+02  0.40849404701E+02  0.00000000000E+00 0. -1.
         -5    1    3    3    0  503 -0.27488755786E+02  0.26901307231E+02 -0.90136076642E+02  0.98111744138E+02  0.47000000000E+01 0.  1.
         13    1    4    4    0    0  0.10301114882E+03 -0.26804686917E+01 -0.30131648701E+03  0.31844953609E+03  0.00000000000E+00 0. -1.
        -14    1    4    4    0    0  0.17509312034E+02 -0.53360398107E+02 -0.10617849626E+03  0.12011569907E+03  0.00000000000E+00 0.  1.
</event>
<event>
12    1  0.9962621E-001  0.2487392E+03  0.7818608E-02  0.1114142E+00
         21   -1    0    0  501  502  0.00000000000E+00  0.00000000000E+00  0.45856660436E+03  0.45856660436E+03  0.00000000000E+00 0.  1.
         21   -1    0    0  502  503 -0.00000000000E+00 -0.00000000000E+00 -0.13903696257E+03  0.13903696257E+03  0.00000000000E+00 0.  1.
         -6    2    1    2    0  503  0.45827981460E+02  0.17342376406E+03  0.21187833175E+03  0.32656849082E+03  0.17198414434E+03 0.  0.
        -24    2    3    3    0    0  0.41945143247E+02  0.24038901369E+02  0.11779944515E+03  0.14992240244E+03  0.79137561599E+02 0.  0.
          6    2    1    2  501    0 -0.45827981460E+02 -0.17342376406E+03  0.10765131004E+03  0.27103507612E+03  0.17232295874E+03 0.  0.
         24    2    5    5    0    0 -0.16378087880E+02 -0.17150884744E+03  0.13331793976E+03  0.23164181503E+03  0.78744719796E+02 0.  0.
          5    1    5    5  501    0 -0.29449893580E+02 -0.19149166199E+01 -0.25666629726E+02  0.39393261086E+02  0.47000000000E+01 0. -1.
        -13    1    6    6    0    0  0.22479917116E+02 -0.13854199614E+02  0.25665848281E+02  0.36824194335E+02  0.00000000000E+00 0.  1.
         14    1    6    6    0    0 -0.38858004995E+02 -0.15765464783E+03  0.10765209148E+03  0.19481762070E+03  0.00000000000E+00 0. -1.
         -5    1    3    3    0  503  0.38828382130E+01  0.14938486269E+03  0.94078886604E+02  0.17664608838E+03  0.47000000000E+01 0.  1.
         11    1    4    4    0    0  0.12859070515E+02  0.34735095592E+02  0.10882349960E+02  0.38604508816E+02  0.00000000000E+00 0. -1.
        -12    1    4    4    0    0  0.29086072732E+02 -0.10696194223E+02  0.10691709519E+03  0.11131789363E+03  0.00000000000E+00 0.  1.
</event>
<event>
12    1  0.1151919E+000  0.2460079E+03  0.7818608E-02  0.1115923E+00
         21   -1    0    0  503  502  0.00000000000E+00  0.00000000000E+00  0.48314298018E+03  0.48314298018E+03  0.00000000000E+00 0. -1.
         21   -1    0    0  501  503 -0.00000000000E+00 -0.00000000000E+00 -0.81793902645E+03  0.81793902645E+03  0.00000000000E+00 0.  1.
          6    2    1    2  501    0 -0.14853589457E+03 -0.93809558473E+02  0.43133201986E+03  0.49655532758E+03  0.17221131424E+03 0.  0.
         24    2    3    3    0    0 -0.17291160053E+03 -0.70652922124E+02  0.30148594437E+03  0.36234467908E+03  0.74226914301E+02 0.  0.
         -6    2    1    2    0  502  0.14853589457E+03  0.93809558473E+02 -0.76612806613E+03  0.80452667905E+03  0.17160366651E+03 0.  0.
        -24    2    5    5    0    0  0.11192412934E+02  0.50838976565E+02 -0.39587070382E+03  0.40725812102E+03  0.80222760789E+02 0.  0.
          5    1    3    3  501    0  0.24375705964E+02 -0.23156636349E+02  0.12984607549E+03  0.13421064849E+03  0.47000000000E+01 0. -1.
        -11    1    4    4    0    0 -0.11671637039E+03 -0.59802718998E+02  0.14393964982E+03  0.19472467514E+03  0.00000000000E+00 0.  1.
         12    1    4    4    0    0 -0.56195230144E+02 -0.10850203125E+02  0.15754629454E+03  0.16762000395E+03  0.00000000000E+00 0. -1.
         -5    1    5    5    0  502  0.13734348163E+03  0.42970581908E+02 -0.37025736231E+03  0.39726855803E+03  0.47000000000E+01 0.  1.
         13    1    6    6    0    0  0.10239268454E+02  0.65815006630E+02 -0.37844394394E+03  0.38426068810E+03  0.00000000000E+00 0. -1.
        -14    1    6    6    0    0  0.95314448058E+00 -0.14976030065E+02 -0.17426759882E+02  0.22997432919E+02  0.00000000000E+00 0.  1.
</event>
<event>
12    1  0.9962621E-001  0.1741359E+03  0.7818608E-02  0.1173686E+00
         21   -1    0    0  501  502  0.00000000000E+00  0.00000000000E+00  0.95811432983E+02  0.95811432983E+02  0.00000000000E+00 0. -1.
         21   -1    0    0  502  503 -0.00000000000E+00 -0.00000000000E+00 -0.53388771773E+03  0.53388771773E+03  0.00000000000E+00 0. -1.
         -6    2    1    2    0  503 -0.18375422280E+02 -0.75435123436E+01 -0.42010486330E+03  0.45463839900E+03  0.17266562182E+03 0.  0.
        -24    2    3    3    0    0 -0.31099474800E+02  0.15241151151E+01 -0.42785437848E+03  0.43657549874E+03  0.81051197754E+02 0.  0.
          6    2    1    2  501    0  0.18375422280E+02  0.75435123436E+01 -0.17971421449E+02  0.17506075171E+03  0.17299923144E+03 0.  0.
         24    2    5    5    0    0  0.99546651125E+01  0.69960922164E+02 -0.32376936996E+02  0.11028073104E+03  0.78230093966E+02 0.  0.
          5    1    5    5  501    0  0.84207571673E+01 -0.62417409820E+02  0.14405515548E+02  0.64780020671E+02  0.47000000000E+01 0. -1.
        -13    1    6    6    0    0 -0.33413206743E+02  0.20675095667E+02 -0.70765383931E+01  0.39924671086E+02  0.00000000000E+00 0.  1.
         14    1    6    6    0    0  0.43367871856E+02  0.49285826497E+02 -0.25300398603E+02  0.70356059954E+02  0.00000000000E+00 0. -1.
         -5    1    3    3    0  503  0.12724052520E+02 -0.90676274586E+01  0.77495151818E+01  0.18062900260E+02  0.47000000000E+01 0.  1.
         11    1    4    4    0    0  0.11835531584E+02  0.22296423369E+02 -0.53061874866E+02  0.58760300095E+02  0.00000000000E+00 0. -1.
        -12    1    4    4    0    0 -0.42935006384E+02 -0.20772308254E+02 -0.37479250361E+03  0.37781519865E+03  0.00000000000E+00 0.  1.
</event>
<event>
12    1  0.9962621E-001  0.2269665E+03  0.7818608E-02  0.1128867E+00
         21   -1    0    0  503  502  0.00000000000E+00  0.00000000000E+00  0.10757952279E+04  0.10757952279E+04  0.00000000000E+00 0. -1.
         21   -1    0    0  501  503 -0.00000000000E+00 -0.00000000000E+00 -0.10898344310E+03  0.10898344310E+03  0.00000000000E+00 0. -1.
          6    2    1    2  501    0  0.78778814667E+02 -0.12654603219E+03  0.92746520846E+03  0.95483270949E+03  0.17115428800E+03 0.  0.
         24    2    3    3    0    0  0.10775760653E+03 -0.12694170567E+03  0.87207638986E+03  0.89214349063E+03  0.87617804796E+02 0.  0.
         -6    2    1    2    0  502 -0.78778814667E+02  0.12654603219E+03  0.39346576344E+02  0.22994596151E+03  0.17060771448E+03 0.  0.
        -24    2    5    5    0    0 -0.18886837384E+02  0.13372267896E+03  0.57134139066E+02  0.16688217959E+03  0.79667336631E+02 0.  0.
          5    1    3    3  501    0 -0.28978791862E+02  0.39567347999E+00  0.55388818604E+02  0.62689218863E+02  0.47000000000E+01 0. -1.
        -13    1    4    4    0    0  0.68705689090E+02 -0.12799352251E+03  0.60331255907E+03  0.62055528154E+03  0.00000000000E+00 0.  1.
         14    1    4    4    0    0  0.39051917438E+02  0.10518168390E+01  0.26876383079E+03  0.27158820908E+03  0.00000000000E+00 0. -1.
         -5    1    5    5    0  502 -0.59891977282E+02 -0.71766467614E+01 -0.17787562722E+02  0.63063781913E+02  0.47000000000E+01 0.  1.
         13    1    6    6    0    0 -0.38995307617E+02  0.32162118502E+02  0.33639193620E+02  0.60717635248E+02  0.00000000000E+00 0. -1.
        -14    1    6    6    0    0  0.20108470232E+02  0.10156056045E+03  0.23494945445E+02  0.10616454435E+03  0.00000000000E+00 0.  1.
</event>
<event>
12    1  0.9962621E-001  0.1976990E+03  0.7818608E-02  0.1154649E+00
         21   -1    0    0  503  502  0.00000000000E+00  0.00000000000E+00  0.95505960147E+02  0.95505960147E+02  0.00000000000E+00 0.  1.
         21   -1    0    0  501  503 -0.00000000000E+00 -0.00000000000E+00 -0.38287641504E+03  0.38287641504E+03  0.00000000000E+00 0.  1.
          6    2    1    2  501    0 -0.39010720142E+02 -0.60219647206E+02 -0.12855765182E+03  0.22479527291E+03  0.16987525625E+03 0.  0.
         24    2    3    3    0    0 -0.39614375745E+02  0.85125133570E+00 -0.78689750529E+01  0.89451762723E+02  0.79810235506E+02 0.  0.
         -6    2    1    2    0  502  0.39010720142E+02  0.60219647206E+02 -0.15881280307E+03  0.25358710228E+03  0.18421908106E+03 0.  0.
        -24    2    5    5    0    0  0.94999758025E+02  0.29920580412E+02 -0.75089292219E+02  0.14830404533E+03  0.80221523906E+02 0.  0.
          5    1    3    3  501    0  0.60365560312E+00 -0.61070898542E+02 -0.12068867677E+03  0.13534351019E+03  0.47000000000E+01 0. -1.
        -11    1    4    4    0    0  0.17001291897E+02  0.45178124442E+01 -0.24654072992E+02  0.30286595558E+02  0.00000000000E+00 0.  1.
         12    1    4    4    0    0 -0.56615667641E+02 -0.36665611085E+01  0.16785097939E+02  0.59165167165E+02  0.00000000000E+00 0. -1.
         -5    1    5    5    0  502 -0.55989037884E+02  0.30299066794E+02 -0.83723510853E+02  0.10528305695E+03  0.47000000000E+01 0.  1.
         11    1    6    6    0    0  0.34258227196E+02 -0.11014451670E+02  0.86900851377E+01  0.37019749539E+02  0.00000000000E+00 0. -1.
        -12    1    6    6    0    0  0.60741530829E+02  0.40935032083E+02 -0.83779377357E+02  0.11128429579E+03  0.00000000000E+00 0.  1.
</event>
<event>
12    1  0.9962621E-001  0.4275510E+03  0.7818608E-02  0.1034763E+00
         21   -1    0    0  501  502  0.00000000000E+00  0.00000000000E+00  0.31677962168E+03  0.31677962168E+03  0.00000000000E+00 0.  1.
         21   -1    0    0  502  503 -0.00000000000E+00 -0.00000000000E+00 -0.63157180835E+03  0.63157180835E+03  0.00000000000E+00 0.  1.
         -6    2    1    2    0  503  0.28457427445E+03  0.26734101736E+03 -0.29915557789E+03  0.52051461828E+03  0.17025766009E+03 0.  0.
        -24    2    3    3    0    0  0.51275333332E+02  0.85852268743E+02 -0.11270356663E+03  0.17101067795E+03  0.80887490912E+02 0.  0.
          6    2    1    2  501    0 -0.28457427445E+03 -0.26734101736E+03 -0.15636608774E+02  0.42783681176E+03  0.17420131091E+03 0.  0.
         24    2    5    5    0    0 -0.16135324067E+03 -0.23568099462E+03 -0.37306134225E+02  0.29869565435E+03  0.79037628856E+02 0.  0.
          5    1    5    5  501    0 -0.12322103378E+03 -0.31660022737E+02  0.21669525451E+02  0.12914115741E+03  0.47000000000E+01 0. -1.
        -13    1    6    6    0    0 -0.58574292822E+00 -0.17475197301E+01  0.10662479324E+02  0.10820600044E+02  0.00000000000E+00 0.  1.
         14    1    6    6    0    0 -0.16076749774E+03 -0.23393347489E+03 -0.47968613548E+02  0.28787505430E+03  0.00000000000E+00 0. -1.
         -5    1    3    3    0  503  0.23329894111E+03  0.18148874861E+03 -0.18645201126E+03  0.34950394032E+03  0.47000000000E+01 0.  1.
         11    1    4    4    0    0  0.63492928427E+02  0.88562580093E+02 -0.77695529542E+02  0.13383302232E+03  0.00000000000E+00 0. -1.
        -12    1    4    4    0    0 -0.12217595095E+02 -0.27103113492E+01 -0.35008037088E+02  0.37177655631E+02  0.00000000000E+00 0.  1.
</event>
<event>
12    1  0.9962621E-001  0.2001561E+03  0.7818608E-02  0.1152098E+00
         21   -1    0    0  503  502  0.00000000000E+00  0.00000000000E+00  0.46700005228E+03  0.46700005228E+03  0.00000000000E+00 0.  1.
         21   -1    0    0  501  503 -0.00000000000E+00 -0.00000000000E+00 -0.81130042684E+02  0.81130042684E+02  0.00000000000E+00 0.  1.
          6    2    1    2  501    0 -0.37857687060E+02 -0.65397530630E+02  0.17426478866E+03  0.25685831138E+03  0.17291019078E+03 0.  0.
         24    2    3    3    0    0  0.10569104154E+02 -0.91959426916E+02  0.10497664657E+03  0.16812486179E+03  0.93153801135E+02 0.  0.
         -6    2    1    2    0  502  0.37857687060E+02  0.65397530630E+02  0.21160522093E+03  0.29127178358E+03  0.18534411483E+03 0.  0.
        -24    2    5    5    0    0 -0.47062013322E+02  0.50464443247E+02  0.15636779007E+03  0.18876511853E+03  0.80124222754E+02 0.  0.
          5    1    3    3  501    0 -0.48426791213E+02  0.26561896285E+02  0.69288142090E+02  0.88733449588E+02  0.47000000000E+01 0. -1.
        -13    1    4    4    0    0 -0.24208058409E+02 -0.17909025405E+02 -0.55448980535E+01  0.30618771650E+02  0.00000000000E+00 0.  1.
         14    1    4    4    0    0  0.34777162563E+02 -0.74050401511E+02  0.11052154463E+03  0.13750609014E+03  0.00000000000E+00 0. -1.
         -5    1    5    5    0  502  0.84919700382E+02  0.14933087383E+02  0.55237430859E+02  0.10250666505E+03  0.47000000000E+01 0.  1.
         11    1    6    6    0    0 -0.20585270390E+01  0.35347675342E+02  0.12962329871E+02  0.37705671740E+02  0.00000000000E+00 0. -1.
        -12    1    6    6    0    0 -0.45003486283E+02  0.15116767905E+02  0.14340546020E+03  0.15105944679E+03  0.00000000000E+00 0.  1.
</event>
<event>
12    1  0.9962621E-001  0.1732893E+03  0.7818608E-02  0.1174522E+00
         21   -1    0    0  501  502  0.00000000000E+00  0.00000000000E+00  0.31725240349E+03  0.31725240349E+03  0.00000000000E+00 0.  1.
         21   -1    0    0  502  503 -0.00000000000E+00 -0.00000000000E+00 -0.27273152390E+03  0.27273152390E+03  0.00000000000E+00 0.  1.
         -6    2    1    2    0  503 -0.58029523002E+00  0.15132832838E+02  0.26071139056E+03  0.31291441457E+03  0.17238231438E+03 0.  0.
        -24    2    3    3    0    0  0.49933446790E+02  0.25396208404E+01  0.81464199889E+02  0.12620107150E+03  0.82404464689E+02 0.  0.
          6    2    1    2  501    0  0.58029523002E+00 -0.15132832838E+02 -0.21619051097E+03  0.27706951282E+03  0.17262629733E+03 0.  0.
         24    2    5    5    0    0 -0.33478052156E+01  0.14997380189E+02 -0.22990507110E+03  0.24340292895E+03  0.78437968423E+02 0.  0.
          5    1    5    5  501    0  0.39281004456E+01 -0.30130213027E+02  0.13714560130E+02  0.33666583874E+02  0.47000000000E+01 0. -1.
        -11    1    6    6    0    0 -0.39231881892E+02  0.62670516153E+01 -0.15324014826E+03  0.15830653660E+03  0.00000000000E+00 0.  1.
         12    1    6    6    0    0  0.35884076676E+02  0.87303285738E+01 -0.76664922843E+02  0.85096392347E+02  0.00000000000E+00 0. -1.
         -5    1    3    3    0  503 -0.50513742020E+02  0.12593211998E+02  0.17924719067E+03  0.18671334308E+03  0.47000000000E+01 0.  1.
         13    1    4    4    0    0  0.61614975489E+01  0.38475989401E+02  0.41232446205E+02  0.56731652827E+02  0.00000000000E+00 0. -1.
        -14    1    4    4    0    0  0.43771949241E+02 -0.35936368561E+02  0.40231753684E+02  0.69469418668E+02  0.00000000000E+00 0.  1.
</event>
<event>
12    1  0.9962621E-001  0.2147579E+03  0.7818608E-02  0.1138323E+00
         21   -1    0    0  503  502  0.00000000000E+00  0.00000000000E+00  0.23832296446E+02  0.23832296446E+02  0.00000000000E+00 0. -1.
         21   -1    0    0  501  503 -0.00000000000E+00 -0.00000000000E+00 -0.19303102324E+04  0.19303102324E+04  0.00000000000E+00 0. -1.
          6    2    1    2  501    0  0.95180318354E+02 -0.80588797843E+02 -0.10393387627E+04  0.10608053513E+04  0.17184028124E+03 0.  0.
         24    2    3    3    0    0  0.37430382312E+02 -0.99358977891E+00 -0.25537119521E+03  0.27068024146E+03  0.81555656027E+02 0.  0.
         -6    2    1    2    0  502 -0.95180318354E+02  0.80588797843E+02 -0.86713917326E+03  0.89333717760E+03  0.17483454961E+03 0.  0.
        -24    2    5    5    0    0 -0.73473092782E+02  0.29720911729E+02 -0.22376241255E+03  0.24757058532E+03  0.70284774234E+02 0.  0.
          5    1    3    3  501    0  0.57749936042E+02 -0.79595208064E+02 -0.78396756749E+03  0.79012510980E+03  0.47000000000E+01 0. -1.
        -11    1    4    4    0    0  0.60636671616E+02 -0.13355682100E+02 -0.19934695023E+03  0.20879268846E+03  0.00000000000E+00 0.  1.
         12    1    4    4    0    0 -0.23206289305E+02  0.12362092321E+02 -0.56024244986E+02  0.61887552998E+02  0.00000000000E+00 0. -1.
         -5    1    5    5    0  502 -0.21707225572E+02  0.50867886114E+02 -0.64337676071E+03  0.64576659227E+03  0.47000000000E+01 0.  1.
         11    1    6    6    0    0 -0.51682518017E+02 -0.15134047294E+02 -0.14114506902E+03  0.15106969440E+03  0.00000000000E+00 0. -1.
        -12    1    6    6    0    0 -0.21790574765E+02  0.44854959023E+02 -0.82617343534E+02  0.96500890929E+02  0.00000000000E+00 0.  1.
</event>
<event>
12    1  0.9962621E-001  0.1809135E+03  0.7818608E-02  0.1167556E+00
         21   -1    0    0  501  502  0.00000000000E+00  0.00000000000E+00  0.46045054299E+03  0.46045054299E+03  0.00000000000E+00 0. -1.
         21   -1    0    0  502  503 -0.00000000000E+00 -0.00000000000E+00 -0.86778060248E+02  0.86778060248E+02  0.00000000000E+00 0. -1.
         -6    2    1    2    0  503 -0.31891728098E+02 -0.32897006785E+02  0.30804191534E+03  0.35723873428E+03  0.17501541728E+03 0.  0.
        -24    2    3    3    0    0 -0.21581880981E+02 -0.57535093341E+02  0.31377301330E+03  0.32952116331E+03  0.79715924667E+02 0.  0.
          6    2    1    2  501    0  0.31891728098E+02  0.32897006785E+02  0.65630567400E+02  0.18998986896E+03  0.17230636539E+03 0.  0.
         24    2    5    5    0    0  0.14384144274E+02  0.88530862299E+01  0.10989990813E+03  0.13645025619E+03  0.79091098508E+02 0.  0.
          5    1    5    5  501    0  0.17507583825E+02  0.24043920555E+02 -0.44269340733E+02  0.53539612774E+02  0.47000000000E+01 0. -1.
        -13    1    6    6    0    0 -0.14699986040E+02  0.34713399957E+02  0.32319902514E+02  0.49655672633E+02  0.00000000000E+00 0.  1.
         14    1    6    6    0    0  0.29084130314E+02 -0.25860313727E+02  0.77580005619E+02  0.86794583553E+02  0.00000000000E+00 0. -1.
         -5    1    3    3    0  503 -0.10309847118E+02  0.24638086557E+02 -0.57310979507E+01  0.27717570970E+02  0.47000000000E+01 0.  1.
         11    1    4    4    0    0 -0.46960164324E+02 -0.17023269170E+02  0.19936764033E+03  0.20552981472E+03  0.00000000000E+00 0. -1.
        -12    1    4    4    0    0  0.25378283344E+02 -0.40511824171E+02  0.11440537296E+03  0.12399134859E+03  0.00000000000E+00 0.  1.
</event>
<event>
12    1  0.9962621E-001  0.1902283E+03  0.7818608E-02  0.1161369E+00
         21   -1    0    0  503  502  0.00000000000E+00  0.00000000000E+00  0.37396660382E+03  0.37396660382E+03  0.00000000000E+00 0.  1.
         21   -1    0    0  501  503 -0.00000000000E+00 -0.00000000000E+00 -0.90119094482E+02  0.90119094482E+02  0.00000000000E+00 0.  1.
          6    2    1    2  501    0  0.22868299112E+02  0.33114721700E+02  0.14567847317E+03  0.23960178333E+03  0.18592270741E+03 0.  0.
         24    2    3    3    0    0 -0.24365489729E+02 -0.44796703746E+02  0.57952982350E+02  0.11303530766E+03  0.82571247164E+02 0.  0.
         -6    2    1    2    0  502 -0.22868299112E+02 -0.33114721700E+02  0.13816903616E+03  0.22448391497E+03  0.17228697464E+03 0.  0.
        -24    2    5    5    0    0  0.34581075843E+02 -0.39411483271E+02  0.28450645004E+02  0.10038598893E+03  0.80739034875E+02 0.  0.
          5    1    3    3  501    0  0.47233788841E+02  0.77911425446E+02  0.87725490823E+02  0.12656647567E+03  0.47000000000E+01 0. -1.
        -13    1    4    4    0    0 -0.79608362102E+01 -0.31048941618E+02  0.77613892934E+02  0.83972186259E+02  0.00000000000E+00 0.  1.
         14    1    4    4    0    0 -0.16404653519E+02 -0.13747762128E+02 -0.19660910583E+02  0.29063121401E+02  0.00000000000E+00 0. -1.
         -5    1    5    5    0  502 -0.57449374955E+02  0.62967615704E+01  0.10971839116E+03  0.12409792604E+03  0.47000000000E+01 0.  1.
         13    1    6    6    0    0  0.19984415726E+02 -0.27817646397E+02 -0.25890724472E+02  0.42936324210E+02  0.00000000000E+00 0. -1.
        -14    1    6    6    0    0  0.14596660117E+02 -0.11593836874E+02  0.54341369477E+02  0.57449664722E+02  0.00000000000E+00 0.  1.
</event>
<event>
12    1  0.9962621E-001  0.1843035E+03  0.7818608E-02  0.1164977E+00
         21   -1    0    0  501  502  0.00000000000E+00  0.00000000000E+00  0.37001041386E+03  0.37001041386E+03  0.00000000000E+00 0. -1.
         21   -1    0    0  502  503 -0.00000000000E+00 -0.00000000000E+00 -0.12549748036E+03  0.12549748036E+03  0.00000000000E+00 0. -1.
         -6    2    1    2    0  503  0.13691100570E+02 -0.64109649948E+02 -0.97755981368E+01  0.18456255618E+03  0.17225063534E+03 0.  0.
        -24    2    3    3    0    0  0.45043578465E+02 -0.10649282185E+03  0.92777728315E+01  0.12830927116E+03  0.54841106197E+02 0.  0.
          6    2    1    2  501    0 -0.13691100570E+02  0.64109649948E+02  0.25428853164E+03  0.31094533803E+03  0.16651382066E+03 0.  0.
         24    2    5    5    0    0 -0.31404039765E+02 -0.10803848440E+02  0.70234961302E+02  0.11138685736E+03  0.79819454698E+02 0.  0.
          5    1    5    5  501    0  0.17712939195E+02  0.74913498388E+02  0.18405357034E+03  0.19955848068E+03  0.47000000000E+01 0. -1.
        -13    1    6    6    0    0 -0.42127560540E+02 -0.20586140970E+02  0.80810091188E+02  0.93428001129E+02  0.00000000000E+00 0.  1.
         14    1    6    6    0    0  0.10723520775E+02  0.97822925300E+01 -0.10575129886E+02  0.17958856229E+02  0.00000000000E+00 0. -1.
         -5    1    3    3    0  503 -0.31352477894E+02  0.42383171905E+02 -0.19053370968E+02  0.56253285025E+02  0.47000000000E+01 0.  1.
         11    1    4    4    0    0  0.53906010319E+02 -0.60205586941E+02  0.44449419768E+01  0.80934097614E+02  0.00000000000E+00 0. -1.
        -12    1    4    4    0    0 -0.88624318540E+01 -0.46287234911E+02  0.48328308547E+01  0.47375173542E+02  0.00000000000E+00 0.  1.
</event>
<event>
12    1  0.9962621E-001  0.1746202E+03  0.7818608E-02  0.1173293E+00
         21   -1    0    0  503  502  0.00000000000E+00  0.00000000000E+00  0.24136461280E+03  0.24136461280E+03  0.00000000000E+00 0.  1.
         21   -1    0    0  501  503 -0.00000000000E+00 -0.00000000000E+00 -0.12602102559E+03  0.12602102559E+03  0.00000000000E+00 0.  1.
          6    2    1    2  501    0 -0.21889840483E+02  0.75796579802E+01  0.65144146712E+02  0.18637593113E+03  0.17307689482E+03 0.  0.
         24    2    3    3    0    0 -0.64714731553E+02  0.20609330032E+02 -0.28957085536E+01  0.10479618147E+03  0.79756589442E+02 0.  0.
         -6    2    1    2    0  502  0.21889840483E+02 -0.75796579802E+01  0.50199440496E+02  0.18100970725E+03  0.17235983860E+03 0.  0.
        -24    2    5    5    0    0  0.38370634885E+02  0.45907612391E+02 -0.47822394978E+01  0.10241212580E+03  0.82979269695E+02 0.  0.
          5    1    3    3  501    0  0.42824891070E+02 -0.13029672052E+02  0.68039855266E+02  0.81579749653E+02  0.47000000000E+01 0. -1.
        -11    1    4    4    0    0 -0.28940446157E+02  0.41423690818E+01 -0.40762318246E+02  0.50162488317E+02  0.00000000000E+00 0.  1.
         12    1    4    4    0    0 -0.35774285395E+02  0.16466960950E+02  0.37866609692E+02  0.54633693158E+02  0.00000000000E+00 0. -1.
         -5    1    5    5    0  502 -0.16480794402E+02 -0.53487270371E+02  0.54981679994E+02  0.78597581456E+02  0.47000000000E+01 0.  1.
         13    1    6    6    0    0  0.12425352913E+02  0.56021194695E+02 -0.30081245482E+02  0.64789235061E+02  0.00000000000E+00 0. -1.
        -14    1    6    6    0    0  0.25945281972E+02 -0.10113582305E+02  0.25299005984E+02  0.37622890737E+02  0.00000000000E+00 0.  1.
</event>
<event>
12    1  0.9962621E-001  0.1994391E+03  0.7818608E-02  0.1150436E+00
         21   -1    0    0  501  502  0.00000000000E+00  0.00000000000E+00  0.48605687641E+02  0.48605687641E+02  0.00000000000E+00 0. -1.
         21   -1    0    0  502  503 -0.00000000000E+00 -0.00000000000E+00 -0.83809997677E+03  0.83809997677E+03  0.00000000000E+00 0. -1.
         -6    2    1    2    0  503  0.86772699913E+02  0.47553246764E+02 -0.47086886562E+03  0.51136428676E+03  0.17316215647E+03 0.  0.
        -24    2    3    3    0    0  0.98169996053E+02  0.28753891294E+02 -0.47121829364E+03  0.48888037639E+03  0.80580442863E+02 0.  0.
          6    2    1    2  501    0 -0.86772699913E+02 -0.47553246764E+02 -0.31862542352E+03  0.37534137766E+03  0.17195399543E+03 0.  0.
         24    2    5    5    0    0 -0.91171631117E+02 -0.77507510246E+01 -0.31172016149E+03  0.33443463119E+03  0.79402285856E+02 0.  0.
          5    1    5    5  501    0  0.43989312032E+01 -0.39802495740E+02 -0.69052620268E+01  0.40906746467E+02  0.47000000000E+01 0. -1.
        -11    1    6    6    0    0 -0.97522240391E+02 -0.23087976180E+02 -0.29165410991E+03  0.30839222079E+03  0.00000000000E+00 0.  1.
         12    1    6    6    0    0  0.63506092742E+01  0.15337225156E+02 -0.20066051578E+02  0.26042410402E+02  0.00000000000E+00 0. -1.
         -5    1    3    3    0  503 -0.11397296140E+02  0.18799355471E+02  0.34942801942E+00  0.22483910366E+02  0.47000000000E+01 0.  1.
         13    1    4    4    0    0  0.43570021582E+01  0.26608492620E+02 -0.20168817510E+03  0.20348246932E+03  0.00000000000E+00 0. -1.
        -14    1    4    4    0    0  0.93812993895E+02  0.21453986735E+01 -0.26953011854E+03  0.28539790707E+03  0.00000000000E+00 0.  1.
</event>
<event>
12    1  0.9962621E-001  0.2262959E+03  0.7818608E-02  0.1129277E+00
         21   -1    0    0  501  502  0.00000000000E+00  0.00000000000E+00  0.25333699533E+03  0.25333699533E+03  0.00000000000E+00 0. -1.
         21   -1    0    0  502  503 -0.00000000000E+00 -0.00000000000E+00 -0.20784574457E+03  0.20784574457E+03  0.00000000000E+00 0. -1.
         -6    2    1    2    0  503 -0.98748191499E+02 -0.10923859668E+03 -0.15501862796E+02  0.22681126681E+03  0.17181026358E+03 0.  0.
        -24    2    3    3    0    0 -0.20557374152E+02 -0.42593731599E+02 -0.65323104137E+02  0.11253271218E+03  0.78483576456E+02 0.  0.
          6    2    1    2  501    0  0.98748191499E+02  0.10923859668E+03  0.60993113557E+02  0.23437147309E+03  0.17183000660E+03 0.  0.
         24    2    5    5    0    0  0.10783547158E+03  0.11198995047E+03  0.24919760463E+01  0.17491878857E+03  0.80125743126E+02 0.  0.
          5    1    5    5  501    0 -0.90872800798E+01 -0.27513537937E+01  0.58501137511E+02  0.59452684523E+02  0.47000000000E+01 0. -1.
        -13    1    6    6    0    0  0.25896338146E+01  0.54928839774E+02  0.45924912127E+01  0.55181288656E+02  0.00000000000E+00 0.  1.
         14    1    6    6    0    0  0.10524583776E+03  0.57061110699E+02 -0.21005151664E+01  0.11973749991E+03  0.00000000000E+00 0. -1.
         -5    1    3    3    0  503 -0.78190817347E+02 -0.66644865080E+02  0.49821241340E+02  0.11427855463E+03  0.47000000000E+01 0.  1.
         11    1    4    4    0    0 -0.23854134729E+02 -0.29158578271E+02  0.74958922974E+01  0.38411337282E+02  0.00000000000E+00 0. -1.
        -12    1    4    4    0    0  0.32967605779E+01 -0.13435153328E+02 -0.72818996434E+02  0.74121374899E+02  0.00000000000E+00 0.  1.
</event>
<event>
12    1  0.9962621E-001  0.2575030E+03  0.7818608E-02  0.1109321E+00
         21   -1    0    0  503  502  0.00000000000E+00  0.00000000000E+00  0.12928533585E+04  0.12928533585E+04  0.00000000000E+00 0. -1.
         21   -1    0    0  501  503 -0.00000000000E+00 -0.00000000000E+00 -0.54831868700E+02  0.54831868700E+02  0.00000000000E+00 0. -1.
          6    2    1    2  501    0  0.11657619334E+03 -0.15207670584E+03  0.42313444836E+03  0.49308083653E+03  0.16543462953E+03 0.  0.
         24    2    3    3    0    0  0.14565777498E+03 -0.10929978172E+03  0.35131531346E+03  0.40444855254E+03  0.83627462459E+02 0.  0.
         -6    2    1    2    0  502 -0.11657619334E+03  0.15207670584E+03  0.81488704143E+03  0.85460439066E+03  0.17201872265E+03 0.  0.
        -24    2    5    5    0    0 -0.52775208695E+02  0.82437823707E+02  0.23409635797E+03  0.26616573835E+03  0.80385807366E+02 0.  0.
          5    1    3    3  501    0 -0.29081581645E+02 -0.42776924113E+02  0.71819134901E+02  0.88632283991E+02  0.47000000000E+01 0. -1.
        -11    1    4    4    0    0  0.53826836426E+02 -0.46492856568E+02  0.61553595593E+02  0.94062527937E+02  0.00000000000E+00 0.  1.
         12    1    4    4    0    0  0.91830938559E+02 -0.62806925155E+02  0.28976171787E+03  0.31038602460E+03  0.00000000000E+00 0. -1.
         -5    1    5    5    0  502 -0.63800984645E+02  0.69638882128E+02  0.58079068346E+03  0.58843865232E+03  0.47000000000E+01 0.  1.
         11    1    6    6    0    0 -0.74095020457E+02  0.61636533169E+02  0.18834391383E+03  0.21157165253E+03  0.00000000000E+00 0. -1.
        -12    1    6    6    0    0  0.21319811762E+02  0.20801290538E+02  0.45752444139E+02  0.54594085819E+02  0.00000000000E+00 0.  1.
</event>
<event>
12    1  0.9962621E-001  0.2241479E+03  0.7818608E-02  0.1132044E+00
         21   -1    0    0  503  502  0.00000000000E+00  0.00000000000E+00  0.44318049319E+03  0.44318049319E+03  0.00000000000E+00 0.  1.
         21   -1    0    0  501  503 -0.00000000000E+00 -0.00000000000E+00 -0.11184932864E+03  0.11184932864E+03  0.00000000000E+00 0. -1.
          6    2    1    2  501    0  0.32842713218E+02  0.13914731360E+03  0.13304976182E+03  0.26066173582E+03  0.17263163878E+03 0.  0.
         24    2    3    3    0    0  0.51044440099E+02  0.75494738258E+02  0.14738463513E+03  0.19276083891E+03  0.84436484865E+02 0.  0.
         -6    2    1    2    0  502 -0.32842713218E+02 -0.13914731360E+03  0.19828140272E+03  0.29436808601E+03  0.16400133140E+03 0.  0.
        -24    2    5    5    0    0 -0.69372335187E+02 -0.71439507913E+02  0.16934759221E+03  0.21203938127E+03  0.79787016765E+02 0.  0.
          5    1    3    3  501    0 -0.18201726881E+02  0.63652575340E+02 -0.14334873302E+02  0.67900896912E+02  0.47000000000E+01 0. -1.
        -13    1    4    4    0    0 -0.10260763567E+02 -0.73924808971E+01  0.47720616559E+02  0.49367897338E+02  0.00000000000E+00 0.  1.
         14    1    4    4    0    0  0.61305203665E+02  0.82887219155E+02  0.99664018567E+02  0.14339294157E+03  0.00000000000E+00 0. -1.
         -5    1    5    5    0  502  0.36529621969E+02 -0.67707805685E+02  0.28933810513E+02  0.82328704731E+02  0.47000000000E+01 0.  1.
         11    1    6    6    0    0 -0.38830212916E+02  0.30676354772E+01  0.23645614255E+02  0.45566554577E+02  0.00000000000E+00 0. -1.
        -12    1    6    6    0    0 -0.30542122271E+02 -0.74507143390E+02  0.14570197795E+03  0.16647282670E+03  0.00000000000E+00 0.  1.
</event>
<event>
12    1  0.9962621E-001  0.1959197E+03  0.7818608E-02  0.1153622E+00
         21   -1    0    0  501  502  0.00000000000E+00  0.00000000000E+00  0.12817594518E+03  0.12817594518E+03  0.00000000000E+00 0.  1.
         21   -1    0    0  502  503 -0.00000000000E+00 -0.00000000000E+00 -0.30328945838E+03  0.30328945838E+03  0.00000000000E+00 0.  1.
         -6    2    1    2    0  503 -0.73155994699E+02 -0.52011925650E+02 -0.55385163376E+02  0.20185835932E+03  0.17211112961E+03 0.  0.
        -24    2    3    3    0    0  0.68681464733E+01  0.18896739716E+02 -0.40994785609E+02  0.93871901988E+02  0.82018920548E+02 0.  0.
          6    2    1    2  501    0  0.73155994699E+02  0.52011925650E+02 -0.11972834982E+03  0.22960704424E+03  0.17414785972E+03 0.  0.
         24    2    5    5    0    0  0.10632460698E+01  0.60391879171E+02 -0.11770303166E+02  0.99435550195E+02  0.78106203621E+02 0.  0.
          5    1    5    5  501    0  0.72092748630E+02 -0.83799535210E+01 -0.10795804665E+03  0.13017149405E+03  0.47000000000E+01 0. -1.
        -11    1    6    6    0    0  0.16841215990E+02  0.57301932242E+02 -0.36458299735E+02  0.69973892376E+02  0.00000000000E+00 0.  1.
         12    1    6    6    0    0 -0.15777969920E+02  0.30899469287E+01  0.24687996569E+02  0.29461657819E+02  0.00000000000E+00 0. -1.
         -5    1    3    3    0  503 -0.80024141173E+02 -0.70908665366E+02 -0.14390377767E+02  0.10798645733E+03  0.47000000000E+01 0.  1.
         11    1    4    4    0    0 -0.56184482748E+01 -0.26351813808E+02  0.58328754102E+01  0.27568233305E+02  0.00000000000E+00 0. -1.
        -12    1    4    4    0    0  0.12486594748E+02  0.45248553524E+02 -0.46827661019E+02  0.66303668684E+02  0.00000000000E+00 0.  1.
</event>
<event>
12    1  0.9962621E-001  0.2478504E+03  0.7818608E-02  0.1114748E+00
         21   -1    0    0  501  502  0.00000000000E+00  0.00000000000E+00  0.46069573382E+03  0.46069573382E+03  0.00000000000E+00 0.  1.
         21   -1    0    0  502  503 -0.00000000000E+00 -0.00000000000E+00 -0.13479721348E+03  0.13479721348E+03  0.00000000000E+00 0.  1.
         -6    2    1    2    0  503  0.21422547703E+02  0.17671305718E+03  0.12921061932E+03  0.27908190551E+03  0.17176989174E+03 0.  0.
        -24    2    3    3    0    0 -0.39490323340E+02  0.14329834862E+03  0.12413691678E+03  0.20926247365E+03  0.79290014615E+02 0.  0.
          6    2    1    2  501    0 -0.21422547703E+02 -0.17671305718E+03  0.19668790102E+03  0.31641104179E+03  0.17246271142E+03 0.  0.
         24    2    5    5    0    0 -0.61961107620E+02 -0.17613734134E+03  0.14033772139E+03  0.24683274752E+03  0.79800923129E+02 0.  0.
          5    1    5    5  501    0  0.40538559917E+02 -0.57571583800E+00  0.56350179627E+02  0.69578294265E+02  0.47000000000E+01 0. -1.
        -11    1    6    6    0    0 -0.33453959326E+02 -0.84475502595E+02  0.11683364183E+03  0.14800465464E+03  0.00000000000E+00 0.  1.
         12    1    6    6    0    0 -0.28507148294E+02 -0.91661838746E+02  0.23504079564E+02  0.98828092880E+02  0.00000000000E+00 0. -1.
         -5    1    3    3    0  503  0.60912871043E+02  0.33414708558E+02  0.50737025454E+01  0.69819431853E+02  0.47000000000E+01 0.  1.
         11    1    4    4    0    0  0.17018632442E+02  0.87066690028E+02  0.63352805254E+02  0.10901293637E+03  0.00000000000E+00 0. -1.
        -12    1    4    4    0    0 -0.56508955782E+02  0.56231658593E+02  0.60784111522E+02  0.10024953728E+03  0.00000000000E+00 0.  1.
</event>
<event>
12    1  0.9962621E-001  0.3279394E+03  0.7818608E-02  0.1072079E+00
         21   -1    0    0  501  502  0.00000000000E+00  0.00000000000E+00  0.10597651586E+04  0.10597651586E+04  0.00000000000E+00 0.  1.
         21   -1    0    0  502  503 -0.00000000000E+00 -0.00000000000E+00 -0.10469161183E+03  0.10469161183E+03  0.00000000000E+00 0.  1.
         -6    2    1    2    0  503  0.14259621027E+03  0.24019467961E+03  0.37454949451E+03  0.49782686073E+03  0.17180540191E+03 0.  0.
        -24    2    3    3    0    0  0.10185791487E+03  0.14387044263E+03  0.14128345948E+03  0.24214522188E+03  0.87175417829E+02 0.  0.
          6    2    1    2  501    0 -0.14259621027E+03 -0.24019467961E+03  0.58052405230E+03  0.66662990975E+03  0.17134788581E+03 0.  0.
         24    2    5    5    0    0 -0.22000001358E+02 -0.89627910838E+02  0.32202360948E+03  0.34404911924E+03  0.78443794720E+02 0.  0.
          5    1    5    5  501    0 -0.12059620891E+03 -0.15056676877E+03  0.25850044282E+03  0.32258079050E+03  0.47000000000E+01 0. -1.
        -11    1    6    6    0    0 -0.74793836077E+01 -0.89458683451E+02  0.17859639055E+03  0.19988863885E+03  0.00000000000E+00 0.  1.
         12    1    6    6    0    0 -0.14520617750E+02 -0.16922738738E+00  0.14342721893E+03  0.14416048040E+03  0.00000000000E+00 0. -1.
         -5    1    3    3    0  503  0.40738295402E+02  0.96324236975E+02  0.23326603504E+03  0.25568163885E+03  0.47000000000E+01 0.  1.
         13    1    4    4    0    0  0.79752527714E+02  0.39800153092E+02  0.51560163966E+02  0.10297071609E+03  0.00000000000E+00 0. -1.
        -14    1    4    4    0    0  0.22105387155E+02  0.10407028954E+03  0.89723295510E+02  0.13917450580E+03  0.00000000000E+00 0.  1.
</event>
<event>
12    1  0.9962621E-001  0.1731344E+03  0.7818608E-02  0.1175010E+00
         21   -1    0    0  503  502  0.00000000000E+00  0.00000000000E+00  0.85931528734E+03  0.85931528734E+03  0.00000000000E+00 0.  1.
         21   -1    0    0  501  503 -0.00000000000E+00 -0.00000000000E+00 -0.36417353426E+02  0.36417353426E+02  0.00000000000E+00 0.  1.
          6    2    1    2  501    0 -0.23014331058E+02 -0.13986438722E+02  0.51044805598E+03  0.53852058241E+03  0.16947542570E+03 0.  0.
         24    2    3    3    0    0  0.46659482172E+02 -0.18305657747E+02  0.36477560809E+03  0.37691721617E+03  0.80580017428E+02 0.  0.
         -6    2    1    2    0  502  0.23014331058E+02  0.13986438722E+02  0.31244987793E+03  0.35721205836E+03  0.17102704030E+03 0.  0.
        -24    2    5    5    0    0  0.12276773972E+02  0.67235067721E+02  0.13143797539E+03  0.16816679795E+03  0.79579250099E+02 0.  0.
          5    1    3    3  501    0 -0.69673813230E+02  0.43192190243E+01  0.14567244789E+03  0.16160336623E+03  0.47000000000E+01 0. -1.
        -13    1    4    4    0    0  0.23167165617E+01 -0.31197305093E+01 -0.37634503311E+01  0.54095704518E+01  0.00000000000E+00 0.  1.
         14    1    4    4    0    0  0.44342765610E+02 -0.15185927238E+02  0.36853905842E+03  0.37150764572E+03  0.00000000000E+00 0. -1.
         -5    1    5    5    0  502  0.10737557086E+02 -0.53248628999E+02  0.18101190254E+03  0.18904526041E+03  0.47000000000E+01 0.  1.
         13    1    6    6    0    0  0.44631927001E+02  0.50736768840E+02  0.74011690076E+02  0.10021955342E+03  0.00000000000E+00 0. -1.
        -14    1    6    6    0    0 -0.32355153029E+02  0.16498298881E+02  0.57426285313E+02  0.67947244524E+02  0.00000000000E+00 0.  1.
</event>
<event>
12    1  0.9962621E-001  0.2994750E+03  0.7818608E-02  0.1085547E+00
         21   -1    0    0  503  502  0.00000000000E+00  0.00000000000E+00  0.12682697869E+04  0.12682697869E+04  0.00000000000E+00 0.  1.
         21   -1    0    0  501  503 -0.00000000000E+00 -0.00000000000E+00 -0.71021983154E+02  0.71021983154E+02  0.00000000000E+00 0.  1.
          6    2    1    2  501    0 -0.82369209904E+02 -0.23118344909E+03  0.54870341846E+03  0.62494234357E+03  0.17101759408E+03 0.  0.
         24    2    3    3    0    0 -0.75693096410E+02 -0.23020723702E+03  0.55747101689E+03  0.61292218286E+03  0.78580218615E+02 0.  0.
         -6    2    1    2    0  502  0.82369209904E+02  0.23118344909E+03  0.64854438524E+03  0.71434942644E+03  0.17162403547E+03 0.  0.
        -24    2    5    5    0    0  0.10939646444E+03  0.17759570539E+03  0.40296985938E+03  0.46150351187E+03  0.84219729841E+02 0.  0.
          5    1    3    3  501    0 -0.66761134941E+01 -0.97621207346E+00 -0.87675984236E+01  0.12020160711E+02  0.47000000000E+01 0. -1.
        -13    1    4    4    0    0 -0.82587685980E+02 -0.18981418350E+03  0.40231352719E+03  0.45244483010E+03  0.00000000000E+00 0.  1.
         14    1    4    4    0    0  0.68945895701E+01 -0.40393053523E+02  0.15515748970E+03  0.16047735276E+03  0.00000000000E+00 0. -1.
         -5    1    5    5    0  502 -0.27027254531E+02  0.53587743698E+02  0.24557452586E+03  0.25284591457E+03  0.47000000000E+01 0.  1.
         13    1    6    6    0    0  0.87157852869E+02  0.17530765496E+03  0.31622432520E+03  0.37192349893E+03  0.00000000000E+00 0. -1.
        -14    1    6    6    0    0  0.22238611567E+02  0.22880504340E+01  0.86745534177E+02  0.89580012943E+02  0.00000000000E+00 0.  1.
</event>
<event>
12    1  0.9962621E-001  0.2483517E+03  0.7818608E-02  0.1115285E+00
         21   -1    0    0  501  502  0.00000000000E+00  0.00000000000E+00  0.48683561530E+02  0.48683561530E+02  0.00000000000E+00 0.  1.
         21   -1    0    0  502  503 -0.00000000000E+00 -0.00000000000E+00 -0.12762672265E+04  0.12762672265E+04  0.00000000000E+00 0.  1.
         -6    2    1    2    0  503 -0.12292617943E+03 -0.13052330105E+03 -0.73614965116E+03  0.77691368262E+03  0.17184697739E+03 0.  0.
        -24    2    3    3    0    0 -0.15204799690E+03 -0.88900402169E+02 -0.52647622558E+03  0.56112308654E+03  0.81608990202E+02 0.  0.
          6    2    1    2  501    0  0.12292617943E+03  0.13052330105E+03 -0.49143401380E+03  0.54803710540E+03  0.16337105394E+03 0.  0.
         24    2    5    5    0    0  0.10273007823E+03  0.14579943166E+03 -0.48282592369E+03  0.52088140829E+03  0.79910109968E+02 0.  0.
          5    1    5    5  501    0  0.20196101197E+02 -0.15276130610E+02 -0.86080901191E+01  0.27155697110E+02  0.47000000000E+01 0. -1.
        -11    1    6    6    0    0  0.32403270707E+02  0.19406886808E+02 -0.39922281600E+02  0.54958054698E+02  0.00000000000E+00 0.  1.
         12    1    6    6    0    0  0.70326807525E+02  0.12639254485E+03 -0.44290364209E+03  0.46592335359E+03  0.00000000000E+00 0. -1.
         -5    1    3    3    0  503  0.29121817466E+02 -0.41622898880E+02 -0.20967342558E+03  0.21579059608E+03  0.47000000000E+01 0.  1.
         11    1    4    4    0    0 -0.86386874620E+02 -0.65517284333E+02 -0.42070631551E+03  0.43445254121E+03  0.00000000000E+00 0. -1.
        -12    1    4    4    0    0 -0.65661122275E+02 -0.23383117836E+02 -0.10576991007E+03  0.12667054533E+03  0.00000000000E+00 0.  1.
</event>
<event>
12    1  0.9962621E-001  0.2133850E+03  0.7818608E-02  0.1139633E+00
         21   -1    0    0  503  502  0.00000000000E+00  0.00000000000E+00  0.31063782723E+02  0.31063782723E+02  0.00000000000E+00 0.  1.
         21   -1    0    0  501  503 -0.00000000000E+00 -0.00000000000E+00 -0.19987210748E+04  0.19987210748E+04  0.00000000000E+00 0.  1.
          6    2    1    2  501    0  0.99349720954E+02 -0.72890184064E+02 -0.45372408402E+03  0.50139674977E+03  0.17421196937E+03 0.  0.
         24    2    3    3    0    0  0.81484344160E+02 -0.47935348195E+02 -0.45438680246E+03  0.47034123951E+03  0.76262831001E+02 0.  0.
         -6    2    1    2    0  502 -0.99349720954E+02  0.72890184064E+02 -0.15139332081E+04  0.15283881078E+04  0.16968530719E+03 0.  0.
        -24    2    5    5    0    0 -0.91611898424E+02  0.58689542951E+02 -0.15014052855E+04  0.15073983257E+04  0.78706281392E+02 0.  0.
          5    1    3    3  501    0  0.17865376794E+02 -0.24954835869E+02  0.66271843950E+00  0.31055510252E+02  0.47000000000E+01 0. -1.
        -13    1    4    4    0    0 -0.25054364187E+01 -0.25379531687E+02 -0.44137917831E+02  0.50976010345E+02  0.00000000000E+00 0.  1.
         14    1    4    4    0    0  0.83989780579E+02 -0.22555816508E+02 -0.41024888462E+03  0.41936522917E+03  0.00000000000E+00 0. -1.
         -5    1    5    5    0  502 -0.77378225307E+01  0.14200641113E+02 -0.12527922567E+02  0.20989782024E+02  0.47000000000E+01 0.  1.
         13    1    6    6    0    0 -0.56118402198E+02  0.26360107402E+02 -0.38493448161E+03  0.38989573665E+03  0.00000000000E+00 0. -1.
        -14    1    6    6    0    0 -0.35493496226E+02  0.32329435548E+02 -0.11164708039E+04  0.11175025891E+04  0.00000000000E+00 0.  1.
</event>
<event>
12    1  0.9962621E-001  0.2313436E+03  0.7818608E-02  0.1126018E+00
         21   -1    0    0  501  502  0.00000000000E+00  0.00000000000E+00  0.15441033153E+03  0.15441033153E+03  0.00000000000E+00 0. -1.
         21   -1    0    0  502  503 -0.00000000000E+00 -0.00000000000E+00 -0.35352139122E+03  0.35352139122E+03  0.00000000000E+00 0.  1.
         -6    2    1    2    0  503 -0.15126794680E+03 -0.32876091733E+02 -0.57229694815E+02  0.23654603250E+03  0.16945783661E+03 0.  0.
        -24    2    3    3    0    0 -0.30139482395E+02 -0.61682525689E+02 -0.15607045056E+02  0.10518222280E+03  0.78144723197E+02 0.  0.
          6    2    1    2  501    0  0.15126794680E+03  0.32876091733E+02 -0.14188136488E+03  0.27138569024E+03  0.17192161596E+03 0.  0.
         24    2    5    5    0    0  0.12224478656E+03  0.40303359798E+02 -0.17206832140E+03  0.22859725156E+03  0.77981071677E+02 0.  0.
          5    1    5    5  501    0  0.29023160242E+02 -0.74272680653E+01  0.30186956519E+02  0.42788438686E+02  0.47000000000E+01 0. -1.
        -11    1    6    6    0    0  0.26501312223E+02 -0.15124564488E+02 -0.76657494804E+02  0.82507233077E+02  0.00000000000E+00 0.  1.
         12    1    6    6    0    0  0.95743474336E+02  0.55427924287E+02 -0.95410826592E+02  0.14609001848E+03  0.00000000000E+00 0. -1.
         -5    1    3    3    0  503 -0.12112846441E+03  0.28806433956E+02 -0.41622649759E+02  0.13136380970E+03  0.47000000000E+01 0.  1.
         13    1    4    4    0    0  0.12830025778E+02 -0.19730250097E+02  0.23706779557E+02  0.33405145222E+02  0.00000000000E+00 0. -1.
        -14    1    4    4    0    0 -0.42969508174E+02 -0.41952275592E+02 -0.39313824613E+02  0.71777077579E+02  0.00000000000E+00 0.  1.
</event>
<event>
12    1  0.9962621E-001  0.1958574E+03  0.7818608E-02  0.1153737E+00
         21   -1    0    0  503  502  0.00000000000E+00  0.00000000000E+00  0.25204800611E+03  0.25204800611E+03  0.00000000000E+00 0.  1.
         21   -1    0    0  501  503 -0.00000000000E+00 -0.00000000000E+00 -0.15099756147E+03  0.15099756147E+03  0.00000000000E+00 0.  1.
          6    2    1    2  501    0 -0.91706029720E+02 -0.16509678962E+02  0.40143722250E+02  0.19992911131E+03  0.17227177867E+03 0.  0.
         24    2    3    3    0    0 -0.13171718805E+03 -0.74296263115E+01  0.16049356344E+02  0.15211730717E+03  0.74009974513E+02 0.  0.
         -6    2    1    2    0  502  0.91706029720E+02  0.16509678962E+02  0.60906722399E+02  0.20311645627E+03  0.16989438069E+03 0.  0.
        -24    2    5    5    0    0  0.73417941124E+01 -0.20376456179E+02 -0.11918931691E+02  0.85627830828E+02  0.81981477008E+02 0.  0.
          5    1    3    3  501    0  0.40011158325E+02 -0.90800526510E+01  0.24094365905E+02  0.47811804139E+02  0.47000000000E+01 0. -1.
        -11    1    4    4    0    0 -0.30694257134E+01 -0.21552602600E+02  0.40276692984E+01  0.22139516097E+02  0.00000000000E+00 0.  1.
         12    1    4    4    0    0 -0.12864776233E+03  0.14122976289E+02  0.12021687046E+02  0.12997779107E+03  0.00000000000E+00 0. -1.
         -5    1    5    5    0  502  0.84364235608E+02  0.36886135142E+02  0.72825654090E+02  0.11748862545E+03  0.47000000000E+01 0.  1.
         11    1    6    6    0    0  0.18643811898E+02 -0.11996153623E+02  0.32327006408E+02  0.39198657722E+02  0.00000000000E+00 0. -1.
        -12    1    6    6    0    0 -0.11302017786E+02 -0.83803025561E+01 -0.44245938100E+02  0.46429173106E+02  0.00000000000E+00 0.  1.
</event>
<event>
12    1  0.9962621E-001  0.4263627E+03  0.7818608E-02  0.1035037E+00
         21   -1    0    0  501  502  0.00000000000E+00  0.00000000000E+00  0.15774413794E+03  0.15774413794E+03  0.00000000000E+00 0.  1.
         21   -1    0    0  502  503 -0.00000000000E+00 -0.00000000000E+00 -0.11583639601E+04  0.11583639601E+04  0.00000000000E+00 0.  1.
         -6    2    1    2    0  503  0.31427586326E+03 -0.23030844736E+03 -0.55056412909E+03  0.69635190890E+03  0.17312949384E+03 0.  0.
        -24    2    3    3    0    0  0.23750587796E+03 -0.14146077235E+03 -0.28137584644E+03  0.40263101840E+03  0.80741425817E+02 0.  0.
          6    2    1    2  501    0 -0.31427586326E+03  0.23030844736E+03 -0.45005569302E+03  0.61975618909E+03  0.17244218722E+03 0.  0.
         24    2    5    5    0    0 -0.22227654226E+03  0.11392689599E+03 -0.35797395493E+03  0.44508599399E+03  0.87005693889E+02 0.  0.
          5    1    5    5  501    0 -0.91999321005E+02  0.11638155137E+03 -0.92081738088E+02  0.17467019509E+03  0.47000000000E+01 0. -1.
        -13    1    6    6    0    0 -0.13354973381E+03  0.52016016150E+02 -0.13334735618E+03  0.19576188274E+03  0.00000000000E+00 0.  1.
         14    1    6    6    0    0 -0.88726808451E+02  0.61910879843E+02 -0.22462659876E+03  0.24932411125E+03  0.00000000000E+00 0. -1.
         -5    1    3    3    0  503  0.76769985306E+02 -0.88847675009E+02 -0.26918828265E+03  0.29372089050E+03  0.47000000000E+01 0.  1.
         13    1    4    4    0    0  0.10601075505E+03 -0.10996792597E+03 -0.14623003884E+03  0.21145791352E+03  0.00000000000E+00 0. -1.
        -14    1    4    4    0    0  0.13149512290E+03 -0.31492846380E+02 -0.13514580759E+03  0.19117310488E+03  0.00000000000E+00 0.  1.
</event>
<event>
12    1  0.9962621E-001  0.2669887E+03  0.7818608E-02  0.1103115E+00
         21   -1    0    0  503  502  0.00000000000E+00  0.00000000000E+00  0.18497587569E+03  0.18497587569E+03  0.00000000000E+00 0.  1.
         21   -1    0    0  501  503 -0.00000000000E+00 -0.00000000000E+00 -0.63715542282E+03  0.63715542282E+03  0.00000000000E+00 0.  1.
          6    2    1    2  501    0 -0.69139667156E+01 -0.20422736768E+03  0.33004358144E+02  0.26833855203E+03  0.17076202800E+03 0.  0.
         24    2    3    3    0    0  0.75870860818E+01 -0.69857556660E+02  0.69236462012E+02  0.12833718777E+03  0.82092045872E+02 0.  0.
         -6    2    1    2    0  502  0.69139667156E+01  0.20422736768E+03 -0.48518390527E+03  0.55379274647E+03  0.17183237026E+03 0.  0.
        -24    2    5    5    0    0  0.33918770232E+02  0.22000222426E+03 -0.41946485006E+03  0.48085997105E+03  0.75657713871E+02 0.  0.
          5    1    3    3  501    0 -0.14501052797E+02 -0.13436981102E+03 -0.36232103868E+02  0.14000136426E+03  0.47000000000E+01 0. -1.
        -11    1    4    4    0    0 -0.21744148691E+02  0.47145522820E+01 -0.28274801647E+00  0.22251178664E+02  0.00000000000E+00 0.  1.
         12    1    4    4    0    0  0.29331234772E+02 -0.74572108942E+02  0.69519210028E+02  0.10608600911E+03  0.00000000000E+00 0. -1.
         -5    1    5    5    0  502 -0.27004803516E+02 -0.15774856584E+02 -0.65719055210E+02  0.72932775423E+02  0.47000000000E+01 0.  1.
         11    1    6    6    0    0 -0.43770390829E+01  0.34256204248E+02 -0.23359619829E+02  0.41693138994E+02  0.00000000000E+00 0. -1.
        -12    1    6    6    0    0  0.38295809315E+02  0.18574602001E+03 -0.39610523023E+03  0.43916683206E+03  0.00000000000E+00 0.  1.
</event>
<event>
12    1  0.9962621E-001  0.1842958E+03  0.7818608E-02  0.1164661E+00
         21   -1    0    0  503  502  0.00000000000E+00  0.00000000000E+00  0.57581124332E+03  0.57581124332E+03  0.00000000000E+00 0.  1.
         21   -1    0    0  501  503 -0.00000000000E+00 -0.00000000000E+00 -0.77128556900E+02  0.77128556900E+02  0.00000000000E+00 0.  1.
          6    2    1    2  501    0  0.60449551109E+02  0.17513220716E+02  0.83483386457E+02  0.19867621167E+03  0.16894348209E+03 0.  0.
         24    2    3    3    0    0  0.23109163242E+02 -0.43399822984E+02  0.72250819183E+01  0.94071611057E+02  0.79872949973E+02 0.  0.
         -6    2    1    2    0  502 -0.60449551109E+02 -0.17513220716E+02  0.41519929997E+03  0.45426358855E+03  0.17321688157E+03 0.  0.
        -24    2    5    5    0    0 -0.54625944520E+01  0.52312984962E+02  0.21135337794E+03  0.23183491610E+03  0.79439849082E+02 0.  0.
          5    1    3    3  501    0  0.37340387867E+02  0.60913043700E+02  0.76258304539E+02  0.10460460062E+03  0.47000000000E+01 0. -1.
        -11    1    4    4    0    0 -0.27208994940E+02 -0.13450942778E+01  0.83191621417E+01  0.28484156000E+02  0.00000000000E+00 0.  1.
         12    1    4    4    0    0  0.50318158182E+02 -0.42054728707E+02 -0.10940802233E+01  0.65587455058E+02  0.00000000000E+00 0. -1.
         -5    1    5    5    0  502 -0.54986956657E+02 -0.69826205678E+02  0.20384592203E+03  0.22242867245E+03  0.47000000000E+01 0.  1.
         11    1    6    6    0    0 -0.36962669991E+02  0.90088275885E+01  0.57661694485E+02  0.69081610854E+02  0.00000000000E+00 0. -1.
        -12    1    6    6    0    0  0.31500075539E+02  0.43304157374E+02  0.15369168346E+03  0.16275330525E+03  0.00000000000E+00 0.  1.
</event>
<event>
12    1  0.9962621E-001  0.2548805E+03  0.7818608E-02  0.1110933E+00
         21   -1    0    0  503  502  0.00000000000E+00  0.00000000000E+00  0.48057548362E+03  0.48057548362E+03  0.00000000000E+00 0.  1.
         21   -1    0    0  501  503 -0.00000000000E+00 -0.00000000000E+00 -0.15007935655E+03  0.15007935655E+03  0.00000000000E+00 0.  1.
          6    2    1    2  501    0  0.16577222555E+03 -0.69206266344E+02  0.27070775299E+03  0.36885586022E+03  0.17464827520E+03 0.  0.
         24    2    3    3    0    0  0.13885144508E+03  0.40657302798E+01  0.11739812842E+03  0.19675285358E+03  0.75054053002E+02 0.  0.
         -6    2    1    2    0  502 -0.16577222555E+03  0.69206266344E+02  0.59788374079E+02  0.26179897995E+03  0.18081514915E+03 0.  0.
        -24    2    5    5    0    0 -0.49683178406E+02  0.95508936140E+00 -0.31863622892E+02  0.98835583524E+02  0.79270749300E+02 0.  0.
          5    1    3    3  501    0  0.26920780463E+02 -0.73271996624E+02  0.15330962457E+03  0.17210300664E+03  0.47000000000E+01 0. -1.
        -13    1    4    4    0    0  0.91790637563E+01 -0.19218980279E+01 -0.10804218011E+02  0.14306642873E+02  0.00000000000E+00 0.  1.
         14    1    4    4    0    0  0.12967238133E+03  0.59876283077E+01  0.12820234643E+03  0.18244621071E+03  0.00000000000E+00 0. -1.
         -5    1    5    5    0  502 -0.11608904714E+03  0.68251176983E+02  0.91651996971E+02  0.16296339643E+03  0.47000000000E+01 0.  1.
         13    1    6    6    0    0 -0.45941994243E+02  0.72724120556E+01  0.16925029180E+02  0.49497590091E+02  0.00000000000E+00 0. -1.
        -14    1    6    6    0    0 -0.37411841631E+01 -0.63173226942E+01 -0.48788652072E+02  0.49337993433E+02  0.00000000000E+00 0.  1.
</event>
<event>
12    1  0.9962621E-001  0.1988290E+03  0.7818608E-02  0.1150901E+00
         21   -1    0    0  503  502  0.00000000000E+00  0.00000000000E+00  0.13132847095E+03  0.13132847095E+03  0.00000000000E+00 0.  1.
         21   -1    0    0  501  503 -0.00000000000E+00 -0.00000000000E+00 -0.52003044656E+03  0.52003044656E+03  0.00000000000E+00 0.  1.
          6    2    1    2  501    0  0.82022099919E+02 -0.57479808973E+02 -0.40650929120E+03  0.45252930940E+03  0.17175977039E+03 0.  0.
         24    2    3    3    0    0  0.39247802143E+01  0.14089458237E+02 -0.25519209991E+03  0.26775827885E+03  0.79734379668E+02 0.  0.
         -6    2    1    2    0  502 -0.82022099919E+02  0.57479808973E+02  0.17807315587E+02  0.19882960811E+03  0.17083488888E+03 0.  0.
        -24    2    5    5    0    0 -0.10477749323E+03 -0.54158431838E+01  0.34123407323E+01  0.13025135875E+03  0.77111075350E+02 0.  0.
          5    1    3    3  501    0  0.78097319705E+02 -0.71569267210E+02 -0.15131719128E+03  0.18477103055E+03  0.47000000000E+01 0. -1.
        -13    1    4    4    0    0 -0.12966699240E+02  0.20043728888E+02 -0.18017688367E+02  0.29908584905E+02  0.00000000000E+00 0.  1.
         14    1    4    4    0    0  0.16891479455E+02 -0.59542706503E+01 -0.23717441155E+03  0.23784969394E+03  0.00000000000E+00 0. -1.
         -5    1    5    5    0  502  0.22755393307E+02  0.62895652156E+02  0.14394974854E+02  0.68578249364E+02  0.47000000000E+01 0.  1.
         11    1    6    6    0    0 -0.57331265135E+01 -0.22987538724E+02  0.16416081517E+02  0.28823313629E+02  0.00000000000E+00 0. -1.
        -12    1    6    6    0    0 -0.99044366713E+02  0.17571695540E+02 -0.13003740785E+02  0.10142804512E+03  0.00000000000E+00 0.  1.
</event>
<event>
12    1  0.9962621E-001  0.2748806E+03  0.7818608E-02  0.1098851E+00
         21   -1    0    0  501  502  0.00000000000E+00  0.00000000000E+00  0.15027549984E+04  0.15027549984E+04  0.00000000000E+00 0.  1.
         21   -1    0    0  502  503 -0.00000000000E+00 -0.00000000000E+00 -0.84646437874E+02  0.84646437874E+02  0.00000000000E+00 0.  1.
         -6    2    1    2    0  503  0.15289323708E+03  0.14634848860E+03  0.12161440377E+04  0.12463017139E+04  0.17166076859E+03 0.  0.
        -24    2    3    3    0    0  0.13960627175E+03  0.14328975945E+03  0.75808593603E+03  0.78801663470E+03  0.79082639585E+02 0.  0.
          6    2    1    2  501    0 -0.15289323708E+03 -0.14634848860E+03  0.20196452279E+03  0.34109972238E+03  0.17539991472E+03 0.  0.
         24    2    5    5    0    0 -0.55746161873E+02  0.11624223016E+01  0.91464532464E+02  0.13270259928E+03  0.78327730512E+02 0.  0.
          5    1    5    5  501    0 -0.97147075206E+02 -0.14751091090E+03  0.11049999033E+03  0.20839712310E+03  0.47000000000E+01 0. -1.
        -13    1    6    6    0    0 -0.46613850914E+02  0.17676412745E+02  0.12337992231E+02  0.51356914986E+02  0.00000000000E+00 0.  1.
         14    1    6    6    0    0 -0.91323109591E+01 -0.16513990443E+02  0.79126540232E+02  0.81345684292E+02  0.00000000000E+00 0. -1.
         -5    1    3    3    0  503  0.13286965329E+02  0.30587291494E+01  0.45805810170E+03  0.45828507919E+03  0.47000000000E+01 0.  1.
         11    1    4    4    0    0  0.67528780802E+02  0.70591814299E+02  0.22659412569E+03  0.24675542199E+03  0.00000000000E+00 0. -1.
        -12    1    4    4    0    0  0.72077490949E+02  0.72697945150E+02  0.53149181034E+03  0.54126121271E+03  0.00000000000E+00 0.  1.
</event>
<event>
12    1  0.9962621E-001  0.2118626E+03  0.7818608E-02  0.1140706E+00
         21   -1    0    0  503  502  0.00000000000E+00  0.00000000000E+00  0.28066162650E+03  0.28066162650E+03  0.00000000000E+00 0.  1.
         21   -1    0    0  501  503 -0.00000000000E+00 -0.00000000000E+00 -0.22323870025E+03  0.22323870025E+03  0.00000000000E+00 0.  1.
          6    2    1    2  501    0 -0.67849476147E+01  0.11790132060E+03 -0.10774048642E+03  0.23768418980E+03  0.17589486848E+03 0.  0.
         24    2    3    3    0    0 -0.19327040310E+02  0.13139890141E+03 -0.13392753086E+03  0.20532155589E+03  0.81124299783E+02 0.  0.
         -6    2    1    2    0  502  0.67849476147E+01 -0.11790132060E+03  0.16516341267E+03  0.26621613694E+03  0.17217816869E+03 0.  0.
        -24    2    5    5    0    0 -0.13669925399E+02 -0.26354822448E+01  0.11044061104E+03  0.13690530855E+03  0.79700202738E+02 0.  0.
          5    1    3    3  501    0  0.12542092696E+02 -0.13497580813E+02  0.26187044438E+02  0.32362633907E+02  0.47000000000E+01 0. -1.
        -11    1    4    4    0    0 -0.10601204993E+02  0.54180930424E+02 -0.11153389973E+03  0.12444986765E+03  0.00000000000E+00 0.  1.
         12    1    4    4    0    0 -0.87258353170E+01  0.77217970985E+02 -0.22393631129E+02  0.80871688249E+02  0.00000000000E+00 0. -1.
         -5    1    5    5    0  502  0.20454873014E+02 -0.11526583835E+03  0.54722801635E+02  0.12931082839E+03  0.47000000000E+01 0.  1.
         13    1    6    6    0    0 -0.31270301987E+02  0.49036617477E+01  0.79419471127E+01  0.32633605514E+02  0.00000000000E+00 0. -1.
        -14    1    6    6    0    0  0.17600376588E+02 -0.75391439924E+01  0.10249866392E+03  0.10427170304E+03  0.00000000000E+00 0.  1.
</event>
<event>
12    1  0.9962621E-001  0.2478860E+03  0.7818608E-02  0.1114713E+00
         21   -1    0    0  503  502  0.00000000000E+00  0.00000000000E+00  0.58803112491E+02  0.58803112491E+02  0.00000000000E+00 0.  1.
         21   -1    0    0  501  503 -0.00000000000E+00 -0.00000000000E+00 -0.10736885103E+04  0.10736885103E+04  0.00000000000E+00 0.  1.
          6    2    1    2  501    0 -0.12867079618E+03  0.12321648119E+03 -0.41172315560E+03  0.48037801241E+03  0.17178068263E+03 0.  0.
         24    2    3    3    0    0 -0.12644129420E+03  0.13076155693E+03 -0.42163792339E+03  0.46687647667E+03  0.84315599820E+02 0.  0.
         -6    2    1    2    0  502  0.12867079618E+03 -0.12321648119E+03 -0.60316224217E+03  0.65211361035E+03  0.17236297569E+03 0.  0.
        -24    2    5    5    0    0  0.76330079665E+02 -0.13185669394E+02 -0.17373709661E+03  0.20571202456E+03  0.78311655400E+02 0.  0.
          5    1    3    3  501    0 -0.22295019753E+01 -0.75450757463E+01  0.99147677900E+01  0.13501535742E+02  0.47000000000E+01 0. -1.
        -11    1    4    4    0    0  0.12097522906E+02  0.53050238245E+01 -0.35651067524E+02  0.38019625904E+02  0.00000000000E+00 0.  1.
         12    1    4    4    0    0 -0.13853881711E+03  0.12545653311E+03 -0.38598685587E+03  0.42885685076E+03  0.00000000000E+00 0. -1.
         -5    1    5    5    0  502  0.52340716514E+02 -0.11003081179E+03 -0.42942514557E+03  0.44640158579E+03  0.47000000000E+01 0.  1.
         11    1    6    6    0    0  0.84657411796E+02 -0.10994898530E+02 -0.10003900913E+03  0.13151261732E+03  0.00000000000E+00 0. -1.
        -12    1    6    6    0    0 -0.83273321305E+01 -0.21907708640E+01 -0.73698087477E+02  0.74199407242E+02  0.00000000000E+00 0.  1.
</event>
<event>
12    1  0.9962621E-001  0.2118084E+03  0.7818608E-02  0.1140546E+00
         21   -1    0    0  501  502  0.00000000000E+00  0.00000000000E+00  0.13908070173E+04  0.13908070173E+04  0.00000000000E+00 0.  1.
         21   -1    0    0  502  503 -0.00000000000E+00 -0.00000000000E+00 -0.39989775770E+02  0.39989775770E+02  0.00000000000E+00 0.  1.
         -6    2    1    2    0  503 -0.77715311137E+02 -0.91063219316E+02  0.99891424591E+03  0.10211231321E+04  0.17473007983E+03 0.  0.
        -24    2    3    3    0    0 -0.10250810275E+03 -0.67391924283E+02  0.52318942722E+03  0.54414178466E+03  0.85519135080E+02 0.  0.
          6    2    1    2  501    0  0.77715311137E+02  0.91063219316E+02  0.35190299561E+03  0.40967366093E+03  0.17223417384E+03 0.  0.
         24    2    5    5    0    0  0.84650725700E+02  0.11936460975E+03  0.22812687437E+03  0.28242710158E+03  0.79432622245E+02 0.  0.
          5    1    5    5  501    0 -0.69354145629E+01 -0.28301390430E+02  0.12377612124E+03  0.12724655935E+03  0.47000000000E+01 0. -1.
        -13    1    6    6    0    0 -0.15136651638E+02  0.12744079716E+02  0.19600508572E+02  0.27851565968E+02  0.00000000000E+00 0.  1.
         14    1    6    6    0    0  0.99787377338E+02  0.10662053003E+03  0.20852636579E+03  0.25457553561E+03  0.00000000000E+00 0. -1.
         -5    1    3    3    0  503  0.24792791614E+02 -0.23671295033E+02  0.47572481869E+03  0.47698134748E+03  0.47000000000E+01 0.  1.
         13    1    4    4    0    0 -0.52443041282E+02 -0.76504663458E+02  0.40459311992E+03  0.41508894082E+03  0.00000000000E+00 0. -1.
        -14    1    4    4    0    0 -0.50065061470E+02  0.91127391749E+01  0.11859630731E+03  0.12905284383E+03  0.00000000000E+00 0.  1.
</event>
<event>
12    1  0.9962621E-001  0.1801030E+03  0.7818608E-02  0.1167741E+00
         21   -1    0    0  501  502  0.00000000000E+00  0.00000000000E+00  0.14609411920E+03  0.14609411920E+03  0.00000000000E+00 0.  1.
         21   -1    0    0  502  503 -0.00000000000E+00 -0.00000000000E+00 -0.22877929657E+03  0.22877929657E+03  0.00000000000E+00 0.  1.
         -6    2    1    2    0  503  0.52971179387E+02  0.13321901542E+01 -0.73975858565E+02  0.19455993237E+03  0.17196923870E+03 0.  0.
        -24    2    3    3    0    0  0.15613830622E+02 -0.52964115965E+02 -0.19761049853E+01  0.96837289755E+02  0.79527142597E+02 0.  0.
          6    2    1    2  501    0 -0.52971179387E+02 -0.13321901542E+01 -0.87093187992E+01  0.18031348340E+03  0.17213186656E+03 0.  0.
         24    2    5    5    0    0  0.31590123413E+02  0.21699378275E+02  0.11642958499E+02  0.90217022495E+02  0.80837823762E+02 0.  0.
          5    1    5    5  501    0 -0.84561302800E+02 -0.23031568429E+02 -0.20352277298E+02  0.90096460900E+02  0.47000000000E+01 0. -1.
        -13    1    6    6    0    0  0.17863419002E+01  0.49567426804E+01 -0.33320412009E+02  0.33734406351E+02  0.00000000000E+00 0.  1.
         14    1    6    6    0    0  0.29803781512E+02  0.16742635595E+02  0.44963370508E+02  0.56482616145E+02  0.00000000000E+00 0. -1.
         -5    1    3    3    0  503  0.37357348766E+02  0.54296306119E+02 -0.71999753579E+02  0.97722642619E+02  0.47000000000E+01 0.  1.
         11    1    4    4    0    0 -0.16370319665E+02 -0.44816846027E+02 -0.27538907592E+02  0.55090185016E+02  0.00000000000E+00 0. -1.
        -12    1    4    4    0    0  0.31984150286E+02 -0.81472699375E+01  0.25562802607E+02  0.41747104739E+02  0.00000000000E+00 0.  1.
</event>
<event>
12    1  0.9962621E-001  0.2034912E+03  0.7818608E-02  0.1146917E+00
         21   -1    0    0  501  502  0.00000000000E+00  0.00000000000E+00  0.79245580995E+03  0.79245580995E+03  0.00000000000E+00 0.  1.
         21   -1    0    0  502  503 -0.00000000000E+00 -0.00000000000E+00 -0.61402064980E+02  0.61402064980E+02  0.00000000000E+00 0.  1.
         -6    2    1    2    0  503 -0.54590062081E+02 -0.94258124446E+02  0.53099229131E+03  0.56849275356E+03  0.17136664936E+03 0.  0.
        -24    2    3    3    0    0  0.24090704557E+02 -0.77455610283E+02  0.22606425224E+03  0.25309429679E+03  0.79824453117E+02 0.  0.
          6    2    1    2  501    0  0.54590062081E+02  0.94258124446E+02  0.20006145366E+03  0.28536512137E+03  0.17188367681E+03 0.  0.
         24    2    5    5    0    0  0.68112167416E+02  0.12437011918E+03  0.14924313721E+03  0.22458543031E+03  0.89765848766E+02 0.  0.
          5    1    5    5  501    0 -0.13522105334E+02 -0.30111994737E+02  0.50818316445E+02  0.60779691065E+02  0.47000000000E+01 0. -1.
        -13    1    6    6    0    0  0.11935820815E+02  0.18243840392E+01  0.63906975449E+02  0.65037633004E+02  0.00000000000E+00 0.  1.
         14    1    6    6    0    0  0.56176346600E+02  0.12254573514E+03  0.85336161764E+02  0.15954779730E+03  0.00000000000E+00 0. -1.
         -5    1    3    3    0  503 -0.78680766638E+02 -0.16802514164E+02  0.30492803907E+03  0.31539845676E+03  0.47000000000E+01 0.  1.
         13    1    4    4    0    0  0.57744730471E+01 -0.80687864877E+02  0.21853893113E+03  0.23303034244E+03  0.00000000000E+00 0. -1.
        -14    1    4    4    0    0  0.18316231510E+02  0.32322545941E+01  0.75253211162E+01  0.20063954356E+02  0.00000000000E+00 0.  1.
</event>
<event>
12    1  0.9962621E-001  0.2337558E+03  0.7818608E-02  0.1124326E+00
         21   -1    0    0  503  502  0.00000000000E+00  0.00000000000E+00  0.19923869096E+03  0.19923869096E+03  0.00000000000E+00 0. -1.
         21   -1    0    0  501  503 -0.00000000000E+00 -0.00000000000E+00 -0.27512558683E+03  0.27512558683E+03  0.00000000000E+00 0. -1.
          6    2    1    2  501    0  0.15489571736E+03  0.14609679312E+02 -0.62225803997E+02  0.24020966611E+03  0.17211190262E+03 0.  0.
         24    2    3    3    0    0  0.57337954415E+02  0.11252847319E+02 -0.94656542057E+02  0.13724060180E+03  0.80379439163E+02 0.  0.
         -6    2    1    2    0  502 -0.15489571736E+03 -0.14609679312E+02 -0.13661091876E+02  0.23415461168E+03  0.17445810601E+03 0.  0.
        -24    2    5    5    0    0 -0.11859441068E+03  0.55197008012E+02 -0.19559389961E+02  0.15511260777E+03  0.81030904074E+02 0.  0.
          5    1    3    3  501    0  0.97557762950E+02  0.33568319928E+01  0.32430738060E+02  0.10296906431E+03  0.47000000000E+01 0. -1.
        -11    1    4    4    0    0  0.50163917418E+02 -0.13610727176E+02 -0.98213339461E+02  0.11111944273E+03  0.00000000000E+00 0.  1.
         12    1    4    4    0    0  0.71740369966E+01  0.24863574495E+02  0.35567974038E+01  0.26121159072E+02  0.00000000000E+00 0. -1.
         -5    1    5    5    0  502 -0.36301306680E+02 -0.69806687324E+02  0.58982980853E+01  0.79042003910E+02  0.47000000000E+01 0.  1.
         13    1    6    6    0    0 -0.29044475331E+02  0.55146724884E+02  0.41854161011E+01  0.62468076011E+02  0.00000000000E+00 0. -1.
        -14    1    6    6    0    0 -0.89549935353E+02  0.50283128890E-01 -0.23744806062E+02  0.92644531760E+02  0.00000000000E+00 0.  1.
</event>
<event>
12    1  0.9962621E-001  0.2215046E+03  0.7818608E-02  0.1133096E+00
         21   -1    0    0  501  502  0.00000000000E+00  0.00000000000E+00  0.23644828731E+03  0.23644828731E+03  0.00000000000E+00 0.  1.
         21   -1    0    0  502  503 -0.00000000000E+00 -0.00000000000E+00 -0.34599818412E+03  0.34599818412E+03  0.00000000000E+00 0.  1.
         -6    2    1    2    0  503 -0.63025774325E+02 -0.12111669339E+03 -0.23999220025E+03  0.32538713315E+03  0.17215989253E+03 0.  0.
        -24    2    3    3    0    0 -0.80364885698E+02 -0.13397164658E+03 -0.14394523782E+03  0.22683256149E+03  0.79535291024E+02 0.  0.
          6    2    1    2  501    0  0.63025774325E+02  0.12111669339E+03  0.13044230344E+03  0.25705933827E+03  0.17442134966E+03 0.  0.
         24    2    5    5    0    0  0.80343813646E+01  0.53056072946E+02 -0.47255048476E+01  0.95973250254E+02  0.79429441695E+02 0.  0.
          5    1    5    5  501    0  0.54991392960E+02  0.68060620445E+02  0.13516780829E+03  0.16108608802E+03  0.47000000000E+01 0. -1.
        -11    1    6    6    0    0 -0.47448827946E+01  0.24827983629E+00  0.30730513449E+02  0.31095659061E+02  0.00000000000E+00 0.  1.
         12    1    6    6    0    0  0.12779264159E+02  0.52807793109E+02 -0.35456018297E+02  0.64877591193E+02  0.00000000000E+00 0. -1.
         -5    1    3    3    0  503  0.17339111374E+02  0.12854953192E+02 -0.96046962431E+02  0.98554571670E+02  0.47000000000E+01 0.  1.
         11    1    4    4    0    0 -0.68244092711E+02 -0.44701022174E+02 -0.45596103935E+02  0.93458238093E+02  0.00000000000E+00 0. -1.
        -12    1    4    4    0    0 -0.12120792987E+02 -0.89270624409E+02 -0.98349133882E+02  0.13337432339E+03  0.00000000000E+00 0.  1.
</event>
<event>
12    1  0.9962621E-001  0.2209800E+03  0.7818608E-02  0.1133249E+00
         21   -1    0    0  503  502  0.00000000000E+00  0.00000000000E+00  0.11227134877E+03  0.11227134877E+03  0.00000000000E+00 0. -1.
         21   -1    0    0  501  503 -0.00000000000E+00 -0.00000000000E+00 -0.43571880224E+03  0.43571880224E+03  0.00000000000E+00 0. -1.
          6    2    1    2  501    0 -0.68096513290E+02  0.12253012544E+03 -0.17903098536E+03  0.28400474566E+03  0.17016414157E+03 0.  0.
         24    2    3    3    0    0 -0.91012083334E+02  0.34414536525E+02 -0.76604962613E+02  0.14688195216E+03  0.78983719445E+02 0.  0.
         -6    2    1    2    0  502  0.68096513290E+02 -0.12253012544E+03 -0.14441646811E+03  0.26398540535E+03  0.17082567492E+03 0.  0.
        -24    2    5    5    0    0  0.36153991992E+02  0.62864060438E+01 -0.58816855711E+02  0.10598728164E+03  0.80170139807E+02 0.  0.
          5    1    3    3  501    0  0.22915570044E+02  0.88115588920E+02 -0.10242602274E+03  0.13712279350E+03  0.47000000000E+01 0. -1.
        -11    1    4    4    0    0 -0.64007790749E+02  0.16333659400E+02 -0.90075615609E+02  0.11170229287E+03  0.00000000000E+00 0.  1.
         12    1    4    4    0    0 -0.27004292585E+02  0.18080877124E+02  0.13470652996E+02  0.35179659289E+02  0.00000000000E+00 0. -1.
         -5    1    5    5    0  502  0.31942521298E+02 -0.12881653149E+03 -0.85599612398E+02  0.15799812370E+03  0.47000000000E+01 0.  1.
         11    1    6    6    0    0 -0.24649364915E+02  0.82481716632E+01 -0.26424541323E+02  0.37065886076E+02  0.00000000000E+00 0. -1.
        -12    1    6    6    0    0  0.60803356907E+02 -0.19617656195E+01 -0.32392314388E+02  0.68921395567E+02  0.00000000000E+00 0.  1.
</event>
<event>
12    1  0.9962621E-001  0.2483103E+03  0.7818608E-02  0.1114555E+00
         21   -1    0    0  501  502  0.00000000000E+00  0.00000000000E+00  0.98446860312E+02  0.98446860312E+02  0.00000000000E+00 0.  1.
         21   -1    0    0  502  503 -0.00000000000E+00 -0.00000000000E+00 -0.67302184563E+03  0.67302184563E+03  0.00000000000E+00 0.  1.
         -6    2    1    2    0  503 -0.17200522619E+03 -0.53550665979E+02 -0.39250370859E+03  0.46445364307E+03  0.17089339848E+03 0.  0.
        -24    2    3    3    0    0 -0.19255342207E+03 -0.75695790461E+02 -0.35443157684E+03  0.41562524858E+03  0.65695749902E+02 0.  0.
          6    2    1    2  501    0  0.17200522619E+03  0.53550665979E+02 -0.18207127673E+03  0.30701506287E+03  0.16927736811E+03 0.  0.
         24    2    5    5    0    0  0.18098918040E+03  0.78704366648E+02 -0.12933288777E+03  0.24771204642E+03  0.75384357333E+02 0.  0.
          5    1    5    5  501    0 -0.89839542021E+01 -0.25153700669E+02 -0.52738388959E+02  0.59303016453E+02  0.47000000000E+01 0. -1.
        -13    1    6    6    0    0 -0.28310639311E+01  0.13189662458E+02 -0.19707093601E+02  0.23882036281E+02  0.00000000000E+00 0.  1.
         14    1    6    6    0    0  0.18382024433E+03  0.65514704190E+02 -0.10962579417E+03  0.22383001013E+03  0.00000000000E+00 0. -1.
         -5    1    3    3    0  503  0.20548195882E+02  0.22145124482E+02 -0.38072131753E+02  0.48828394490E+02  0.47000000000E+01 0.  1.
         11    1    4    4    0    0 -0.27729844556E+02 -0.29105885762E+02 -0.11032906800E+03  0.11742487007E+03  0.00000000000E+00 0. -1.
        -12    1    4    4    0    0 -0.16482357752E+03 -0.46589904700E+02 -0.24410250884E+03  0.29820037852E+03  0.00000000000E+00 0.  1.
</event>
<event>
12    1  0.9962621E-001  0.4335640E+03  0.7818608E-02  0.1032855E+00
         21   -1    0    0  503  502  0.00000000000E+00  0.00000000000E+00  0.15422521898E+04  0.15422521898E+04  0.00000000000E+00 0. -1.
         21   -1    0    0  501  503 -0.00000000000E+00 -0.00000000000E+00 -0.14334040311E+03  0.14334040311E+03  0.00000000000E+00 0. -1.
          6    2    1    2  501    0 -0.23494544684E+03 -0.31993723673E+03  0.37127144988E+03  0.57080661826E+03  0.17440902359E+03 0.  0.
         24    2    3    3    0    0 -0.24402618011E+03 -0.24896035808E+03  0.33634445157E+03  0.49104345489E+03  0.80411740503E+02 0.  0.
         -6    2    1    2    0  502  0.23494544684E+03  0.31993723673E+03  0.10276403368E+04  0.11147859746E+04  0.17071587217E+03 0.  0.
        -24    2    5    5    0    0  0.74520483454E+02  0.20202189013E+03  0.61572546420E+03  0.65725329809E+03  0.80609577884E+02 0.  0.
          5    1    3    3  501    0  0.90807332687E+01 -0.70976878650E+02  0.34926998312E+02  0.79763163369E+02  0.47000000000E+01 0. -1.
        -13    1    4    4    0    0 -0.12631341906E+03 -0.12585239835E+03  0.22692140952E+03  0.28859527387E+03  0.00000000000E+00 0.  1.
         14    1    4    4    0    0 -0.11771276106E+03 -0.12310795974E+03  0.10942304206E+03  0.20244818102E+03  0.00000000000E+00 0. -1.
         -5    1    5    5    0  502  0.16042496339E+03  0.11791534660E+03  0.41191487259E+03  0.45753267654E+03  0.47000000000E+01 0.  1.
         11    1    6    6    0    0  0.22874629781E+01  0.10134827723E+03  0.21292007202E+03  0.23582125191E+03  0.00000000000E+00 0. -1.
        -12    1    6    6    0    0  0.72233020476E+02  0.10067361291E+03  0.40280539218E+03  0.42143204619E+03  0.00000000000E+00 0.  1.
</event>
<event>
12    1  0.9962621E-001  0.5220004E+03  0.7818608E-02  0.1008262E+00
         21   -1    0    0  501  502  0.00000000000E+00  0.00000000000E+00  0.13200293886E+04  0.13200293886E+04  0.00000000000E+00 0. -1.
         21   -1    0    0  502  503 -0.00000000000E+00 -0.00000000000E+00 -0.25387329540E+03  0.25387329540E+03  0.00000000000E+00 0. -1.
         -6    2    1    2    0  503  0.49186122383E+03  0.10759170965E+02  0.19074382290E+03  0.55467207345E+03  0.17098151895E+03 0.  0.
        -24    2    3    3    0    0  0.35837706913E+03  0.60793766379E+02  0.10031411364E+03  0.38579015431E+03  0.81493043008E+02 0.  0.
          6    2    1    2  501    0 -0.49186122383E+03 -0.10759170965E+02  0.87541227031E+03  0.10192306106E+04  0.17447398441E+03 0.  0.
         24    2    5    5    0    0 -0.46982329576E+03 -0.46389119928E+02  0.82932408529E+03  0.95676962807E+03  0.68875271705E+02 0.  0.
          5    1    5    5  501    0 -0.22037928066E+02  0.35629948963E+02  0.46088185019E+02  0.62460982500E+02  0.47000000000E+01 0. -1.
        -11    1    6    6    0    0 -0.15225761053E+03 -0.57388657245E+01  0.20831048254E+03  0.25808636477E+03  0.00000000000E+00 0.  1.
         12    1    6    6    0    0 -0.31756568523E+03 -0.40650254204E+02  0.62101360275E+03  0.69868326329E+03  0.00000000000E+00 0. -1.
         -5    1    3    3    0  503  0.13348415470E+03 -0.50034595413E+02  0.90429709266E+02  0.16888191914E+03  0.47000000000E+01 0.  1.
         13    1    4    4    0    0  0.94272468891E+01 -0.12228431585E+02  0.85992101296E+01  0.17673537783E+02  0.00000000000E+00 0. -1.
        -14    1    4    4    0    0  0.34894982224E+03  0.73022197963E+02  0.91714903506E+02  0.36811661653E+03  0.00000000000E+00 0.  1.
</event>
<event>
12    1  0.9962621E-001  0.1905713E+03  0.7818608E-02  0.1158372E+00
         21   -1    0    0  501  502  0.00000000000E+00  0.00000000000E+00  0.16422209248E+04  0.16422209248E+04  0.00000000000E+00 0.  1.
         21   -1    0    0  502  503 -0.00000000000E+00 -0.00000000000E+00 -0.22377969604E+02  0.22377969604E+02  0.00000000000E+00 0.  1.
         -6    2    1    2    0  503  0.34929622635E+02  0.69394668831E+02  0.68393699801E+03  0.70948770689E+03  0.17195141867E+03 0.  0.
        -24    2    3    3    0    0  0.35298455695E+02  0.91176316151E+02  0.30782660095E+03  0.33271762185E+03  0.79904305523E+02 0.  0.
          6    2    1    2  501    0 -0.34929622635E+02 -0.69394668831E+02  0.93590595723E+03  0.95511118755E+03  0.17401643951E+03 0.  0.
         24    2    5    5    0    0  0.13044656087E+02 -0.11514583537E+02  0.75124115711E+03  0.75567494688E+03  0.79866141255E+02 0.  0.
          5    1    5    5  501    0 -0.47974278722E+02 -0.57880085295E+02  0.18466480012E+03  0.19943624067E+03  0.47000000000E+01 0. -1.
        -11    1    6    6    0    0 -0.17813041843E+02  0.60210809952E+01  0.48189742345E+02  0.51728223856E+02  0.00000000000E+00 0.  1.
         12    1    6    6    0    0  0.30857697930E+02 -0.17535664532E+02  0.70305141477E+03  0.70394672302E+03  0.00000000000E+00 0. -1.
         -5    1    3    3    0  503 -0.36883306030E+00 -0.21781647320E+02  0.37611039706E+03  0.37677008503E+03  0.47000000000E+01 0.  1.
         11    1    4    4    0    0 -0.24925290895E+02  0.38204874042E+02  0.12535017718E+03  0.13339246397E+03  0.00000000000E+00 0. -1.
        -12    1    4    4    0    0  0.60223746590E+02  0.52971442109E+02  0.18247642377E+03  0.19932515788E+03  0.00000000000E+00 0.  1.
</event>
<event>
12    1  0.9962621E-001  0.1952528E+03  0.7818608E-02  0.1154244E+00
         21   -1    0    0  503  502  0.00000000000E+00  0.00000000000E+00  0.15081863156E+03  0.15081863156E+03  0.00000000000E+00 0. -1.
         21   -1    0    0  501  503 -0.00000000000E+00 -0.00000000000E+00 -0.25020361743E+03  0.25020361743E+03  0.00000000000E+00 0. -1.
          6    2    1    2  501    0  0.97773134665E+01 -0.88976437868E+02 -0.49461799673E+02  0.20142029395E+03  0.17352597164E+03 0.  0.
         24    2    3    3    0    0  0.60950189102E+02 -0.99921632179E+02 -0.29568341570E+02  0.14523933494E+03  0.80752210268E+02 0.  0.
         -6    2    1    2    0  502 -0.97773134665E+01  0.88976437868E+02 -0.49923186193E+02  0.19960195504E+03  0.17127817603E+03 0.  0.
        -24    2    5    5    0    0 -0.18454268025E+02  0.70030115265E+02  0.32669477161E+02  0.11429140048E+03  0.82161136998E+02 0.  0.
          5    1    3    3  501    0 -0.51172875635E+02  0.10945194311E+02 -0.19893458102E+02  0.56180959004E+02  0.47000000000E+01 0. -1.
        -13    1    4    4    0    0  0.19477087530E+02 -0.32553367450E+02 -0.50731936161E+02  0.63346728547E+02  0.00000000000E+00 0.  1.
         14    1    4    4    0    0  0.41473101572E+02 -0.67368264729E+02  0.21163594591E+02  0.81892606397E+02  0.00000000000E+00 0. -1.
         -5    1    5    5    0  502  0.86769545580E+01  0.18946322603E+02 -0.82592663354E+02  0.85310554567E+02  0.47000000000E+01 0.  1.
         13    1    6    6    0    0 -0.26842470757E+02  0.76158235470E+02  0.78150846740E+00  0.80753983318E+02  0.00000000000E+00 0. -1.
        -14    1    6    6    0    0  0.83882027321E+01 -0.61281202053E+01  0.31887968694E+02  0.33537417160E+02  0.00000000000E+00 0.  1.
</event>
<event>
12    1  0.9962621E-001  0.3126993E+03  0.7818608E-02  0.1079064E+00
         21   -1    0    0  501  502  0.00000000000E+00  0.00000000000E+00  0.15839957653E+03  0.15839957653E+03  0.00000000000E+00 0. -1.
         21   -1    0    0  502  503 -0.00000000000E+00 -0.00000000000E+00 -0.63694834860E+03  0.63694834860E+03  0.00000000000E+00 0.  1.
         -6    2    1    2    0  503 -0.73035135296E+02 -0.25041479203E+03 -0.16932354813E+03  0.35559990991E+03  0.17245037813E+03 0.  0.
        -24    2    3    3    0    0 -0.85530588915E+01 -0.21653821544E+03 -0.88603462954E+02  0.24677260281E+03  0.78001219799E+02 0.  0.
          6    2    1    2  501    0  0.73035135296E+02  0.25041479203E+03 -0.30922522393E+03  0.43974801522E+03  0.17238439233E+03 0.  0.
         24    2    5    5    0    0  0.92227229568E+02  0.20326788754E+03 -0.17113861448E+03  0.29250274774E+03  0.80285341701E+02 0.  0.
          5    1    5    5  501    0 -0.19192094272E+02  0.47146904498E+02 -0.13808660945E+03  0.14724526748E+03  0.47000000000E+01 0. -1.
        -13    1    6    6    0    0  0.76459693106E+02  0.20219615461E+03 -0.13989019427E+03  0.25748521523E+03  0.00000000000E+00 0.  1.
         14    1    6    6    0    0  0.15767536462E+02  0.10717329300E+01 -0.31248420216E+02  0.35017532517E+02  0.00000000000E+00 0. -1.
         -5    1    3    3    0  503 -0.64482076405E+02 -0.33876576599E+02 -0.80720085174E+02  0.10882730710E+03  0.47000000000E+01 0.  1.
         13    1    4    4    0    0 -0.38741321172E+01 -0.61313322747E+02 -0.65439900786E+02  0.89759194854E+02  0.00000000000E+00 0. -1.
        -14    1    4    4    0    0 -0.46789267743E+01 -0.15522489269E+03 -0.23163562168E+02  0.15701340796E+03  0.00000000000E+00 0.  1.
</event>
<event>
12    1  0.9962621E-001  0.2748837E+03  0.7818608E-02  0.1100103E+00
         21   -1    0    0  501  502  0.00000000000E+00  0.00000000000E+00  0.28471184829E+03  0.28471184829E+03  0.00000000000E+00 0.  1.
         21   -1    0    0  502  503 -0.00000000000E+00 -0.00000000000E+00 -0.27915626485E+03  0.27915626485E+03  0.00000000000E+00 0.  1.
         -6    2    1    2    0  503  0.11039957679E+03  0.16577071158E+03 -0.80451407686E+02  0.28641489528E+03  0.18945465914E+03 0.  0.
        -24    2    3    3    0    0  0.11170502486E+03  0.76874693534E+02  0.12129126362E+02  0.15797248989E+03  0.80127777773E+02 0.  0.
          6    2    1    2  501    0 -0.11039957679E+03 -0.16577071158E+03  0.86006991124E+02  0.27745321786E+03  0.17295979362E+03 0.  0.
         24    2    5    5    0    0 -0.11263874198E+02 -0.96491633706E+02 -0.72241798609E+01  0.12467357458E+03  0.77806177050E+02 0.  0.
          5    1    5    5  501    0 -0.99135702588E+02 -0.69279077871E+02  0.93231170985E+02  0.15277964328E+03  0.47000000000E+01 0. -1.
        -13    1    6    6    0    0  0.66459818304E+01 -0.64307524429E+02  0.30907689360E+02  0.71658300526E+02  0.00000000000E+00 0.  1.
         14    1    6    6    0    0 -0.17909856029E+02 -0.32184109277E+02 -0.38131869221E+02  0.53015274056E+02  0.00000000000E+00 0. -1.
         -5    1    3    3    0  503 -0.13054480721E+01  0.88896018044E+02 -0.92580534047E+02  0.12844240539E+03  0.47000000000E+01 0.  1.
         13    1    4    4    0    0  0.37003392057E+02  0.61478988641E+02 -0.21074781720E+02  0.74786786885E+02  0.00000000000E+00 0. -1.
        -14    1    4    4    0    0  0.74701632801E+02  0.15395704893E+02  0.33203908082E+02  0.83185703004E+02  0.00000000000E+00 0.  1.
</event>
<event>
12    1  0.9962621E-001  0.1803281E+03  0.7818608E-02  0.1167581E+00
         21   -1    0    0  501  502  0.00000000000E+00  0.00000000000E+00  0.14760240888E+03  0.14760240888E+03  0.00000000000E+00 0. -1.
         21   -1    0    0  502  503 -0.00000000000E+00 -0.00000000000E+00 -0.22877364526E+03  0.22877364526E+03  0.00000000000E+00 0. -1.
         -6    2    1    2    0  503 -0.34883941848E+02  0.39321178231E+02 -0.77750120906E+02  0.19601545890E+03  0.17208699651E+03 0.  0.
        -24    2    3    3    0    0  0.20397313218E+02  0.70134936014E+02 -0.72513200561E+02  0.13233641866E+03  0.83185358162E+02 0.  0.
          6    2    1    2  501    0  0.34883941848E+02 -0.39321178231E+02 -0.34211154706E+01  0.18036059524E+03  0.17249694440E+03 0.  0.
         24    2    5    5    0    0 -0.19873382918E+02 -0.76788217435E+02 -0.13819584662E+02  0.11303777739E+03  0.79342148389E+02 0.  0.
          5    1    5    5  501    0  0.54757324766E+02  0.37467039204E+02  0.10398469191E+02  0.67322817854E+02  0.47000000000E+01 0. -1.
        -11    1    6    6    0    0  0.30495295775E+02 -0.23970154553E+02 -0.17493864520E+00  0.38788683623E+02  0.00000000000E+00 0.  1.
         12    1    6    6    0    0 -0.50368678693E+02 -0.52818062882E+02 -0.13644646017E+02  0.74249093764E+02  0.00000000000E+00 0. -1.
         -5    1    3    3    0  503 -0.55281255066E+02 -0.30813757783E+02 -0.52369203451E+01  0.63679040234E+02  0.47000000000E+01 0.  1.
         11    1    4    4    0    0  0.46874904018E+02  0.16115657778E+02 -0.24100027608E+02  0.55116080984E+02  0.00000000000E+00 0. -1.
        -12    1    4    4    0    0 -0.26477590800E+02  0.54019278236E+02 -0.48413172953E+02  0.77220337678E+02  0.00000000000E+00 0.  1.
</event>
<event>
12    1  0.9962621E-001  0.1901375E+03  0.7818608E-02  0.1158431E+00
         21   -1    0    0  501  502  0.00000000000E+00  0.00000000000E+00  0.88547550384E+02  0.88547550384E+02  0.00000000000E+00 0. -1.
         21   -1    0    0  502  503 -0.00000000000E+00 -0.00000000000E+00 -0.44266081315E+03  0.44266081315E+03  0.00000000000E+00 0. -1.
         -6    2    1    2    0  503  0.23506204840E+02 -0.78091180338E+02 -0.25185338847E+03  0.31531638792E+03  0.17129950698E+03 0.  0.
        -24    2    3    3    0    0  0.34954134826E+02 -0.11683758742E+03 -0.21487791440E+03  0.26034717066E+03  0.82068981954E+02 0.  0.
          6    2    1    2  501    0 -0.23506204840E+02  0.78091180338E+02 -0.10225987430E+03  0.21589197562E+03  0.17175997535E+03 0.  0.
         24    2    5    5    0    0  0.43657028590E+02  0.37916849582E+02 -0.95060679722E+02  0.13715954787E+03  0.80203398403E+02 0.  0.
          5    1    5    5  501    0 -0.67163233430E+02  0.40174330757E+02 -0.71991945729E+01  0.78732427748E+02  0.47000000000E+01 0. -1.
        -13    1    6    6    0    0 -0.13983560702E+02  0.38769362402E+02 -0.38506179054E+02  0.56403273453E+02  0.00000000000E+00 0.  1.
         14    1    6    6    0    0  0.57640589292E+02 -0.85251281978E+00 -0.56554500669E+02  0.80756274418E+02  0.00000000000E+00 0. -1.
         -5    1    3    3    0  503 -0.11447929985E+02  0.38746407083E+02 -0.36975474071E+02  0.54969217255E+02  0.47000000000E+01 0.  1.
         11    1    4    4    0    0  0.21222595808E+02 -0.26684577969E+01 -0.65160839306E+01  0.22360201020E+02  0.00000000000E+00 0. -1.
        -12    1    4    4    0    0  0.13731539018E+02 -0.11416912962E+03 -0.20836183047E+03  0.23798696964E+03  0.00000000000E+00 0.  1.
</event>
<event>
12    1  0.1132093E+000  0.2137540E+03  0.7818608E-02  0.1138799E+00
         21   -1    0    0  503  502  0.00000000000E+00  0.00000000000E+00  0.38280040796E+03  0.38280040796E+03  0.00000000000E+00 0. -1.
         21   -1    0    0  501  503 -0.00000000000E+00 -0.00000000000E+00 -0.45494102773E+03  0.45494102773E+03  0.00000000000E+00 0. -1.
          6    2    1    2  501    0  0.31683892006E+02 -0.12208419297E+03  0.32396436826E+03  0.38764153470E+03  0.17147777797E+03 0.  0.
         24    2    3    3    0    0  0.11124690897E+02 -0.53990464919E+02  0.57787346446E+02  0.11208440180E+03  0.78643541808E+02 0.  0.
         -6    2    1    2    0  502 -0.31683892006E+02  0.12208419297E+03 -0.39610498803E+03  0.45009990099E+03  0.17257560703E+03 0.  0.
        -24    2    5    5    0    0  0.15754584837E+02  0.61768281754E+01 -0.10290929636E+03  0.13124142155E+03  0.79671998234E+02 0.  0.
          5    1    3    3  501    0  0.20559201109E+02 -0.68093728047E+02  0.26617702182E+03  0.27555713290E+03  0.47000000000E+01 0. -1.
        -11    1    4    4    0    0  0.22760909467E+02 -0.66509820483E+02  0.24106905511E+02  0.74315261648E+02  0.00000000000E+00 0.  1.
         12    1    4    4    0    0 -0.11636218570E+02  0.12519355565E+02  0.33680440934E+02  0.37769140153E+02  0.00000000000E+00 0. -1.
         -5    1    5    5    0  502 -0.47438476843E+02  0.11590736479E+03 -0.29319569167E+03  0.31885847944E+03  0.47000000000E+01 0.  1.
         13    1    6    6    0    0 -0.59383926852E+01  0.81359887890E+01 -0.10832877493E+03  0.10879605829E+03  0.00000000000E+00 0. -1.
        -14    1    6    6    0    0  0.21692977523E+02 -0.19591606135E+01  0.54194785644E+01  0.22445363263E+02  0.00000000000E+00 0.  1.
</event>
<event>
12    1  0.9962621E-001  0.4373602E+03  0.7818608E-02  0.1031577E+00
         21   -1    0    0  501  502  0.00000000000E+00  0.00000000000E+00  0.61316522368E+03  0.61316522368E+03  0.00000000000E+00 0.  1.
         21   -1    0    0  502  503 -0.00000000000E+00 -0.00000000000E+00 -0.33833792901E+03  0.33833792901E+03  0.00000000000E+00 0.  1.
         -6    2    1    2    0  503 -0.26574145614E+03  0.30136193393E+03  0.27067264143E+03  0.51434197305E+03  0.17276125056E+03 0.  0.
        -24    2    3    3    0    0 -0.27706619808E+03  0.26464162984E+03  0.21268139895E+03  0.44461604734E+03  0.75161038664E+02 0.  0.
          6    2    1    2  501    0  0.26574145614E+03 -0.30136193393E+03  0.41546532478E+01  0.43716117964E+03  0.17220655943E+03 0.  0.
         24    2    5    5    0    0  0.91883234461E+02 -0.11018002414E+03 -0.52492668461E+02  0.17257052801E+03  0.80267928839E+02 0.  0.
          5    1    5    5  501    0  0.17385822168E+03 -0.19118190979E+03  0.56647321709E+02  0.26459065163E+03  0.47000000000E+01 0. -1.
        -13    1    6    6    0    0  0.47659131366E+02 -0.32262795507E+01 -0.23611720007E+02  0.53285223130E+02  0.00000000000E+00 0.  1.
         14    1    6    6    0    0  0.44224103095E+02 -0.10695374459E+03 -0.28880948453E+02  0.11928530488E+03  0.00000000000E+00 0. -1.
         -5    1    3    3    0  503  0.11324741939E+02  0.36720304091E+02  0.57991242476E+02  0.69725925712E+02  0.47000000000E+01 0.  1.
         13    1    4    4    0    0 -0.31793820803E+02  0.18202307582E+02  0.46645567096E+02  0.59312561673E+02  0.00000000000E+00 0. -1.
        -14    1    4    4    0    0 -0.24527237727E+03  0.24643932225E+03  0.16603583185E+03  0.38530348567E+03  0.00000000000E+00 0.  1.
</event>
<event>
12    1  0.9962621E-001  0.7963119E+03  0.7818608E-02  0.9565536E-01
         21   -1    0    0  501  502  0.00000000000E+00  0.00000000000E+00  0.18977497846E+04  0.18977497846E+04  0.00000000000E+00 0.  1.
         21   -1    0    0  502  503 -0.00000000000E+00 -0.00000000000E+00 -0.33653984776E+03  0.33653984776E+03  0.00000000000E+00 0.  1.
         -6    2    1    2    0  503  0.46045642122E+03  0.62642203910E+03  0.68279986943E+03  0.10489653145E+04  0.17230171919E+03 0.  0.
        -24    2    3    3    0    0  0.31912995050E+03  0.51279742276E+03  0.57518824483E+03  0.83804808782E+03  0.81718776386E+02 0.  0.
          6    2    1    2  501    0 -0.46045642122E+03 -0.62642203910E+03  0.87841006742E+03  0.11853243179E+04  0.17019049633E+03 0.  0.
         24    2    5    5    0    0 -0.28578108522E+03 -0.37698032135E+03  0.62975050473E+03  0.79214965988E+03  0.84441660799E+02 0.  0.
          5    1    5    5  501    0 -0.17467533600E+03 -0.24944171775E+03  0.24865956269E+03  0.39317465798E+03  0.47000000000E+01 0. -1.
        -13    1    6    6    0    0 -0.36924311428E+02 -0.14722620039E+02  0.37572092291E+02  0.54697554190E+02  0.00000000000E+00 0.  1.
         14    1    6    6    0    0 -0.24885677380E+03 -0.36225770131E+03  0.59217841244E+03  0.73745210569E+03  0.00000000000E+00 0. -1.
         -5    1    3    3    0  503  0.14132647072E+03  0.11362461634E+03  0.10761162460E+03  0.21091722669E+03  0.47000000000E+01 0.  1.
         11    1    4    4    0    0  0.10946126021E+03  0.10922840894E+03  0.14035480773E+03  0.20883506617E+03  0.00000000000E+00 0. -1.
        -12    1    4    4    0    0  0.20966869029E+03  0.40356901382E+03  0.43483343710E+03  0.62921302166E+03  0.00000000000E+00 0.  1.
</event>
<event>
12    1  0.9962621E-001  0.2976984E+03  0.7818608E-02  0.1086408E+00
         21   -1    0    0  501  502  0.00000000000E+00  0.00000000000E+00  0.72595584724E+03  0.72595584724E+03  0.00000000000E+00 0.  1.
         21   -1    0    0  502  503 -0.00000000000E+00 -0.00000000000E+00 -0.52171228339E+03  0.52171228339E+03  0.00000000000E+00 0.  1.
         -6    2    1    2    0  503 -0.21855308026E+03  0.10762101573E+03  0.64813912225E+03  0.71323816229E+03  0.17110412745E+03 0.  0.
        -24    2    3    3    0    0 -0.11991799002E+03  0.95858090515E+01  0.43385516105E+03  0.45773965191E+03  0.82601913404E+02 0.  0.
          6    2    1    2  501    0  0.21855308026E+03 -0.10762101573E+03 -0.44389555841E+03  0.53442996834E+03  0.17095143277E+03 0.  0.
         24    2    5    5    0    0  0.10092518223E+03 -0.11903296815E+03 -0.22060226356E+03  0.28174728081E+03  0.79758583489E+02 0.  0.
          5    1    5    5  501    0  0.11762789803E+03  0.11411952419E+02 -0.22329329485E+03  0.25268268753E+03  0.47000000000E+01 0. -1.
        -13    1    6    6    0    0  0.41817867167E+02 -0.19884791684E+02 -0.20286450160E+02  0.50553724045E+02  0.00000000000E+00 0.  1.
         14    1    6    6    0    0  0.59107315063E+02 -0.99148176468E+02 -0.20031581340E+03  0.23119355677E+03  0.00000000000E+00 0. -1.
         -5    1    3    3    0  503 -0.98635090239E+02  0.98035206682E+02  0.21428396121E+03  0.25549851038E+03  0.47000000000E+01 0.  1.
         11    1    4    4    0    0  0.75089195308E+01  0.10592447772E+02  0.14562315062E+02  0.19510121534E+02  0.00000000000E+00 0. -1.
        -12    1    4    4    0    0 -0.12742690955E+03 -0.10066387200E+01  0.41929284598E+03  0.43822953038E+03  0.00000000000E+00 0.  1.
</event>
<event>
12    1  0.9962621E-001  0.4544333E+03  0.7818608E-02  0.1026440E+00
         21   -1    0    0  503  502  0.00000000000E+00  0.00000000000E+00  0.18288329071E+04  0.18288329071E+04  0.00000000000E+00 0. -1.
         21   -1    0    0  501  503 -0.00000000000E+00 -0.00000000000E+00 -0.14923640403E+03  0.14923640403E+03  0.00000000000E+00 0. -1.
          6    2    1    2  501    0 -0.28378736482E+03  0.30998717080E+03  0.35087187982E+03  0.57378345151E+03  0.17172378601E+03 0.  0.
         24    2    3    3    0    0 -0.16851732405E+03  0.12131981270E+03  0.23771168251E+03  0.32536872858E+03  0.79002405509E+02 0.  0.
         -6    2    1    2    0  502  0.28378736482E+03 -0.30998717080E+03  0.13287246232E+04  0.14042858596E+04  0.17286508213E+03 0.  0.
        -24    2    5    5    0    0  0.28928772078E+03 -0.30260367820E+03  0.11763226018E+04  0.12515336550E+04  0.85704460953E+02 0.  0.
          5    1    3    3  501    0 -0.11527004077E+03  0.18866735810E+03  0.11316019730E+03  0.24841472293E+03  0.47000000000E+01 0. -1.
        -11    1    4    4    0    0 -0.14219582935E+03  0.12698597690E+03  0.18237245173E+03  0.26382722256E+03  0.00000000000E+00 0.  1.
         12    1    4    4    0    0 -0.26321494698E+02 -0.56661641947E+01  0.55339230780E+02  0.61541506019E+02  0.00000000000E+00 0. -1.
         -5    1    5    5    0  502 -0.55003559608E+01 -0.73834926036E+01  0.15240202137E+03  0.15275220455E+03  0.47000000000E+01 0.  1.
         13    1    6    6    0    0  0.91067607122E+02 -0.57850836044E+02  0.38517981013E+03  0.40000439301E+03  0.00000000000E+00 0. -1.
        -14    1    6    6    0    0  0.19822011366E+03 -0.24475284216E+03  0.79114279170E+03  0.85152926201E+03  0.00000000000E+00 0.  1.
</event>
<event>
12    1  0.9962621E-001  0.2872411E+03  0.7818608E-02  0.1092608E+00
         21   -1    0    0  501  502  0.00000000000E+00  0.00000000000E+00  0.18006405205E+03  0.18006405205E+03  0.00000000000E+00 0. -1.
         21   -1    0    0  502  503 -0.00000000000E+00 -0.00000000000E+00 -0.80288055314E+03  0.80288055314E+03  0.00000000000E+00 0.  1.
         -6    2    1    2    0  503 -0.21258150858E+03  0.86672777588E+02 -0.63972789878E+03  0.70125546075E+03  0.17263941785E+03 0.  0.
        -24    2    3    3    0    0 -0.81247236701E+02  0.39125816940E+02 -0.44139903131E+03  0.45863263802E+03  0.85900225844E+02 0.  0.
          6    2    1    2  501    0  0.21258150858E+03 -0.86672777588E+02  0.16911397696E+02  0.28168914444E+03  0.16235673857E+03 0.  0.
         24    2    5    5    0    0  0.18215620076E+03 -0.10789271728E+03 -0.20584189832E+02  0.22873638927E+03  0.84112466285E+02 0.  0.
          5    1    5    5  501    0  0.30425307815E+02  0.21219939697E+02  0.37495587528E+02  0.52952755173E+02  0.47000000000E+01 0. -1.
        -11    1    6    6    0    0  0.50951490777E+02 -0.73090475758E+02  0.98034388377E+01  0.89634700155E+02  0.00000000000E+00 0.  1.
         12    1    6    6    0    0  0.13120470998E+03 -0.34802241527E+02 -0.30387628670E+02  0.13910168911E+03  0.00000000000E+00 0. -1.
         -5    1    3    3    0  503 -0.13133427187E+03  0.47546960648E+02 -0.19832886748E+03  0.24262282273E+03  0.47000000000E+01 0.  1.
         13    1    4    4    0    0 -0.15920584845E+02 -0.41025024498E+01 -0.26633478127E+03  0.26684173449E+03  0.00000000000E+00 0. -1.
        -14    1    4    4    0    0 -0.65326651856E+02  0.43228319390E+02 -0.17506425003E+03  0.19179090354E+03  0.00000000000E+00 0.  1.
</event>
<event>
12    1  0.9962621E-001  0.2833531E+03  0.7818608E-02  0.1093929E+00
         21   -1    0    0  503  502  0.00000000000E+00  0.00000000000E+00  0.24182461212E+03  0.24182461212E+03  0.00000000000E+00 0. -1.
         21   -1    0    0  501  503 -0.00000000000E+00 -0.00000000000E+00 -0.63372458331E+03  0.63372458331E+03  0.00000000000E+00 0. -1.
          6    2    1    2  501    0  0.16484818102E+03  0.15272704013E+03  0.10628398286E+03  0.30263056025E+03  0.17259345124E+03 0.  0.
         24    2    3    3    0    0  0.51649274916E+02  0.70114516288E+01  0.13826279692E+02  0.96190394702E+02  0.79653110231E+02 0.  0.
         -6    2    1    2    0  502 -0.16484818102E+03 -0.15272704013E+03 -0.49818395405E+03  0.57291863518E+03  0.17189543010E+03 0.  0.
        -24    2    5    5    0    0 -0.15035908652E+03 -0.17792988610E+03 -0.39397230065E+03  0.46462608691E+03  0.79977044804E+02 0.  0.
          5    1    3    3  501    0  0.11319890610E+03  0.14571558851E+03  0.92457703172E+02  0.20644016555E+03  0.47000000000E+01 0. -1.
        -13    1    4    4    0    0  0.54218961354E+02  0.36645255809E+02  0.90411396545E+01  0.66062945362E+02  0.00000000000E+00 0.  1.
         14    1    4    4    0    0 -0.25696864374E+01 -0.29633804180E+02  0.47851400378E+01  0.30127449341E+02  0.00000000000E+00 0. -1.
         -5    1    5    5    0  502 -0.14489094495E+02  0.25202845970E+02 -0.10421165340E+03  0.10829254826E+03  0.47000000000E+01 0.  1.
         13    1    6    6    0    0  0.99729201009E+01 -0.10553435596E+02 -0.23000274906E+02  0.27200124705E+02  0.00000000000E+00 0. -1.
        -14    1    6    6    0    0 -0.16033200662E+03 -0.16737645051E+03 -0.37097202574E+03  0.43742596221E+03  0.00000000000E+00 0.  1.
</event>
<event>
12    1  0.9962621E-001  0.2120576E+03  0.7818608E-02  0.1140744E+00
         21   -1    0    0  503  502  0.00000000000E+00  0.00000000000E+00  0.99080769756E+03  0.99080769756E+03  0.00000000000E+00 0.  1.
         21   -1    0    0  501  503 -0.00000000000E+00 -0.00000000000E+00 -0.12127109103E+03  0.12127109103E+03  0.00000000000E+00 0.  1.
          6    2    1    2  501    0  0.26361277286E+02 -0.12043821266E+03  0.87556356936E+03  0.89993552378E+03  0.16754731557E+03 0.  0.
         24    2    3    3    0    0 -0.46966522602E+02 -0.74813416931E+02  0.58481882106E+03  0.59659876886E+03  0.78192940440E+02 0.  0.
         -6    2    1    2    0  502 -0.26361277286E+02  0.12043821266E+03 -0.60269628350E+01  0.21214326481E+03  0.17253451977E+03 0.  0.
        -24    2    5    5    0    0 -0.77115440851E+02  0.10159703668E+03 -0.15948773159E+02  0.15690281449E+03  0.89974333836E+02 0.  0.
          5    1    3    3  501    0  0.73327799888E+02 -0.45624795732E+02  0.29074474830E+03  0.30333675492E+03  0.47000000000E+01 0. -1.
        -13    1    4    4    0    0 -0.57453106933E+02 -0.46276905076E+02  0.25716185076E+03  0.26753435093E+03  0.00000000000E+00 0.  1.
         14    1    4    4    0    0  0.10486584331E+02 -0.28536511855E+02  0.32765697030E+03  0.32906441793E+03  0.00000000000E+00 0. -1.
         -5    1    5    5    0  502  0.50754163565E+02  0.18841175983E+02  0.99218103235E+01  0.55240450321E+02  0.47000000000E+01 0.  1.
         13    1    6    6    0    0 -0.94791422035E+02  0.64019539244E+02 -0.83799589613E+01  0.11469149406E+03  0.00000000000E+00 0. -1.
        -14    1    6    6    0    0  0.17675981184E+02  0.37577497436E+02 -0.75688141972E+01  0.42211320433E+02  0.00000000000E+00 0.  1.
</event>
<event>
12    1  0.9962621E-001  0.2265716E+03  0.7818608E-02  0.1129380E+00
         21   -1    0    0  503  502  0.00000000000E+00  0.00000000000E+00  0.14077292443E+04  0.14077292443E+04  0.00000000000E+00 0.  1.
         21   -1    0    0  501  503 -0.00000000000E+00 -0.00000000000E+00 -0.37222570855E+02  0.37222570855E+02  0.00000000000E+00 0.  1.
          6    2    1    2  501    0  0.95240013704E+02 -0.10994655354E+03  0.56771419277E+03  0.61125617776E+03  0.17371184566E+03 0.  0.
         24    2    3    3    0    0  0.76346022810E+02 -0.61402788381E+01  0.36719523606E+03  0.38462284490E+03  0.85064523816E+02 0.  0.
         -6    2    1    2    0  502 -0.95240013704E+02  0.10994655354E+03  0.80279248071E+03  0.83369563744E+03  0.17150435549E+03 0.  0.
        -24    2    5    5    0    0 -0.51777274503E+00  0.10054725344E+03  0.49800330244E+03  0.51435384098E+03  0.80265598019E+02 0.  0.
          5    1    3    3  501    0  0.18893990894E+02 -0.10380627470E+03  0.20051895672E+03  0.22663333286E+03  0.47000000000E+01 0. -1.
        -13    1    4    4    0    0 -0.41191818927E+00  0.82714296216E+01 -0.90292625900E+00  0.83307562927E+01  0.00000000000E+00 0.  1.
         14    1    4    4    0    0  0.76757941000E+02 -0.14411708460E+02  0.36809816232E+03  0.37629208861E+03  0.00000000000E+00 0. -1.
         -5    1    5    5    0  502 -0.94722240959E+02  0.93993001014E+01  0.30478917827E+03  0.31934179646E+03  0.47000000000E+01 0.  1.
         11    1    6    6    0    0 -0.29045994154E+02  0.74207469098E+02  0.22696428364E+03  0.24054771730E+03  0.00000000000E+00 0. -1.
        -12    1    6    6    0    0  0.28528221409E+02  0.26339784340E+02  0.27103901880E+03  0.27380612368E+03  0.00000000000E+00 0.  1.
</event>
<event>
12    1  0.9962621E-001  0.2189087E+03  0.7818608E-02  0.1134860E+00
         21   -1    0    0  503  502  0.00000000000E+00  0.00000000000E+00  0.42947221875E+03  0.42947221875E+03  0.00000000000E+00 0. -1.
         21   -1    0    0  501  503 -0.00000000000E+00 -0.00000000000E+00 -0.11272055948E+03  0.11272055948E+03  0.00000000000E+00 0. -1.
          6    2    1    2  501    0 -0.63127063892E+01  0.13658790921E+03  0.19073126505E+03  0.29034362831E+03  0.17095291699E+03 0.  0.
         24    2    3    3    0    0 -0.42373840604E+02  0.80506224462E+02  0.18798336428E+03  0.22344667977E+03  0.79459920148E+02 0.  0.
         -6    2    1    2    0  502  0.63127063892E+01 -0.13658790921E+03  0.12602039422E+03  0.25184914992E+03  0.16985507751E+03 0.  0.
        -24    2    5    5    0    0  0.20430259349E+01 -0.15617256785E+03  0.65339398871E+02  0.18777058703E+03  0.81206597068E+02 0.  0.
          5    1    3    3  501    0  0.36061134215E+02  0.56081684744E+02  0.27479007727E+01  0.66896948535E+02  0.47000000000E+01 0. -1.
        -11    1    4    4    0    0  0.15061767160E+02  0.35024574115E+02  0.11012764494E+03  0.11654044707E+03  0.00000000000E+00 0.  1.
         12    1    4    4    0    0 -0.57435607764E+02  0.45481650347E+02  0.77855719339E+02  0.10690623271E+03  0.00000000000E+00 0. -1.
         -5    1    5    5    0  502  0.42696804543E+01  0.19584658641E+02  0.60680995349E+02  0.64078562889E+02  0.47000000000E+01 0.  1.
         11    1    6    6    0    0  0.18898561265E+02 -0.10183418763E+03  0.77788954628E+02  0.12953176773E+03  0.00000000000E+00 0. -1.
        -12    1    6    6    0    0 -0.16855535330E+02 -0.54338380214E+02 -0.12449555757E+02  0.58238819305E+02  0.00000000000E+00 0.  1.
</event>
<event>
12    1  0.9962621E-001  0.1977222E+03  0.7818608E-02  0.1152022E+00
         21   -1    0    0  501  502  0.00000000000E+00  0.00000000000E+00  0.78278144212E+02  0.78278144212E+02  0.00000000000E+00 0. -1.
         21   -1    0    0  502  503 -0.00000000000E+00 -0.00000000000E+00 -0.50146007679E+03  0.50146007679E+03  0.00000000000E+00 0. -1.
         -6    2    1    2    0  503 -0.80222582033E+02 -0.50862093887E+02 -0.24442597071E+03  0.31438532641E+03  0.17341125408E+03 0.  0.
        -24    2    3    3    0    0 -0.30202303945E+02  0.37333959523E+01 -0.38430138335E+02  0.95435403628E+02  0.81883596185E+02 0.  0.
          6    2    1    2  501    0  0.80222582033E+02  0.50862093887E+02 -0.17875596186E+03  0.26535289459E+03  0.17156878942E+03 0.  0.
         24    2    5    5    0    0  0.12006903823E+03  0.37551877162E+02 -0.16231599335E+03  0.21999581680E+03  0.78898417557E+02 0.  0.
          5    1    5    5  501    0 -0.39846456196E+02  0.13310216725E+02 -0.16439968510E+02  0.45357077785E+02  0.47000000000E+01 0. -1.
        -11    1    6    6    0    0  0.63827562365E+02  0.58548525766E+02 -0.78467027317E+02  0.11687156182E+03  0.00000000000E+00 0.  1.
         12    1    6    6    0    0  0.56241475863E+02 -0.20996648604E+02 -0.83848966037E+02  0.10312425498E+03  0.00000000000E+00 0. -1.
         -5    1    3    3    0  503 -0.50020278087E+02 -0.54595489839E+02 -0.20599583237E+03  0.21894992278E+03  0.47000000000E+01 0.  1.
         13    1    4    4    0    0 -0.24184500160E+02  0.36007920660E+02 -0.44394622996E+02  0.62067245381E+02  0.00000000000E+00 0. -1.
        -14    1    4    4    0    0 -0.60178037856E+01 -0.32274524708E+02  0.59644846609E+01  0.33368158247E+02  0.00000000000E+00 0.  1.
</event>
<event>
12    1  0.9962621E-001  0.2209379E+03  0.7818608E-02  0.1133321E+00
         21   -1    0    0  501  502  0.00000000000E+00  0.00000000000E+00  0.18408159841E+03  0.18408159841E+03  0.00000000000E+00 0.  1.
         21   -1    0    0  502  503 -0.00000000000E+00 -0.00000000000E+00 -0.42747519918E+03  0.42747519918E+03  0.00000000000E+00 0.  1.
         -6    2    1    2    0  503  0.93357517418E+02 -0.10188483521E+03 -0.31073934463E+03  0.38127744918E+03  0.17238737556E+03 0.  0.
        -24    2    3    3    0    0  0.88943075475E+02 -0.53775977260E+02 -0.30570272131E+03  0.33247778643E+03  0.79275458023E+02 0.  0.
          6    2    1    2  501    0 -0.93357517418E+02  0.10188483521E+03  0.67345743861E+02  0.23027934840E+03  0.17145548513E+03 0.  0.
         24    2    5    5    0    0 -0.10887154397E+03  0.62591156337E+02 -0.20827857794E+01  0.14887241413E+03  0.79924913231E+02 0.  0.
          5    1    5    5  501    0  0.15514026552E+02  0.39293678871E+02  0.69428529641E+02  0.81406934269E+02  0.47000000000E+01 0. -1.
        -11    1    6    6    0    0 -0.53258179068E+02  0.70065294005E+02 -0.19450651816E+02  0.90132718353E+02  0.00000000000E+00 0.  1.
         12    1    6    6    0    0 -0.55613364902E+02 -0.74741376684E+01  0.17367866036E+02  0.58739695779E+02  0.00000000000E+00 0. -1.
         -5    1    3    3    0  503  0.44144419424E+01 -0.48108857947E+02 -0.50366233178E+01  0.48799662756E+02  0.47000000000E+01 0.  1.
         13    1    4    4    0    0  0.88511952441E+01  0.19843208586E+02 -0.44281744211E+02  0.49325140188E+02  0.00000000000E+00 0. -1.
        -14    1    4    4    0    0  0.80091880231E+02 -0.73619185846E+02 -0.26142097710E+03  0.28315264624E+03  0.00000000000E+00 0.  1.
</event>
<event>
12    1  0.9962621E-001  0.1833714E+03  0.7818608E-02  0.1164870E+00
         21   -1    0    0  501  502  0.00000000000E+00  0.00000000000E+00  0.14255102773E+03  0.14255102773E+03  0.00000000000E+00 0.  1.
         21   -1    0    0  502  503 -0.00000000000E+00 -0.00000000000E+00 -0.23703217368E+03  0.23703217368E+03  0.00000000000E+00 0.  1.
         -6    2    1    2    0  503  0.34988044713E+02 -0.48607151822E+02 -0.27038776794E+02  0.18535412783E+03  0.17331543143E+03 0.  0.
        -24    2    3    3    0    0  0.25035646630E+01 -0.61079554264E+02  0.41154451822E+02  0.10865205031E+03  0.79841088091E+02 0.  0.
          6    2    1    2  501    0 -0.34988044713E+02  0.48607151822E+02 -0.67442369151E+02  0.19422907358E+03  0.17201639860E+03 0.  0.
         24    2    5    5    0    0  0.42342518144E+02  0.33835453393E+01 -0.36820059026E+02  0.99439799861E+02  0.82025726622E+02 0.  0.
          5    1    5    5  501    0 -0.77330562856E+02  0.45223606483E+02 -0.30622310125E+02  0.94789273720E+02  0.47000000000E+01 0. -1.
        -13    1    6    6    0    0 -0.94374215389E+01  0.31881217798E+02 -0.14230093819E+02  0.36165903054E+02  0.00000000000E+00 0.  1.
         14    1    6    6    0    0  0.51779939682E+02 -0.28497672459E+02 -0.22589965207E+02  0.63273896807E+02  0.00000000000E+00 0. -1.
         -5    1    3    3    0  503  0.32484480050E+02  0.12472402442E+02 -0.68193228615E+02  0.76702077519E+02  0.47000000000E+01 0.  1.
         11    1    4    4    0    0  0.12774063259E+02 -0.38619570621E+02 -0.18050560348E+02  0.44502479211E+02  0.00000000000E+00 0. -1.
        -12    1    4    4    0    0 -0.10270498596E+02 -0.22459983643E+02  0.59205012169E+02  0.64149571102E+02  0.00000000000E+00 0.  1.
</event>
<event>
12    1  0.9962621E-001  0.1813709E+03  0.7818608E-02  0.1166698E+00
         21   -1    0    0  503  502  0.00000000000E+00  0.00000000000E+00  0.59414010723E+02  0.59414010723E+02  0.00000000000E+00 0. -1.
         21   -1    0    0  501  503 -0.00000000000E+00 -0.00000000000E+00 -0.14424661889E+04  0.14424661889E+04  0.00000000000E+00 0. -1.
          6    2    1    2  501    0 -0.11822610101E+02 -0.55271674463E+02 -0.12812375028E+04  0.12938858724E+04  0.17139539117E+03 0.  0.
         24    2    3    3    0    0  0.10488517755E+02  0.23226027345E+02 -0.90094869428E+03  0.90491113865E+03  0.80660782107E+02 0.  0.
         -6    2    1    2    0  502  0.11822610101E+02  0.55271674463E+02 -0.10181467537E+03  0.20799432721E+03  0.17233885205E+03 0.  0.
        -24    2    5    5    0    0 -0.31753620140E+02  0.60235695287E+02 -0.94714829063E+01  0.10565721499E+03  0.80231581758E+02 0.  0.
          5    1    3    3  501    0 -0.22311127856E+02 -0.78497701808E+02 -0.38028880856E+03  0.38897473380E+03  0.47000000000E+01 0. -1.
        -13    1    4    4    0    0 -0.14101781828E+02 -0.25564247149E+02 -0.37385993603E+03  0.37499819033E+03  0.00000000000E+00 0.  1.
         14    1    4    4    0    0  0.24590299583E+02  0.48790274493E+02 -0.52708875826E+03  0.52991294832E+03  0.00000000000E+00 0. -1.
         -5    1    5    5    0  502  0.43576230241E+02 -0.49640208243E+01 -0.92343192461E+02  0.10233711223E+03  0.47000000000E+01 0.  1.
         13    1    6    6    0    0  0.26813642224E+02  0.16347184667E+02 -0.82105299289E+01  0.32459430950E+02  0.00000000000E+00 0. -1.
        -14    1    6    6    0    0 -0.58567262365E+02  0.43888510621E+02 -0.12609529774E+01  0.73197784036E+02  0.00000000000E+00 0.  1.
</event>
<event>
12    1  0.9962621E-001  0.2200539E+03  0.7818608E-02  0.1134019E+00
         21   -1    0    0  503  502  0.00000000000E+00  0.00000000000E+00  0.73688539524E+02  0.73688539524E+02  0.00000000000E+00 0. -1.
         21   -1    0    0  501  503 -0.00000000000E+00 -0.00000000000E+00 -0.80787227482E+03  0.80787227482E+03  0.00000000000E+00 0. -1.
          6    2    1    2  501    0  0.16359638582E+02 -0.13538953132E+03 -0.17428621537E+03  0.27997213483E+03  0.17149562225E+03 0.  0.
         24    2    3    3    0    0 -0.41943057603E+02 -0.11203242061E+03 -0.16021869056E+03  0.21543730503E+03  0.80204240823E+02 0.  0.
         -6    2    1    2    0  502 -0.16359638582E+02  0.13538953132E+03 -0.55989751993E+03  0.60158867951E+03  0.17270131305E+03 0.  0.
        -24    2    5    5    0    0  0.56895990366E+02  0.59760767411E+02 -0.30920218333E+03  0.32963953189E+03  0.79042569311E+02 0.  0.
          5    1    3    3  501    0  0.58302696185E+02 -0.23357110710E+02 -0.14067524805E+02  0.64534829800E+02  0.47000000000E+01 0. -1.
        -11    1    4    4    0    0  0.11329154567E+02 -0.80920354142E+02 -0.10111089732E+03  0.12999948851E+03  0.00000000000E+00 0.  1.
         12    1    4    4    0    0 -0.53272212169E+02 -0.31112066467E+02 -0.59107793246E+02  0.85437816520E+02  0.00000000000E+00 0. -1.
         -5    1    5    5    0  502 -0.73255628948E+02  0.75628763908E+02 -0.25069533659E+03  0.27194914762E+03  0.47000000000E+01 0.  1.
         11    1    6    6    0    0  0.55075215064E+02  0.53561740346E+02 -0.13508880208E+03  0.15540631837E+03  0.00000000000E+00 0. -1.
        -12    1    6    6    0    0  0.18207753012E+01  0.61990270657E+01 -0.17411338126E+03  0.17423321352E+03  0.00000000000E+00 0.  1.
</event>
<event>
12    1  0.9962621E-001  0.2110750E+03  0.7818608E-02  0.1141615E+00
         21   -1    0    0  501  502  0.00000000000E+00  0.00000000000E+00  0.28354093800E+04  0.28354093800E+04  0.00000000000E+00 0.  1.
         21   -1    0    0  502  503 -0.00000000000E+00 -0.00000000000E+00 -0.15598840871E+02  0.15598840871E+02  0.00000000000E+00 0.  1.
         -6    2    1    2    0  503 -0.11512634231E+03 -0.37764319483E+02  0.15941240886E+04  0.16080373990E+04  0.17283647817E+03 0.  0.
        -24    2    3    3    0    0 -0.53796477274E+02 -0.70686060576E+02  0.13098712392E+04  0.13153482025E+04  0.80545951324E+02 0.  0.
          6    2    1    2  501    0  0.11512634231E+03  0.37764319483E+02  0.12256864505E+04  0.12429708219E+04  0.16729904515E+03 0.  0.
         24    2    5    5    0    0  0.48866722296E+01  0.49427258293E+02  0.53758259590E+03  0.54597884649E+03  0.81430460951E+02 0.  0.
          5    1    5    5  501    0  0.11023967008E+03 -0.11662938810E+02  0.68810385461E+03  0.69699197537E+03  0.47000000000E+01 0. -1.
        -13    1    6    6    0    0  0.25633181536E+01 -0.22408910663E+02  0.98235943867E+02  0.10079201627E+03  0.00000000000E+00 0.  1.
         14    1    6    6    0    0  0.23233540760E+01  0.71836168956E+02  0.43934665204E+03  0.44518683022E+03  0.00000000000E+00 0. -1.
         -5    1    3    3    0  503 -0.61329865038E+02  0.32921741093E+02  0.28425284942E+03  0.29268919656E+03  0.47000000000E+01 0.  1.
         11    1    4    4    0    0 -0.64245665376E+02 -0.67879803146E+02  0.81226694861E+03  0.81762630156E+03  0.00000000000E+00 0. -1.
        -12    1    4    4    0    0  0.10449188102E+02 -0.28062574297E+01  0.49760429062E+03  0.49772190092E+03  0.00000000000E+00 0.  1.
</event>
<event>
12    1  0.9962621E-001  0.1939302E+03  0.7818608E-02  0.1155060E+00
         21   -1    0    0  501  502  0.00000000000E+00  0.00000000000E+00  0.64894494535E+03  0.64894494535E+03  0.00000000000E+00 0.  1.
         21   -1    0    0  502  503 -0.00000000000E+00 -0.00000000000E+00 -0.57848154337E+02  0.57848154337E+02  0.00000000000E+00 0.  1.
         -6    2    1    2    0  503 -0.26481054883E+01 -0.89739877264E+02  0.30335211738E+03  0.36004364271E+03  0.17189723531E+03 0.  0.
        -24    2    3    3    0    0 -0.74810744325E+01 -0.12376706833E+03  0.28394305836E+03  0.32029431703E+03  0.81182112876E+02 0.  0.
          6    2    1    2  501    0  0.26481054883E+01  0.89739877264E+02  0.28774467363E+03  0.34674945697E+03  0.17139991444E+03 0.  0.
         24    2    5    5    0    0  0.51414307797E+02  0.31991402468E+02  0.23130176217E+03  0.25229882922E+03  0.80543858614E+02 0.  0.
          5    1    5    5  501    0 -0.48766202308E+02  0.57748474795E+02  0.56442911458E+02  0.94450627752E+02  0.47000000000E+01 0. -1.
        -11    1    6    6    0    0  0.41543894064E+02  0.26820168849E+02  0.48857322022E+02  0.69514419412E+02  0.00000000000E+00 0.  1.
         12    1    6    6    0    0  0.98704137326E+01  0.51712336190E+01  0.18244444015E+03  0.18278440980E+03  0.00000000000E+00 0. -1.
         -5    1    3    3    0  503  0.48329689441E+01  0.34027191067E+02  0.19409059014E+02  0.39749325687E+02  0.47000000000E+01 0.  1.
         13    1    4    4    0    0  0.18481533741E+02 -0.11802218141E+03  0.20844038713E+03  0.24024611834E+03  0.00000000000E+00 0. -1.
        -14    1    4    4    0    0 -0.25962608173E+02 -0.57448869216E+01  0.75502671235E+02  0.80048198684E+02  0.00000000000E+00 0.  1.
</event>
<event>
12    1  0.9962621E-001  0.2858438E+03  0.7818608E-02  0.1093440E+00
         21   -1    0    0  501  502  0.00000000000E+00  0.00000000000E+00  0.43321847083E+03  0.43321847083E+03  0.00000000000E+00 0.  1.
         21   -1    0    0  502  503 -0.00000000000E+00 -0.00000000000E+00 -0.35797542939E+03  0.35797542939E+03  0.00000000000E+00 0.  1.
         -6    2    1    2    0  503 -0.20656161501E+03 -0.84528387946E+02  0.31299690422E+03  0.41939610845E+03  0.16767016599E+03 0.  0.
        -24    2    3    3    0    0 -0.83796497254E+02 -0.43333128765E+01  0.21039756920E+03  0.24036751367E+03  0.80428688583E+02 0.  0.
          6    2    1    2  501    0  0.20656161501E+03  0.84528387946E+02 -0.23775386278E+03  0.37179779178E+03  0.17858877216E+03 0.  0.
         24    2    5    5    0    0  0.44763374168E+02 -0.79465958755E+01 -0.11589007789E+03  0.14908011076E+03  0.82021102269E+02 0.  0.
          5    1    5    5  501    0  0.16179824084E+03  0.92474983822E+02 -0.12186378489E+03  0.22271768102E+03  0.47000000000E+01 0. -1.
        -13    1    6    6    0    0  0.62243826829E+02 -0.22974480813E+02 -0.63482823328E+02  0.91826954674E+02  0.00000000000E+00 0.  1.
         14    1    6    6    0    0 -0.17480452661E+02  0.15027884938E+02 -0.52407254559E+02  0.57253156082E+02  0.00000000000E+00 0. -1.
         -5    1    3    3    0  503 -0.12276511775E+03 -0.80195075070E+02  0.10259933502E+03  0.17902859478E+03  0.47000000000E+01 0.  1.
         13    1    4    4    0    0 -0.59642341753E+02  0.35173785737E+02  0.13858483251E+03  0.15491985003E+03  0.00000000000E+00 0. -1.
        -14    1    4    4    0    0 -0.24154155501E+02 -0.39507098614E+02  0.71812736696E+02  0.85447663634E+02  0.00000000000E+00 0.  1.
</event>
<event>
12    1  0.9962621E-001  0.2448798E+03  0.7818608E-02  0.1116654E+00
         21   -1    0    0  501  502  0.00000000000E+00  0.00000000000E+00  0.53279326332E+02  0.53279326332E+02  0.00000000000E+00 0.  1.
         21   -1    0    0  502  503 -0.00000000000E+00 -0.00000000000E+00 -0.13696030067E+04  0.13696030067E+04  0.00000000000E+00 0.  1.
         -6    2    1    2    0  503  0.17155405122E+03  0.21657902987E+02 -0.96019824247E+03  0.99093228041E+03  0.17339625796E+03 0.  0.
        -24    2    3    3    0    0  0.14575217784E+03  0.67648801175E+02 -0.57023133390E+03  0.59738790025E+03  0.76736376957E+02 0.  0.
          6    2    1    2  501    0 -0.17155405122E+03 -0.21657902987E+02 -0.35612543793E+03  0.43195005265E+03  0.17278791390E+03 0.  0.
         24    2    5    5    0    0 -0.34628425678E+02  0.39862792845E+02 -0.16911292632E+03  0.19209761375E+03  0.74257263899E+02 0.  0.
          5    1    5    5  501    0 -0.13692562555E+03 -0.61520695832E+02 -0.18701251161E+03  0.23985243890E+03  0.47000000000E+01 0. -1.
        -13    1    6    6    0    0 -0.50282679157E+02  0.32180482985E+02 -0.72463199078E+02  0.93887414114E+02  0.00000000000E+00 0.  1.
         14    1    6    6    0    0  0.15654253479E+02  0.76823098597E+01 -0.96649727241E+02  0.98210199636E+02  0.00000000000E+00 0. -1.
         -5    1    3    3    0  503  0.25801873381E+02 -0.45990898188E+02 -0.38996690856E+03  0.39354438017E+03  0.47000000000E+01 0.  1.
         13    1    4    4    0    0  0.35056958086E+02 -0.13345451729E+02 -0.17671102446E+03  0.18064849172E+03  0.00000000000E+00 0. -1.
        -14    1    4    4    0    0  0.11069521976E+03  0.80994252905E+02 -0.39352030944E+03  0.41673940853E+03  0.00000000000E+00 0.  1.
</event>
<event>
12    1  0.9962621E-001  0.2213641E+03  0.7818608E-02  0.1132893E+00
         21   -1    0    0  501  502  0.00000000000E+00  0.00000000000E+00  0.78269128533E+03  0.78269128533E+03  0.00000000000E+00 0.  1.
         21   -1    0    0  502  503 -0.00000000000E+00 -0.00000000000E+00 -0.63778739022E+02  0.63778739022E+02  0.00000000000E+00 0.  1.
         -6    2    1    2    0  503  0.44593462110E+02  0.13189203917E+03  0.41757141692E+03  0.47256021909E+03  0.17193948229E+03 0.  0.
        -24    2    3    3    0    0 -0.22501540243E+02  0.90779478069E+02  0.33862309993E+03  0.36099450403E+03  0.83091486792E+02 0.  0.
          6    2    1    2  501    0 -0.44593462110E+02 -0.13189203917E+03  0.30134112938E+03  0.37390980526E+03  0.17209874885E+03 0.  0.
         24    2    5    5    0    0  0.11867366641E+02 -0.13877127461E+03  0.18878557752E+03  0.24771158294E+03  0.79515614787E+02 0.  0.
          5    1    5    5  501    0 -0.56460828751E+02  0.68792354392E+01  0.11255555186E+03  0.12619822232E+03  0.47000000000E+01 0. -1.
        -11    1    6    6    0    0 -0.10903081213E+02  0.69225726361E+01  0.15095414292E+02  0.19866321363E+02  0.00000000000E+00 0.  1.
         12    1    6    6    0    0  0.22770447854E+02 -0.14569384724E+03  0.17369016323E+03  0.22784526158E+03  0.00000000000E+00 0. -1.
         -5    1    3    3    0  503  0.67095002353E+02  0.41112561099E+02  0.78948316990E+02  0.11156571506E+03  0.47000000000E+01 0.  1.
         11    1    4    4    0    0 -0.45176124372E+00 -0.15423868168E+02  0.27892131053E+02  0.31875865042E+02  0.00000000000E+00 0. -1.
        -12    1    4    4    0    0 -0.22049778999E+02  0.10620334624E+03  0.31073096888E+03  0.32911863899E+03  0.00000000000E+00 0.  1.
</event>
<event>
12    1  0.9962621E-001  0.1888726E+03  0.7818608E-02  0.1160890E+00
         21   -1    0    0  501  502  0.00000000000E+00  0.00000000000E+00  0.55647493537E+02  0.55647493537E+02  0.00000000000E+00 0. -1.
         21   -1    0    0  502  503 -0.00000000000E+00 -0.00000000000E+00 -0.92427543781E+03  0.92427543781E+03  0.00000000000E+00 0. -1.
         -6    2    1    2    0  503  0.56484317289E+02 -0.49775354346E+02 -0.71992574192E+03  0.74428886823E+03  0.17321888317E+03 0.  0.
        -24    2    3    3    0    0  0.38248996241E+02 -0.99762498298E+02 -0.44147145434E+03  0.46075735011E+03  0.77361158868E+02 0.  0.
          6    2    1    2  501    0 -0.56484317289E+02  0.49775354346E+02 -0.14870220235E+03  0.23563406312E+03  0.16656230882E+03 0.  0.
         24    2    5    5    0    0 -0.45787490309E+02  0.94784530429E+02 -0.13098802938E+03  0.18587333600E+03  0.79438225799E+02 0.  0.
          5    1    5    5  501    0 -0.10696826980E+02 -0.45009176083E+02 -0.17714172971E+02  0.49760727117E+02  0.47000000000E+01 0. -1.
        -11    1    6    6    0    0 -0.75462518393E+01  0.93237589579E+02 -0.90383812075E+02  0.13007469974E+03  0.00000000000E+00 0.  1.
         12    1    6    6    0    0 -0.38241238470E+02  0.15469408502E+01 -0.40604217301E+02  0.55798636259E+02  0.00000000000E+00 0. -1.
         -5    1    3    3    0  503  0.18235321049E+02  0.49987143952E+02 -0.27845428759E+03  0.28353151812E+03  0.47000000000E+01 0.  1.
         11    1    4    4    0    0  0.24857728872E+02 -0.80271881017E+02 -0.18491502473E+03  0.20311338689E+03  0.00000000000E+00 0. -1.
        -12    1    4    4    0    0  0.13391267368E+02 -0.19490617282E+02 -0.25655642961E+03  0.25764396321E+03  0.00000000000E+00 0.  1.
</event>
<event>
12    1  0.9962621E-001  0.1952188E+03  0.7818608E-02  0.1154198E+00
         21   -1    0    0  503  502  0.00000000000E+00  0.00000000000E+00  0.39943774447E+02  0.39943774447E+02  0.00000000000E+00 0. -1.
         21   -1    0    0  501  503 -0.00000000000E+00 -0.00000000000E+00 -0.95947212623E+03  0.95947212623E+03  0.00000000000E+00 0. -1.
          6    2    1    2  501    0 -0.50614458979E+02 -0.77617825230E+02 -0.39870685035E+03  0.44320962049E+03  0.16994488790E+03 0.  0.
         24    2    3    3    0    0 -0.97580888883E+02 -0.46676081872E+02 -0.21832865290E+03  0.25420797728E+03  0.72481780745E+02 0.  0.
         -6    2    1    2    0  502  0.50614458979E+02  0.77617825230E+02 -0.52082150143E+03  0.55620628019E+03  0.17182560787E+03 0.  0.
        -24    2    5    5    0    0 -0.33245317651E+02  0.17385236623E+02 -0.25937056065E+03  0.27506732647E+03  0.83555064228E+02 0.  0.
          5    1    3    3  501    0  0.46966429904E+02 -0.30941743358E+02 -0.18037819745E+03  0.18900164321E+03  0.47000000000E+01 0. -1.
        -13    1    4    4    0    0 -0.90953717306E+01 -0.58533127351E+01  0.39434787352E+01  0.11512518466E+02  0.00000000000E+00 0.  1.
         14    1    4    4    0    0 -0.88485517153E+02 -0.40822769137E+02 -0.22227213164E+03  0.24269545881E+03  0.00000000000E+00 0. -1.
         -5    1    5    5    0  502  0.83859776630E+02  0.60232588607E+02 -0.26145094078E+03  0.28113895372E+03  0.47000000000E+01 0.  1.
         13    1    6    6    0    0 -0.12114400513E+02  0.35978489354E+02 -0.45077849411E+02  0.58934055550E+02  0.00000000000E+00 0. -1.
        -14    1    6    6    0    0 -0.21130917138E+02 -0.18593252730E+02 -0.21429271124E+03  0.21613327092E+03  0.00000000000E+00 0.  1.
</event>
<event>
12    1  0.9962621E-001  0.4700265E+03  0.7818608E-02  0.1021984E+00
         21   -1    0    0  501  502  0.00000000000E+00  0.00000000000E+00  0.12354910707E+04  0.12354910707E+04  0.00000000000E+00 0.  1.
         21   -1    0    0  502  503 -0.00000000000E+00 -0.00000000000E+00 -0.19748935642E+03  0.19748935642E+03  0.00000000000E+00 0.  1.
         -6    2    1    2    0  503  0.33360243339E+03  0.28334305999E+03  0.74207002319E+03  0.87840359375E+03  0.17132157187E+03 0.  0.
        -24    2    3    3    0    0  0.19721499394E+03  0.25176497624E+03  0.53086059899E+03  0.62496677739E+03  0.80567612541E+02 0.  0.
          6    2    1    2  501    0 -0.33360243339E+03 -0.28334305999E+03  0.29593169105E+03  0.55457683334E+03  0.16854087073E+03 0.  0.
         24    2    5    5    0    0 -0.34862408034E+03 -0.26789125806E+03  0.28165795616E+03  0.52830446063E+03  0.80435833530E+02 0.  0.
          5    1    5    5  501    0  0.15021646955E+02 -0.15451801928E+02  0.14273734891E+02  0.26272372710E+02  0.47000000000E+01 0. -1.
        -13    1    6    6    0    0 -0.24299456094E+03 -0.15620066853E+03  0.14789207029E+03  0.32452591568E+03  0.00000000000E+00 0.  1.
         14    1    6    6    0    0 -0.10562951940E+03 -0.11169058953E+03  0.13376588587E+03  0.20377854495E+03  0.00000000000E+00 0. -1.
         -5    1    3    3    0  503  0.13638743945E+03  0.31578083744E+02  0.21120942421E+03  0.25343681636E+03  0.47000000000E+01 0.  1.
         13    1    4    4    0    0  0.11972391897E+03  0.18030967028E+03  0.28838356463E+03  0.36056965252E+03  0.00000000000E+00 0. -1.
        -14    1    4    4    0    0  0.77491074970E+02  0.71455305964E+02  0.24247703436E+03  0.26439712488E+03  0.00000000000E+00 0.  1.
</event>
<event>
12    1  0.9962621E-001  0.2135551E+03  0.7818608E-02  0.1138859E+00
         21   -1    0    0  503  502  0.00000000000E+00  0.00000000000E+00  0.17246564786E+03  0.17246564786E+03  0.00000000000E+00 0. -1.
         21   -1    0    0  501  503 -0.00000000000E+00 -0.00000000000E+00 -0.29442532317E+03  0.29442532317E+03  0.00000000000E+00 0. -1.
          6    2    1    2  501    0  0.11062660082E+03  0.59782625741E+02  0.14090442017E+02  0.21401939164E+03  0.17260808872E+03 0.  0.
         24    2    3    3    0    0  0.12096646860E+03  0.11351707223E+02 -0.28628538956E+02  0.14844906246E+03  0.80347888080E+02 0.  0.
         -6    2    1    2    0  502 -0.11062660082E+03 -0.59782625741E+02 -0.13605011732E+03  0.25287157939E+03  0.17211099352E+03 0.  0.
        -24    2    5    5    0    0 -0.12071191967E+02  0.25693637528E+02 -0.68226559197E+02  0.10576112689E+03  0.75661587987E+02 0.  0.
          5    1    3    3  501    0 -0.10339867779E+02  0.48430918517E+02  0.42718980973E+02  0.65570329186E+02  0.47000000000E+01 0. -1.
        -13    1    4    4    0    0  0.27736079981E+02 -0.22559967349E+02  0.16600985843E+02  0.39418713709E+02  0.00000000000E+00 0.  1.
         14    1    4    4    0    0  0.93230388619E+02  0.33911674572E+02 -0.45229524799E+02  0.10903034875E+03  0.00000000000E+00 0. -1.
         -5    1    5    5    0  502 -0.98555408853E+02 -0.85476263269E+02 -0.67823558127E+02  0.14711045250E+03  0.47000000000E+01 0.  1.
         11    1    6    6    0    0 -0.25535323432E+02 -0.20177867548E+02 -0.22175855341E+02  0.39382326514E+02  0.00000000000E+00 0. -1.
        -12    1    6    6    0    0  0.13464131465E+02  0.45871505076E+02 -0.46050703856E+02  0.66378800378E+02  0.00000000000E+00 0.  1.
</event>
<event>
12    1  0.9962621E-001  0.2214926E+03  0.7818608E-02  0.1132864E+00
         21   -1    0    0  501  502  0.00000000000E+00  0.00000000000E+00  0.10513278516E+04  0.10513278516E+04  0.00000000000E+00 0.  1.
         21   -1    0    0  502  503 -0.00000000000E+00 -0.00000000000E+00 -0.46802874590E+02  0.46802874590E+02  0.00000000000E+00 0.  1.
         -6    2    1    2    0  503 -0.10621543879E+03 -0.89542601435E+02  0.46235469245E+03  0.51246221493E+03  0.17188968320E+03 0.  0.
        -24    2    3    3    0    0 -0.88012942573E+02 -0.12523633700E+03  0.31219358044E+03  0.35697644971E+03  0.80851319174E+02 0.  0.
          6    2    1    2  501    0  0.10621543879E+03  0.89542601435E+02  0.54217028457E+03  0.58566851127E+03  0.17250910328E+03 0.  0.
         24    2    5    5    0    0 -0.78579800329E+01  0.57784559244E+02  0.30532506833E+03  0.32083070320E+03  0.79423797634E+02 0.  0.
          5    1    5    5  501    0  0.11407341882E+03  0.31758042191E+02  0.23684521624E+03  0.26483780807E+03  0.47000000000E+01 0. -1.
        -13    1    6    6    0    0 -0.32644841808E+02  0.34163682723E+02  0.79953337862E+02  0.92872919353E+02  0.00000000000E+00 0.  1.
         14    1    6    6    0    0  0.24786861775E+02  0.23620876521E+02  0.22537173046E+03  0.22795778385E+03  0.00000000000E+00 0. -1.
         -5    1    3    3    0  503 -0.18202496214E+02  0.35693735563E+02  0.15016111201E+03  0.15548576523E+03  0.47000000000E+01 0.  1.
         13    1    4    4    0    0  0.15680452165E+02 -0.14924849806E+02  0.42416311323E+02  0.47621121239E+02  0.00000000000E+00 0. -1.
        -14    1    4    4    0    0 -0.10369339474E+03 -0.11031148719E+03  0.26977726912E+03  0.30935532847E+03  0.00000000000E+00 0.  1.
</event>
<event>
12    1  0.9962621E-001  0.2274733E+03  0.7818608E-02  0.1128752E+00
         21   -1    0    0  503  502  0.00000000000E+00  0.00000000000E+00  0.11666604578E+03  0.11666604578E+03  0.00000000000E+00 0.  1.
         21   -1    0    0  501  503 -0.00000000000E+00 -0.00000000000E+00 -0.59949263556E+03  0.59949263556E+03  0.00000000000E+00 0.  1.
          6    2    1    2  501    0  0.90954917663E+02  0.11843858170E+03 -0.42538657165E+03  0.48154525452E+03  0.16920875309E+03 0.  0.
         24    2    3    3    0    0  0.89829549808E+02  0.14097725356E+03 -0.29094852313E+03  0.34514533856E+03  0.80810442262E+02 0.  0.
         -6    2    1    2    0  502 -0.90954917663E+02 -0.11843858170E+03 -0.57440018126E+02  0.23461342682E+03  0.17159140328E+03 0.  0.
        -24    2    5    5    0    0 -0.10329712406E+03 -0.25878924089E+02 -0.26960192054E+02  0.13627355661E+03  0.80644998124E+02 0.  0.
          5    1    3    3  501    0  0.11253678550E+01 -0.22538671860E+02 -0.13443804853E+03  0.13639991596E+03  0.47000000000E+01 0. -1.
        -13    1    4    4    0    0  0.12420246772E+02  0.27104131882E+02 -0.86294302816E+01  0.31038098555E+02  0.00000000000E+00 0.  1.
         14    1    4    4    0    0  0.77409303036E+02  0.11387312168E+03 -0.28231909284E+03  0.31410724000E+03  0.00000000000E+00 0. -1.
         -5    1    5    5    0  502  0.12342206401E+02 -0.92559657610E+02 -0.30479826072E+02  0.98339870211E+02  0.47000000000E+01 0.  1.
         13    1    6    6    0    0 -0.83586219536E+02  0.13490067750E+02 -0.39663382929E-01  0.84667819137E+02  0.00000000000E+00 0. -1.
        -14    1    6    6    0    0 -0.19710904528E+02 -0.39368991839E+02 -0.26920528671E+02  0.51605737468E+02  0.00000000000E+00 0.  1.
</event>
<event>
12    1  0.9962621E-001  0.2280870E+03  0.7818608E-02  0.1128029E+00
         21   -1    0    0  501  502  0.00000000000E+00  0.00000000000E+00  0.77568570794E+03  0.77568570794E+03  0.00000000000E+00 0. -1.
         21   -1    0    0  502  503 -0.00000000000E+00 -0.00000000000E+00 -0.69396922409E+02  0.69396922409E+02  0.00000000000E+00 0.  1.
         -6    2    1    2    0  503 -0.93182888922E+02 -0.11893519412E+03  0.43136092517E+03  0.48785862092E+03  0.17060233016E+03 0.  0.
        -24    2    3    3    0    0 -0.39303531043E+02 -0.97625439946E+02  0.40067735930E+03  0.42212687788E+03  0.81075648014E+02 0.  0.
          6    2    1    2  501    0  0.93182888922E+02  0.11893519412E+03  0.27492786036E+03  0.35722400943E+03  0.17086554163E+03 0.  0.
         24    2    5    5    0    0  0.10335892877E+03  0.27126408655E+02  0.18596631404E+03  0.22889376513E+03  0.79937322666E+02 0.  0.
          5    1    5    5  501    0 -0.10176039852E+02  0.91808785470E+02  0.88961546327E+02  0.12833024430E+03  0.47000000000E+01 0. -1.
        -13    1    6    6    0    0  0.55212293115E+02 -0.16041578143E+02  0.42407646831E+02  0.71443250556E+02  0.00000000000E+00 0.  1.
         14    1    6    6    0    0  0.48146635659E+02  0.43167986798E+02  0.14355866721E+03  0.15745051457E+03  0.00000000000E+00 0. -1.
         -5    1    3    3    0  503 -0.53879357878E+02 -0.21309754179E+02  0.30683565871E+02  0.65731743040E+02  0.47000000000E+01 0.  1.
         13    1    4    4    0    0  0.14494790907E+02 -0.69060985193E+02  0.18457638967E+03  0.19760557245E+03  0.00000000000E+00 0. -1.
        -14    1    4    4    0    0 -0.53798321951E+02 -0.28564454753E+02  0.21610096963E+03  0.22452130543E+03  0.00000000000E+00 0.  1.
</event>
<event>
12    1  0.9962621E-001  0.1946295E+03  0.7818608E-02  0.1154778E+00
         21   -1    0    0  501  502  0.00000000000E+00  0.00000000000E+00  0.40611742290E+02  0.40611742290E+02  0.00000000000E+00 0. -1.
         21   -1    0    0  502  503 -0.00000000000E+00 -0.00000000000E+00 -0.98602963608E+03  0.98602963608E+03  0.00000000000E+00 0. -1.
         -6    2    1    2    0  503  0.60974645714E+01  0.83233168132E+02 -0.60424493051E+03  0.63481695763E+03  0.17582859351E+03 0.  0.
        -24    2    3    3    0    0  0.65891572656E+02  0.46864503001E+02 -0.26312347374E+03  0.28655849982E+03  0.79648166328E+02 0.  0.
          6    2    1    2  501    0 -0.60974645714E+01 -0.83233168132E+02 -0.34117296328E+03  0.39182442074E+03  0.17367339020E+03 0.  0.
         24    2    5    5    0    0  0.47704664515E+02  0.70323562833E+00 -0.15525754137E+03  0.18081109634E+03  0.79445068133E+02 0.  0.
          5    1    5    5  501    0 -0.53802129086E+02 -0.83936403760E+02 -0.18591542191E+03  0.21101332440E+03  0.47000000000E+01 0. -1.
        -13    1    6    6    0    0  0.63348337025E+02  0.74471923852E+01 -0.14997510076E+03  0.16297546848E+03  0.00000000000E+00 0.  1.
         14    1    6    6    0    0 -0.15643672511E+02 -0.67439567568E+01 -0.52824406100E+01  0.17835627860E+02  0.00000000000E+00 0. -1.
         -5    1    3    3    0  503 -0.59794108084E+02  0.36368665130E+02 -0.34112145677E+03  0.34825845781E+03  0.47000000000E+01 0.  1.
         11    1    4    4    0    0  0.21287490100E+02 -0.17228055313E+02 -0.12429954173E+03  0.12728055310E+03  0.00000000000E+00 0. -1.
        -12    1    4    4    0    0  0.44604082556E+02  0.64092558315E+02 -0.13882393201E+03  0.15927794672E+03  0.00000000000E+00 0.  1.
</event>
<event>
12    1  0.9962621E-001  0.2188090E+03  0.7818608E-02  0.1135144E+00
         21   -1    0    0  501  502  0.00000000000E+00  0.00000000000E+00  0.10994876801E+04  0.10994876801E+04  0.00000000000E+00 0. -1.
         21   -1    0    0  502  503 -0.00000000000E+00 -0.00000000000E+00 -0.66662900550E+02  0.66662900550E+02  0.00000000000E+00 0.  1.
         -6    2    1    2    0  503 -0.51222191966E+02 -0.12147453880E+03  0.86114968352E+03  0.88803243258E+03  0.17217156372E+03 0.  0.
        -24    2    3    3    0    0  0.26159307132E+02 -0.66738203443E+02  0.33713086680E+03  0.35548968961E+03  0.87048267763E+02 0.  0.
          6    2    1    2  501    0  0.51222191966E+02  0.12147453880E+03  0.17167509598E+03  0.27811814803E+03  0.17463558960E+03 0.  0.
         24    2    5    5    0    0  0.42377351648E+01  0.60241346866E+01  0.28758856383E+02  0.88425036572E+02  0.83292656785E+02 0.  0.
          5    1    5    5  501    0  0.46984456801E+02  0.11545040412E+03  0.14291623960E+03  0.18969311146E+03  0.47000000000E+01 0. -1.
        -11    1    6    6    0    0  0.10399814289E+02  0.32243108041E+02 -0.14992654808E+02  0.37047993894E+02  0.00000000000E+00 0.  1.
         12    1    6    6    0    0 -0.61620791237E+01 -0.26218973355E+02  0.43751511191E+02  0.51377042678E+02  0.00000000000E+00 0. -1.
         -5    1    3    3    0  503 -0.77381499098E+02 -0.54736335361E+02  0.52401881672E+03  0.53254274297E+03  0.47000000000E+01 0.  1.
         13    1    4    4    0    0 -0.45693022300E+01  0.86558266026E+01  0.16269716517E+03  0.16299131698E+03  0.00000000000E+00 0. -1.
        -14    1    4    4    0    0  0.30728609362E+02 -0.75394030046E+02  0.17443370163E+03  0.19249837263E+03  0.00000000000E+00 0.  1.
</event>
<event>
12    1  0.9962621E-001  0.2313097E+03  0.7818608E-02  0.1125747E+00
         21   -1    0    0  501  502  0.00000000000E+00  0.00000000000E+00  0.11264513363E+03  0.11264513363E+03  0.00000000000E+00 0.  1.
         21   -1    0    0  502  503 -0.00000000000E+00 -0.00000000000E+00 -0.47720777978E+03  0.47720777978E+03  0.00000000000E+00 0.  1.
         -6    2    1    2    0  503  0.42853069694E+02  0.14858516212E+03 -0.16077649014E+03  0.28157873779E+03  0.17182424104E+03 0.  0.
        -24    2    3    3    0    0  0.74787060064E+02  0.12926996862E+03 -0.68424375172E+02  0.18185983497E+03  0.78020992796E+02 0.  0.
          6    2    1    2  501    0 -0.42853069694E+02 -0.14858516212E+03 -0.20378615601E+03  0.30827417561E+03  0.17201812110E+03 0.  0.
         24    2    5    5    0    0  0.75209450376E+01 -0.11196114062E+03 -0.57220048982E+02  0.14895508059E+03  0.79508618423E+02 0.  0.
          5    1    5    5  501    0 -0.50374014731E+02 -0.36624021494E+02 -0.14656610703E+03  0.15931909503E+03  0.47000000000E+01 0. -1.
        -13    1    6    6    0    0 -0.69092580203E+01  0.16730246941E+01  0.12843590665E+02  0.14679737027E+02  0.00000000000E+00 0.  1.
         14    1    6    6    0    0  0.14430203058E+02 -0.11363416532E+03 -0.70063639647E+02  0.13427534356E+03  0.00000000000E+00 0. -1.
         -5    1    3    3    0  503 -0.31933990370E+02  0.19315193500E+02 -0.92352114970E+02  0.99718902824E+02  0.47000000000E+01 0.  1.
         11    1    4    4    0    0  0.84258017079E+00  0.48939164610E+01  0.14332790352E+02  0.15168692724E+02  0.00000000000E+00 0. -1.
        -12    1    4    4    0    0  0.73944479893E+02  0.12437605216E+03 -0.82757165523E+02  0.16669114224E+03  0.00000000000E+00 0.  1.
</event>
<event>
12    1  0.9962621E-001  0.2130765E+03  0.7818608E-02  0.1139508E+00
         21   -1    0    0  501  502  0.00000000000E+00  0.00000000000E+00  0.11915803717E+03  0.11915803717E+03  0.00000000000E+00 0.  1.
         21   -1    0    0  502  503 -0.00000000000E+00 -0.00000000000E+00 -0.41181792357E+03  0.41181792357E+03  0.00000000000E+00 0.  1.
         -6    2    1    2    0  503  0.12129998289E+03  0.15505504237E+01 -0.22323736264E+03  0.30860413158E+03  0.17517277155E+03 0.  0.
        -24    2    3    3    0    0  0.13639261044E+03 -0.34545457480E+02 -0.13146082340E+03  0.20872554354E+03  0.80548566861E+02 0.  0.
          6    2    1    2  501    0 -0.12129998289E+03 -0.15505504237E+01 -0.69422523751E+02  0.22237182916E+03  0.17295564040E+03 0.  0.
         24    2    5    5    0    0 -0.13858551721E+01  0.33328562896E+02 -0.23580875006E+02  0.89257226911E+02  0.79360451047E+02 0.  0.
          5    1    5    5  501    0 -0.11991412772E+03 -0.34879113320E+02 -0.45841648745E+02  0.13311460225E+03  0.47000000000E+01 0. -1.
        -11    1    6    6    0    0  0.82054146475E+01 -0.22816655704E+02 -0.21265926570E+02  0.32251639337E+02  0.00000000000E+00 0.  1.
         12    1    6    6    0    0 -0.95912698196E+01  0.56145218600E+02 -0.23149484362E+01  0.57005587574E+02  0.00000000000E+00 0. -1.
         -5    1    3    3    0  503 -0.15092627547E+02  0.36096007904E+02 -0.91776539244E+02  0.99878588038E+02  0.47000000000E+01 0.  1.
         11    1    4    4    0    0 -0.76423167541E+01  0.36361235715E+01  0.19888363233E+01  0.86937834064E+01  0.00000000000E+00 0. -1.
        -12    1    4    4    0    0  0.14403492719E+03 -0.38181581051E+02 -0.13344965972E+03  0.20003176013E+03  0.00000000000E+00 0.  1.
</event>
<event>
12    1  0.9962621E-001  0.2742885E+03  0.7818608E-02  0.1098899E+00
         21   -1    0    0  501  502  0.00000000000E+00  0.00000000000E+00  0.29201951933E+03  0.29201951933E+03  0.00000000000E+00 0.  1.
         21   -1    0    0  502  503 -0.00000000000E+00 -0.00000000000E+00 -0.45578850162E+03  0.45578850162E+03  0.00000000000E+00 0.  1.
         -6    2    1    2    0  503 -0.98349158619E+02  0.18922504956E+03  0.16488294538E+03  0.31973527903E+03  0.17194646433E+03 0.  0.
        -24    2    3    3    0    0 -0.11844104037E+03  0.12419040387E+03  0.16593050560E+03  0.25149763374E+03  0.79161800317E+02 0.  0.
          6    2    1    2  501    0  0.98349158619E+02 -0.18922504956E+03 -0.32865192767E+03  0.42807274193E+03  0.17249784476E+03 0.  0.
         24    2    5    5    0    0  0.65188006061E+02 -0.20651201092E+03 -0.24647751392E+03  0.33766684972E+03  0.79818855808E+02 0.  0.
          5    1    5    5  501    0  0.33161152559E+02  0.17286961365E+02 -0.82174413744E+02  0.90405892211E+02  0.47000000000E+01 0. -1.
        -11    1    6    6    0    0 -0.15807208047E+01  0.47237119543E+01 -0.20942099950E+02  0.21526348581E+02  0.00000000000E+00 0.  1.
         12    1    6    6    0    0  0.66768726865E+02 -0.21123572287E+03 -0.22553541397E+03  0.31614050114E+03  0.00000000000E+00 0. -1.
         -5    1    3    3    0  503  0.20091881755E+02  0.65034645684E+02 -0.10475602234E+01  0.68237645285E+02  0.47000000000E+01 0.  1.
         13    1    4    4    0    0 -0.44595557729E+02  0.48152856737E+02  0.15434319789E+02  0.67421655338E+02  0.00000000000E+00 0. -1.
        -14    1    4    4    0    0 -0.73845482646E+02  0.76037547135E+02  0.15049618581E+03  0.18407597840E+03  0.00000000000E+00 0.  1.
</event>
<event>
12    1  0.9962621E-001  0.1953517E+03  0.7818608E-02  0.1154427E+00
         21   -1    0    0  503  502  0.00000000000E+00  0.00000000000E+00  0.22242218143E+02  0.22242218143E+02  0.00000000000E+00 0.  1.
         21   -1    0    0  501  503 -0.00000000000E+00 -0.00000000000E+00 -0.17482798172E+04  0.17482798172E+04  0.00000000000E+00 0.  1.
          6    2    1    2  501    0  0.15636500249E+02 -0.83475377866E+02 -0.69118892465E+03  0.71739617597E+03  0.17234414664E+03 0.  0.
         24    2    3    3    0    0  0.60883218482E+02 -0.37801708323E+02 -0.57022749925E+03  0.58033011147E+03  0.80547513542E+02 0.  0.
         -6    2    1    2    0  502 -0.15636500249E+02  0.83475377866E+02 -0.10348486745E+04  0.10531258594E+04  0.17592514863E+03 0.  0.
        -24    2    5    5    0    0 -0.48058817320E+02  0.30557852878E+02 -0.29775412286E+03  0.31340838695E+03  0.79522745399E+02 0.  0.
          5    1    3    3  501    0 -0.45246718233E+02 -0.45673669543E+02 -0.12096142540E+03  0.13706606449E+03  0.47000000000E+01 0. -1.
        -13    1    4    4    0    0 -0.13484945986E+02  0.11898610478E+02 -0.78520676706E+02  0.80553816607E+02  0.00000000000E+00 0.  1.
         14    1    4    4    0    0  0.74368164467E+02 -0.49700318800E+02 -0.49170682254E+03  0.49977629487E+03  0.00000000000E+00 0. -1.
         -5    1    5    5    0  502  0.32422317071E+02  0.52917524988E+02 -0.73709455159E+03  0.73971747247E+03  0.47000000000E+01 0.  1.
         13    1    6    6    0    0 -0.24740982117E+02  0.20489465938E+02 -0.28133861519E+03  0.28316664847E+03  0.00000000000E+00 0. -1.
        -14    1    6    6    0    0 -0.23317835203E+02  0.10068386940E+02 -0.16415507673E+02  0.30241738480E+02  0.00000000000E+00 0.  1.
</event>
<event>
12    1  0.9962621E-001  0.3171879E+03  0.7818608E-02  0.1077026E+00
         21   -1    0    0  501  502  0.00000000000E+00  0.00000000000E+00  0.15436525698E+03  0.15436525698E+03  0.00000000000E+00 0. -1.
         21   -1    0    0  502  503 -0.00000000000E+00 -0.00000000000E+00 -0.10000021228E+04  0.10000021228E+04  0.00000000000E+00 0. -1.
         -6    2    1    2    0  503  0.17097552417E+03 -0.20393299049E+03 -0.76379747611E+03  0.82679166188E+03  0.17139595434E+03 0.  0.
        -24    2    3    3    0    0  0.18901429607E+03 -0.18742079935E+03 -0.74392467659E+03  0.79493153149E+03  0.87402832739E+02 0.  0.
          6    2    1    2  501    0 -0.17097552417E+03  0.20393299049E+03 -0.81839389674E+02  0.32757571787E+03  0.17258873300E+03 0.  0.
         24    2    5    5    0    0 -0.99281859848E+02  0.41471740282E+02  0.36235347924E+00  0.13183901742E+03  0.76187940504E+02 0.  0.
          5    1    5    5  501    0 -0.71693664324E+02  0.16246125021E+03 -0.82201743153E+02  0.19573670044E+03  0.47000000000E+01 0. -1.
        -13    1    6    6    0    0 -0.11220095288E+03  0.37996549098E+02  0.27716309207E+00  0.11846040853E+03  0.00000000000E+00 0.  1.
         14    1    6    6    0    0  0.12919093030E+02  0.34751911831E+01  0.85190387173E-01  0.13378608892E+02  0.00000000000E+00 0. -1.
         -5    1    3    3    0  503 -0.18038771897E+02 -0.16512191137E+02 -0.19872799524E+02  0.31860130392E+02  0.47000000000E+01 0.  1.
         13    1    4    4    0    0  0.13436021852E+03 -0.77296964362E+02 -0.46376751495E+03  0.48898649975E+03  0.00000000000E+00 0. -1.
        -14    1    4    4    0    0  0.54654077552E+02 -0.11012383499E+03 -0.28015716164E+03  0.30594503174E+03  0.00000000000E+00 0.  1.
</event>
<event>
12    1  0.9962621E-001  0.3164680E+03  0.7818608E-02  0.1077409E+00
         21   -1    0    0  501  502  0.00000000000E+00  0.00000000000E+00  0.19946521215E+04  0.19946521215E+04  0.00000000000E+00 0.  1.
         21   -1    0    0  502  503 -0.00000000000E+00 -0.00000000000E+00 -0.50569075974E+02  0.50569075974E+02  0.00000000000E+00 0.  1.
         -6    2    1    2    0  503 -0.48862349122E+02  0.26053945103E+03  0.86620155307E+03  0.92184213981E+03  0.17093702195E+03 0.  0.
        -24    2    3    3    0    0  0.48746492647E+01  0.20224604210E+03  0.46901078994E+03  0.51678858923E+03  0.78562720958E+02 0.  0.
          6    2    1    2  501    0  0.48862349122E+02 -0.26053945103E+03  0.10778814924E+04  0.11233790577E+04  0.17286891196E+03 0.  0.
         24    2    5    5    0    0  0.46931922260E+02 -0.26506744711E+03  0.10806430539E+04  0.11160342964E+04  0.72662122452E+02 0.  0.
          5    1    5    5  501    0  0.19304268619E+01  0.45279960744E+01 -0.27615614247E+01  0.73447612501E+01  0.47000000000E+01 0. -1.
        -11    1    6    6    0    0  0.32350741171E+02 -0.12676079462E+03  0.38483385079E+03  0.40646274395E+03  0.00000000000E+00 0.  1.
         12    1    6    6    0    0  0.14581181089E+02 -0.13830665248E+03  0.69580920308E+03  0.70957155245E+03  0.00000000000E+00 0. -1.
         -5    1    3    3    0  503 -0.53736998387E+02  0.58293408932E+02  0.39719076313E+03  0.40505355058E+03  0.47000000000E+01 0.  1.
         11    1    4    4    0    0 -0.22522615507E+02  0.82703619559E+02  0.12496094208E+03  0.15153347466E+03  0.00000000000E+00 0. -1.
        -12    1    4    4    0    0  0.27397264771E+02  0.11954242254E+03  0.34404984786E+03  0.36525511457E+03  0.00000000000E+00 0.  1.
</event>
<event>
12    1  0.9962621E-001  0.1818097E+03  0.7818608E-02  0.1166092E+00
         21   -1    0    0  503  502  0.00000000000E+00  0.00000000000E+00  0.80320649718E+03  0.80320649718E+03  0.00000000000E+00 0. -1.
         21   -1    0    0  501  503 -0.00000000000E+00 -0.00000000000E+00 -0.65025861879E+02  0.65025861879E+02  0.00000000000E+00 0. -1.
          6    2    1    2  501    0  0.35957395713E+02 -0.45642102229E+02  0.63234922880E+03  0.65796679532E+03  0.17227484083E+03 0.  0.
         24    2    3    3    0    0 -0.26294422916E+02  0.23320284517E+02  0.30563025248E+03  0.31826327871E+03  0.81525646277E+02 0.  0.
         -6    2    1    2    0  502 -0.35957395713E+02  0.45642102229E+02  0.10583140650E+03  0.21026556374E+03  0.17214872898E+03 0.  0.
        -24    2    5    5    0    0 -0.87178618510E+02  0.51638806011E+02  0.72568983070E+02  0.14871840350E+03  0.81143258644E+02 0.  0.
          5    1    3    3  501    0  0.62251818629E+02 -0.68962386746E+02  0.32671897632E+03  0.33970351661E+03  0.47000000000E+01 0. -1.
        -13    1    4    4    0    0  0.12536460563E+02 -0.13735253741E+02  0.18760843063E+02  0.26415701226E+02  0.00000000000E+00 0.  1.
         14    1    4    4    0    0 -0.38830883480E+02  0.37055538258E+02  0.28686940941E+03  0.29184757749E+03  0.00000000000E+00 0. -1.
         -5    1    5    5    0  502  0.51221222797E+02 -0.59967037814E+01  0.33262423431E+02  0.61547160240E+02  0.47000000000E+01 0.  1.
         13    1    6    6    0    0 -0.56128535043E+02 -0.22734635859E+01  0.42781290575E+01  0.56337229884E+02  0.00000000000E+00 0. -1.
        -14    1    6    6    0    0 -0.31050083466E+02  0.53912269597E+02  0.68290854012E+02  0.92381173613E+02  0.00000000000E+00 0.  1.
</event>
<event>
12    1  0.9962621E-001  0.1861518E+03  0.7818608E-02  0.1162810E+00
         21   -1    0    0  501  502  0.00000000000E+00  0.00000000000E+00  0.46854398061E+02  0.46854398061E+02  0.00000000000E+00 0. -1.
         21   -1    0    0  502  503 -0.00000000000E+00 -0.00000000000E+00 -0.72629424207E+03  0.72629424207E+03  0.00000000000E+00 0. -1.
         -6    2    1    2    0  503  0.64308050940E+02 -0.18619483839E+02 -0.33043454908E+03  0.37926174143E+03  0.17369590292E+03 0.  0.
        -24    2    3    3    0    0  0.37222305423E+02  0.27807136267E+02 -0.66305732633E+02  0.10967837706E+03  0.73987562242E+02 0.  0.
          6    2    1    2  501    0 -0.64308050940E+02  0.18619483839E+02 -0.34900529493E+03  0.39388689870E+03  0.16988226066E+03 0.  0.
         24    2    5    5    0    0 -0.88830436402E+02  0.47568203307E+02 -0.19033641171E+03  0.23067758448E+03  0.82647552662E+02 0.  0.
          5    1    5    5  501    0  0.24522385462E+02 -0.28948719468E+02 -0.15866888322E+03  0.16320931422E+03  0.47000000000E+01 0. -1.
        -13    1    6    6    0    0 -0.45629321744E+02 -0.52284268496E+01 -0.13574635135E+03  0.14330541984E+03  0.00000000000E+00 0.  1.
         14    1    6    6    0    0 -0.43201114658E+02  0.52796630156E+02 -0.54590060354E+02  0.87372164636E+02  0.00000000000E+00 0. -1.
         -5    1    3    3    0  503  0.27085745517E+02 -0.46426620107E+02 -0.26412881645E+03  0.26958336437E+03  0.47000000000E+01 0.  1.
         11    1    4    4    0    0 -0.65504980488E+00  0.20868967949E+02 -0.68000286411E+02  0.71133549508E+02  0.00000000000E+00 0. -1.
        -12    1    4    4    0    0  0.37877355228E+02  0.69381683182E+01  0.16945537782E+01  0.38544827554E+02  0.00000000000E+00 0.  1.
</event>
<event>
12    1  0.9962621E-001  0.2574955E+03  0.7818608E-02  0.1108825E+00
         21   -1    0    0  503  502  0.00000000000E+00  0.00000000000E+00  0.38566984506E+03  0.38566984506E+03  0.00000000000E+00 0. -1.
         21   -1    0    0  501  503 -0.00000000000E+00 -0.00000000000E+00 -0.17128227717E+03  0.17128227717E+03  0.00000000000E+00 0. -1.
          6    2    1    2  501    0  0.96952608609E+02 -0.16364398373E+03  0.11401551570E+03  0.28160870053E+03  0.17356486012E+03 0.  0.
         24    2    3    3    0    0  0.12682842037E+03 -0.11370069893E+03  0.11892289961E+03  0.22301630988E+03  0.81119179431E+02 0.  0.
         -6    2    1    2    0  502 -0.96952608609E+02  0.16364398373E+03  0.10037205219E+03  0.27534342170E+03  0.17193105969E+03 0.  0.
        -24    2    5    5    0    0  0.46080972454E+01  0.24296902719E+02  0.27136423097E+02  0.87946160970E+02  0.79916004210E+02 0.  0.
          5    1    3    3  501    0 -0.29875811764E+02 -0.49943284795E+02 -0.49073839050E+01  0.58592390645E+02  0.47000000000E+01 0. -1.
        -11    1    4    4    0    0  0.40680045890E+02 -0.82970488207E+00  0.52049248725E+02  0.66065716046E+02  0.00000000000E+00 0.  1.
         12    1    4    4    0    0  0.86148374483E+02 -0.11287099405E+03  0.66873650880E+02  0.15695059384E+03  0.00000000000E+00 0. -1.
         -5    1    5    5    0  502 -0.10156070585E+03  0.13934708101E+03  0.73235629090E+02  0.18739726073E+03  0.47000000000E+01 0.  1.
         11    1    6    6    0    0 -0.10384199545E+02 -0.24782073055E+02  0.24815634769E+02  0.36575927522E+02  0.00000000000E+00 0. -1.
        -12    1    6    6    0    0  0.14992296790E+02  0.49078975774E+02  0.23207883288E+01  0.51370233449E+02  0.00000000000E+00 0.  1.
</event>
<event>
12    1  0.9962621E-001  0.1889314E+03  0.7818608E-02  0.1159812E+00
         21   -1    0    0  503  502  0.00000000000E+00  0.00000000000E+00  0.14242977257E+03  0.14242977257E+03  0.00000000000E+00 0.  1.
         21   -1    0    0  501  503 -0.00000000000E+00 -0.00000000000E+00 -0.31726027031E+03  0.31726027031E+03  0.00000000000E+00 0.  1.
          6    2    1    2  501    0  0.29240858239E+02  0.69843805181E+02 -0.19480866176E+03  0.27137698930E+03  0.17309497598E+03 0.  0.
         24    2    3    3    0    0 -0.35967117776E+02  0.62741360362E+02 -0.64574810485E+02  0.12548157855E+03  0.79659328048E+02 0.  0.
         -6    2    1    2    0  502 -0.29240858239E+02 -0.69843805181E+02  0.19978164015E+02  0.18831305358E+03  0.17125855949E+03 0.  0.
        -24    2    5    5    0    0 -0.72622097356E+02 -0.11152330170E+02  0.57450070788E+01  0.11380604785E+03  0.86720631509E+02 0.  0.
          5    1    3    3  501    0  0.65207976015E+02  0.71024448193E+01 -0.13023385128E+03  0.14589541075E+03  0.47000000000E+01 0. -1.
        -13    1    4    4    0    0 -0.39011991877E+02  0.43200855268E+02 -0.81019214031E+02  0.99761527897E+02  0.00000000000E+00 0.  1.
         14    1    4    4    0    0  0.30448741009E+01  0.19540505093E+02  0.16444403546E+02  0.25720050653E+02  0.00000000000E+00 0. -1.
         -5    1    5    5    0  502  0.43381239117E+02 -0.58691475011E+02  0.14233156936E+02  0.74507005729E+02  0.47000000000E+01 0.  1.
         11    1    6    6    0    0 -0.69825864500E+01 -0.24699030395E+02  0.32696271424E+02  0.41567352346E+02  0.00000000000E+00 0. -1.
        -12    1    6    6    0    0 -0.65639510906E+02  0.13546700225E+02 -0.26951264346E+02  0.72238695509E+02  0.00000000000E+00 0.  1.
</event>
<event>
12    1  0.9962621E-001  0.2315216E+03  0.7818608E-02  0.1125574E+00
         21   -1    0    0  501  502  0.00000000000E+00  0.00000000000E+00  0.17599047587E+03  0.17599047587E+03  0.00000000000E+00 0.  1.
         21   -1    0    0  502  503 -0.00000000000E+00 -0.00000000000E+00 -0.33869157580E+03  0.33869157580E+03  0.00000000000E+00 0.  1.
         -6    2    1    2    0  503  0.42245085879E+02  0.14943981338E+03  0.33022907917E+00  0.23151872074E+03  0.17170877641E+03 0.  0.
        -24    2    3    3    0    0  0.62632388742E+02  0.11960007489E+03  0.55216144525E+02  0.16563544649E+03  0.78481109098E+02 0.  0.
          6    2    1    2  501    0 -0.42245085879E+02 -0.14943981338E+03 -0.16303132900E+03  0.28316333093E+03  0.17171299496E+03 0.  0.
         24    2    5    5    0    0 -0.87144797818E+02 -0.88087225720E+02 -0.70042811825E+02  0.16295901124E+03  0.79347770813E+02 0.  0.
          5    1    5    5  501    0  0.44899711939E+02 -0.61352587664E+02 -0.92988517177E+02  0.12020431969E+03  0.47000000000E+01 0. -1.
        -13    1    6    6    0    0 -0.51809757255E+02 -0.36748919786E+02 -0.77484870088E+02  0.10019300946E+03  0.00000000000E+00 0.  1.
         14    1    6    6    0    0 -0.35335040563E+02 -0.51338305934E+02  0.74420582624E+01  0.62766001776E+02  0.00000000000E+00 0. -1.
         -5    1    3    3    0  503 -0.20387302863E+02  0.29839738496E+02 -0.54885915446E+02  0.65883274250E+02  0.47000000000E+01 0.  1.
         11    1    4    4    0    0 -0.92588794568E+01  0.57506283896E+02  0.57412490330E+01  0.58529150658E+02  0.00000000000E+00 0. -1.
        -12    1    4    4    0    0  0.71891268199E+02  0.62093790993E+02  0.49474895492E+02  0.10710629583E+03  0.00000000000E+00 0.  1.
</event>
<event>
12    1  0.9962621E-001  0.4299970E+03  0.7818608E-02  0.1033977E+00
         21   -1    0    0  501  502  0.00000000000E+00  0.00000000000E+00  0.12290075329E+04  0.12290075329E+04  0.00000000000E+00 0.  1.
         21   -1    0    0  502  503 -0.00000000000E+00 -0.00000000000E+00 -0.16229856995E+03  0.16229856995E+03  0.00000000000E+00 0.  1.
         -6    2    1    2    0  503  0.38917171371E+03 -0.56277099659E+02  0.72621175125E+03  0.84396738047E+03  0.17399912915E+03 0.  0.
        -24    2    3    3    0    0  0.24421067770E+03 -0.91771080737E+02  0.53819763399E+03  0.60387380924E+03  0.83343253466E+02 0.  0.
          6    2    1    2  501    0 -0.38917171371E+03  0.56277099659E+02  0.34049721168E+03  0.54733872236E+03  0.17035137549E+03 0.  0.
         24    2    5    5    0    0 -0.37169908633E+03  0.11743636470E+02  0.30871663209E+03  0.48971392483E+03  0.78839364958E+02 0.  0.
          5    1    5    5  501    0 -0.17472627387E+02  0.44533463189E+02  0.31780579586E+02  0.57624797529E+02  0.47000000000E+01 0. -1.
        -13    1    6    6    0    0 -0.91711003910E+02 -0.25087925990E+02  0.53628714693E+02  0.10916204152E+03  0.00000000000E+00 0.  1.
         14    1    6    6    0    0 -0.27998808242E+03  0.36831562459E+02  0.25508791740E+03  0.38055188331E+03  0.00000000000E+00 0. -1.
         -5    1    3    3    0  503  0.14496103602E+03  0.35493981079E+02  0.18801411726E+03  0.24009357123E+03  0.47000000000E+01 0.  1.
         13    1    4    4    0    0  0.18409846994E+03 -0.28400181915E+02  0.35415096368E+03  0.40015212363E+03  0.00000000000E+00 0. -1.
        -14    1    4    4    0    0  0.60112207756E+02 -0.63370898822E+02  0.18404667031E+03  0.20372168561E+03  0.00000000000E+00 0.  1.
</event>
<event>
12    1  0.9962621E-001  0.2826495E+03  0.7818608E-02  0.1094771E+00
         21   -1    0    0  501  502  0.00000000000E+00  0.00000000000E+00  0.19102501671E+04  0.19102501671E+04  0.00000000000E+00 0.  1.
         21   -1    0    0  502  503 -0.00000000000E+00 -0.00000000000E+00 -0.63248095927E+02  0.63248095927E+02  0.00000000000E+00 0.  1.
         -6    2    1    2    0  503  0.13985178534E+02  0.22483299623E+03  0.15094475921E+04  0.15356831697E+04  0.17071995455E+03 0.  0.
        -24    2    3    3    0    0 -0.14935104855E+02  0.23749537785E+03  0.13356412757E+04  0.13589702830E+04  0.78965187350E+02 0.  0.
          6    2    1    2  501    0 -0.13985178534E+02 -0.22483299623E+03  0.33755447906E+03  0.43781509335E+03  0.16429719480E+03 0.  0.
         24    2    5    5    0    0  0.13898060262E+02 -0.14152275605E+03  0.11714510713E+03  0.20049578871E+03  0.79080582978E+02 0.  0.
          5    1    5    5  501    0 -0.27883238796E+02 -0.83310240177E+02  0.22040937192E+03  0.23731930464E+03  0.47000000000E+01 0. -1.
        -13    1    6    6    0    0 -0.20495172527E+02 -0.10770906991E+03  0.57546666239E+02  0.12382614680E+03  0.00000000000E+00 0.  1.
         14    1    6    6    0    0  0.34393232789E+02 -0.33813686143E+02  0.59598440893E+02  0.76669641901E+02  0.00000000000E+00 0. -1.
         -5    1    3    3    0  503  0.28920283389E+02 -0.12662381622E+02  0.17380631642E+03  0.17671288670E+03  0.47000000000E+01 0.  1.
         13    1    4    4    0    0 -0.23275672616E+02  0.28780592349E+02  0.12223574422E+03  0.12771709594E+03  0.00000000000E+00 0. -1.
        -14    1    4    4    0    0  0.83405677616E+01  0.20871478550E+03  0.12134055315E+04  0.12312531871E+04  0.00000000000E+00 0.  1.
</event>
<event>
12    1  0.9962621E-001  0.2545934E+03  0.7818608E-02  0.1110677E+00
         21   -1    0    0  503  502  0.00000000000E+00  0.00000000000E+00  0.18054138618E+04  0.18054138618E+04  0.00000000000E+00 0.  1.
         21   -1    0    0  501  503 -0.00000000000E+00 -0.00000000000E+00 -0.36730719853E+02  0.36730719853E+02  0.00000000000E+00 0. -1.
          6    2    1    2  501    0 -0.18726544260E+03 -0.19805483166E+01  0.72614480569E+03  0.76896985221E+03  0.17016487948E+03 0.  0.
         24    2    3    3    0    0 -0.20691989860E+03  0.27508538876E+01  0.70450938056E+03  0.73898876771E+03  0.83351783788E+02 0.  0.
         -6    2    1    2    0  502  0.18726544260E+03  0.19805483166E+01  0.10425383362E+04  0.10731747294E+04  0.17246897922E+03 0.  0.
        -24    2    5    5    0    0  0.57118147844E+02 -0.10411743985E+02  0.22825695522E+03  0.24845165790E+03  0.79095521240E+02 0.  0.
          5    1    3    3  501    0  0.19654455999E+02 -0.47314022042E+01  0.21635425126E+02  0.29981084500E+02  0.47000000000E+01 0. -1.
        -11    1    4    4    0    0  0.95933540504E+00  0.13993691252E+02  0.30717277103E+02  0.33768251834E+02  0.00000000000E+00 0.  1.
         12    1    4    4    0    0 -0.20787923400E+03 -0.11242837364E+02  0.67379210346E+03  0.70522051587E+03  0.00000000000E+00 0. -1.
         -5    1    5    5    0  502  0.13014729476E+03  0.12392292301E+02  0.81428138103E+03  0.82472307154E+03  0.47000000000E+01 0.  1.
         11    1    6    6    0    0  0.71234504865E+02 -0.15495893312E+01  0.21684662862E+03  0.22825252738E+03  0.00000000000E+00 0. -1.
        -12    1    6    6    0    0 -0.14116357021E+02 -0.88621546536E+01  0.11410326598E+02  0.20199130519E+02  0.00000000000E+00 0.  1.
</event>
<event>
12    1  0.9962621E-001  0.2334291E+03  0.7818608E-02  0.1124598E+00
         21   -1    0    0  503  502  0.00000000000E+00  0.00000000000E+00  0.13153022975E+04  0.13153022975E+04  0.00000000000E+00 0.  1.
         21   -1    0    0  501  503 -0.00000000000E+00 -0.00000000000E+00 -0.61823753791E+02  0.61823753791E+02  0.00000000000E+00 0.  1.
          6    2    1    2  501    0  0.93566615870E+02 -0.12153083610E+03  0.10238734973E+04  0.10497002828E+04  0.17328961135E+03 0.  0.
         24    2    3    3    0    0  0.76405302005E+01 -0.34696214346E+00  0.28202160908E+03  0.29310584875E+03  0.79475483627E+02 0.  0.
         -6    2    1    2    0  502 -0.93566615870E+02  0.12153083610E+03  0.22960504642E+03  0.32742576855E+03  0.17596789719E+03 0.  0.
        -24    2    5    5    0    0 -0.10882746781E+03  0.13727928777E+03  0.23619363495E+03  0.30405042191E+03  0.77267103434E+02 0.  0.
          5    1    3    3  501    0  0.85926085670E+02 -0.12118387396E+03  0.74185188822E+03  0.75659443400E+03  0.47000000000E+01 0. -1.
        -11    1    4    4    0    0 -0.20187804852E+02  0.72154001807E+01  0.24614159094E+03  0.24707345518E+03  0.00000000000E+00 0.  1.
         12    1    4    4    0    0  0.27828335053E+02 -0.75623623242E+01  0.35880018137E+02  0.46032393564E+02  0.00000000000E+00 0. -1.
         -5    1    5    5    0  502  0.15260851942E+02 -0.15748451667E+02 -0.65885885265E+01  0.23375346643E+02  0.47000000000E+01 0.  1.
         13    1    6    6    0    0 -0.20679394674E+02  0.51025717924E+02  0.27265998354E+02  0.61438554019E+02  0.00000000000E+00 0. -1.
        -14    1    6    6    0    0 -0.88148073139E+02  0.86253569845E+02  0.20892763659E+03  0.24261186789E+03  0.00000000000E+00 0.  1.
</event>
<event>
12    1  0.9962621E-001  0.2231863E+03  0.7818608E-02  0.1131649E+00
         21   -1    0    0  503  502  0.00000000000E+00  0.00000000000E+00  0.13293899544E+03  0.13293899544E+03  0.00000000000E+00 0.  1.
         21   -1    0    0  501  503 -0.00000000000E+00 -0.00000000000E+00 -0.42016210964E+03  0.42016210964E+03  0.00000000000E+00 0.  1.
          6    2    1    2  501    0  0.56772040241E+02 -0.13047222692E+03 -0.23586020575E+03  0.32471860818E+03  0.17194787377E+03 0.  0.
         24    2    3    3    0    0  0.98599752066E+02 -0.69482030148E+02 -0.18650124230E+03  0.23568064521E+03  0.78822519141E+02 0.  0.
         -6    2    1    2    0  502 -0.56772040241E+02  0.13047222692E+03 -0.51362908456E+02  0.22838249689E+03  0.17109748675E+03 0.  0.
        -24    2    5    5    0    0 -0.91790969201E+01  0.14644819852E+03 -0.59938006832E+02  0.17723621419E+03  0.79301830281E+02 0.  0.
          5    1    3    3  501    0 -0.41827711825E+02 -0.60990196769E+02 -0.49358963450E+02  0.89037962978E+02  0.47000000000E+01 0. -1.
        -13    1    4    4    0    0  0.75723157216E+01  0.63638631764E+01 -0.65815145196E+02  0.66554279029E+02  0.00000000000E+00 0.  1.
         14    1    4    4    0    0  0.91027436345E+02 -0.75845893324E+02 -0.12068609711E+03  0.16912636618E+03  0.00000000000E+00 0. -1.
         -5    1    5    5    0  502 -0.47592943321E+02 -0.15975971604E+02  0.85750983759E+01  0.51146282708E+02  0.47000000000E+01 0.  1.
         13    1    6    6    0    0 -0.26278622660E+02  0.69367758825E+02 -0.64290908017E+02  0.98161972408E+02  0.00000000000E+00 0. -1.
        -14    1    6    6    0    0  0.17099525740E+02  0.77080439695E+02  0.43529011849E+01  0.79074241778E+02  0.00000000000E+00 0.  1.
</event>
<event>
12    1  0.9962621E-001  0.2785569E+03  0.7818608E-02  0.1096575E+00
         21   -1    0    0  503  502  0.00000000000E+00  0.00000000000E+00  0.13950412144E+04  0.13950412144E+04  0.00000000000E+00 0. -1.
         21   -1    0    0  501  503 -0.00000000000E+00 -0.00000000000E+00 -0.60439985082E+02  0.60439985082E+02  0.00000000000E+00 0. -1.
          6    2    1    2  501    0  0.60976996277E+01  0.21927276194E+03  0.45813495174E+03  0.53581435688E+03  0.17056278892E+03 0.  0.
         24    2    3    3    0    0 -0.36266825804E+02  0.91176490809E+02  0.13537854566E+03  0.18596125148E+03  0.81399025157E+02 0.  0.
         -6    2    1    2    0  502 -0.60976996277E+01 -0.21927276194E+03  0.87646627755E+03  0.91966684258E+03  0.17168645720E+03 0.  0.
        -24    2    5    5    0    0  0.22361346062E+02 -0.23250257252E+03  0.72522672831E+03  0.76513388032E+03  0.70132526901E+02 0.  0.
          5    1    3    3  501    0  0.42364525432E+02  0.12809627113E+03  0.32275640608E+03  0.34985310540E+03  0.47000000000E+01 0. -1.
        -11    1    4    4    0    0  0.25512988664E+02  0.36378549802E+02  0.39834182536E+02  0.59674731458E+02  0.00000000000E+00 0.  1.
         12    1    4    4    0    0 -0.61779814468E+02  0.54797941007E+02  0.95544363126E+02  0.12628652002E+03  0.00000000000E+00 0. -1.
         -5    1    5    5    0  502 -0.28459045690E+02  0.13229810588E+02  0.15123954924E+03  0.15453296225E+03  0.47000000000E+01 0.  1.
         13    1    6    6    0    0 -0.13690486284E+02 -0.12944170194E+03  0.32011476958E+03  0.34556627341E+03  0.00000000000E+00 0. -1.
        -14    1    6    6    0    0  0.36051832346E+02 -0.10306087059E+03  0.40511195873E+03  0.41956760691E+03  0.00000000000E+00 0.  1.
</event>
<event>
12    1  0.9962621E-001  0.2000845E+03  0.7818608E-02  0.1149730E+00
         21   -1    0    0  503  502  0.00000000000E+00  0.00000000000E+00  0.27926317564E+03  0.27926317564E+03  0.00000000000E+00 0. -1.
         21   -1    0    0  501  503 -0.00000000000E+00 -0.00000000000E+00 -0.14705657884E+03  0.14705657884E+03  0.00000000000E+00 0. -1.
          6    2    1    2  501    0  0.10236811515E+03  0.64672507590E+01  0.31373635527E+02  0.20252931662E+03  0.17179279016E+03 0.  0.
         24    2    3    3    0    0  0.78447049404E+02 -0.22654807747E+02  0.82672677120E+02  0.13870147515E+03  0.75737360610E+02 0.  0.
         -6    2    1    2    0  502 -0.10236811515E+03 -0.64672507590E+01  0.10083296127E+03  0.22379043786E+03  0.17144625300E+03 0.  0.
        -24    2    5    5    0    0 -0.30834443088E+02  0.54462175979E+02  0.74173809720E+02  0.12600362054E+03  0.80363342681E+02 0.  0.
          5    1    3    3  501    0  0.23921065749E+02  0.29122058506E+02 -0.51299041593E+02  0.63827841469E+02  0.47000000000E+01 0. -1.
        -13    1    4    4    0    0  0.35804515191E+02 -0.32906684298E+02  0.81406934959E+02  0.94825641252E+02  0.00000000000E+00 0.  1.
         14    1    4    4    0    0  0.42642534213E+02  0.10251876551E+02  0.12657421611E+01  0.43875833897E+02  0.00000000000E+00 0. -1.
         -5    1    5    5    0  502 -0.71533672066E+02 -0.60929426738E+02  0.26659151548E+02  0.97786817328E+02  0.47000000000E+01 0.  1.
         11    1    6    6    0    0  0.16707144544E+02  0.30646942816E+02  0.20442894791E+00  0.34905666789E+02  0.00000000000E+00 0. -1.
        -12    1    6    6    0    0 -0.47541587631E+02  0.23815233162E+02  0.73969380772E+02  0.91097953747E+02  0.00000000000E+00 0.  1.
</event>
<event>
12    1  0.9962621E-001  0.2856845E+03  0.7818608E-02  0.1092755E+00
         21   -1    0    0  503  502  0.00000000000E+00  0.00000000000E+00  0.11604678531E+04  0.11604678531E+04  0.00000000000E+00 0. -1.
         21   -1    0    0  501  503 -0.00000000000E+00 -0.00000000000E+00 -0.72724794662E+02  0.72724794662E+02  0.00000000000E+00 0.  1.
          6    2    1    2  501    0  0.99802688993E+02 -0.20422531083E+03  0.42554576390E+03  0.51199855776E+03  0.17141986950E+03 0.  0.
         24    2    3    3    0    0  0.22957715123E+02 -0.83715698764E+02  0.92168165834E+02  0.14924460602E+03  0.79016496570E+02 0.  0.
         -6    2    1    2    0  502 -0.99802688993E+02  0.20422531083E+03  0.66219729453E+03  0.72119409000E+03  0.17305231649E+03 0.  0.
        -24    2    5    5    0    0 -0.61903067177E+02  0.22161743115E+03  0.57348171833E+03  0.62305433942E+03  0.79806973943E+02 0.  0.
          5    1    3    3  501    0  0.76844973871E+02 -0.12050961207E+03  0.33337759806E+03  0.36275395174E+03  0.47000000000E+01 0. -1.
        -11    1    4    4    0    0  0.69087663761E+00 -0.51694929422E+02  0.97027032549E+02  0.10994129381E+03  0.00000000000E+00 0.  1.
         12    1    4    4    0    0  0.22266838485E+02 -0.32020769342E+02 -0.48588667147E+01  0.39303312216E+02  0.00000000000E+00 0. -1.
         -5    1    5    5    0  502 -0.37899621817E+02 -0.17392120317E+02  0.88715576202E+02  0.98139750580E+02  0.47000000000E+01 0.  1.
         13    1    6    6    0    0  0.90548601445E+01  0.39981737945E+01  0.71372917585E+01  0.12203147937E+02  0.00000000000E+00 0. -1.
        -14    1    6    6    0    0 -0.70957927321E+02  0.21761925736E+03  0.56634442657E+03  0.61085119148E+03  0.00000000000E+00 0.  1.
</event>
<event>
12    1  0.9962621E-001  0.3141024E+03  0.7818608E-02  0.1078536E+00
         21   -1    0    0  501  502  0.00000000000E+00  0.00000000000E+00  0.27839070467E+03  0.27839070467E+03  0.00000000000E+00 0.  1.
         21   -1    0    0  502  503 -0.00000000000E+00 -0.00000000000E+00 -0.35377722541E+03  0.35377722541E+03  0.00000000000E+00 0.  1.
         -6    2    1    2    0  503  0.71145952675E+02  0.25148353485E+03 -0.51850014470E+02  0.31718492222E+03  0.17208177126E+03 0.  0.
        -24    2    3    3    0    0  0.58413112321E+02  0.52681673032E+02 -0.36857067230E+02  0.11735703639E+03  0.78909950084E+02 0.  0.
          6    2    1    2  501    0 -0.71145952675E+02 -0.25148353485E+03 -0.23536506268E+02  0.31498300786E+03  0.17422575363E+03 0.  0.
         24    2    5    5    0    0 -0.90253405445E+02 -0.26287243810E+03 -0.11496220828E+02  0.28925636132E+03  0.79306264334E+02 0.  0.
          5    1    5    5  501    0  0.19107452770E+02  0.11388903251E+02 -0.12040285440E+02  0.25726646538E+02  0.47000000000E+01 0. -1.
        -11    1    6    6    0    0  0.54910502832E+01 -0.38143891640E+02 -0.22699058976E+02  0.44725332655E+02  0.00000000000E+00 0.  1.
         12    1    6    6    0    0 -0.95744455728E+02 -0.22472854646E+03  0.11202838148E+02  0.24453102867E+03  0.00000000000E+00 0. -1.
         -5    1    3    3    0  503  0.12732840354E+02  0.19880186182E+03 -0.14992947241E+02  0.19982788583E+03  0.47000000000E+01 0.  1.
         11    1    4    4    0    0 -0.16596979078E+02  0.27767885136E+02 -0.94723697657E+01  0.33708173317E+02  0.00000000000E+00 0. -1.
        -12    1    4    4    0    0  0.75010091399E+02  0.24913787896E+02 -0.27384697464E+02  0.83648863078E+02  0.00000000000E+00 0.  1.
</event>
<event>
12    1  0.9962621E-001  0.2102278E+03  0.7818608E-02  0.1141556E+00
         21   -1    0    0  503  502  0.00000000000E+00  0.00000000000E+00  0.55185658346E+03  0.55185658346E+03  0.00000000000E+00 0. -1.
         21   -1    0    0  501  503 -0.00000000000E+00 -0.00000000000E+00 -0.89700831140E+02  0.89700831140E+02  0.00000000000E+00 0. -1.
          6    2    1    2  501    0  0.11770731895E+03 -0.22086864710E+02  0.33829559548E+03  0.39829592551E+03  0.17277989417E+03 0.  0.
         24    2    3    3    0    0  0.15343597991E+03 -0.18790675066E+02  0.29139283407E+03  0.33905606470E+03  0.78444514567E+02 0.  0.
         -6    2    1    2    0  502 -0.11770731895E+03  0.22086864710E+02  0.12386015684E+03  0.24326148909E+03  0.17173226574E+03 0.  0.
        -24    2    5    5    0    0 -0.12950843046E+03  0.19559059951E+02  0.40296366471E+02  0.15869995475E+03  0.80043039046E+02 0.  0.
          5    1    3    3  501    0 -0.35728660963E+02 -0.32961896444E+01  0.46902761419E+02  0.59239860812E+02  0.47000000000E+01 0. -1.
        -13    1    4    4    0    0  0.40319735409E+02 -0.18049825653E+02  0.27744747373E+02  0.52165585172E+02  0.00000000000E+00 0.  1.
         14    1    4    4    0    0  0.11311624450E+03 -0.74084941248E+00  0.26364808669E+03  0.28689047953E+03  0.00000000000E+00 0. -1.
         -5    1    5    5    0  502  0.11801111514E+02  0.25278047592E+01  0.83563790366E+02  0.84561534342E+02  0.47000000000E+01 0.  1.
         13    1    6    6    0    0 -0.53222514631E+02  0.45384792874E+02  0.31747812826E+01  0.70017817190E+02  0.00000000000E+00 0. -1.
        -14    1    6    6    0    0 -0.76285915829E+02 -0.25825732923E+02  0.37121585189E+02  0.88682137557E+02  0.00000000000E+00 0.  1.
</event>
<event>
12    1  0.9962621E-001  0.1940800E+03  0.7818608E-02  0.1155135E+00
         21   -1    0    0  501  502  0.00000000000E+00  0.00000000000E+00  0.23280176576E+03  0.23280176576E+03  0.00000000000E+00 0. -1.
         21   -1    0    0  502  503 -0.00000000000E+00 -0.00000000000E+00 -0.19684637020E+03  0.19684637020E+03  0.00000000000E+00 0. -1.
         -6    2    1    2    0  503  0.31775930141E+02 -0.82647464906E+02  0.11003743979E+03  0.22190987285E+03  0.17115910820E+03 0.  0.
        -24    2    3    3    0    0 -0.26716091755E+02 -0.58687451955E+02  0.95633861596E+01  0.10311372687E+03  0.79893777849E+02 0.  0.
          6    2    1    2  501    0 -0.31775930141E+02  0.82647464906E+02 -0.74082044235E+02  0.20773826311E+03  0.17270415018E+03 0.  0.
         24    2    5    5    0    0  0.47997849027E+02  0.19913698955E+02 -0.71211669890E+02  0.10610308081E+03  0.59045854306E+02 0.  0.
          5    1    5    5  501    0 -0.79773779167E+02  0.62733765951E+02 -0.28703743451E+01  0.10163518230E+03  0.47000000000E+01 0. -1.
        -13    1    6    6    0    0  0.25183753997E+02  0.40442491914E+02 -0.47936383853E+02  0.67584861578E+02  0.00000000000E+00 0.  1.
         14    1    6    6    0    0  0.22814095030E+02 -0.20528792959E+02 -0.23275286036E+02  0.38518219228E+02  0.00000000000E+00 0. -1.
         -5    1    3    3    0  503  0.58492021895E+02 -0.23960012951E+02  0.10047405363E+03  0.11879614598E+03  0.47000000000E+01 0.  1.
         11    1    4    4    0    0  0.76917543268E+01 -0.95566453631E+01 -0.29216944663E+02  0.31687890600E+02  0.00000000000E+00 0. -1.
        -12    1    4    4    0    0 -0.34407846081E+02 -0.49130806592E+02  0.38780330823E+02  0.71425836272E+02  0.00000000000E+00 0.  1.
</event>
<event>
12    1  0.9962621E-001  0.1803170E+03  0.7818608E-02  0.1172836E+00
         21   -1    0    0  501  502  0.00000000000E+00  0.00000000000E+00  0.44179148564E+03  0.44179148564E+03  0.00000000000E+00 0.  1.
         21   -1    0    0  502  503 -0.00000000000E+00 -0.00000000000E+00 -0.66810379537E+02  0.66810379537E+02  0.00000000000E+00 0.  1.
         -6    2    1    2    0  503 -0.12947162992E+01  0.44110675977E+02  0.13916231687E+03  0.21174377458E+03  0.15336833966E+03 0.  0.
        -24    2    3    3    0    0  0.40743470700E+02 -0.41372256934E+00  0.48121037775E+02  0.10192467000E+03  0.80079975689E+02 0.  0.
          6    2    1    2  501    0  0.12947162992E+01 -0.44110675977E+02  0.23581878923E+03  0.29685809060E+03  0.17483362541E+03 0.  0.
         24    2    5    5    0    0 -0.26621558976E+02 -0.78191606698E+01  0.33346875458E+02  0.89220525652E+02  0.77964359928E+02 0.  0.
          5    1    5    5  501    0  0.27916275275E+02 -0.36291515308E+02  0.20247191378E+03  0.20763756495E+03  0.47000000000E+01 0. -1.
        -13    1    6    6    0    0 -0.74013728052E+01 -0.36483792070E+02 -0.50785761793E+01  0.37571789140E+02  0.00000000000E+00 0.  1.
         14    1    6    6    0    0 -0.19220186171E+02  0.28664631400E+02  0.38425451638E+02  0.51648736512E+02  0.00000000000E+00 0. -1.
         -5    1    3    3    0  503 -0.42038186999E+02  0.44524398547E+02  0.91041279095E+02  0.10981910458E+03  0.47000000000E+01 0.  1.
         13    1    4    4    0    0  0.19855417779E+02 -0.19346281250E+02 -0.15909418244E+02  0.31962881633E+02  0.00000000000E+00 0. -1.
        -14    1    4    4    0    0  0.20888052921E+02  0.18932558681E+02  0.64030456020E+02  0.69961788364E+02  0.00000000000E+00 0.  1.
</event>
<event>
12    1  0.9962621E-001  0.4417488E+03  0.7818608E-02  0.1030220E+00
         21   -1    0    0  501  502  0.00000000000E+00  0.00000000000E+00  0.32265826950E+03  0.32265826950E+03  0.00000000000E+00 0. -1.
         21   -1    0    0  502  503 -0.00000000000E+00 -0.00000000000E+00 -0.76941119915E+03  0.76941119915E+03  0.00000000000E+00 0.  1.
         -6    2    1    2    0  503  0.75128719695E+00  0.40689989969E+03 -0.47607382446E+03  0.64945233267E+03  0.17197079194E+03 0.  0.
        -24    2    3    3    0    0 -0.11749702732E+01  0.29804268434E+03 -0.43431546065E+03  0.53274991304E+03  0.79760442831E+02 0.  0.
          6    2    1    2  501    0 -0.75128719695E+00 -0.40689989969E+03  0.29320894815E+02  0.44261713598E+03  0.17170358584E+03 0.  0.
         24    2    5    5    0    0  0.87417020896E+01 -0.34446784895E+03  0.79139947848E+02  0.36204477192E+03  0.77966462106E+02 0.  0.
          5    1    5    5  501    0 -0.94929892866E+01 -0.62432050741E+02 -0.49819053033E+02  0.80572364062E+02  0.47000000000E+01 0. -1.
        -13    1    6    6    0    0  0.23839724030E+02 -0.17377443382E+03  0.53800687559E+01  0.17548456180E+03  0.00000000000E+00 0.  1.
         14    1    6    6    0    0 -0.15098021940E+02 -0.17069341513E+03  0.73759879092E+02  0.18656021011E+03  0.00000000000E+00 0. -1.
         -5    1    3    3    0  503  0.19262574701E+01  0.10885721534E+03 -0.41758363816E+02  0.11670241963E+03  0.47000000000E+01 0.  1.
         13    1    4    4    0    0 -0.25018164282E+02  0.55771572047E+02 -0.56143243011E+02  0.82996629621E+02  0.00000000000E+00 0. -1.
        -14    1    4    4    0    0  0.23843194009E+02  0.24227111230E+03 -0.37817221764E+03  0.44975328342E+03  0.00000000000E+00 0.  1.
</event>
<event>
12    1  0.9962621E-001  0.2098674E+03  0.7818608E-02  0.1141705E+00
         21   -1    0    0  501  502  0.00000000000E+00  0.00000000000E+00  0.16774377248E+03  0.16774377248E+03  0.00000000000E+00 0.  1.
         21   -1    0    0  502  503 -0.00000000000E+00 -0.00000000000E+00 -0.33253641960E+03  0.33253641960E+03  0.00000000000E+00 0.  1.
         -6    2    1    2    0  503 -0.67537912868E+02  0.10171935997E+03 -0.19733507080E+03  0.28807196419E+03  0.17069308280E+03 0.  0.
        -24    2    3    3    0    0 -0.38500270118E+02  0.12757709310E+03 -0.12783764920E+03  0.20829860605E+03  0.96372502534E+02 0.  0.
          6    2    1    2  501    0  0.67537912868E+02 -0.10171935997E+03  0.32542423682E+02  0.21220822790E+03  0.17048496937E+03 0.  0.
         24    2    5    5    0    0 -0.71060974529E+01 -0.96488591461E+02  0.51057633650E+02  0.13498133999E+03  0.79072974443E+02 0.  0.
          5    1    5    5  501    0  0.74644010321E+02 -0.52307685094E+01 -0.18515209968E+02  0.77226887910E+02  0.47000000000E+01 0. -1.
        -11    1    6    6    0    0 -0.10886699113E+01 -0.74503766108E+02 -0.47857923924E+01  0.74665254136E+02  0.00000000000E+00 0.  1.
         12    1    6    6    0    0 -0.60174275416E+01 -0.21984825353E+02  0.55843426042E+02  0.60316085849E+02  0.00000000000E+00 0. -1.
         -5    1    3    3    0  503 -0.29037642750E+02 -0.25857733134E+02 -0.69497421601E+02  0.79773358137E+02  0.47000000000E+01 0.  1.
         13    1    4    4    0    0  0.24810622304E+02  0.83310832203E+02 -0.73716777447E+02  0.11397554570E+03  0.00000000000E+00 0. -1.
        -14    1    4    4    0    0 -0.63310892422E+02  0.44266260901E+02 -0.54120871754E+02  0.94323060345E+02  0.00000000000E+00 0.  1.
</event>
<event>
12    1  0.9962621E-001  0.2166369E+03  0.7818608E-02  0.1136525E+00
         21   -1    0    0  501  502  0.00000000000E+00  0.00000000000E+00  0.87666250787E+02  0.87666250787E+02  0.00000000000E+00 0. -1.
         21   -1    0    0  502  503 -0.00000000000E+00 -0.00000000000E+00 -0.53515012511E+03  0.53515012511E+03  0.00000000000E+00 0. -1.
         -6    2    1    2    0  503  0.95230642336E+02  0.91180594164E+02 -0.20916101760E+03  0.30113103185E+03  0.17189761798E+03 0.  0.
        -24    2    3    3    0    0 -0.17663990116E+02  0.56547948465E+02 -0.65737379291E+02  0.11528957197E+03  0.73895841194E+02 0.  0.
          6    2    1    2  501    0 -0.95230642336E+02 -0.91180594164E+02 -0.23832285672E+03  0.32168534405E+03  0.17117505820E+03 0.  0.
         24    2    5    5    0    0 -0.12508362368E+02 -0.90936288190E+01 -0.41321825400E+02  0.92747051438E+02  0.81580445462E+02 0.  0.
          5    1    5    5  501    0 -0.82722279968E+02 -0.82086965345E+02 -0.19700103132E+03  0.22893829261E+03  0.47000000000E+01 0. -1.
        -13    1    6    6    0    0 -0.28895193965E+02 -0.35480287185E+02 -0.41368888900E+02  0.61686043655E+02  0.00000000000E+00 0.  1.
         14    1    6    6    0    0  0.16386831596E+02  0.26386658366E+02  0.47063500253E-01  0.31061007782E+02  0.00000000000E+00 0. -1.
         -5    1    3    3    0  503  0.11289463245E+03  0.34632645699E+02 -0.14342363831E+03  0.18584145988E+03  0.47000000000E+01 0.  1.
         11    1    4    4    0    0 -0.33751738598E+02  0.24771011058E+01 -0.42373495815E+02  0.54229411170E+02  0.00000000000E+00 0. -1.
        -12    1    4    4    0    0  0.16087748482E+02  0.54070847359E+02 -0.23363883475E+02  0.61060160796E+02  0.00000000000E+00 0.  1.
</event>
<event>
12    1  0.9962621E-001  0.1959817E+03  0.7818608E-02  0.1155549E+00
         21   -1    0    0  503  502  0.00000000000E+00  0.00000000000E+00  0.11704429394E+03  0.11704429394E+03  0.00000000000E+00 0. -1.
         21   -1    0    0  501  503 -0.00000000000E+00 -0.00000000000E+00 -0.31188852345E+03  0.31188852345E+03  0.00000000000E+00 0. -1.
          6    2    1    2  501    0 -0.21744849123E+02  0.85779512038E+02 -0.11403145965E+03  0.22674217211E+03  0.17486530724E+03 0.  0.
         24    2    3    3    0    0  0.42253655413E+02  0.22243388912E+02 -0.21056337099E+02  0.97130787819E+02  0.81919966212E+02 0.  0.
         -6    2    1    2    0  502  0.21744849123E+02 -0.85779512038E+02 -0.80812769858E+02  0.20219064528E+03  0.16284775134E+03 0.  0.
        -24    2    5    5    0    0  0.21716216108E+02 -0.42584899587E+02 -0.11428541535E+03  0.14734282526E+03  0.79772703839E+02 0.  0.
          5    1    3    3  501    0 -0.63998504536E+02  0.63536123125E+02 -0.92975122549E+02  0.12961138429E+03  0.47000000000E+01 0. -1.
        -11    1    4    4    0    0 -0.21666195830E+01 -0.29978759487E+01 -0.41818930822E+02  0.41982192364E+02  0.00000000000E+00 0.  1.
         12    1    4    4    0    0  0.44420274996E+02  0.25241264861E+02  0.20762593723E+02  0.55148595455E+02  0.00000000000E+00 0. -1.
         -5    1    5    5    0  502  0.28633015092E-01 -0.43194612450E+02  0.33472645496E+02  0.54847820021E+02  0.47000000000E+01 0.  1.
         13    1    6    6    0    0 -0.23068559827E+02 -0.18752552830E+02 -0.81967244843E+02  0.87192006040E+02  0.00000000000E+00 0. -1.
        -14    1    6    6    0    0  0.44784775935E+02 -0.23832346758E+02 -0.32318170510E+02  0.60150819218E+02  0.00000000000E+00 0.  1.
</event>
<event>
12    1  0.9962621E-001  0.1728262E+03  0.7818608E-02  0.1175112E+00
         21   -1    0    0  503  502  0.00000000000E+00  0.00000000000E+00  0.11932515752E+03  0.11932515752E+03  0.00000000000E+00 0.  1.
         21   -1    0    0  501  503 -0.00000000000E+00 -0.00000000000E+00 -0.36543804059E+03  0.36543804059E+03  0.00000000000E+00 0.  1.
          6    2    1    2  501    0  0.11301236138E+02  0.53119100767E+01 -0.25987023277E+03  0.31209204328E+03  0.17237450878E+03 0.  0.
         24    2    3    3    0    0  0.58754324445E+02  0.41104017351E+02 -0.12893796087E+03  0.16822328241E+03  0.80823660560E+02 0.  0.
         -6    2    1    2    0  502 -0.11301236138E+02 -0.53119100767E+01  0.13757349692E+02  0.17267115483E+03  0.17166865967E+03 0.  0.
        -24    2    5    5    0    0  0.30722549592E+02 -0.21825760112E+02  0.60438831453E+02  0.10755620609E+03  0.80593090666E+02 0.  0.
          5    1    3    3  501    0 -0.47453088307E+02 -0.35792107274E+02 -0.13093227189E+03  0.14386876088E+03  0.47000000000E+01 0. -1.
        -13    1    4    4    0    0  0.25216636126E+02 -0.10609518618E+02 -0.92855820145E+02  0.96802086535E+02  0.00000000000E+00 0.  1.
         14    1    4    4    0    0  0.33537688319E+02  0.51713535969E+02 -0.36082140727E+02  0.71421195871E+02  0.00000000000E+00 0. -1.
         -5    1    5    5    0  502 -0.42023785730E+02  0.16513850035E+02 -0.46681481761E+02  0.65114948740E+02  0.47000000000E+01 0.  1.
         11    1    6    6    0    0 -0.16527414556E+02 -0.32331016593E+02  0.10028882944E+02  0.37669995473E+02  0.00000000000E+00 0. -1.
        -12    1    6    6    0    0  0.47249964148E+02  0.10505256481E+02  0.50409948508E+02  0.69886210617E+02  0.00000000000E+00 0.  1.
</event>
<event>
12    1  0.9962621E-001  0.2037307E+03  0.7818608E-02  0.1147102E+00
         21   -1    0    0  503  502  0.00000000000E+00  0.00000000000E+00  0.11458941912E+03  0.11458941912E+03  0.00000000000E+00 0. -1.
         21   -1    0    0  501  503 -0.00000000000E+00 -0.00000000000E+00 -0.36971552638E+03  0.36971552638E+03  0.00000000000E+00 0. -1.
          6    2    1    2  501    0  0.62397869672E+02 -0.87004254758E+02 -0.17105766654E+03  0.26602052059E+03  0.17332904433E+03 0.  0.
         24    2    3    3    0    0  0.84284863656E+02 -0.10659901871E+03 -0.93668997438E+02  0.18311038016E+03  0.79298431325E+02 0.  0.
         -6    2    1    2    0  502 -0.62397869672E+02  0.87004254758E+02 -0.84068440720E+02  0.21828442491E+03  0.17063807590E+03 0.  0.
        -24    2    5    5    0    0 -0.28778887608E+02  0.23965375625E+02  0.17751859177E+02  0.93811135772E+02  0.84159592975E+02 0.  0.
          5    1    3    3  501    0 -0.21886993984E+02  0.19594763956E+02 -0.77388669106E+02  0.82910140430E+02  0.47000000000E+01 0. -1.
        -13    1    4    4    0    0  0.48931880554E+02 -0.30321779355E+02 -0.79031719186E+02  0.97773983632E+02  0.00000000000E+00 0.  1.
         14    1    4    4    0    0  0.35352983101E+02 -0.76277239359E+02 -0.14637278251E+02  0.85336396532E+02  0.00000000000E+00 0. -1.
         -5    1    5    5    0  502 -0.33618982063E+02  0.63038879134E+02 -0.10182029990E+03  0.12447328914E+03  0.47000000000E+01 0.  1.
         11    1    6    6    0    0 -0.33542661639E+02  0.41122519325E+02  0.39169974660E+02  0.65958006795E+02  0.00000000000E+00 0. -1.
        -12    1    6    6    0    0  0.47637740308E+01 -0.17157143700E+02 -0.21418115483E+02  0.27853128977E+02  0.00000000000E+00 0.  1.
</event>
<event>
12    1  0.9962621E-001  0.1874065E+03  0.7818608E-02  0.1160967E+00
         21   -1    0    0  501  502  0.00000000000E+00  0.00000000000E+00  0.12505743909E+03  0.12505743909E+03  0.00000000000E+00 0. -1.
         21   -1    0    0  502  503 -0.00000000000E+00 -0.00000000000E+00 -0.28114564545E+03  0.28114564545E+03  0.00000000000E+00 0. -1.
         -6    2    1    2    0  503  0.46937545353E+02  0.56455692727E+02 -0.91729761642E+02  0.20865169118E+03  0.17242621800E+03 0.  0.
        -24    2    3    3    0    0 -0.22270659231E+02  0.69828307635E+02 -0.87494979378E+02  0.13788004578E+03  0.77353479551E+02 0.  0.
          6    2    1    2  501    0 -0.46937545353E+02 -0.56455692727E+02 -0.64358444720E+02  0.19755139336E+03  0.17173865379E+03 0.  0.
         24    2    5    5    0    0 -0.64529401446E+02 -0.70204530150E+02 -0.97077620264E+02  0.15766231742E+03  0.79628024415E+02 0.  0.
          5    1    5    5  501    0  0.17591856093E+02  0.13748837423E+02  0.32719175544E+02  0.39889075943E+02  0.47000000000E+01 0. -1.
        -11    1    6    6    0    0 -0.29967605618E+02 -0.91833372025E+00 -0.69118400411E+02  0.75340918489E+02  0.00000000000E+00 0.  1.
         12    1    6    6    0    0 -0.34561795827E+02 -0.69286196429E+02 -0.27959219853E+02  0.82321398927E+02  0.00000000000E+00 0. -1.
         -5    1    3    3    0  503  0.69208204583E+02 -0.13372614908E+02 -0.42347822645E+01  0.70771645395E+02  0.47000000000E+01 0.  1.
         11    1    4    4    0    0 -0.15472343751E+02  0.23565424027E+02 -0.86641630402E+02  0.91112538926E+02  0.00000000000E+00 0. -1.
        -12    1    4    4    0    0 -0.67983154795E+01  0.46262883608E+02 -0.85334897566E+00  0.46767506856E+02  0.00000000000E+00 0.  1.
</event>
<event>
12    1  0.9962621E-001  0.1811274E+03  0.7818608E-02  0.1167280E+00
         21   -1    0    0  503  502  0.00000000000E+00  0.00000000000E+00  0.14525744192E+03  0.14525744192E+03  0.00000000000E+00 0.  1.
         21   -1    0    0  501  503 -0.00000000000E+00 -0.00000000000E+00 -0.27797703805E+03  0.27797703805E+03  0.00000000000E+00 0.  1.
          6    2    1    2  501    0 -0.73201433036E+01  0.56976634675E+02  0.28129617586E+02  0.18099576179E+03  0.16931706649E+03 0.  0.
         24    2    3    3    0    0  0.42444662071E+02  0.90565219977E+01  0.54907073909E+02  0.10675294921E+03  0.80609152527E+02 0.  0.
         -6    2    1    2    0  502  0.73201433036E+01 -0.56976634675E+02 -0.16084921372E+03  0.24223871817E+03  0.17177661549E+03 0.  0.
        -24    2    5    5    0    0  0.51960457263E+01 -0.81646300499E+02 -0.57556378230E+02  0.13591560654E+03  0.92017379613E+02 0.  0.
          5    1    3    3  501    0 -0.49764805375E+02  0.47920112677E+02 -0.26777456324E+02  0.74242812583E+02  0.47000000000E+01 0. -1.
        -11    1    4    4    0    0  0.60438377363E+02  0.20690285266E+01  0.14824032926E+02  0.62264197494E+02  0.00000000000E+00 0.  1.
         12    1    4    4    0    0 -0.17993715292E+02  0.69874934711E+01  0.40083040983E+02  0.44488751718E+02  0.00000000000E+00 0. -1.
         -5    1    5    5    0  502  0.21240975773E+01  0.24669665824E+02 -0.10329283549E+03  0.10632311163E+03  0.47000000000E+01 0.  1.
         13    1    6    6    0    0  0.18151334860E+02 -0.45426173486E+02 -0.78214286177E+02  0.92252277787E+02  0.00000000000E+00 0. -1.
        -14    1    6    6    0    0 -0.12955289133E+02 -0.36220127012E+02  0.20657907947E+02  0.43663328756E+02  0.00000000000E+00 0.  1.
</event>
<event>
12    1  0.9962621E-001  0.1737110E+03  0.7818608E-02  0.1174083E+00
         21   -1    0    0  503  502  0.00000000000E+00  0.00000000000E+00  0.30768748822E+03  0.30768748822E+03  0.00000000000E+00 0. -1.
         21   -1    0    0  501  503 -0.00000000000E+00 -0.00000000000E+00 -0.98821918403E+02  0.98821918403E+02  0.00000000000E+00 0. -1.
          6    2    1    2  501    0  0.11105869588E+02  0.24701776150E+02  0.85368883200E+02  0.19337340293E+03  0.17138234640E+03 0.  0.
         24    2    3    3    0    0 -0.57637872598E+02  0.15254838674E+02  0.70142519045E+02  0.12217734347E+03  0.80327428802E+02 0.  0.
         -6    2    1    2    0  502 -0.11105869588E+02 -0.24701776150E+02  0.12349668662E+03  0.21313600369E+03  0.17158673137E+03 0.  0.
        -24    2    5    5    0    0  0.29282586683E+02 -0.10791755688E+01  0.34688174329E+01  0.84225049782E+02  0.78887209443E+02 0.  0.
          5    1    3    3  501    0  0.68743742186E+02  0.94469374760E+01  0.15226364155E+02  0.71196059461E+02  0.47000000000E+01 0. -1.
        -11    1    4    4    0    0 -0.19600654048E+02 -0.11421732242E+01  0.77639365002E+02  0.80083463940E+02  0.00000000000E+00 0.  1.
         12    1    4    4    0    0 -0.38037218550E+02  0.16397011898E+02 -0.74968459571E+01  0.42093879526E+02  0.00000000000E+00 0. -1.
         -5    1    5    5    0  502 -0.40388456271E+02 -0.23622600581E+02  0.12002786918E+03  0.12891095391E+03  0.47000000000E+01 0.  1.
         13    1    6    6    0    0  0.25985429038E+02 -0.38480896069E+02 -0.77311449757E+00  0.46439418500E+02  0.00000000000E+00 0. -1.
        -14    1    6    6    0    0  0.32971576442E+01  0.37401720500E+02  0.42419319305E+01  0.37785631282E+02  0.00000000000E+00 0.  1.
</event>
<event>
12    1  0.9962621E-001  0.1816799E+03  0.7818608E-02  0.1166890E+00
         21   -1    0    0  501  502  0.00000000000E+00  0.00000000000E+00  0.13921237021E+03  0.13921237021E+03  0.00000000000E+00 0.  1.
         21   -1    0    0  502  503 -0.00000000000E+00 -0.00000000000E+00 -0.29001035618E+03  0.29001035618E+03  0.00000000000E+00 0.  1.
         -6    2    1    2    0  503  0.50299547994E+02  0.27690689943E+02  0.19982094972E+02  0.17987675223E+03  0.16929129639E+03 0.  0.
        -24    2    3    3    0    0  0.86518764310E+02  0.51547858065E+02 -0.65786562427E+01  0.12880269221E+03  0.80026099207E+02 0.  0.
          6    2    1    2  501    0 -0.50299547994E+02 -0.27690689943E+02 -0.17078008094E+03  0.24934597416E+03  0.17236809435E+03 0.  0.
         24    2    5    5    0    0  0.36425632539E+02 -0.15263882274E+02 -0.11941520845E+03  0.14767925093E+03  0.77390931890E+02 0.  0.
          5    1    5    5  501    0 -0.86725180533E+02 -0.12426807670E+02 -0.51364872492E+02  0.10166672324E+03  0.47000000000E+01 0. -1.
        -13    1    6    6    0    0 -0.17309457443E+02 -0.75568246317E+01 -0.75583733138E+02  0.77907789281E+02  0.00000000000E+00 0.  1.
         14    1    6    6    0    0  0.53735089982E+02 -0.77070576421E+01 -0.43831475307E+02  0.69771461648E+02  0.00000000000E+00 0. -1.
         -5    1    3    3    0  503 -0.36219216316E+02 -0.23857168121E+02  0.26560751215E+02  0.51074060015E+02  0.47000000000E+01 0.  1.
         13    1    4    4    0    0  0.70237454671E+01  0.48023204239E+02 -0.81521969413E+01  0.49214016914E+02  0.00000000000E+00 0. -1.
        -14    1    4    4    0    0  0.79495018843E+02  0.35246538251E+01  0.15735406986E+01  0.79588675299E+02  0.00000000000E+00 0.  1.
</event>
<event>
12    1  0.9962621E-001  0.2833463E+03  0.7818608E-02  0.1093918E+00
         21   -1    0    0  501  502  0.00000000000E+00  0.00000000000E+00  0.12904353797E+04  0.12904353797E+04  0.00000000000E+00 0. -1.
         21   -1    0    0  502  503 -0.00000000000E+00 -0.00000000000E+00 -0.17231712976E+03  0.17231712976E+03  0.00000000000E+00 0. -1.
         -6    2    1    2    0  503  0.12229062299E+03 -0.18862022822E+03 -0.25857121065E+02  0.28420900316E+03  0.17196970606E+03 0.  0.
        -24    2    3    3    0    0  0.36786328862E+02 -0.86379986153E+02  0.47066289722E+02  0.13220911746E+03  0.80307403846E+02 0.  0.
          6    2    1    2  501    0 -0.12229062299E+03  0.18862022822E+03  0.11439753710E+04  0.11785435063E+04  0.17248930341E+03 0.  0.
         24    2    5    5    0    0 -0.13115901729E+03  0.82886470123E+02  0.79075397457E+03  0.80969974408E+03  0.79050442919E+02 0.  0.
          5    1    5    5  501    0  0.88683943011E+01  0.10573375810E+03  0.35322139642E+03  0.36884376220E+03  0.47000000000E+01 0. -1.
        -13    1    6    6    0    0 -0.90056482107E+02  0.95028465516E+02  0.57275819661E+03  0.58753087665E+03  0.00000000000E+00 0.  1.
         14    1    6    6    0    0 -0.41102535185E+02 -0.12141995393E+02  0.21799577796E+03  0.22216886743E+03  0.00000000000E+00 0. -1.
         -5    1    3    3    0  503  0.85504294128E+02 -0.10224024207E+03 -0.72923410786E+02  0.15199988570E+03  0.47000000000E+01 0.  1.
         11    1    4    4    0    0  0.47915666061E+01  0.14606548455E+02 -0.19304246733E+01  0.15493124531E+02  0.00000000000E+00 0. -1.
        -12    1    4    4    0    0  0.31994762256E+02 -0.10098653461E+03  0.48996714395E+02  0.11671599293E+03  0.00000000000E+00 0.  1.
</event>
<event>
12    1  0.9962621E-001  0.2511962E+03  0.7818608E-02  0.1112637E+00
         21   -1    0    0  501  502  0.00000000000E+00  0.00000000000E+00  0.52813315841E+03  0.52813315841E+03  0.00000000000E+00 0. -1.
         21   -1    0    0  502  503 -0.00000000000E+00 -0.00000000000E+00 -0.49406596496E+03  0.49406596496E+03  0.00000000000E+00 0. -1.
         -6    2    1    2    0  503 -0.18091656143E+03 -0.33811640958E+02  0.46222374339E+03  0.52607064138E+03  0.17095467675E+03 0.  0.
        -24    2    3    3    0    0 -0.10202639807E+03 -0.83373742235E+02  0.33218818844E+03  0.36603503500E+03  0.79196511984E+02 0.  0.
          6    2    1    2  501    0  0.18091656143E+03  0.33811640958E+02 -0.42815654994E+03  0.49612848198E+03  0.17015113903E+03 0.  0.
         24    2    5    5    0    0  0.14368714186E+03  0.56605958478E+02 -0.41549501019E+03  0.45043367723E+03  0.80026025844E+02 0.  0.
          5    1    5    5  501    0  0.37229419572E+02 -0.22794317520E+02 -0.12661539743E+02  0.45694804755E+02  0.47000000000E+01 0. -1.
        -13    1    6    6    0    0  0.10272905922E+03  0.58128268370E+02 -0.21006901159E+03  0.24095880316E+03  0.00000000000E+00 0.  1.
         14    1    6    6    0    0  0.40958082644E+02 -0.15223098924E+01 -0.20542599861E+03  0.20947487407E+03  0.00000000000E+00 0. -1.
         -5    1    3    3    0  503 -0.78890163365E+02  0.49562101278E+02  0.13003555495E+03  0.16003560638E+03  0.47000000000E+01 0.  1.
         11    1    4    4    0    0 -0.31701186020E+02 -0.40950118282E+02  0.22563989835E+03  0.23150646019E+03  0.00000000000E+00 0. -1.
        -12    1    4    4    0    0 -0.70325212050E+02 -0.42423623953E+02  0.10654829009E+03  0.13452857481E+03  0.00000000000E+00 0.  1.
</event>
<event>
12    1  0.9962621E-001  0.2238736E+03  0.7818608E-02  0.1131133E+00
         21   -1    0    0  501  502  0.00000000000E+00  0.00000000000E+00  0.80322406172E+02  0.80322406172E+02  0.00000000000E+00 0.  1.
         21   -1    0    0  502  503 -0.00000000000E+00 -0.00000000000E+00 -0.85940718717E+03  0.85940718717E+03  0.00000000000E+00 0.  1.
         -6    2    1    2    0  503  0.12312158838E+03  0.72087527615E+02 -0.63594122224E+03  0.67400521310E+03  0.17177383963E+03 0.  0.
        -24    2    3    3    0    0  0.84245168960E+02 -0.11088059441E+02 -0.23473321059E+03  0.26239919653E+03  0.80829849860E+02 0.  0.
          6    2    1    2  501    0 -0.12312158838E+03 -0.72087527615E+02 -0.14314355876E+03  0.26572438024E+03  0.17252197158E+03 0.  0.
         24    2    5    5    0    0 -0.26065348823E+02  0.14835017455E+02 -0.23711632794E+02  0.88915111766E+02  0.80275621570E+02 0.  0.
          5    1    5    5  501    0 -0.97056239558E+02 -0.86922545070E+02 -0.11943192597E+03  0.17680926848E+03  0.47000000000E+01 0. -1.
        -13    1    6    6    0    0 -0.10308229958E+02  0.46632335772E+02 -0.23949937522E+02  0.53426901947E+02  0.00000000000E+00 0.  1.
         14    1    6    6    0    0 -0.15757118864E+02 -0.31797318316E+02  0.23830472775E+00  0.35488209819E+02  0.00000000000E+00 0. -1.
         -5    1    3    3    0  503  0.38876419421E+02  0.83175587056E+02 -0.40120801165E+03  0.41160601658E+03  0.47000000000E+01 0.  1.
         13    1    4    4    0    0  0.28624736169E+02 -0.38659623996E+02 -0.14884249102E+03  0.15642259805E+03  0.00000000000E+00 0. -1.
        -14    1    4    4    0    0  0.55620432792E+02  0.27571564555E+02 -0.85890719570E+02  0.10597659847E+03  0.00000000000E+00 0.  1.
</event>
<event>
12    1  0.9962621E-001  0.3620001E+03  0.7818608E-02  0.1057887E+00
         21   -1    0    0  503  502  0.00000000000E+00  0.00000000000E+00  0.69431790212E+03  0.69431790212E+03  0.00000000000E+00 0. -1.
         21   -1    0    0  501  503 -0.00000000000E+00 -0.00000000000E+00 -0.26434178920E+03  0.26434178920E+03  0.00000000000E+00 0. -1.
          6    2    1    2  501    0 -0.98585476399E+02 -0.30244005090E+03  0.47235815499E+03  0.59511871942E+03  0.17278594581E+03 0.  0.
         24    2    3    3    0    0 -0.65401013522E+02 -0.11073850520E+03  0.12140685595E+03  0.19382132907E+03  0.79289178500E+02 0.  0.
         -6    2    1    2    0  502  0.98585476399E+02  0.30244005090E+03 -0.42382042076E+02  0.36354097191E+03  0.17081194403E+03 0.  0.
        -24    2    5    5    0    0  0.70666322726E+02  0.72718323018E+02 -0.49346944610E+02  0.13197639934E+03  0.68563586334E+02 0.  0.
          5    1    3    3  501    0 -0.33184462878E+02 -0.19170154570E+03  0.35095129904E+03  0.40129739035E+03  0.47000000000E+01 0. -1.
        -11    1    4    4    0    0 -0.67432398476E+02 -0.10866589442E+03  0.13143220838E+03  0.18338437876E+03  0.00000000000E+00 0.  1.
         12    1    4    4    0    0  0.20313849543E+01 -0.20726107755E+01 -0.10025352432E+02  0.10436950304E+02  0.00000000000E+00 0. -1.
         -5    1    5    5    0  502  0.27919153673E+02  0.22972172788E+03  0.69649025344E+01  0.23156457257E+03  0.47000000000E+01 0.  1.
         13    1    6    6    0    0 -0.10029485696E+02  0.29032427195E+01  0.57143454195E+01  0.11902652863E+02  0.00000000000E+00 0. -1.
        -14    1    6    6    0    0  0.80695808422E+02  0.69815080298E+02 -0.55061290030E+02  0.12007374648E+03  0.00000000000E+00 0.  1.
</event>
<event>
12    1  0.9962621E-001  0.2719263E+03  0.7818608E-02  0.1101778E+00
         21   -1    0    0  501  502  0.00000000000E+00  0.00000000000E+00  0.19387310992E+03  0.19387310992E+03  0.00000000000E+00 0. -1.
         21   -1    0    0  502  503 -0.00000000000E+00 -0.00000000000E+00 -0.39790662268E+03  0.39790662268E+03  0.00000000000E+00 0. -1.
         -6    2    1    2    0  503  0.62734204472E+02 -0.18579412673E+03 -0.18369841839E+03  0.31909416318E+03  0.17210734476E+03 0.  0.
        -24    2    3    3    0    0  0.87905727835E+02 -0.68571051226E+02 -0.12429923664E+03  0.18520910871E+03  0.80141797255E+02 0.  0.
          6    2    1    2  501    0 -0.62734204472E+02  0.18579412673E+03 -0.20335094372E+02  0.27268556942E+03  0.18838488732E+03 0.  0.
         24    2    5    5    0    0 -0.36042110251E+02  0.20569216722E+03  0.15078076965E+02  0.22385338113E+03  0.79212918581E+02 0.  0.
          5    1    5    5  501    0 -0.26692094221E+02 -0.19898040493E+02 -0.35413171337E+02  0.48832188293E+02  0.47000000000E+01 0. -1.
        -11    1    6    6    0    0  0.87727579821E+01  0.17280592694E+02 -0.19080079846E+02  0.27196132324E+02  0.00000000000E+00 0.  1.
         12    1    6    6    0    0 -0.44814868233E+02  0.18841157453E+03  0.34158156811E+02  0.19665724880E+03  0.00000000000E+00 0. -1.
         -5    1    3    3    0  503 -0.25171523363E+02 -0.11722307550E+03 -0.59399181750E+02  0.13388505447E+03  0.47000000000E+01 0.  1.
         11    1    4    4    0    0  0.46551250623E+02 -0.75436427199E+02 -0.55315131528E+02  0.10448654104E+03  0.00000000000E+00 0. -1.
        -12    1    4    4    0    0  0.41354477211E+02  0.68653759726E+01 -0.68984105110E+02  0.80722567665E+02  0.00000000000E+00 0.  1.
</event>
<event>
12    1  0.9962621E-001  0.2790228E+03  0.7818608E-02  0.1096668E+00
         21   -1    0    0  501  502  0.00000000000E+00  0.00000000000E+00  0.21382960506E+03  0.21382960506E+03  0.00000000000E+00 0.  1.
         21   -1    0    0  502  503 -0.00000000000E+00 -0.00000000000E+00 -0.38217806711E+03  0.38217806711E+03  0.00000000000E+00 0.  1.
         -6    2    1    2    0  503  0.60089213458E+02  0.20132082218E+03 -0.15565987525E+03  0.31669650134E+03  0.17867817488E+03 0.  0.
        -24    2    3    3    0    0  0.95944711524E+02  0.94392105355E+02 -0.12268963879E+03  0.19910188532E+03  0.80458411919E+02 0.  0.
          6    2    1    2  501    0 -0.60089213458E+02 -0.20132082218E+03 -0.12688586799E+02  0.27931117084E+03  0.18361084636E+03 0.  0.
         24    2    5    5    0    0 -0.21788015184E+02 -0.10830399581E+03  0.66423139688E+02  0.15124920519E+03  0.79118995637E+02 0.  0.
          5    1    5    5  501    0 -0.38301198274E+02 -0.93016826368E+02 -0.79111726487E+02  0.12806196564E+03  0.47000000000E+01 0. -1.
        -11    1    6    6    0    0  0.17940831029E+02 -0.10613729986E+02  0.35811313901E+02  0.41436395663E+02  0.00000000000E+00 0.  1.
         12    1    6    6    0    0 -0.39728846213E+02 -0.97690265826E+02  0.30611825786E+02  0.10981280953E+03  0.00000000000E+00 0. -1.
         -5    1    3    3    0  503 -0.35855498066E+02  0.10692871683E+03 -0.32970236457E+02  0.11759461601E+03  0.47000000000E+01 0.  1.
         11    1    4    4    0    0  0.97561464570E+02  0.92769177165E+02 -0.80517445634E+02  0.15686751943E+03  0.00000000000E+00 0. -1.
        -12    1    4    4    0    0 -0.16167530460E+01  0.16229281902E+01 -0.42172193160E+02  0.42234365892E+02  0.00000000000E+00 0.  1.
</event>
<event>
12    1  0.9962621E-001  0.3407352E+03  0.7818608E-02  0.1066563E+00
         21   -1    0    0  503  502  0.00000000000E+00  0.00000000000E+00  0.60227288368E+03  0.60227288368E+03  0.00000000000E+00 0. -1.
         21   -1    0    0  501  503 -0.00000000000E+00 -0.00000000000E+00 -0.20244273416E+03  0.20244273416E+03  0.00000000000E+00 0.  1.
          6    2    1    2  501    0  0.23515525038E+03  0.17564030999E+03  0.11026465747E+03  0.35813233524E+03  0.17306924794E+03 0.  0.
         24    2    3    3    0    0  0.17448273192E+03  0.69449187090E+02  0.11975518698E+03  0.23537293956E+03  0.76103236060E+02 0.  0.
         -6    2    1    2    0  502 -0.23515525038E+03 -0.17564030999E+03  0.28956549206E+03  0.44658328260E+03  0.17158363510E+03 0.  0.
        -24    2    5    5    0    0 -0.41494287128E+02 -0.65699360875E+02  0.61384025596E+02  0.12770955741E+03  0.80644594192E+02 0.  0.
          5    1    3    3  501    0  0.60672518462E+02  0.10619112290E+03 -0.94905295171E+01  0.12275939568E+03  0.47000000000E+01 0. -1.
        -13    1    4    4    0    0  0.28155945116E+02  0.29455853548E+02  0.59575775808E+02  0.72178096516E+02  0.00000000000E+00 0.  1.
         14    1    4    4    0    0  0.14632678681E+03  0.39993333542E+02  0.60179411176E+02  0.16319484304E+03  0.00000000000E+00 0. -1.
         -5    1    5    5    0  502 -0.19366096326E+03 -0.10994094911E+03  0.22818146646E+03  0.31887372519E+03  0.47000000000E+01 0.  1.
         11    1    6    6    0    0 -0.51078200340E+02 -0.52874484869E+02  0.76209374370E+02  0.10588938777E+03  0.00000000000E+00 0. -1.
        -12    1    6    6    0    0  0.95839132114E+01 -0.12824876006E+02 -0.14825348774E+02  0.21820169644E+02  0.00000000000E+00 0.  1.
</event>
<event>
12    1  0.9962621E-001  0.2072728E+03  0.7818608E-02  0.1143890E+00
         21   -1    0    0  503  502  0.00000000000E+00  0.00000000000E+00  0.23430894648E+03  0.23430894648E+03  0.00000000000E+00 0. -1.
         21   -1    0    0  501  503 -0.00000000000E+00 -0.00000000000E+00 -0.19582279354E+03  0.19582279354E+03  0.00000000000E+00 0. -1.
          6    2    1    2  501    0 -0.15706689063E+02  0.11443120048E+03  0.74913356510E+02  0.22039519363E+03  0.17210703260E+03 0.  0.
         24    2    3    3    0    0  0.45450438448E+02  0.11163554500E+03  0.41370889682E+02  0.15042950908E+03  0.79932780672E+02 0.  0.
         -6    2    1    2    0  502  0.15706689063E+02 -0.11443120048E+03 -0.36427203566E+02  0.20973654639E+03  0.17123457013E+03 0.  0.
        -24    2    5    5    0    0 -0.23576484653E+02 -0.19087843464E+02 -0.58977638154E+02  0.10407607334E+03  0.80207673221E+02 0.  0.
          5    1    3    3  501    0 -0.61157127510E+02  0.27956554845E+01  0.33542466828E+02  0.69965684559E+02  0.47000000000E+01 0. -1.
        -13    1    4    4    0    0  0.27228870231E+02  0.50799276864E+02 -0.21070904447E+02  0.61367425546E+02  0.00000000000E+00 0.  1.
         14    1    4    4    0    0  0.18221568217E+02  0.60836268133E+02  0.62441794129E+02  0.89062083530E+02  0.00000000000E+00 0. -1.
         -5    1    5    5    0  502  0.39283173715E+02 -0.95343357017E+02  0.22550434588E+02  0.10566047305E+03  0.47000000000E+01 0.  1.
         13    1    6    6    0    0  0.22469832442E+02  0.10636908560E+02 -0.37961971651E+02  0.45377841347E+02  0.00000000000E+00 0. -1.
        -14    1    6    6    0    0 -0.46046317095E+02 -0.29724752024E+02 -0.21015666503E+02  0.58698231996E+02  0.00000000000E+00 0.  1.
</event>
<event>
12    1  0.9962621E-001  0.1832378E+03  0.7818608E-02  0.1165297E+00
         21   -1    0    0  501  502  0.00000000000E+00  0.00000000000E+00  0.15046897302E+02  0.15046897302E+02  0.00000000000E+00 0.  1.
         21   -1    0    0  502  503 -0.00000000000E+00 -0.00000000000E+00 -0.22019424534E+04  0.22019424534E+04  0.00000000000E+00 0.  1.
         -6    2    1    2    0  503 -0.46619155411E+02 -0.32687570820E+02 -0.11197215696E+04  0.11346155707E+04  0.17416738217E+03 0.  0.
        -24    2    3    3    0    0  0.42983550193E+02 -0.77578521660E+01 -0.59711045669E+03  0.60377227837E+03  0.78053166373E+02 0.  0.
          6    2    1    2  501    0  0.46619155411E+02  0.32687570820E+02 -0.10671739865E+04  0.10823737800E+04  0.17155424548E+03 0.  0.
         24    2    5    5    0    0 -0.29587948950E+02  0.12588183009E+02 -0.26237979486E+03  0.27371607175E+03  0.71017055060E+02 0.  0.
          5    1    5    5  501    0  0.76207104361E+02  0.20099387811E+02 -0.80479419165E+03  0.80865770822E+03  0.47000000000E+01 0. -1.
        -11    1    6    6    0    0 -0.37400667977E+02  0.36775344538E+02 -0.17055872017E+03  0.17844190359E+03  0.00000000000E+00 0.  1.
         12    1    6    6    0    0  0.78127190270E+01 -0.24187161529E+02 -0.91821074688E+02  0.95274168159E+02  0.00000000000E+00 0. -1.
         -5    1    3    3    0  503 -0.89602705604E+02 -0.24929718654E+02 -0.52261111291E+03  0.53084329237E+03  0.47000000000E+01 0.  1.
         13    1    4    4    0    0 -0.12207962591E+01 -0.33716874736E+02 -0.15084162007E+03  0.15456879481E+03  0.00000000000E+00 0. -1.
        -14    1    4    4    0    0  0.44204346452E+02  0.25959022570E+02 -0.44626883663E+03  0.44920348356E+03  0.00000000000E+00 0.  1.
</event>
<event>
12    1  0.9962621E-001  0.1914260E+03  0.7818608E-02  0.1158993E+00
         21   -1    0    0  503  502  0.00000000000E+00  0.00000000000E+00  0.62032280658E+02  0.62032280658E+02  0.00000000000E+00 0. -1.
         21   -1    0    0  501  503 -0.00000000000E+00 -0.00000000000E+00 -0.56653397964E+03  0.56653397964E+03  0.00000000000E+00 0. -1.
          6    2    1    2  501    0  0.75876209443E+02 -0.31117842022E+02 -0.25540622699E+03  0.31918057283E+03  0.17296929796E+03 0.  0.
         24    2    3    3    0    0 -0.43302013510E+01 -0.64187245982E+02 -0.16465632513E+03  0.19354503447E+03  0.78798615301E+02 0.  0.
         -6    2    1    2    0  502 -0.75876209443E+02  0.31117842022E+02 -0.24909547199E+03  0.30938568747E+03  0.16415063263E+03 0.  0.
        -24    2    5    5    0    0 -0.54826992136E+02  0.41462489513E+01 -0.25610359359E+03  0.27414735393E+03  0.80898272967E+02 0.  0.
          5    1    3    3  501    0  0.80206410794E+02  0.33069403959E+02 -0.90749901862E+02  0.12563553836E+03  0.47000000000E+01 0. -1.
        -13    1    4    4    0    0 -0.38572882835E+02 -0.47017104590E+02 -0.78863847445E+02  0.99589064902E+02  0.00000000000E+00 0.  1.
         14    1    4    4    0    0  0.34242681484E+02 -0.17170141392E+02 -0.85792477684E+02  0.93955969569E+02  0.00000000000E+00 0. -1.
         -5    1    5    5    0  502 -0.21049217308E+02  0.26971593071E+02  0.70081216016E+01  0.35238333537E+02  0.47000000000E+01 0.  1.
         11    1    6    6    0    0 -0.73479779948E+02  0.15626251311E+02 -0.21174313331E+03  0.22467445848E+03  0.00000000000E+00 0. -1.
        -12    1    6    6    0    0  0.18652787812E+02 -0.11480002360E+02 -0.44360460280E+02  0.49472895444E+02  0.00000000000E+00 0.  1.
</event>
<event>
12    1  0.9962621E-001  0.2061508E+03  0.7818608E-02  0.1145113E+00
         21   -1    0    0  503  502  0.00000000000E+00  0.00000000000E+00  0.33868848166E+02  0.33868848166E+02  0.00000000000E+00 0.  1.
         21   -1    0    0  501  503 -0.00000000000E+00 -0.00000000000E+00 -0.12742707233E+04  0.12742707233E+04  0.00000000000E+00 0.  1.
          6    2    1    2  501    0  0.11222385328E+03  0.24060511191E+00 -0.72914934718E+03  0.75773143105E+03  0.17292744135E+03 0.  0.
         24    2    3    3    0    0 -0.57746169511E+01  0.23939253418E+02 -0.36181792959E+03  0.37115708470E+03  0.78986918501E+02 0.  0.
         -6    2    1    2    0  502 -0.11222385328E+03 -0.24060511191E+00 -0.51125252794E+03  0.55040814040E+03  0.17022256772E+03 0.  0.
        -24    2    5    5    0    0  0.81797542480E+01 -0.51501556671E+01 -0.25456989088E+03  0.26680771981E+03  0.79291219722E+02 0.  0.
          5    1    3    3  501    0  0.11799847023E+03 -0.23698648306E+02 -0.36733141759E+03  0.38657434635E+03  0.47000000000E+01 0. -1.
        -13    1    4    4    0    0  0.14997482598E+02  0.35089678658E+02 -0.32631903278E+03  0.32854272354E+03  0.00000000000E+00 0.  1.
         14    1    4    4    0    0 -0.20772099549E+02 -0.11150425241E+02 -0.35498896807E+02  0.42614361162E+02  0.00000000000E+00 0. -1.
         -5    1    5    5    0  502 -0.12040360753E+03  0.49095505552E+01 -0.25668263706E+03  0.28360042059E+03  0.47000000000E+01 0.  1.
         11    1    6    6    0    0 -0.26646715637E+02  0.22630277917E+02 -0.99353774313E+02  0.10532497046E+03  0.00000000000E+00 0. -1.
        -12    1    6    6    0    0  0.34826469885E+02 -0.27780433584E+02 -0.15521611657E+03  0.16148274935E+03  0.00000000000E+00 0.  1.
</event>
<event>
12    1  0.9962621E-001  0.1860277E+03  0.7818608E-02  0.1162467E+00
         21   -1    0    0  503  502  0.00000000000E+00  0.00000000000E+00  0.87607413015E+02  0.87607413015E+02  0.00000000000E+00 0. -1.
         21   -1    0    0  501  503 -0.00000000000E+00 -0.00000000000E+00 -0.42290543786E+03  0.42290543786E+03  0.00000000000E+00 0. -1.
          6    2    1    2  501    0 -0.69716780395E+02 -0.14010242044E+02 -0.98894847582E+02  0.21068105159E+03  0.17189996588E+03 0.  0.
         24    2    3    3    0    0 -0.19925152489E+02 -0.68539496819E+02 -0.46311652290E+02  0.11990810263E+03  0.84489701222E+02 0.  0.
         -6    2    1    2    0  502  0.69716780395E+02  0.14010242044E+02 -0.23640317726E+03  0.29983179928E+03  0.17016441840E+03 0.  0.
        -24    2    5    5    0    0 -0.51089883080E+01  0.69762736080E+01 -0.54965233164E+02  0.10338793979E+03  0.87138505164E+02 0.  0.
          5    1    3    3  501    0 -0.49791627906E+02  0.54529254775E+02 -0.52583195292E+02  0.90772948961E+02  0.47000000000E+01 0. -1.
        -13    1    4    4    0    0 -0.30390733001E+02 -0.68474938694E+02 -0.26001478169E+01  0.74961154274E+02  0.00000000000E+00 0.  1.
         14    1    4    4    0    0  0.10465580512E+02 -0.64558125391E-01 -0.43711504473E+02  0.44946948356E+02  0.00000000000E+00 0. -1.
         -5    1    5    5    0  502  0.74825768703E+02  0.70339684364E+01 -0.18143794410E+03  0.19644385949E+03  0.47000000000E+01 0.  1.
         13    1    6    6    0    0 -0.43049075366E+01 -0.28107035070E+02  0.95085791106E+01  0.29982507001E+02  0.00000000000E+00 0. -1.
        -14    1    6    6    0    0 -0.80408077137E+00  0.35083308678E+02 -0.64473812275E+02  0.73405432789E+02  0.00000000000E+00 0.  1.
</event>
<event>
12    1  0.9962621E-001  0.3072059E+03  0.7818608E-02  0.1081715E+00
         21   -1    0    0  503  502  0.00000000000E+00  0.00000000000E+00  0.12248121017E+03  0.12248121017E+03  0.00000000000E+00 0.  1.
         21   -1    0    0  501  503 -0.00000000000E+00 -0.00000000000E+00 -0.15734970866E+04  0.15734970866E+04  0.00000000000E+00 0. -1.
          6    2    1    2  501    0  0.18460807148E+03 -0.17557395109E+03 -0.11967249786E+03  0.32969226012E+03  0.17166574288E+03 0.  0.
         24    2    3    3    0    0  0.15901454520E+02 -0.62737595368E+02 -0.26189271831E+02  0.10618572928E+03  0.80004181233E+02 0.  0.
         -6    2    1    2    0  502 -0.18460807148E+03  0.17557395109E+03 -0.13313433785E+04  0.13662860366E+04  0.17133589801E+03 0.  0.
        -24    2    5    5    0    0 -0.16140921465E+03  0.19708715117E+03 -0.12327106546E+04  0.12625965533E+04  0.98377937203E+02 0.  0.
          5    1    3    3  501    0  0.16870661696E+03 -0.11283635572E+03 -0.93483226029E+02  0.22350653084E+03  0.47000000000E+01 0. -1.
        -11    1    4    4    0    0 -0.21038611598E+01 -0.72744508575E+02 -0.38353602298E+02  0.82262923415E+02  0.00000000000E+00 0.  1.
         12    1    4    4    0    0  0.18005315680E+02  0.10006913206E+02  0.12164330466E+02  0.23922805863E+02  0.00000000000E+00 0. -1.
         -5    1    5    5    0  502 -0.23198856830E+02 -0.21513200080E+02 -0.98632723888E+02  0.10368948335E+03  0.47000000000E+01 0.  1.
         13    1    6    6    0    0 -0.81455804882E+01  0.21529426308E+02 -0.31207485505E+03  0.31292264512E+03  0.00000000000E+00 0. -1.
        -14    1    6    6    0    0 -0.15326363416E+03  0.17555772486E+03 -0.92063579959E+03  0.94967390814E+03  0.00000000000E+00 0.  1.
</event>
<event>
12    1  0.9962621E-001  0.2643499E+03  0.7818608E-02  0.1104709E+00
         21   -1    0    0  503  502  0.00000000000E+00  0.00000000000E+00  0.49032525415E+03  0.49032525415E+03  0.00000000000E+00 0.  1.
         21   -1    0    0  501  503 -0.00000000000E+00 -0.00000000000E+00 -0.15402430128E+03  0.15402430128E+03  0.00000000000E+00 0.  1.
          6    2    1    2  501    0  0.18496590043E+03 -0.76572410074E+02  0.25859219972E+03  0.36979829693E+03  0.17264164141E+03 0.  0.
         24    2    3    3    0    0  0.17805291173E+03 -0.12561445029E+02  0.22162864299E+03  0.29541020928E+03  0.79292541084E+02 0.  0.
         -6    2    1    2    0  502 -0.18496590043E+03  0.76572410074E+02  0.77708753152E+02  0.27455125850E+03  0.17106731108E+03 0.  0.
        -24    2    5    5    0    0 -0.20545165692E+03  0.89156366967E+02  0.74057447272E+02  0.24978345228E+03  0.82146372025E+02 0.  0.
          5    1    3    3  501    0  0.69129886978E+01 -0.64010965045E+02  0.36963556722E+02  0.74388087651E+02  0.47000000000E+01 0. -1.
        -11    1    4    4    0    0  0.90255958126E+02  0.15921144679E+02  0.60818577802E+02  0.10999327357E+03  0.00000000000E+00 0.  1.
         12    1    4    4    0    0  0.87796953606E+02 -0.28482589708E+02  0.16081006519E+03  0.18541693570E+03  0.00000000000E+00 0. -1.
         -5    1    5    5    0  502  0.20485756491E+02 -0.12583956893E+02  0.36513058808E+01  0.24767806215E+02  0.47000000000E+01 0.  1.
         13    1    6    6    0    0 -0.31326374751E+02 -0.11978938125E+02 -0.40874015244E+01  0.33786736523E+02  0.00000000000E+00 0. -1.
        -14    1    6    6    0    0 -0.17412528217E+03  0.10113530509E+03  0.78144848796E+02  0.21599671576E+03  0.00000000000E+00 0.  1.
</event>
<event>
12    1  0.9962621E-001  0.4321777E+03  0.7818608E-02  0.1033194E+00
         21   -1    0    0  501  502  0.00000000000E+00  0.00000000000E+00  0.99931941693E+03  0.99931941693E+03  0.00000000000E+00 0.  1.
         21   -1    0    0  502  503 -0.00000000000E+00 -0.00000000000E+00 -0.19521014308E+03  0.19521014308E+03  0.00000000000E+00 0.  1.
         -6    2    1    2    0  503  0.16805260793E+03 -0.35898450858E+03  0.52592861446E+03  0.68056260986E+03  0.17161876938E+03 0.  0.
        -24    2    3    3    0    0  0.98549606223E+02 -0.31815766933E+03  0.47248600215E+03  0.58373440705E+03  0.81033994735E+02 0.  0.
          6    2    1    2  501    0 -0.16805260793E+03  0.35898450858E+03  0.27818065939E+03  0.51396695015E+03  0.17223817857E+03 0.  0.
         24    2    5    5    0    0 -0.13600188324E+03  0.14535523677E+03  0.11591253535E+03  0.24374898478E+03  0.79706929621E+02 0.  0.
          5    1    5    5  501    0 -0.32050724687E+02  0.21362927181E+03  0.16226812404E+03  0.27021796537E+03  0.47000000000E+01 0. -1.
        -13    1    6    6    0    0 -0.57969716415E+02  0.10161343286E+03  0.32449131689E+02  0.12140314620E+03  0.00000000000E+00 0.  1.
         14    1    6    6    0    0 -0.78032166830E+02  0.43741803909E+02  0.83463403658E+02  0.12234583859E+03  0.00000000000E+00 0. -1.
         -5    1    3    3    0  503  0.69503001709E+02 -0.40826839246E+02  0.53442612306E+02  0.96828202810E+02  0.47000000000E+01 0.  1.
         11    1    4    4    0    0  0.90232077008E+02 -0.15691586589E+03  0.23709385387E+03  0.29829165632E+03  0.00000000000E+00 0. -1.
        -12    1    4    4    0    0  0.83175292149E+01 -0.16124180344E+03  0.23539214828E+03  0.28544275072E+03  0.00000000000E+00 0.  1.
</event>
<event>
12    1  0.9962621E-001  0.2546695E+03  0.7818608E-02  0.1110418E+00
         21   -1    0    0  503  502  0.00000000000E+00  0.00000000000E+00  0.14153700080E+04  0.14153700080E+04  0.00000000000E+00 0. -1.
         21   -1    0    0  501  503 -0.00000000000E+00 -0.00000000000E+00 -0.71980101492E+02  0.71980101492E+02  0.00000000000E+00 0. -1.
          6    2    1    2  501    0  0.90313293005E+02  0.16422936942E+03  0.11201281454E+04  0.11486727018E+04  0.17214568573E+03 0.  0.
         24    2    3    3    0    0  0.86527403706E+02  0.16302800898E+03  0.68508244470E+03  0.71358348347E+03  0.76146625307E+02 0.  0.
         -6    2    1    2    0  502 -0.90313293005E+02 -0.16422936942E+03  0.22326176110E+03  0.33867740766E+03  0.17242040430E+03 0.  0.
        -24    2    5    5    0    0  0.20471288395E+02 -0.54614403192E+02  0.84991253228E+02  0.13027998051E+03  0.79671535145E+02 0.  0.
          5    1    3    3  501    0  0.37858892999E+01  0.12013604410E+01  0.43504570070E+03  0.43508921835E+03  0.47000000000E+01 0. -1.
        -11    1    4    4    0    0  0.19263790679E+02  0.11065724442E+03  0.43951335361E+03  0.45363874105E+03  0.00000000000E+00 0.  1.
         12    1    4    4    0    0  0.67263613026E+02  0.52370764552E+02  0.24556909109E+03  0.25994474243E+03  0.00000000000E+00 0. -1.
         -5    1    5    5    0  502 -0.11078458140E+03 -0.10961496622E+03  0.13827050787E+03  0.20839742715E+03  0.47000000000E+01 0.  1.
         13    1    6    6    0    0  0.38397853823E+02 -0.16141309194E+01  0.16455272619E+02  0.41806418093E+02  0.00000000000E+00 0. -1.
        -14    1    6    6    0    0 -0.17926565428E+02 -0.53000272273E+02  0.68535980609E+02  0.88473562419E+02  0.00000000000E+00 0.  1.
</event>
<event>
12    1  0.9962621E-001  0.2407486E+03  0.7818608E-02  0.1119694E+00
         21   -1    0    0  503  502  0.00000000000E+00  0.00000000000E+00  0.43242868707E+03  0.43242868707E+03  0.00000000000E+00 0.  1.
         21   -1    0    0  501  503 -0.00000000000E+00 -0.00000000000E+00 -0.14236267761E+03  0.14236267761E+03  0.00000000000E+00 0.  1.
          6    2    1    2  501    0  0.16522538910E+03 -0.48319091433E+01  0.70850821907E+02  0.25095760672E+03  0.17503458189E+03 0.  0.
         24    2    3    3    0    0  0.42052703922E+02  0.11514125530E+02 -0.33001655409E+02  0.88951031955E+02  0.70158191483E+02 0.  0.
         -6    2    1    2    0  502 -0.16522538910E+03  0.48319091433E+01  0.21921518756E+03  0.32383375796E+03  0.17172719000E+03 0.  0.
        -24    2    5    5    0    0 -0.73409741286E+02  0.21960282016E+02  0.33076184854E+02  0.11552314212E+03  0.79876894403E+02 0.  0.
          5    1    3    3  501    0  0.12317268518E+03 -0.16346034674E+02  0.10385247732E+03  0.16200657477E+03  0.47000000000E+01 0. -1.
        -11    1    4    4    0    0 -0.21932768893E+01 -0.78382723550E+01 -0.39403594600E+02  0.40235460037E+02  0.00000000000E+00 0.  1.
         12    1    4    4    0    0  0.44245980811E+02  0.19352397885E+02  0.64019391908E+01  0.48715571917E+02  0.00000000000E+00 0. -1.
         -5    1    5    5    0  502 -0.91815647813E+02 -0.17128372873E+02  0.18613900271E+03  0.20831061583E+03  0.47000000000E+01 0.  1.
         11    1    6    6    0    0 -0.52427702849E+02 -0.20548654158E+02  0.37893733231E+02  0.67873752158E+02  0.00000000000E+00 0. -1.
        -12    1    6    6    0    0 -0.20982038437E+02  0.42508936175E+02 -0.48175483774E+01  0.47649389965E+02  0.00000000000E+00 0.  1.
</event>
<event>
12    1  0.9962621E-001  0.1787561E+03  0.7818608E-02  0.1169137E+00
         21   -1    0    0  503  502  0.00000000000E+00  0.00000000000E+00  0.39698772744E+03  0.39698772744E+03  0.00000000000E+00 0. -1.
         21   -1    0    0  501  503 -0.00000000000E+00 -0.00000000000E+00 -0.10648818012E+03  0.10648818012E+03  0.00000000000E+00 0. -1.
          6    2    1    2  501    0 -0.28137752923E+02  0.39030085310E+02  0.27034003088E+03  0.32409485703E+03  0.17215883178E+03 0.  0.
         24    2    3    3    0    0  0.60981813586E+01 -0.29875672195E+02  0.19208202164E+03  0.21424719605E+03  0.89869985938E+02 0.  0.
         -6    2    1    2    0  502  0.28137752923E+02 -0.39030085310E+02  0.20159516433E+02  0.17938105053E+03  0.17162772063E+03 0.  0.
        -24    2    5    5    0    0  0.97263915833E+01 -0.89837841521E+02  0.34823033304E+02  0.12318928027E+03  0.76141412274E+02 0.  0.
          5    1    3    3  501    0 -0.34235934281E+02  0.68905757505E+02  0.78258009239E+02  0.10984766098E+03  0.47000000000E+01 0. -1.
        -13    1    4    4    0    0  0.47379487412E+02 -0.22511987084E+02  0.95576101140E+02  0.10902475177E+03  0.00000000000E+00 0.  1.
         14    1    4    4    0    0 -0.41281306054E+02 -0.73636851109E+01  0.96505920498E+02  0.10522244427E+03  0.00000000000E+00 0. -1.
         -5    1    5    5    0  502  0.18411361339E+02  0.50807756211E+02 -0.14663516870E+02  0.56191770257E+02  0.47000000000E+01 0.  1.
         11    1    6    6    0    0  0.11840738586E+02  0.83757829489E+01  0.18657442811E+02  0.23631694872E+02  0.00000000000E+00 0. -1.
        -12    1    6    6    0    0 -0.21143470031E+01 -0.98213624470E+02  0.16165590493E+02  0.99557585400E+02  0.00000000000E+00 0.  1.
</event>
<event>
12    1  0.9962621E-001  0.2524084E+03  0.7818608E-02  0.1112105E+00
         21   -1    0    0  501  502  0.00000000000E+00  0.00000000000E+00  0.17056466768E+03  0.17056466768E+03  0.00000000000E+00 0. -1.
         21   -1    0    0  502  503 -0.00000000000E+00 -0.00000000000E+00 -0.38023255867E+03  0.38023255867E+03  0.00000000000E+00 0. -1.
         -6    2    1    2    0  503 -0.18065219375E+03  0.27842019049E+02 -0.14911860114E+03  0.29316611682E+03  0.17406786526E+03 0.  0.
        -24    2    3    3    0    0 -0.25557625948E+02  0.44783144878E+02 -0.63776222967E+02  0.11527081554E+03  0.81001432028E+02 0.  0.
          6    2    1    2  501    0  0.18065219375E+03 -0.27842019049E+02 -0.60549289849E+02  0.25763110953E+03  0.17116418715E+03 0.  0.
         24    2    5    5    0    0  0.74817224508E+02 -0.34287503992E+02 -0.90537807690E+02  0.14734064669E+03  0.82090934535E+02 0.  0.
          5    1    5    5  501    0  0.10583496924E+03  0.64454849424E+01  0.29988517841E+02  0.11029046284E+03  0.47000000000E+01 0. -1.
        -13    1    6    6    0    0  0.91670177801E+02 -0.20825940470E+02 -0.79477782028E+02  0.12310101190E+03  0.00000000000E+00 0.  1.
         14    1    6    6    0    0 -0.16852953294E+02 -0.13461563521E+02 -0.11060025662E+02  0.24239634791E+02  0.00000000000E+00 0. -1.
         -5    1    3    3    0  503 -0.15509456780E+03 -0.16941125829E+02 -0.85342378172E+02  0.17789530128E+03  0.47000000000E+01 0.  1.
         13    1    4    4    0    0  0.10328329002E+02  0.67822689809E+01  0.15804150614E+02  0.20061025127E+02  0.00000000000E+00 0. -1.
        -14    1    4    4    0    0 -0.35885954950E+02  0.38000875897E+02 -0.79580373582E+02  0.95209790416E+02  0.00000000000E+00 0.  1.
</event>
<event>
12    1  0.9962621E-001  0.1801119E+03  0.7818608E-02  0.1167704E+00
         21   -1    0    0  501  502  0.00000000000E+00  0.00000000000E+00  0.79640192981E+03  0.79640192981E+03  0.00000000000E+00 0.  1.
         21   -1    0    0  502  503 -0.00000000000E+00 -0.00000000000E+00 -0.63664503525E+02  0.63664503525E+02  0.00000000000E+00 0.  1.
         -6    2    1    2    0  503 -0.53366033160E+02 -0.17166123571E+02  0.10820608213E+03  0.21008205247E+03  0.17112364906E+03 0.  0.
        -24    2    3    3    0    0 -0.74486733202E+02 -0.24681990713E+02  0.12434657335E+03  0.18206103026E+03  0.10736235069E+03 0.  0.
          6    2    1    2  501    0  0.53366033160E+02  0.17166123571E+02  0.62453134415E+03  0.64998438086E+03  0.17116566898E+03 0.  0.
         24    2    5    5    0    0 -0.42802127704E+01  0.51451021245E+02  0.20998535925E+03  0.23002127834E+03  0.78424547058E+02 0.  0.
          5    1    5    5  501    0  0.57646245930E+02 -0.34284897674E+02  0.41454598490E+03  0.41996310252E+03  0.47000000000E+01 0. -1.
        -11    1    6    6    0    0 -0.10820941313E+02  0.60422788386E+02  0.21013524262E+03  0.21891739611E+03  0.00000000000E+00 0.  1.
         12    1    6    6    0    0  0.65407285428E+01 -0.89717671409E+01 -0.14988337546E+00  0.11103882228E+02  0.00000000000E+00 0. -1.
         -5    1    3    3    0  503  0.21120700042E+02  0.75158671423E+01 -0.16140491222E+02  0.28021022217E+02  0.47000000000E+01 0.  1.
         11    1    4    4    0    0 -0.14201744956E+02 -0.60550616440E+02  0.49572727886E+02  0.79533150705E+02  0.00000000000E+00 0. -1.
        -12    1    4    4    0    0 -0.60284988246E+02  0.35868625727E+02  0.74773845466E+02  0.10252787955E+03  0.00000000000E+00 0.  1.
</event>
<event>
12    1  0.9962621E-001  0.1748486E+03  0.7818608E-02  0.1173053E+00
         21   -1    0    0  501  502  0.00000000000E+00  0.00000000000E+00  0.35459469836E+03  0.35459469836E+03  0.00000000000E+00 0.  1.
         21   -1    0    0  502  503 -0.00000000000E+00 -0.00000000000E+00 -0.93727890819E+02  0.93727890819E+02  0.00000000000E+00 0.  1.
         -6    2    1    2    0  503 -0.18201649075E+02 -0.21513427113E+02  0.19504000436E+03  0.26149321581E+03  0.17188359735E+03 0.  0.
        -24    2    3    3    0    0 -0.49690797560E+01  0.36843538344E+02  0.43404892455E+02  0.98410618726E+02  0.80115710805E+02 0.  0.
          6    2    1    2  501    0  0.18201649075E+02  0.21513427113E+02  0.65826803182E+02  0.18682937337E+03  0.17256279774E+03 0.  0.
         24    2    5    5    0    0 -0.60801881095E+01 -0.50470324511E+02  0.53336831879E+02  0.10969729510E+03  0.81267807739E+02 0.  0.
          5    1    5    5  501    0  0.24281837184E+02  0.71983751624E+02  0.12489971302E+02  0.77132078269E+02  0.47000000000E+01 0. -1.
        -13    1    6    6    0    0  0.17101333802E+02 -0.31807352332E+02 -0.11875034187E+02  0.38015519425E+02  0.00000000000E+00 0.  1.
         14    1    6    6    0    0 -0.23181521912E+02 -0.18662972179E+02  0.65211866067E+02  0.71681775680E+02  0.00000000000E+00 0. -1.
         -5    1    3    3    0  503 -0.13232569319E+02 -0.58356965457E+02  0.15163511191E+03  0.16308259708E+03  0.47000000000E+01 0.  1.
         13    1    4    4    0    0 -0.81187235230E+01  0.24535739257E+02 -0.20666953040E+02  0.33091375319E+02  0.00000000000E+00 0. -1.
        -14    1    4    4    0    0  0.31496437670E+01  0.12307799086E+02  0.64071845495E+02  0.65319243407E+02  0.00000000000E+00 0.  1.
</event>
<event>
12    1  0.9962621E-001  0.1869375E+03  0.7818608E-02  0.1161598E+00
         21   -1    0    0  503  502  0.00000000000E+00  0.00000000000E+00  0.17332883755E+03  0.17332883755E+03  0.00000000000E+00 0. -1.
         21   -1    0    0  501  503 -0.00000000000E+00 -0.00000000000E+00 -0.20012042870E+03  0.20012042870E+03  0.00000000000E+00 0. -1.
          6    2    1    2  501    0 -0.12964470558E+01 -0.74393360634E+02 -0.90416216881E+01  0.18715600373E+03  0.17149217454E+03 0.  0.
         24    2    3    3    0    0  0.59577594674E+01 -0.79860925941E+02 -0.64744565419E+02  0.13052186453E+03  0.80192493281E+02 0.  0.
         -6    2    1    2    0  502  0.12964470558E+01  0.74393360634E+02 -0.17749969466E+02  0.18629326252E+03  0.16986484440E+03 0.  0.
        -24    2    5    5    0    0  0.48004694069E+02  0.94564049323E+02 -0.20453905545E+01  0.13284009779E+03  0.79971856805E+02 0.  0.
          5    1    3    3  501    0 -0.72542065232E+01  0.54675653071E+01  0.55702943731E+02  0.56634139201E+02  0.47000000000E+01 0. -1.
        -11    1    4    4    0    0  0.35280630538E+01 -0.87001307081E+02 -0.25744241388E+02  0.90798902127E+02  0.00000000000E+00 0.  1.
         12    1    4    4    0    0  0.24296964136E+01  0.71403811398E+01 -0.39000324031E+02  0.39722962402E+02  0.00000000000E+00 0. -1.
         -5    1    5    5    0  502 -0.46708247013E+02 -0.20170688689E+02 -0.15704578912E+02  0.53453164733E+02  0.47000000000E+01 0.  1.
         13    1    6    6    0    0  0.22768541240E+02 -0.94029042373E+01 -0.73971192096E+01  0.25720389789E+02  0.00000000000E+00 0. -1.
        -14    1    6    6    0    0  0.25236152829E+02  0.10396695356E+03  0.53517286551E+01  0.10711970800E+03  0.00000000000E+00 0.  1.
</event>
<event>
12    1  0.9962621E-001  0.2110341E+03  0.7818608E-02  0.1140911E+00
         21   -1    0    0  503  502  0.00000000000E+00  0.00000000000E+00  0.12963267137E+03  0.12963267137E+03  0.00000000000E+00 0.  1.
         21   -1    0    0  501  503 -0.00000000000E+00 -0.00000000000E+00 -0.49144571788E+03  0.49144571788E+03  0.00000000000E+00 0.  1.
          6    2    1    2  501    0  0.21046633752E+02  0.11959749807E+03 -0.10030508366E+02  0.21127230780E+03  0.17259448024E+03 0.  0.
         24    2    3    3    0    0  0.28215366444E+01  0.14755621580E+03 -0.35420849629E+02  0.16907511013E+03  0.74504754134E+02 0.  0.
         -6    2    1    2    0  502 -0.21046633752E+02 -0.11959749807E+03 -0.35178253814E+03  0.40980608145E+03  0.17159122332E+03 0.  0.
        -24    2    5    5    0    0 -0.25122601505E+02 -0.81893888498E+02 -0.35289702536E+03  0.37157641013E+03  0.78708093448E+02 0.  0.
          5    1    3    3  501    0  0.18225097108E+02 -0.27958717727E+02  0.25390341263E+02  0.42197197667E+02  0.47000000000E+01 0. -1.
        -11    1    4    4    0    0 -0.10845613212E+02  0.51681987934E+01 -0.22428852105E+02  0.25443879646E+02  0.00000000000E+00 0.  1.
         12    1    4    4    0    0  0.13667149856E+02  0.14238801700E+03 -0.12991997524E+02  0.14363123049E+03  0.00000000000E+00 0. -1.
         -5    1    5    5    0  502  0.40759677526E+01 -0.37703609571E+02  0.11144872243E+01  0.38229671325E+02  0.47000000000E+01 0.  1.
         13    1    6    6    0    0  0.22864024461E+02 -0.21781700956E+01 -0.59489392493E+02  0.63769082310E+02  0.00000000000E+00 0. -1.
        -14    1    6    6    0    0 -0.47986625966E+02 -0.79715718403E+02 -0.29340763287E+03  0.30780732782E+03  0.00000000000E+00 0.  1.
</event>
<event>
12    1  0.9962621E-001  0.1967081E+03  0.7818608E-02  0.1152582E+00
         21   -1    0    0  501  502  0.00000000000E+00  0.00000000000E+00  0.51087997012E+02  0.51087997012E+02  0.00000000000E+00 0.  1.
         21   -1    0    0  502  503 -0.00000000000E+00 -0.00000000000E+00 -0.96931424586E+03  0.96931424586E+03  0.00000000000E+00 0.  1.
         -6    2    1    2    0  503 -0.84137358708E+02 -0.45026431857E+02 -0.22004799912E+03  0.29504238149E+03  0.17182086678E+03 0.  0.
        -24    2    3    3    0    0 -0.31908293587E+02 -0.20825370604E+01 -0.23249611066E+02  0.86898803914E+02  0.77384633789E+02 0.  0.
          6    2    1    2  501    0  0.84137358708E+02  0.45026431857E+02 -0.69817824973E+03  0.72535986139E+03  0.17201042242E+03 0.  0.
         24    2    5    5    0    0  0.54315756021E+02  0.38357701807E+02 -0.68303984943E+03  0.69093514482E+03  0.80164978588E+02 0.  0.
          5    1    5    5  501    0  0.29821602688E+02  0.66687300503E+01 -0.15138400297E+02  0.34424716570E+02  0.47000000000E+01 0. -1.
        -11    1    6    6    0    0 -0.18745870524E+02  0.10590310887E+02 -0.24774840635E+03  0.24868219718E+03  0.00000000000E+00 0.  1.
         12    1    6    6    0    0  0.73061626545E+02  0.27767390919E+02 -0.43529144308E+03  0.44225294764E+03  0.00000000000E+00 0. -1.
         -5    1    3    3    0  503 -0.52229065121E+02 -0.42943894797E+02 -0.19679838806E+03  0.20814357758E+03  0.47000000000E+01 0.  1.
         11    1    4    4    0    0 -0.39123739592E+02  0.19494972083E+02  0.11650205467E+02  0.45237685878E+02  0.00000000000E+00 0. -1.
        -12    1    4    4    0    0  0.72154460052E+01 -0.21577509144E+02 -0.34899816533E+02  0.41661118035E+02  0.00000000000E+00 0.  1.
</event>
<event>
12    1  0.9962621E-001  0.1885252E+03  0.7818608E-02  0.1160164E+00
         21   -1    0    0  501  502  0.00000000000E+00  0.00000000000E+00  0.17054357317E+04  0.17054357317E+04  0.00000000000E+00 0. -1.
         21   -1    0    0  502  503 -0.00000000000E+00 -0.00000000000E+00 -0.22882630783E+02  0.22882630783E+02  0.00000000000E+00 0. -1.
         -6    2    1    2    0  503  0.73839692333E+01  0.77759352192E+02  0.57543357077E+03  0.60552914564E+03  0.17158295950E+03 0.  0.
        -24    2    3    3    0    0 -0.58035682306E+02  0.70893021518E+02  0.33946636514E+03  0.36051998369E+03  0.79644740307E+02 0.  0.
          6    2    1    2  501    0 -0.73839692333E+01 -0.77759352192E+02  0.11071195301E+04  0.11227892168E+04  0.16982618049E+03 0.  0.
         24    2    5    5    0    0 -0.66640120448E+02 -0.47330208332E+02  0.55809018255E+03  0.56971368966E+03  0.80174697072E+02 0.  0.
          5    1    5    5  501    0  0.59256151215E+02 -0.30429143860E+02  0.54902934755E+03  0.55307552714E+03  0.47000000000E+01 0. -1.
        -13    1    6    6    0    0 -0.58933138619E+02 -0.59733236757E+02  0.30884932340E+03  0.32004543265E+03  0.00000000000E+00 0.  1.
         14    1    6    6    0    0 -0.77069818292E+01  0.12403028425E+02  0.24924085916E+03  0.24966825701E+03  0.00000000000E+00 0. -1.
         -5    1    3    3    0  503  0.65419651540E+02  0.68663306745E+01  0.23596720563E+03  0.24500916194E+03  0.47000000000E+01 0.  1.
         13    1    4    4    0    0  0.10536703962E+02 -0.10185727615E+02  0.31041454501E+02  0.34327002126E+02  0.00000000000E+00 0. -1.
        -14    1    4    4    0    0 -0.68572386269E+02  0.81078749133E+02  0.30842491064E+03  0.32619298157E+03  0.00000000000E+00 0.  1.
</event>
<event>
12    1  0.9962621E-001  0.2391432E+03  0.7818608E-02  0.1120439E+00
         21   -1    0    0  503  502  0.00000000000E+00  0.00000000000E+00  0.10358609119E+04  0.10358609119E+04  0.00000000000E+00 0. -1.
         21   -1    0    0  501  503 -0.00000000000E+00 -0.00000000000E+00 -0.61485223718E+02  0.61485223718E+02  0.00000000000E+00 0. -1.
          6    2    1    2  501    0  0.92966371775E+02 -0.13775213725E+03  0.66430964078E+03  0.70604303101E+03  0.17196239475E+03 0.  0.
         24    2    3    3    0    0  0.82330196619E+02 -0.16696972927E+03  0.61554238122E+03  0.64801604151E+03  0.79844944799E+02 0.  0.
         -6    2    1    2    0  502 -0.92966371775E+02  0.13775213725E+03  0.31006604743E+03  0.39130310464E+03  0.17134400581E+03 0.  0.
        -24    2    5    5    0    0 -0.31278428205E+02  0.49377418271E+01  0.15828835364E+03  0.18034428318E+03  0.80412288952E+02 0.  0.
          5    1    3    3  501    0  0.10636175157E+02  0.29217592017E+02  0.48767259552E+02  0.58026989492E+02  0.47000000000E+01 0. -1.
        -13    1    4    4    0    0  0.77701762090E+02 -0.12520442114E+03  0.55562119741E+03  0.57482921456E+03  0.00000000000E+00 0.  1.
         14    1    4    4    0    0  0.46284345290E+01 -0.41765308134E+02  0.59921183818E+02  0.73186826956E+02  0.00000000000E+00 0. -1.
         -5    1    5    5    0  502 -0.61687943570E+02  0.13281439543E+03  0.15177769379E+03  0.21095882145E+03  0.47000000000E+01 0.  1.
         13    1    6    6    0    0 -0.16560155560E+02  0.40735790501E+02  0.10996270240E+03  0.11842904753E+03  0.00000000000E+00 0. -1.
        -14    1    6    6    0    0 -0.14718272645E+02 -0.35798048674E+02  0.48325651241E+02  0.61915235656E+02  0.00000000000E+00 0.  1.
</event>
<event>
12    1  0.9962621E-001  0.2371092E+03  0.7818608E-02  0.1122006E+00
         21   -1    0    0  503  502  0.00000000000E+00  0.00000000000E+00  0.31866307971E+03  0.31866307971E+03  0.00000000000E+00 0. -1.
         21   -1    0    0  501  503 -0.00000000000E+00 -0.00000000000E+00 -0.19300513938E+03  0.19300513938E+03  0.00000000000E+00 0. -1.
          6    2    1    2  501    0  0.15905895008E+03 -0.23176712235E+02 -0.14606381430E+02  0.23755866561E+03  0.17430967740E+03 0.  0.
         24    2    3    3    0    0  0.61969162063E+02  0.32800127122E+02  0.34517555605E+02  0.11510424686E+03  0.84507399756E+02 0.  0.
         -6    2    1    2    0  502 -0.15905895008E+03  0.23176712235E+02  0.14026432176E+03  0.27410955349E+03  0.17211931259E+03 0.  0.
        -24    2    5    5    0    0 -0.16314645473E+03 -0.24307336329E+02  0.13221940270E+03  0.22554770339E+03  0.78626864150E+02 0.  0.
          5    1    3    3  501    0  0.97089788017E+02 -0.55976839357E+02 -0.49123937036E+02  0.12245441875E+03  0.47000000000E+01 0. -1.
        -13    1    4    4    0    0  0.60783117593E+02  0.58031700840E+02  0.21774185620E+02  0.86812331186E+02  0.00000000000E+00 0.  1.
         14    1    4    4    0    0  0.11860444708E+01 -0.25231573718E+02  0.12743369986E+02  0.28291915671E+02  0.00000000000E+00 0. -1.
         -5    1    5    5    0  502  0.40875046463E+01  0.47484048564E+02  0.80449190632E+01  0.48561850099E+02  0.47000000000E+01 0.  1.
         11    1    6    6    0    0 -0.12874926361E+02  0.20100190640E+02  0.30504047329E+02  0.38733426081E+02  0.00000000000E+00 0. -1.
        -12    1    6    6    0    0 -0.15027152837E+03 -0.44407526969E+02  0.10171535537E+03  0.18681427731E+03  0.00000000000E+00 0.  1.
</event>
<event>
12    1  0.9962621E-001  0.2215705E+03  0.7818608E-02  0.1132962E+00
         21   -1    0    0  503  502  0.00000000000E+00  0.00000000000E+00  0.40514191123E+02  0.40514191123E+02  0.00000000000E+00 0. -1.
         21   -1    0    0  501  503 -0.00000000000E+00 -0.00000000000E+00 -0.16344542615E+04  0.16344542615E+04  0.00000000000E+00 0. -1.
          6    2    1    2  501    0 -0.54354889576E+02  0.13020592445E+03 -0.36570681954E+03  0.42690979612E+03  0.16912261642E+03 0.  0.
         24    2    3    3    0    0 -0.54719715841E+02  0.13989343188E+03 -0.20591702842E+03  0.26675721811E+03  0.78696704092E+02 0.  0.
         -6    2    1    2    0  502  0.54354889576E+02 -0.13020592445E+03 -0.12282332509E+04  0.12480586565E+04  0.17083751000E+03 0.  0.
        -24    2    5    5    0    0  0.66925107370E+02 -0.38110272030E+02 -0.45347758138E+03  0.46773304695E+03  0.84858255702E+02 0.  0.
          5    1    3    3  501    0  0.36482626508E+00 -0.96875074263E+01 -0.15978979112E+03  0.16015257801E+03  0.47000000000E+01 0. -1.
        -13    1    4    4    0    0  0.11114349991E+02  0.36403813337E+02 -0.91166511790E+02  0.98793214712E+02  0.00000000000E+00 0.  1.
         14    1    4    4    0    0 -0.65834065833E+02  0.10348961854E+03 -0.11475051663E+03  0.16796400340E+03  0.00000000000E+00 0. -1.
         -5    1    5    5    0  502 -0.12570217794E+02 -0.92095652424E+02 -0.77475566950E+03  0.78032560960E+03  0.47000000000E+01 0.  1.
         11    1    6    6    0    0  0.78993271110E+02 -0.41568974165E+02 -0.44132064308E+03  0.45025751132E+03  0.00000000000E+00 0. -1.
        -12    1    6    6    0    0 -0.12068163740E+02  0.34587021345E+01 -0.12156938301E+02  0.17475535624E+02  0.00000000000E+00 0.  1.
</event>
<event>
12    1  0.9962621E-001  0.2467983E+03  0.7818608E-02  0.1115386E+00
         21   -1    0    0  503  502  0.00000000000E+00  0.00000000000E+00  0.61919063448E+03  0.61919063448E+03  0.00000000000E+00 0. -1.
         21   -1    0    0  501  503 -0.00000000000E+00 -0.00000000000E+00 -0.12563144042E+03  0.12563144042E+03  0.00000000000E+00 0. -1.
          6    2    1    2  501    0 -0.12150152641E+03 -0.12837687148E+03  0.72876303863E+02  0.25708906478E+03  0.17187376040E+03 0.  0.
         24    2    3    3    0    0 -0.14520423333E+03 -0.14220859124E+03  0.65552486216E+02  0.22829908229E+03  0.80720441804E+02 0.  0.
         -6    2    1    2    0  502  0.12150152641E+03  0.12837687148E+03  0.42068289020E+03  0.48773301012E+03  0.17223865131E+03 0.  0.
        -24    2    5    5    0    0  0.27586892603E+02  0.10402482154E+03  0.16559695219E+03  0.21477897269E+03  0.84412418493E+02 0.  0.
          5    1    3    3  501    0  0.23702706923E+02  0.13831719761E+02  0.73238176474E+01  0.28789982493E+02  0.47000000000E+01 0. -1.
        -11    1    4    4    0    0 -0.12507346955E+03 -0.94385117596E+02  0.17651664885E+02  0.15768165550E+03  0.00000000000E+00 0.  1.
         12    1    4    4    0    0 -0.20130763782E+02 -0.47823473643E+02  0.47900821331E+02  0.70617426787E+02  0.00000000000E+00 0. -1.
         -5    1    5    5    0  502  0.93914633804E+02  0.24352049938E+02  0.25508593801E+03  0.27295403743E+03  0.47000000000E+01 0.  1.
         13    1    6    6    0    0  0.43816468101E+02  0.42396401924E+02  0.37164374493E+02  0.71403981012E+02  0.00000000000E+00 0. -1.
        -14    1    6    6    0    0 -0.16229575498E+02  0.61628419616E+02  0.12843257770E+03  0.14337499168E+03  0.00000000000E+00 0.  1.
</event>
<event>
12    1  0.9962621E-001  0.2476742E+03  0.7818608E-02  0.1114858E+00
         21   -1    0    0  501  502  0.00000000000E+00  0.00000000000E+00  0.13941034907E+03  0.13941034907E+03  0.00000000000E+00 0.  1.
         21   -1    0    0  502  503 -0.00000000000E+00 -0.00000000000E+00 -0.46571417638E+03  0.46571417638E+03  0.00000000000E+00 0.  1.
         -6    2    1    2    0  503  0.15681366131E+03  0.83766648351E+02 -0.90805010232E+02  0.26336116675E+03  0.17177362579E+03 0.  0.
        -24    2    3    3    0    0  0.24665011987E+02  0.21514143099E+02  0.93312288450E+01  0.86194588902E+02  0.79190997940E+02 0.  0.
          6    2    1    2  501    0 -0.15681366131E+03 -0.83766648351E+02 -0.23549881707E+03  0.34176335870E+03  0.17243875654E+03 0.  0.
         24    2    5    5    0    0 -0.30170582473E+02 -0.85406123066E+02 -0.10642934366E+03  0.16087063838E+03  0.79672374125E+02 0.  0.
          5    1    5    5  501    0 -0.12664307884E+03  0.16394747150E+01 -0.12906947342E+03  0.18089272032E+03  0.47000000000E+01 0. -1.
        -13    1    6    6    0    0 -0.26328532505E+02 -0.23816606738E+02  0.25912416503E+01  0.35596866627E+02  0.00000000000E+00 0.  1.
         14    1    6    6    0    0 -0.38420499683E+01 -0.61589516328E+02 -0.10902058531E+03  0.12527377176E+03  0.00000000000E+00 0. -1.
         -5    1    3    3    0  503  0.13214864933E+03  0.62252505252E+02 -0.10013623908E+03  0.17716657785E+03  0.47000000000E+01 0.  1.
         13    1    4    4    0    0  0.97578007118E+01  0.48550400629E+02 -0.89367083290E+01  0.50321176772E+02  0.00000000000E+00 0. -1.
        -14    1    4    4    0    0  0.14907211276E+02 -0.27036257530E+02  0.18267937174E+02  0.35873412130E+02  0.00000000000E+00 0.  1.
</event>
<event>
12    1  0.9962621E-001  0.2202511E+03  0.7818608E-02  0.1134583E+00
         21   -1    0    0  503  502  0.00000000000E+00  0.00000000000E+00  0.15924691767E+03  0.15924691767E+03  0.00000000000E+00 0.  1.
         21   -1    0    0  501  503 -0.00000000000E+00 -0.00000000000E+00 -0.16804955469E+04  0.16804955469E+04  0.00000000000E+00 0.  1.
          6    2    1    2  501    0 -0.41119501062E+02  0.12591273594E+03  0.72199248910E+02  0.23178280894E+03  0.17597076046E+03 0.  0.
         24    2    3    3    0    0 -0.87910252887E+01 -0.54002245851E+01  0.12515974533E+02  0.83889579928E+02  0.82306545613E+02 0.  0.
         -6    2    1    2    0  502  0.41119501062E+02 -0.12591273594E+03 -0.15934478782E+04  0.16079596557E+04  0.17003906414E+03 0.  0.
        -24    2    5    5    0    0  0.78940183435E+02 -0.50101853627E+02 -0.69916379989E+03  0.70965915106E+03  0.77745374837E+02 0.  0.
          5    1    3    3  501    0 -0.32328475773E+02  0.13131296053E+03  0.59683274376E+02  0.14789322902E+03  0.47000000000E+01 0. -1.
        -11    1    4    4    0    0  0.18613466811E+02 -0.81123983284E+01  0.40077866917E+02  0.44927803974E+02  0.00000000000E+00 0.  1.
         12    1    4    4    0    0 -0.27404492100E+02  0.27121737433E+01 -0.27561892383E+02  0.38961775953E+02  0.00000000000E+00 0. -1.
         -5    1    5    5    0  502 -0.37820682374E+02 -0.75810882315E+02 -0.89428407829E+03  0.89830050461E+03  0.47000000000E+01 0.  1.
         11    1    6    6    0    0  0.69692386637E+02 -0.58377641837E+02 -0.39846853101E+03  0.40870790062E+03  0.00000000000E+00 0. -1.
        -12    1    6    6    0    0  0.92477967981E+01  0.82757882100E+01 -0.30069526888E+03  0.30095125045E+03  0.00000000000E+00 0.  1.
</event>
<event>
12    1  0.9962621E-001  0.2752124E+03  0.7818608E-02  0.1098488E+00
         21   -1    0    0  503  502  0.00000000000E+00  0.00000000000E+00  0.25758098144E+04  0.25758098144E+04  0.00000000000E+00 0.  1.
         21   -1    0    0  501  503 -0.00000000000E+00 -0.00000000000E+00 -0.31376507901E+02  0.31376507901E+02  0.00000000000E+00 0. -1.
          6    2    1    2  501    0  0.47606341110E+02  0.20943494043E+03  0.16110539226E+04  0.16343918097E+04  0.17208279427E+03 0.  0.
         24    2    3    3    0    0 -0.25825817968E+02  0.13342110951E+03  0.11845576102E+04  0.11949699407E+04  0.79424567405E+02 0.  0.
         -6    2    1    2    0  502 -0.47606341110E+02 -0.20943494043E+03  0.93337938389E+03  0.97279451260E+03  0.17030188337E+03 0.  0.
        -24    2    5    5    0    0  0.21649929095E+02 -0.11210698778E+03  0.34017956210E+03  0.36766867453E+03  0.80133785744E+02 0.  0.
          5    1    3    3  501    0  0.73432159079E+02  0.76013830915E+02  0.42649631240E+03  0.43942186901E+03  0.47000000000E+01 0. -1.
        -11    1    4    4    0    0 -0.10020476582E+02  0.68009937720E+02  0.89755385903E+03  0.90018258784E+03  0.00000000000E+00 0.  1.
         12    1    4    4    0    0 -0.15805341386E+02  0.65411171795E+02  0.28700375114E+03  0.29478735282E+03  0.00000000000E+00 0. -1.
         -5    1    5    5    0  502 -0.69256270205E+02 -0.97327952649E+02  0.59319982179E+03  0.60512583807E+03  0.47000000000E+01 0.  1.
         13    1    6    6    0    0  0.14335495703E+02  0.62739019724E+01  0.15593039758E+02  0.22090974897E+02  0.00000000000E+00 0. -1.
        -14    1    6    6    0    0  0.73144333923E+01 -0.11838088975E+03  0.32458652234E+03  0.34557769963E+03  0.00000000000E+00 0.  1.
</event>
<event>
12    1  0.9962621E-001  0.2395330E+03  0.7818608E-02  0.1120306E+00
         21   -1    0    0  501  502  0.00000000000E+00  0.00000000000E+00  0.44463476084E+02  0.44463476084E+02  0.00000000000E+00 0. -1.
         21   -1    0    0  502  503 -0.00000000000E+00 -0.00000000000E+00 -0.12842745554E+04  0.12842745554E+04  0.00000000000E+00 0. -1.
         -6    2    1    2    0  503  0.14730081333E+03 -0.78791093942E+02 -0.63234064477E+03  0.67618838906E+03  0.17166968393E+03 0.  0.
        -24    2    3    3    0    0  0.98770748638E+02 -0.11006985617E+03 -0.36069249114E+03  0.39843249351E+03  0.82330703218E+02 0.  0.
          6    2    1    2  501    0 -0.14730081333E+03  0.78791093942E+02 -0.60747043455E+03  0.65254964243E+03  0.16998570790E+03 0.  0.
         24    2    5    5    0    0 -0.15382482166E+02  0.40427553899E+02 -0.15550614508E+03  0.18014302069E+03  0.79989617298E+02 0.  0.
          5    1    5    5  501    0 -0.13191833116E+03  0.38363540043E+02 -0.45196428948E+03  0.47240662174E+03  0.47000000000E+01 0. -1.
        -11    1    6    6    0    0 -0.18988638162E+02 -0.21620514090E+02 -0.48110519620E+02  0.56059228562E+02  0.00000000000E+00 0.  1.
         12    1    6    6    0    0  0.36061559962E+01  0.62048067989E+02 -0.10739562546E+03  0.12408379213E+03  0.00000000000E+00 0. -1.
         -5    1    3    3    0  503  0.48530064688E+02  0.31278762225E+02 -0.27164815362E+03  0.27775589555E+03  0.47000000000E+01 0.  1.
         13    1    4    4    0    0  0.47876981890E+02 -0.35886956402E+02 -0.60664277944E+02  0.85207004718E+02  0.00000000000E+00 0. -1.
        -14    1    4    4    0    0  0.50893766748E+02 -0.74182899765E+02 -0.30002821320E+03  0.31322548879E+03  0.00000000000E+00 0.  1.
</event>
<event>
12    1  0.9962621E-001  0.3485467E+03  0.7818608E-02  0.1063287E+00
         21   -1    0    0  503  502  0.00000000000E+00  0.00000000000E+00  0.13403134877E+04  0.13403134877E+04  0.00000000000E+00 0.  1.
         21   -1    0    0  501  503 -0.00000000000E+00 -0.00000000000E+00 -0.93979303838E+02  0.93979303838E+02  0.00000000000E+00 0. -1.
          6    2    1    2  501    0 -0.29856816582E+03  0.49257724696E+02  0.48365430249E+03  0.59574318832E+03  0.17152022920E+03 0.  0.
         24    2    3    3    0    0 -0.20195121386E+03  0.82574126204E+02  0.25529740930E+03  0.34551573442E+03  0.81250085788E+02 0.  0.
         -6    2    1    2    0  502  0.29856816582E+03 -0.49257724696E+02  0.76267988139E+03  0.83854960323E+03  0.17296115902E+03 0.  0.
        -24    2    5    5    0    0  0.19562588983E+03  0.75922496315E+01  0.61018458849E+03  0.64592059160E+03  0.81000293824E+02 0.  0.
          5    1    3    3  501    0 -0.96616951963E+02 -0.33316401508E+02  0.22835689319E+03  0.25022745389E+03  0.47000000000E+01 0. -1.
        -13    1    4    4    0    0 -0.13915856235E+03  0.23122459412E+02  0.12134015551E+03  0.18607306883E+03  0.00000000000E+00 0.  1.
         14    1    4    4    0    0 -0.62792651503E+02  0.59451666792E+02  0.13395725379E+03  0.15944266559E+03  0.00000000000E+00 0. -1.
         -5    1    5    5    0  502  0.10294227599E+03 -0.56849974327E+02  0.15249529290E+03  0.19262901163E+03  0.47000000000E+01 0.  1.
         13    1    6    6    0    0  0.14232620163E+03  0.40679542714E+02  0.45746715812E+03  0.48081989728E+03  0.00000000000E+00 0. -1.
        -14    1    6    6    0    0  0.53299688205E+02 -0.33087293082E+02  0.15271743037E+03  0.16510069432E+03  0.00000000000E+00 0.  1.
</event>
<event>
12    1  0.9962621E-001  0.2261795E+03  0.7818608E-02  0.1130255E+00
         21   -1    0    0  503  502  0.00000000000E+00  0.00000000000E+00  0.86461703830E+03  0.86461703830E+03  0.00000000000E+00 0. -1.
         21   -1    0    0  501  503 -0.00000000000E+00 -0.00000000000E+00 -0.74936876384E+02  0.74936876384E+02  0.00000000000E+00 0. -1.
          6    2    1    2  501    0 -0.82099092537E+02  0.11262266402E+03  0.62227805286E+03  0.66210809769E+03  0.17813767853E+03 0.  0.
         24    2    3    3    0    0  0.24316167202E+02  0.31682366126E+02  0.29174212503E+03  0.30552482703E+03  0.81467196499E+02 0.  0.
         -6    2    1    2    0  502  0.82099092537E+02 -0.11262266402E+03  0.16740210906E+03  0.27744581699E+03  0.17183884836E+03 0.  0.
        -24    2    5    5    0    0  0.18916671906E+02 -0.56180822677E+02  0.16526472856E+03  0.19256732663E+03  0.79092474154E+02 0.  0.
          5    1    3    3  501    0 -0.10641525974E+03  0.80940297893E+02  0.33053592783E+03  0.35658327066E+03  0.47000000000E+01 0. -1.
        -11    1    4    4    0    0 -0.19400270589E+02 -0.53561169022E+01  0.16752753444E+03  0.16873213471E+03  0.00000000000E+00 0.  1.
         12    1    4    4    0    0  0.43716437791E+02  0.37038483028E+02  0.12421459059E+03  0.13679269232E+03  0.00000000000E+00 0. -1.
         -5    1    5    5    0  502  0.63182420631E+02 -0.56441841343E+02  0.21373805003E+01  0.84878490363E+02  0.47000000000E+01 0.  1.
         11    1    6    6    0    0  0.13751026844E+02  0.18182280528E+02  0.54282698323E+02  0.58875269865E+02  0.00000000000E+00 0. -1.
        -12    1    6    6    0    0  0.51656450623E+01 -0.74363103205E+02  0.11098203023E+03  0.13369205677E+03  0.00000000000E+00 0.  1.
</event>
<event>
12    1  0.9962621E-001  0.2045444E+03  0.7818608E-02  0.1146269E+00
         21   -1    0    0  503  502  0.00000000000E+00  0.00000000000E+00  0.55092628718E+02  0.55092628718E+02  0.00000000000E+00 0.  1.
         21   -1    0    0  501  503 -0.00000000000E+00 -0.00000000000E+00 -0.81007323106E+03  0.81007323106E+03  0.00000000000E+00 0.  1.
          6    2    1    2  501    0 -0.10368523014E+03 -0.30320404629E+02 -0.49014356554E+03  0.53053609079E+03  0.17192403818E+03 0.  0.
         24    2    3    3    0    0 -0.11509210411E+03  0.25608348942E+02 -0.39058626827E+03  0.41568014758E+03  0.79563635981E+02 0.  0.
         -6    2    1    2    0  502  0.10368523014E+03  0.30320404629E+02 -0.26483703680E+03  0.33462976899E+03  0.17369073765E+03 0.  0.
        -24    2    5    5    0    0  0.13601224714E+03  0.51317284510E+02 -0.22273529721E+03  0.27735367040E+03  0.78620931062E+02 0.  0.
          5    1    3    3  501    0  0.11406873971E+02 -0.55928753571E+02 -0.99557297267E+02  0.11485594320E+03  0.47000000000E+01 0. -1.
        -11    1    4    4    0    0  0.11972458883E+02  0.39006012437E+01 -0.24218258717E+02  0.27296126411E+02  0.00000000000E+00 0.  1.
         12    1    4    4    0    0 -0.12706456299E+03  0.21707747698E+02 -0.36636800955E+03  0.38838402117E+03  0.00000000000E+00 0. -1.
         -5    1    5    5    0  502 -0.32327016999E+02 -0.20996879880E+02 -0.42101739595E+02  0.57276098590E+02  0.47000000000E+01 0.  1.
         13    1    6    6    0    0  0.63501800854E+02  0.38730520604E+02 -0.17360013102E+03  0.18886380656E+03  0.00000000000E+00 0. -1.
        -14    1    6    6    0    0  0.72510446283E+02  0.12586763906E+02 -0.49135166182E+02  0.88489863834E+02  0.00000000000E+00 0.  1.
</event>
<event>
12    1  0.9962621E-001  0.1956328E+03  0.7818608E-02  0.1153515E+00
         21   -1    0    0  503  502  0.00000000000E+00  0.00000000000E+00  0.16168082204E+03  0.16168082204E+03  0.00000000000E+00 0.  1.
         21   -1    0    0  501  503 -0.00000000000E+00 -0.00000000000E+00 -0.34952567197E+03  0.34952567197E+03  0.00000000000E+00 0.  1.
          6    2    1    2  501    0 -0.60195369566E+02 -0.72270425713E+02  0.51454014683E+02  0.20211730051E+03  0.17133998538E+03 0.  0.
         24    2    3    3    0    0 -0.44789334978E+02  0.73885718939E+01 -0.20472114582E+02  0.93589148069E+02  0.79241060306E+02 0.  0.
         -6    2    1    2    0  502  0.60195369566E+02  0.72270425713E+02 -0.23929886461E+03  0.30908919350E+03  0.17153916749E+03 0.  0.
        -24    2    5    5    0    0  0.99529835618E+02  0.47916937671E+02 -0.22091937285E+03  0.25908731036E+03  0.78221761658E+02 0.  0.
          5    1    3    3  501    0 -0.15406034588E+02 -0.79658997607E+02  0.71926129265E+02  0.10852815244E+03  0.47000000000E+01 0. -1.
        -11    1    4    4    0    0 -0.31997400024E+02  0.37268768572E+02  0.87353755409E+01  0.49890896013E+02  0.00000000000E+00 0.  1.
         12    1    4    4    0    0 -0.12791934954E+02 -0.29880196678E+02 -0.29207490123E+02  0.43698252055E+02  0.00000000000E+00 0. -1.
         -5    1    5    5    0  502 -0.39334466051E+02  0.24353488042E+02 -0.18379491761E+02  0.50001883132E+02  0.47000000000E+01 0.  1.
         13    1    6    6    0    0  0.47661701136E+01 -0.48182917742E+01 -0.84696180090E+02  0.84966906705E+02  0.00000000000E+00 0. -1.
        -14    1    6    6    0    0  0.94763665504E+02  0.52735229445E+02 -0.13622319276E+03  0.17412040366E+03  0.00000000000E+00 0.  1.
</event>
<event>
12    1  0.9962621E-001  0.3044773E+03  0.7818608E-02  0.1083068E+00
         21   -1    0    0  503  502  0.00000000000E+00  0.00000000000E+00  0.74797760926E+03  0.74797760926E+03  0.00000000000E+00 0.  1.
         21   -1    0    0  501  503 -0.00000000000E+00 -0.00000000000E+00 -0.14897160362E+03  0.14897160362E+03  0.00000000000E+00 0. -1.
          6    2    1    2  501    0 -0.59359603765E+01 -0.25108360651E+03  0.48371980373E+03  0.57137687048E+03  0.17148896908E+03 0.  0.
         24    2    3    3    0    0  0.50336425490E+02 -0.11848592995E+03  0.18093741072E+03  0.23604421064E+03  0.80036563210E+02 0.  0.
         -6    2    1    2    0  502  0.59359603765E+01  0.25108360651E+03  0.11528620192E+03  0.32557234240E+03  0.17212852378E+03 0.  0.
        -24    2    5    5    0    0  0.60263087915E+02  0.85761878648E+02  0.55134670033E+02  0.14139034741E+03  0.77231204228E+02 0.  0.
          5    1    3    3  501    0 -0.56272385866E+02 -0.13259767657E+03  0.30278239301E+03  0.33533265984E+03  0.47000000000E+01 0. -1.
        -13    1    4    4    0    0  0.27462661340E+01 -0.96296176326E+02  0.13754453817E+03  0.16792556546E+03  0.00000000000E+00 0.  1.
         14    1    4    4    0    0  0.47590159356E+02 -0.22189753620E+02  0.43392872548E+02  0.68118645180E+02  0.00000000000E+00 0. -1.
         -5    1    5    5    0  502 -0.54327127539E+02  0.16532172786E+03  0.60151531887E+02  0.18418199499E+03  0.47000000000E+01 0.  1.
         13    1    6    6    0    0  0.19530636938E+02 -0.12906644602E+02  0.85482055016E+01  0.24921859309E+02  0.00000000000E+00 0. -1.
        -14    1    6    6    0    0  0.40732450977E+02  0.98668523250E+02  0.46586464531E+02  0.11646848810E+03  0.00000000000E+00 0.  1.
</event>
<event>
12    1  0.9962621E-001  0.2794217E+03  0.7818608E-02  0.1096053E+00
         21   -1    0    0  503  502  0.00000000000E+00  0.00000000000E+00  0.20536759781E+03  0.20536759781E+03  0.00000000000E+00 0. -1.
         21   -1    0    0  501  503 -0.00000000000E+00 -0.00000000000E+00 -0.41960229728E+03  0.41960229728E+03  0.00000000000E+00 0. -1.
          6    2    1    2  501    0  0.21908533416E+03 -0.18413120049E+02 -0.10820971671E+02  0.27963116631E+03  0.17245019312E+03 0.  0.
         24    2    3    3    0    0  0.87797940753E+02  0.50813919510E+02  0.97843943423E+01  0.12971307606E+03  0.80244718909E+02 0.  0.
         -6    2    1    2    0  502 -0.21908533416E+03  0.18413120049E+02 -0.20341372781E+03  0.34533872878E+03  0.17188445627E+03 0.  0.
        -24    2    5    5    0    0 -0.10763389398E+03 -0.47222071172E+02 -0.62615670054E+02  0.15409128459E+03  0.77514016223E+02 0.  0.
          5    1    3    3  501    0  0.13128739340E+03 -0.69227039559E+02 -0.20605366013E+02  0.14991809024E+03  0.47000000000E+01 0. -1.
        -13    1    4    4    0    0  0.53399894528E+02 -0.63875523996E+01  0.27850244318E+02  0.60563897413E+02  0.00000000000E+00 0.  1.
         14    1    4    4    0    0  0.34398046225E+02  0.57201471910E+02 -0.18065849976E+02  0.69149178651E+02  0.00000000000E+00 0. -1.
         -5    1    5    5    0  502 -0.11145144017E+03  0.65635191221E+02 -0.14079805775E+03  0.19124744419E+03  0.47000000000E+01 0.  1.
         11    1    6    6    0    0  0.60584264743E+01  0.41369552278E+01  0.79048372837E+01  0.10784497317E+02  0.00000000000E+00 0. -1.
        -12    1    6    6    0    0 -0.11369232046E+03 -0.51359026400E+02 -0.70520507338E+02  0.14330678727E+03  0.00000000000E+00 0.  1.
</event>
<event>
12    1  0.9962621E-001  0.2221346E+03  0.7818608E-02  0.1132391E+00
         21   -1    0    0  503  502  0.00000000000E+00  0.00000000000E+00  0.50997202907E+03  0.50997202907E+03  0.00000000000E+00 0.  1.
         21   -1    0    0  501  503 -0.00000000000E+00 -0.00000000000E+00 -0.98413480982E+02  0.98413480982E+02  0.00000000000E+00 0.  1.
          6    2    1    2  501    0  0.10736955488E+02 -0.13852570526E+03  0.16410004559E+03  0.27617499264E+03  0.17331805550E+03 0.  0.
         24    2    3    3    0    0  0.12917104306E+02 -0.15867924224E+03  0.89157251423E+02  0.19839690768E+03  0.77886866644E+02 0.  0.
         -6    2    1    2    0  502 -0.10736955488E+02  0.13852570526E+03  0.24745850249E+03  0.33221051741E+03  0.17269471385E+03 0.  0.
        -24    2    5    5    0    0  0.74282127750E+01  0.16572515985E+03  0.23110960691E+03  0.29534372945E+03  0.79348983418E+02 0.  0.
          5    1    3    3  501    0 -0.21801488179E+01  0.20153536976E+02  0.74942794169E+02  0.77778084956E+02  0.47000000000E+01 0. -1.
        -13    1    4    4    0    0 -0.16929200764E+02 -0.64525289149E+02  0.21106806350E+01  0.66742533297E+02  0.00000000000E+00 0.  1.
         14    1    4    4    0    0  0.29846305069E+02 -0.94153953089E+02  0.87046570788E+02  0.13165437438E+03  0.00000000000E+00 0. -1.
         -5    1    5    5    0  502 -0.18165168263E+02 -0.27199454586E+02  0.16348895588E+02  0.36866787964E+02  0.47000000000E+01 0.  1.
         13    1    6    6    0    0  0.11930434790E+02  0.13886241876E+03  0.12986526480E+03  0.19049958956E+03  0.00000000000E+00 0. -1.
        -14    1    6    6    0    0 -0.45022220153E+01  0.26862741083E+02  0.10124434211E+03  0.10484413989E+03  0.00000000000E+00 0.  1.
</event>
<event>
12    1  0.9962621E-001  0.1881906E+03  0.7818608E-02  0.1160598E+00
         21   -1    0    0  503  502  0.00000000000E+00  0.00000000000E+00  0.14733059416E+03  0.14733059416E+03  0.00000000000E+00 0. -1.
         21   -1    0    0  501  503 -0.00000000000E+00 -0.00000000000E+00 -0.46578853430E+03  0.46578853430E+03  0.00000000000E+00 0. -1.
          6    2    1    2  501    0 -0.16892892986E+02 -0.67654841377E+02  0.55788320358E+02  0.19422060643E+03  0.17247249020E+03 0.  0.
         24    2    3    3    0    0 -0.53251230618E+02 -0.68756550191E+01  0.61255241728E+02  0.12303061107E+03  0.92202811379E+02 0.  0.
         -6    2    1    2    0  502  0.16892892986E+02  0.67654841377E+02 -0.37424626050E+03  0.41889852204E+03  0.17479462484E+03 0.  0.
        -24    2    5    5    0    0  0.47640590106E+01 -0.28623279930E+02 -0.21157708566E+03  0.22942573851E+03  0.83841027554E+02 0.  0.
          5    1    3    3  501    0  0.36358337632E+02 -0.60779186358E+02 -0.54669213699E+01  0.71189995357E+02  0.47000000000E+01 0. -1.
        -11    1    4    4    0    0 -0.58811801266E+02 -0.41231109612E+02  0.39161477831E+02  0.81807418453E+02  0.00000000000E+00 0.  1.
         12    1    4    4    0    0  0.55605706480E+01  0.34355454593E+02  0.22093763897E+02  0.41223192615E+02  0.00000000000E+00 0. -1.
         -5    1    5    5    0  502  0.12128833976E+02  0.96278121307E+02 -0.16266917484E+03  0.18947278353E+03  0.47000000000E+01 0.  1.
         11    1    6    6    0    0  0.26182039445E+01  0.16156487428E+02 -0.37143411377E+01  0.16783426587E+02  0.00000000000E+00 0. -1.
        -12    1    6    6    0    0  0.21458550661E+01 -0.44779767358E+02 -0.20786274452E+03  0.21264231192E+03  0.00000000000E+00 0.  1.
</event>
<event>
12    1  0.9962621E-001  0.1807485E+03  0.7818608E-02  0.1167715E+00
         21   -1    0    0  503  502  0.00000000000E+00  0.00000000000E+00  0.28304169101E+03  0.28304169101E+03  0.00000000000E+00 0. -1.
         21   -1    0    0  501  503 -0.00000000000E+00 -0.00000000000E+00 -0.11398869865E+03  0.11398869865E+03  0.00000000000E+00 0. -1.
          6    2    1    2  501    0 -0.56582965526E+01 -0.54220518156E+02  0.75024317939E+02  0.19328692423E+03  0.16958568892E+03 0.  0.
         24    2    3    3    0    0 -0.63741847185E+02 -0.60092980202E+02  0.44004166934E+02  0.12701080158E+03  0.80753870861E+02 0.  0.
         -6    2    1    2    0  502  0.56582965526E+01  0.54220518156E+02  0.94028674421E+02  0.20374346543E+03  0.17233144572E+03 0.  0.
        -24    2    5    5    0    0  0.40708115656E+02 -0.38892891512E+01  0.10142392859E+03  0.13531818276E+03  0.79698933769E+02 0.  0.
          5    1    3    3  501    0  0.58083550633E+02  0.58724620459E+01  0.31020151004E+02  0.66276122645E+02  0.47000000000E+01 0. -1.
        -11    1    4    4    0    0  0.17928928922E+02 -0.68844563852E+01  0.17535786938E+02  0.26006654063E+02  0.00000000000E+00 0.  1.
         12    1    4    4    0    0 -0.81670776107E+02 -0.53208523817E+02  0.26468379996E+02  0.10100414752E+03  0.00000000000E+00 0. -1.
         -5    1    5    5    0  502 -0.35049819103E+02  0.58109807307E+02 -0.73952541735E+01  0.68425282672E+02  0.47000000000E+01 0.  1.
         11    1    6    6    0    0 -0.10277460051E+02 -0.28812720843E+02  0.21904467464E+02  0.37624523418E+02  0.00000000000E+00 0. -1.
        -12    1    6    6    0    0  0.50985575707E+02  0.24923431692E+02  0.79519461130E+02  0.97693659343E+02  0.00000000000E+00 0.  1.
</event>
<event>
12    1  0.9962621E-001  0.2682065E+03  0.7818608E-02  0.1102608E+00
         21   -1    0    0  503  502  0.00000000000E+00  0.00000000000E+00  0.14263139078E+03  0.14263139078E+03  0.00000000000E+00 0. -1.
         21   -1    0    0  501  503 -0.00000000000E+00 -0.00000000000E+00 -0.52272092754E+03  0.52272092754E+03  0.00000000000E+00 0.  1.
          6    2    1    2  501    0 -0.38174563230E+01 -0.20574141147E+03 -0.12213478287E+03  0.29470605359E+03  0.17201933458E+03 0.  0.
         24    2    3    3    0    0 -0.39387803903E+01 -0.90162145034E+02 -0.13358151147E+03  0.17846621900E+03  0.76560072686E+02 0.  0.
         -6    2    1    2    0  502  0.38174563230E+01  0.20574141147E+03 -0.25795475390E+03  0.37064626474E+03  0.16880135409E+03 0.  0.
        -24    2    5    5    0    0  0.62948846993E+02  0.12114368894E+03 -0.12467947946E+03  0.20201149728E+03  0.81396079313E+02 0.  0.
          5    1    3    3  501    0  0.12132406728E+00 -0.11557926644E+03  0.11446728601E+02  0.11623983459E+03  0.47000000000E+01 0. -1.
        -13    1    4    4    0    0  0.15532105357E+02 -0.73358964234E+02 -0.13306914693E+03  0.15274220698E+03  0.00000000000E+00 0.  1.
         14    1    4    4    0    0 -0.19470885747E+02 -0.16803180800E+02 -0.51236454143E+00  0.25724012016E+02  0.00000000000E+00 0. -1.
         -5    1    5    5    0  502 -0.59131390670E+02  0.84597722532E+02 -0.13327527444E+03  0.16863476746E+03  0.47000000000E+01 0.  1.
         11    1    6    6    0    0  0.38478783318E+02  0.44305207741E+02 -0.66404593313E+01  0.59056446716E+02  0.00000000000E+00 0. -1.
        -12    1    6    6    0    0  0.24470063676E+02  0.76838481198E+02 -0.11803902013E+03  0.14295505056E+03  0.00000000000E+00 0.  1.
</event>
<event>
12    1  0.9962621E-001  0.1883032E+03  0.7818608E-02  0.1160313E+00
         21   -1    0    0  501  502  0.00000000000E+00  0.00000000000E+00  0.19996609451E+03  0.19996609451E+03  0.00000000000E+00 0.  1.
         21   -1    0    0  502  503 -0.00000000000E+00 -0.00000000000E+00 -0.32528403604E+03  0.32528403604E+03  0.00000000000E+00 0.  1.
         -6    2    1    2    0  503 -0.66971415444E+02 -0.55094065037E+01 -0.24042678091E+03  0.30455090316E+03  0.17444394972E+03 0.  0.
        -24    2    3    3    0    0 -0.77700896706E+02 -0.66446987179E+01 -0.66048437828E+02  0.12977588438E+03  0.79986265423E+02 0.  0.
          6    2    1    2  501    0  0.66971415444E+02  0.55094065037E+01  0.11510883937E+03  0.22069922739E+03  0.17590503126E+03 0.  0.
         24    2    5    5    0    0 -0.54731513954E+01  0.53493642141E+02  0.34334595753E+02  0.10196730006E+03  0.79542068624E+02 0.  0.
          5    1    5    5  501    0  0.72444566840E+02 -0.47984235637E+02  0.80774243618E+02  0.11873192733E+03  0.47000000000E+01 0. -1.
        -13    1    6    6    0    0 -0.74222682421E+01  0.65673180109E+01  0.51134676101E+02  0.52086224970E+02  0.00000000000E+00 0.  1.
         14    1    6    6    0    0  0.19491168466E+01  0.46926324130E+02 -0.16800080347E+02  0.49881075094E+02  0.00000000000E+00 0. -1.
         -5    1    3    3    0  503  0.10729481262E+02  0.11352922141E+01 -0.17437834308E+03  0.17477501879E+03  0.47000000000E+01 0.  1.
         13    1    4    4    0    0 -0.23953828103E+02  0.27505238057E+02 -0.53693077063E+02  0.64909710567E+02  0.00000000000E+00 0. -1.
        -14    1    4    4    0    0 -0.53747068603E+02 -0.34149936775E+02 -0.12355360765E+02  0.64866173810E+02  0.00000000000E+00 0.  1.
</event>
<event>
12    1  0.9962621E-001  0.4069838E+03  0.7818608E-02  0.1041447E+00
         21   -1    0    0  503  502  0.00000000000E+00  0.00000000000E+00  0.12359878575E+03  0.12359878575E+03  0.00000000000E+00 0.  1.
         21   -1    0    0  501  503 -0.00000000000E+00 -0.00000000000E+00 -0.13381557263E+04  0.13381557263E+04  0.00000000000E+00 0.  1.
          6    2    1    2  501    0 -0.22032497713E+03 -0.29474033564E+03 -0.61958177153E+03  0.74129438081E+03  0.17384138289E+03 0.  0.
         24    2    3    3    0    0 -0.23319863184E+03 -0.30210297627E+03 -0.60482253229E+03  0.71984992685E+03  0.82011044686E+02 0.  0.
         -6    2    1    2    0  502  0.22032497713E+03  0.29474033564E+03 -0.59497516906E+03  0.72046013128E+03  0.17219868748E+03 0.  0.
        -24    2    5    5    0    0  0.29922891231E+02  0.94318400527E+02 -0.21170488952E+03  0.24787140568E+03  0.82643411166E+02 0.  0.
          5    1    3    3  501    0  0.12873654716E+02  0.73626406286E+01 -0.14759239236E+02  0.21444453959E+02  0.47000000000E+01 0. -1.
        -13    1    4    4    0    0 -0.20283901878E+02 -0.62418995068E+02 -0.14648430556E+03  0.16051548023E+03  0.00000000000E+00 0.  1.
         14    1    4    4    0    0 -0.21291472997E+03 -0.23968398120E+03 -0.45833822673E+03  0.55933444661E+03  0.00000000000E+00 0. -1.
         -5    1    5    5    0  502  0.19040208590E+03  0.20042193511E+03 -0.38327027954E+03  0.47258872560E+03  0.47000000000E+01 0.  1.
         13    1    6    6    0    0  0.56346748042E+02  0.44375056460E+02 -0.13107350973E+03  0.14941340838E+03  0.00000000000E+00 0. -1.
        -14    1    6    6    0    0 -0.26423856811E+02  0.49943344067E+02 -0.80631379783E+02  0.98457997293E+02  0.00000000000E+00 0.  1.
</event>
<event>
12    1  0.9962621E-001  0.1744725E+03  0.7818608E-02  0.1176454E+00
         21   -1    0    0  503  502  0.00000000000E+00  0.00000000000E+00  0.10228862375E+03  0.10228862375E+03  0.00000000000E+00 0.  1.
         21   -1    0    0  501  503 -0.00000000000E+00 -0.00000000000E+00 -0.38294303182E+03  0.38294303182E+03  0.00000000000E+00 0.  1.
          6    2    1    2  501    0  0.15583289524E+02 -0.20077944122E+02 -0.27144635631E+03  0.32268215654E+03  0.17261137576E+03 0.  0.
         24    2    3    3    0    0  0.59330243128E+02  0.34436943913E+02 -0.16086381250E+03  0.19177662586E+03  0.78709130337E+02 0.  0.
         -6    2    1    2    0  502 -0.15583289524E+02  0.20077944122E+02 -0.92080517566E+01  0.16254949903E+03  0.16028595904E+03 0.  0.
        -24    2    5    5    0    0 -0.43539466475E+02 -0.38190977847E+02 -0.16855579103E+02  0.97300822632E+02  0.76348566511E+02 0.  0.
          5    1    3    3  501    0 -0.43746953603E+02 -0.54514888035E+02 -0.11058254381E+03  0.13090553068E+03  0.47000000000E+01 0. -1.
        -13    1    4    4    0    0  0.45173228405E+02  0.24963819933E+02 -0.29773405377E+02  0.59584129917E+02  0.00000000000E+00 0.  1.
         14    1    4    4    0    0  0.14157014722E+02  0.94731239801E+01 -0.13109040713E+03  0.13219249594E+03  0.00000000000E+00 0. -1.
         -5    1    5    5    0  502  0.27956176950E+02  0.58268921969E+02  0.76475273459E+01  0.65248676397E+02  0.47000000000E+01 0.  1.
         13    1    6    6    0    0 -0.23670770691E+02 -0.52706796156E+02  0.12378757047E+02  0.59089299980E+02  0.00000000000E+00 0. -1.
        -14    1    6    6    0    0 -0.19868695784E+02  0.14515818309E+02 -0.29234336149E+02  0.38211522652E+02  0.00000000000E+00 0.  1.
</event>
<event>
12    1  0.9962621E-001  0.2118016E+03  0.7818608E-02  0.1140674E+00
         21   -1    0    0  501  502  0.00000000000E+00  0.00000000000E+00  0.22502761306E+03  0.22502761306E+03  0.00000000000E+00 0.  1.
         21   -1    0    0  502  503 -0.00000000000E+00 -0.00000000000E+00 -0.22168306967E+03  0.22168306967E+03  0.00000000000E+00 0.  1.
         -6    2    1    2    0  503 -0.94856085776E+02 -0.74195715949E+02 -0.73078426603E+02  0.22405441340E+03  0.17423329892E+03 0.  0.
        -24    2    3    3    0    0 -0.33727208794E+02 -0.72751815555E+02  0.17607430081E+02  0.11457912371E+03  0.79924981804E+02 0.  0.
          6    2    1    2  501    0  0.94856085776E+02  0.74195715949E+02  0.76422970003E+02  0.22265626933E+03  0.17097562006E+03 0.  0.
         24    2    5    5    0    0 -0.33633282477E+01  0.36938560361E+02  0.75313024403E+02  0.11749700482E+03  0.82205384731E+02 0.  0.
          5    1    5    5  501    0  0.98219414023E+02  0.37257155588E+02  0.11099455997E+01  0.10515926451E+03  0.47000000000E+01 0. -1.
        -13    1    6    6    0    0 -0.60352847304E+01 -0.25642556407E+02  0.31464725220E+02  0.41036499535E+02  0.00000000000E+00 0.  1.
         14    1    6    6    0    0  0.26719564827E+01  0.62581116769E+02  0.43848299183E+02  0.76460505287E+02  0.00000000000E+00 0. -1.
         -5    1    3    3    0  503 -0.61128876981E+02 -0.14439003940E+01 -0.90685856684E+02  0.10947528969E+03  0.47000000000E+01 0.  1.
         13    1    4    4    0    0 -0.59983004749E+02 -0.44829600074E+02  0.11081330910E+02  0.75699734453E+02  0.00000000000E+00 0. -1.
        -14    1    4    4    0    0  0.26255795955E+02 -0.27922215481E+02  0.65260991709E+01  0.38879389257E+02  0.00000000000E+00 0.  1.
</event>
<event>
12    1  0.9962621E-001  0.1956553E+03  0.7818608E-02  0.1153659E+00
         21   -1    0    0  503  502  0.00000000000E+00  0.00000000000E+00  0.33223443553E+02  0.33223443553E+02  0.00000000000E+00 0. -1.
         21   -1    0    0  501  503 -0.00000000000E+00 -0.00000000000E+00 -0.11875548196E+04  0.11875548196E+04  0.00000000000E+00 0. -1.
          6    2    1    2  501    0 -0.54561311497E+02 -0.74787159942E+02 -0.46539021755E+03  0.50484558928E+03  0.17236867005E+03 0.  0.
         24    2    3    3    0    0 -0.72991716740E+02 -0.99564216341E+02 -0.34794412774E+03  0.38331675989E+03  0.10308151383E+03 0.  0.
         -6    2    1    2    0  502  0.54561311497E+02  0.74787159942E+02 -0.68894115853E+03  0.71593267391E+03  0.17131730108E+03 0.  0.
        -24    2    5    5    0    0 -0.33127564470E+02  0.93031767253E+01 -0.33161739720E+03  0.34219499660E+03  0.77093014923E+02 0.  0.
          5    1    3    3  501    0  0.18430405243E+02  0.24777056399E+02 -0.11744608981E+03  0.12152882939E+03  0.47000000000E+01 0. -1.
        -11    1    4    4    0    0  0.64829037308E+01  0.36795172856E+01  0.36922227280E+01  0.83186174880E+01  0.00000000000E+00 0.  1.
         12    1    4    4    0    0 -0.79474620471E+02 -0.10324373363E+03 -0.35163635047E+03  0.37499814240E+03  0.00000000000E+00 0. -1.
         -5    1    5    5    0  502  0.87688875967E+02  0.65483983217E+02 -0.35732376133E+03  0.37373767731E+03  0.47000000000E+01 0.  1.
         13    1    6    6    0    0 -0.28587198519E+02  0.22954949394E+02 -0.60820086550E+02  0.71015776760E+02  0.00000000000E+00 0. -1.
        -14    1    6    6    0    0 -0.45403659512E+01 -0.13651772669E+02 -0.27079731065E+03  0.27117921984E+03  0.00000000000E+00 0.  1.
</event>
<event>
12    1  0.9962621E-001  0.2505143E+03  0.7818608E-02  0.1113210E+00
         21   -1    0    0  503  502  0.00000000000E+00  0.00000000000E+00  0.98538648918E+02  0.98538648918E+02  0.00000000000E+00 0. -1.
         21   -1    0    0  501  503 -0.00000000000E+00 -0.00000000000E+00 -0.91321882937E+03  0.91321882937E+03  0.00000000000E+00 0. -1.
          6    2    1    2  501    0  0.18069157496E+03  0.31162235177E+02 -0.68828900251E+03  0.73246102408E+03  0.17069525667E+03 0.  0.
         24    2    3    3    0    0  0.12482494986E+03  0.84987804680E+02 -0.51872221791E+03  0.54593151925E+03  0.78512988091E+02 0.  0.
         -6    2    1    2    0  502 -0.18069157496E+03 -0.31162235177E+02 -0.12639117794E+03  0.27929645421E+03  0.16855636835E+03 0.  0.
        -24    2    5    5    0    0 -0.42286425924E+02 -0.47109124661E+02 -0.21002634371E+02  0.10454198737E+03  0.80501584020E+02 0.  0.
          5    1    3    3  501    0  0.55866625104E+02 -0.53825569503E+02 -0.16956678460E+03  0.18652950483E+03  0.47000000000E+01 0. -1.
        -13    1    4    4    0    0  0.97919064788E+02  0.28633288480E+02 -0.24930267152E+03  0.26936931987E+03  0.00000000000E+00 0.  1.
         14    1    4    4    0    0  0.26905885069E+02  0.56354516200E+02 -0.26941954639E+03  0.27656219938E+03  0.00000000000E+00 0. -1.
         -5    1    5    5    0  502 -0.13840514904E+03  0.15946889484E+02 -0.10538854357E+03  0.17475446684E+03  0.47000000000E+01 0.  1.
         13    1    6    6    0    0 -0.25817136307E+02 -0.68547154247E+02 -0.24603419736E+02  0.77269432153E+02  0.00000000000E+00 0. -1.
        -14    1    6    6    0    0 -0.16469289617E+02  0.21438029586E+02  0.36007853655E+01  0.27272555221E+02  0.00000000000E+00 0.  1.
</event>
<event>
12    1  0.9962621E-001  0.2253865E+03  0.7818608E-02  0.1130295E+00
         21   -1    0    0  501  502  0.00000000000E+00  0.00000000000E+00  0.99072590561E+03  0.99072590561E+03  0.00000000000E+00 0.  1.
         21   -1    0    0  502  503 -0.00000000000E+00 -0.00000000000E+00 -0.92595088511E+02  0.92595088511E+02  0.00000000000E+00 0.  1.
         -6    2    1    2    0  503  0.18782804703E+02 -0.14666668659E+03  0.81179262653E+03  0.84196367318E+03  0.16742654437E+03 0.  0.
        -24    2    3    3    0    0  0.24372470883E+02 -0.17570290785E+03  0.71035775516E+03  0.73620229251E+03  0.76942485057E+02 0.  0.
          6    2    1    2  501    0 -0.18782804703E+02  0.14666668659E+03  0.86338190577E+02  0.24135732095E+03  0.17010338772E+03 0.  0.
         24    2    5    5    0    0  0.31992358772E+02  0.14482459131E+03  0.88432892412E+02  0.19028885400E+03  0.79948722483E+02 0.  0.
          5    1    5    5  501    0 -0.50775163475E+02  0.18420952816E+01 -0.20947018349E+01  0.51068466951E+02  0.47000000000E+01 0. -1.
        -11    1    6    6    0    0  0.31383297491E+02  0.95229235109E+01  0.12228191524E+02  0.35001801404E+02  0.00000000000E+00 0.  1.
         12    1    6    6    0    0  0.60906128057E+00  0.13530166780E+03  0.76204700888E+02  0.15528705259E+03  0.00000000000E+00 0. -1.
         -5    1    3    3    0  503 -0.55896661797E+01  0.29036221259E+02  0.10143487136E+03  0.10576138067E+03  0.47000000000E+01 0.  1.
         11    1    4    4    0    0  0.40447270786E+02 -0.66422283168E+02  0.37973389129E+03  0.38761544036E+03  0.00000000000E+00 0. -1.
        -12    1    4    4    0    0 -0.16074799903E+02 -0.10928062469E+03  0.33062386387E+03  0.34858685214E+03  0.00000000000E+00 0.  1.
</event>
<event>
12    1  0.9962621E-001  0.1760612E+03  0.7818608E-02  0.1172308E+00
         21   -1    0    0  503  502  0.00000000000E+00  0.00000000000E+00  0.13453503167E+04  0.13453503167E+04  0.00000000000E+00 0. -1.
         21   -1    0    0  501  503 -0.00000000000E+00 -0.00000000000E+00 -0.46621941305E+02  0.46621941305E+02  0.00000000000E+00 0. -1.
          6    2    1    2  501    0  0.36010023819E+02  0.19744145197E+02  0.11501000603E+04  0.11634980493E+04  0.17120458179E+03 0.  0.
         24    2    3    3    0    0  0.45466826648E+02 -0.69638145116E+01  0.11118649811E+04  0.11156779958E+04  0.79861925014E+02 0.  0.
         -6    2    1    2    0  502 -0.36010023819E+02 -0.19744145197E+02  0.14862831510E+03  0.22847420876E+03  0.16859280807E+03 0.  0.
        -24    2    5    5    0    0  0.16524945067E+02  0.42850461270E+02  0.78499385374E+02  0.12068661903E+03  0.79333918778E+02 0.  0.
          5    1    3    3  501    0 -0.94568028297E+01  0.26707959709E+02  0.38235079218E+02  0.47820053475E+02  0.47000000000E+01 0. -1.
        -13    1    4    4    0    0  0.29072233148E+02  0.12463010381E+02  0.14201576872E+03  0.14549570418E+03  0.00000000000E+00 0.  1.
         14    1    4    4    0    0  0.16394593501E+02 -0.19426824893E+02  0.96984921237E+03  0.97018229161E+03  0.00000000000E+00 0. -1.
         -5    1    5    5    0  502 -0.52534968886E+02 -0.62594606467E+02  0.70128929726E+02  0.10778758973E+03  0.47000000000E+01 0.  1.
         11    1    6    6    0    0  0.31879852473E+02 -0.26328905636E+01  0.42491211788E+01  0.32269368404E+02  0.00000000000E+00 0. -1.
        -12    1    6    6    0    0 -0.15354907405E+02  0.45483351833E+02  0.74250264196E+02  0.88417250628E+02  0.00000000000E+00 0.  1.
</event>
<event>
12    1  0.9962621E-001  0.2066984E+03  0.7818608E-02  0.1144797E+00
         21   -1    0    0  503  502  0.00000000000E+00  0.00000000000E+00  0.28810485554E+03  0.28810485554E+03  0.00000000000E+00 0. -1.
         21   -1    0    0  501  503 -0.00000000000E+00 -0.00000000000E+00 -0.14650452199E+03  0.14650452199E+03  0.00000000000E+00 0. -1.
          6    2    1    2  501    0 -0.10267416474E+03 -0.43842039977E+02  0.61776563519E+02  0.21573267417E+03  0.17395440302E+03 0.  0.
         24    2    3    3    0    0 -0.31735016341E+02 -0.39397153608E+02  0.96758529981E+02  0.13637306374E+03  0.81707725550E+02 0.  0.
         -6    2    1    2    0  502  0.10267416474E+03  0.43842039977E+02  0.79823770031E+02  0.21887670335E+03  0.17050240009E+03 0.  0.
        -24    2    5    5    0    0  0.75453604635E+02  0.63995138737E+02 -0.81309164598E+01  0.12450921341E+03  0.75151900761E+02 0.  0.
          5    1    3    3  501    0 -0.70939148396E+02 -0.44448863686E+01 -0.34981966462E+02  0.79359610430E+02  0.47000000000E+01 0. -1.
        -13    1    4    4    0    0 -0.18185414506E+02  0.19978185482E+02  0.70069668777E+01  0.27909403088E+02  0.00000000000E+00 0.  1.
         14    1    4    4    0    0 -0.13549601835E+02 -0.59375339090E+02  0.89751563104E+02  0.10846366065E+03  0.00000000000E+00 0. -1.
         -5    1    5    5    0  502  0.27220560102E+02 -0.20153098760E+02  0.87954686491E+02  0.94367489940E+02  0.47000000000E+01 0.  1.
         13    1    6    6    0    0  0.48754138102E+02  0.77406922032E+02 -0.17614574490E+02  0.93161530661E+02  0.00000000000E+00 0. -1.
        -14    1    6    6    0    0  0.26699466534E+02 -0.13411783296E+02  0.94836580301E+01  0.31347682753E+02  0.00000000000E+00 0.  1.
</event>
<event>
12    1  0.9962621E-001  0.2315673E+03  0.7818608E-02  0.1125787E+00
         21   -1    0    0  501  502  0.00000000000E+00  0.00000000000E+00  0.20103285961E+03  0.20103285961E+03  0.00000000000E+00 0. -1.
         21   -1    0    0  502  503 -0.00000000000E+00 -0.00000000000E+00 -0.27021676542E+03  0.27021676542E+03  0.00000000000E+00 0. -1.
         -6    2    1    2    0  503  0.21583267476E+02  0.15231721790E+03 -0.67043047380E+02  0.24107709208E+03  0.17308096897E+03 0.  0.
        -24    2    3    3    0    0 -0.19456163865E+02  0.46152765694E+02  0.20967388346E+02  0.97122055233E+02  0.80526033959E+02 0.  0.
          6    2    1    2  501    0 -0.21583267476E+02 -0.15231721790E+03 -0.21408584241E+01  0.23017253295E+03  0.17119707750E+03 0.  0.
         24    2    5    5    0    0 -0.43987061412E+02 -0.17526984738E+03 -0.26171429229E+00  0.19770140168E+03  0.80195977211E+02 0.  0.
          5    1    5    5  501    0  0.22403793936E+02  0.22952629480E+02 -0.18791441318E+01  0.32471131262E+02  0.47000000000E+01 0. -1.
        -11    1    6    6    0    0  0.14158554065E-01 -0.32847250888E+02 -0.31375333221E+02  0.45424152453E+02  0.00000000000E+00 0.  1.
         12    1    6    6    0    0 -0.44001219966E+02 -0.14242259649E+03  0.31113618929E+02  0.15227724923E+03  0.00000000000E+00 0. -1.
         -5    1    3    3    0  503  0.41039431340E+02  0.10616445221E+03 -0.88010435726E+02  0.14395503685E+03  0.47000000000E+01 0.  1.
         11    1    4    4    0    0  0.24130141585E+02  0.41391947763E+01 -0.12984660168E+02  0.27712778027E+02  0.00000000000E+00 0. -1.
        -12    1    4    4    0    0 -0.43586305450E+02  0.42013570917E+02  0.33952048514E+02  0.69409277206E+02  0.00000000000E+00 0.  1.
</event>
<event>
12    1  0.9962621E-001  0.1760335E+03  0.7818608E-02  0.1172150E+00
         21   -1    0    0  503  502  0.00000000000E+00  0.00000000000E+00  0.40319295318E+02  0.40319295318E+02  0.00000000000E+00 0.  1.
         21   -1    0    0  501  503 -0.00000000000E+00 -0.00000000000E+00 -0.81742652826E+03  0.81742652826E+03  0.00000000000E+00 0.  1.
          6    2    1    2  501    0  0.35831589749E+02  0.95212294714E+01 -0.50340132795E+03  0.53329231956E+03  0.17208499205E+03 0.  0.
         24    2    3    3    0    0  0.67511685686E+02 -0.41499134107E+02 -0.37594154299E+03  0.39231433277E+03  0.79363002182E+02 0.  0.
         -6    2    1    2    0  502 -0.35831589749E+02 -0.95212294714E+01 -0.27370590499E+03  0.32445350402E+03  0.17023688556E+03 0.  0.
        -24    2    5    5    0    0  0.37995664457E+02 -0.14088016491E+01 -0.91488361037E+02  0.12762464873E+03  0.80450453808E+02 0.  0.
          5    1    3    3  501    0 -0.31680095937E+02  0.51020363578E+02 -0.12745978496E+03  0.14097798680E+03  0.47000000000E+01 0. -1.
        -13    1    4    4    0    0  0.36403262435E+02 -0.14170092895E+02 -0.48549394535E+02  0.62313985255E+02  0.00000000000E+00 0.  1.
         14    1    4    4    0    0  0.31108423251E+02 -0.27329041212E+02 -0.32739214845E+03  0.33000034751E+03  0.00000000000E+00 0. -1.
         -5    1    5    5    0  502 -0.73827254206E+02 -0.81124278223E+01 -0.18221754396E+03  0.19682885529E+03  0.47000000000E+01 0.  1.
         11    1    6    6    0    0  0.34961024493E+02  0.21544161914E+02 -0.91232452153E+01  0.42067300239E+02  0.00000000000E+00 0. -1.
        -12    1    6    6    0    0  0.30346399640E+01 -0.22952963563E+02 -0.82365115821E+02  0.85557348488E+02  0.00000000000E+00 0.  1.
</event>
<event>
12    1  0.9962621E-001  0.1834064E+03  0.7818608E-02  0.1164669E+00
         21   -1    0    0  503  502  0.00000000000E+00  0.00000000000E+00  0.31585189828E+03  0.31585189828E+03  0.00000000000E+00 0.  1.
         21   -1    0    0  501  503 -0.00000000000E+00 -0.00000000000E+00 -0.10713179747E+03  0.10713179747E+03  0.00000000000E+00 0.  1.
          6    2    1    2  501    0  0.63226692903E+02  0.74618437383E+01  0.84760599730E+02  0.20204524862E+03  0.17200182969E+03 0.  0.
         24    2    3    3    0    0  0.76115249910E+02  0.62607127150E+02  0.58673429801E+02  0.13951727393E+03  0.79431194884E+02 0.  0.
         -6    2    1    2    0  502 -0.63226692903E+02 -0.74618437383E+01  0.12395950108E+03  0.22093844714E+03  0.17144837622E+03 0.  0.
        -24    2    5    5    0    0 -0.18100551276E+01 -0.25099029416E+02  0.13182710791E+03  0.15638565516E+03  0.80279818036E+02 0.  0.
          5    1    3    3  501    0 -0.12888557007E+02 -0.55145283411E+02  0.26087169929E+02  0.62527974693E+02  0.47000000000E+01 0. -1.
        -11    1    4    4    0    0 -0.14774194800E+02 -0.22015019665E+01  0.75898244380E+01  0.16754965768E+02  0.00000000000E+00 0.  1.
         12    1    4    4    0    0  0.90889444710E+02  0.64808629116E+02  0.51083605363E+02  0.12276230816E+03  0.00000000000E+00 0. -1.
         -5    1    5    5    0  502 -0.61416637775E+02  0.17637185678E+02 -0.78676068318E+01  0.64552791973E+02  0.47000000000E+01 0.  1.
         11    1    6    6    0    0 -0.14412715501E+02  0.23408841291E+02  0.20483535966E+02  0.34282290827E+02  0.00000000000E+00 0. -1.
        -12    1    6    6    0    0  0.12602660373E+02 -0.48507870707E+02  0.11134357195E+03  0.12210336434E+03  0.00000000000E+00 0.  1.
</event>
<event>
12    1  0.9962621E-001  0.1811861E+03  0.7818608E-02  0.1166853E+00
         21   -1    0    0  501  502  0.00000000000E+00  0.00000000000E+00  0.92034886460E+02  0.92034886460E+02  0.00000000000E+00 0.  1.
         21   -1    0    0  502  503 -0.00000000000E+00 -0.00000000000E+00 -0.38849104811E+03  0.38849104811E+03  0.00000000000E+00 0.  1.
         -6    2    1    2    0  503 -0.33824084595E+02  0.46636378776E+02 -0.78105905720E+02  0.19730419130E+03  0.17178297609E+03 0.  0.
        -24    2    3    3    0    0 -0.72371143987E+02  0.26574024850E+02 -0.37273069269E+01  0.11103345588E+03  0.79817129917E+02 0.  0.
          6    2    1    2  501    0  0.33824084595E+02 -0.46636378776E+02 -0.21835025593E+03  0.28322174327E+03  0.17093478602E+03 0.  0.
         24    2    5    5    0    0  0.68709393776E+02  0.16968459720E+02 -0.11048753182E+03  0.15314861949E+03  0.78981615238E+02 0.  0.
          5    1    5    5  501    0 -0.34885309182E+02 -0.63604838496E+02 -0.10786272411E+03  0.13007312378E+03  0.47000000000E+01 0. -1.
        -11    1    6    6    0    0  0.16857492956E+02  0.29076320857E+02 -0.36878996371E+01  0.33811360621E+02  0.00000000000E+00 0.  1.
         12    1    6    6    0    0  0.51851900820E+02 -0.12107861136E+02 -0.10679963218E+03  0.11933725887E+03  0.00000000000E+00 0. -1.
         -5    1    3    3    0  503  0.38547059392E+02  0.20062353926E+02 -0.74378598793E+02  0.86270735428E+02  0.47000000000E+01 0.  1.
         11    1    4    4    0    0 -0.39947067956E+02 -0.22257178730E+02 -0.20428715123E+02  0.50084754616E+02  0.00000000000E+00 0. -1.
        -12    1    4    4    0    0 -0.32424076030E+02  0.48831203580E+02  0.16701408196E+02  0.60948701260E+02  0.00000000000E+00 0.  1.
</event>
<event>
12    1  0.9962621E-001  0.3874956E+03  0.7818608E-02  0.1048257E+00
         21   -1    0    0  501  502  0.00000000000E+00  0.00000000000E+00  0.13713987017E+04  0.13713987017E+04  0.00000000000E+00 0.  1.
         21   -1    0    0  502  503 -0.00000000000E+00 -0.00000000000E+00 -0.11649916353E+03  0.11649916353E+03  0.00000000000E+00 0.  1.
         -6    2    1    2    0  503  0.34575585226E+03  0.35198382482E+02  0.81186354671E+03  0.89931163201E+03  0.16986158333E+03 0.  0.
        -24    2    3    3    0    0  0.12412489700E+03  0.10381260934E+02  0.46039850142E+03  0.48303535607E+03  0.76430455118E+02 0.  0.
          6    2    1    2  501    0 -0.34575585226E+03 -0.35198382482E+02  0.44303599141E+03  0.58858623318E+03  0.17136752522E+03 0.  0.
         24    2    5    5    0    0 -0.10862027186E+03 -0.54341912050E+02  0.12040646479E+03  0.18769764558E+03  0.77338751796E+02 0.  0.
          5    1    5    5  501    0 -0.23713558040E+03  0.19143529568E+02  0.32262952663E+03  0.40088858760E+03  0.47000000000E+01 0. -1.
        -11    1    6    6    0    0 -0.10904202159E+03 -0.39286598562E+02  0.12639332631E+03  0.17149015200E+03  0.00000000000E+00 0.  1.
         12    1    6    6    0    0  0.42174972718E+00 -0.15055313487E+02 -0.59868615257E+01  0.16207493574E+02  0.00000000000E+00 0. -1.
         -5    1    3    3    0  503  0.22163095525E+03  0.24817121548E+02  0.35146504529E+03  0.41627627594E+03  0.47000000000E+01 0.  1.
         11    1    4    4    0    0  0.85171896454E+01  0.27554162881E+02  0.10655458277E+03  0.11038864760E+03  0.00000000000E+00 0. -1.
        -12    1    4    4    0    0  0.11560770736E+03 -0.17172901948E+02  0.35384391865E+03  0.37264670846E+03  0.00000000000E+00 0.  1.
</event>
<event>
12    1  0.9962621E-001  0.1996164E+03  0.7818608E-02  0.1150477E+00
         21   -1    0    0  501  502  0.00000000000E+00  0.00000000000E+00  0.90005247462E+02  0.90005247462E+02  0.00000000000E+00 0. -1.
         21   -1    0    0  502  503 -0.00000000000E+00 -0.00000000000E+00 -0.54873083072E+03  0.54873083072E+03  0.00000000000E+00 0. -1.
         -6    2    1    2    0  503  0.85679647952E+02 -0.45498168332E+02 -0.37345790194E+03  0.42345899123E+03  0.17445809622E+03 0.  0.
        -24    2    3    3    0    0  0.41716869558E+02  0.19790377456E+02 -0.31323688555E+03  0.32424215340E+03  0.69883269265E+02 0.  0.
          6    2    1    2  501    0 -0.85679647952E+02  0.45498168332E+02 -0.85267681312E+02  0.21527708695E+03  0.17222822444E+03 0.  0.
         24    2    5    5    0    0 -0.12682621083E+03  0.35956124602E+02 -0.74168095510E+02  0.17135236679E+03  0.80517057591E+02 0.  0.
          5    1    5    5  501    0  0.41146562881E+02  0.95420437305E+01 -0.11099585802E+02  0.43924720152E+02  0.47000000000E+01 0. -1.
        -13    1    6    6    0    0 -0.85815799743E+02 -0.83069666818E+01 -0.69662208808E+02  0.11084304451E+03  0.00000000000E+00 0.  1.
         14    1    6    6    0    0 -0.41010411090E+02  0.44263091283E+02 -0.45058867025E+01  0.60509322280E+02  0.00000000000E+00 0. -1.
         -5    1    3    3    0  503  0.43962778394E+02 -0.65288545788E+02 -0.60221016389E+02  0.99216837836E+02  0.47000000000E+01 0.  1.
         11    1    4    4    0    0  0.23894695020E+02  0.32756725321E+02 -0.77393002823E+02  0.87370683813E+02  0.00000000000E+00 0. -1.
        -12    1    4    4    0    0  0.17822174538E+02 -0.12966347865E+02 -0.23584388273E+03  0.23687146958E+03  0.00000000000E+00 0.  1.
</event>
<event>
12    1  0.9962621E-001  0.2176704E+03  0.7818608E-02  0.1136040E+00
         21   -1    0    0  503  502  0.00000000000E+00  0.00000000000E+00  0.13610831774E+03  0.13610831774E+03  0.00000000000E+00 0.  1.
         21   -1    0    0  501  503 -0.00000000000E+00 -0.00000000000E+00 -0.94548860904E+03  0.94548860904E+03  0.00000000000E+00 0. -1.
          6    2    1    2  501    0  0.79016319184E+02 -0.10701091146E+03 -0.83505397689E+03  0.86241763801E+03  0.16957041063E+03 0.  0.
         24    2    3    3    0    0  0.74514063734E+02 -0.15866919921E+00 -0.46017265851E+03  0.47255129572E+03  0.77417572787E+02 0.  0.
         -6    2    1    2    0  502 -0.79016319184E+02  0.10701091146E+03  0.25673685586E+02  0.21917928877E+03  0.17229483052E+03 0.  0.
        -24    2    5    5    0    0 -0.78712115463E+02 -0.55158636083E+00 -0.13477552875E+02  0.10461623648E+03  0.67579665102E+02 0.  0.
          5    1    3    3  501    0  0.45022554505E+01 -0.10685224226E+03 -0.37488131837E+03  0.38986634228E+03  0.47000000000E+01 0. -1.
        -13    1    4    4    0    0 -0.26882038283E+01 -0.53697716907E+01 -0.88508907054E-01  0.60057240745E+01  0.00000000000E+00 0.  1.
         14    1    4    4    0    0  0.77202267562E+02  0.52111024915E+01 -0.46008414961E+03  0.46654557165E+03  0.00000000000E+00 0. -1.
         -5    1    5    5    0  502 -0.30420372168E+00  0.10756249782E+03  0.39151238461E+02  0.11456305229E+03  0.47000000000E+01 0.  1.
         11    1    6    6    0    0 -0.87820183053E+02  0.58327633967E+01 -0.11619586901E+01  0.88021337347E+02  0.00000000000E+00 0. -1.
        -12    1    6    6    0    0  0.91080675904E+01 -0.63843497576E+01 -0.12315594185E+02  0.16594899131E+02  0.00000000000E+00 0.  1.
</event>
<event>
12    1  0.9962621E-001  0.4704917E+03  0.7818608E-02  0.1021855E+00
         21   -1    0    0  501  502  0.00000000000E+00  0.00000000000E+00  0.20341798501E+04  0.20341798501E+04  0.00000000000E+00 0. -1.
         21   -1    0    0  502  503 -0.00000000000E+00 -0.00000000000E+00 -0.13951051676E+03  0.13951051676E+03  0.00000000000E+00 0. -1.
         -6    2    1    2    0  503  0.39521870303E+03  0.18598274022E+03  0.43641365643E+03  0.64173150853E+03  0.17485721784E+03 0.  0.
        -24    2    3    3    0    0  0.26600400062E+03  0.18156751939E+03  0.25404194635E+03  0.41813038121E+03  0.81060549899E+02 0.  0.
          6    2    1    2  501    0 -0.39521870303E+03 -0.18598274022E+03  0.14582556769E+04  0.15319588584E+04  0.17204918347E+03 0.  0.
         24    2    5    5    0    0 -0.96029553714E+02 -0.72001380378E+02  0.53131079673E+03  0.55126787830E+03  0.84848317328E+02 0.  0.
          5    1    5    5  501    0 -0.29918914932E+03 -0.11398135984E+03  0.92694488021E+03  0.98069098008E+03  0.47000000000E+01 0. -1.
        -13    1    6    6    0    0 -0.63898777972E+02 -0.31354133900E+01  0.16110052491E+03  0.17333858130E+03  0.00000000000E+00 0.  1.
         14    1    6    6    0    0 -0.32130775742E+02 -0.68865966988E+02  0.37021027183E+03  0.37792929699E+03  0.00000000000E+00 0. -1.
         -5    1    3    3    0  503  0.12921470242E+03  0.44152208255E+01  0.18237171009E+03  0.22360112731E+03  0.47000000000E+01 0.  1.
         11    1    4    4    0    0  0.17703743744E+03  0.99427562249E+02  0.11348588328E+03  0.23260941532E+03  0.00000000000E+00 0. -1.
        -12    1    4    4    0    0  0.88966563172E+02  0.82139957144E+02  0.14055606307E+03  0.18552096590E+03  0.00000000000E+00 0.  1.
</event>
<event>
12    1  0.9962621E-001  0.2675383E+03  0.7818608E-02  0.1102726E+00
         21   -1    0    0  501  502  0.00000000000E+00  0.00000000000E+00  0.14283187890E+03  0.14283187890E+03  0.00000000000E+00 0. -1.
         21   -1    0    0  502  503 -0.00000000000E+00 -0.00000000000E+00 -0.50935451497E+03  0.50935451497E+03  0.00000000000E+00 0. -1.
         -6    2    1    2    0  503  0.20245663387E+03  0.25655329113E+02 -0.22558960452E+03  0.34979777261E+03  0.17268736939E+03 0.  0.
        -24    2    3    3    0    0  0.34107453929E+02  0.38329021483E+02 -0.93188751971E+02  0.13519547854E+03  0.83434055531E+02 0.  0.
          6    2    1    2  501    0 -0.20245663387E+03 -0.25655329113E+02 -0.14093303155E+03  0.30238862126E+03  0.17300252709E+03 0.  0.
         24    2    5    5    0    0 -0.16079168839E+03 -0.38629753623E+02 -0.33189309109E+02  0.18604815926E+03  0.78524915839E+02 0.  0.
          5    1    5    5  501    0 -0.41664945483E+02  0.12974424510E+02 -0.10774372244E+03  0.11634046200E+03  0.47000000000E+01 0. -1.
        -13    1    6    6    0    0 -0.13328220529E+03 -0.20048033946E+02 -0.55807028627E+02  0.14587835465E+03  0.00000000000E+00 0.  1.
         14    1    6    6    0    0 -0.27509483097E+02 -0.18581719677E+02  0.22617719518E+02  0.40169804613E+02  0.00000000000E+00 0. -1.
         -5    1    3    3    0  503  0.16834917994E+03 -0.12673692369E+02 -0.13240085255E+03  0.21460229407E+03  0.47000000000E+01 0.  1.
         13    1    4    4    0    0  0.44859795322E+02  0.55466336184E+02 -0.89793720034E+02  0.11468141891E+03  0.00000000000E+00 0. -1.
        -14    1    4    4    0    0 -0.10752341393E+02 -0.17137314701E+02 -0.33950319370E+01  0.20514059629E+02  0.00000000000E+00 0.  1.
</event>
<event>
12    1  0.9962621E-001  0.4124434E+03  0.7818608E-02  0.1039575E+00
         21   -1    0    0  503  502  0.00000000000E+00  0.00000000000E+00  0.49111451944E+03  0.49111451944E+03  0.00000000000E+00 0.  1.
         21   -1    0    0  501  503 -0.00000000000E+00 -0.00000000000E+00 -0.11688600962E+04  0.11688600962E+04  0.00000000000E+00 0. -1.
          6    2    1    2  501    0 -0.20257643725E+03  0.31494161085E+03  0.35741799444E+03  0.54576295428E+03  0.17287032235E+03 0.  0.
         24    2    3    3    0    0 -0.55990006102E+02  0.12118304539E+03  0.74906848236E+02  0.17311754479E+03  0.80860603081E+02 0.  0.
         -6    2    1    2    0  502  0.20257643725E+03 -0.31494161085E+03 -0.10351635712E+04  0.11142116614E+04  0.17227471082E+03 0.  0.
        -24    2    5    5    0    0  0.18635347212E+02 -0.89110718816E+02 -0.29490777705E+03  0.31870261227E+03  0.79452890007E+02 0.  0.
          5    1    3    3  501    0 -0.14658643115E+03  0.19375856546E+03  0.28251114620E+03  0.37264540949E+03  0.47000000000E+01 0. -1.
        -11    1    4    4    0    0 -0.27870027548E+02  0.56626805849E+01  0.40235533468E+02  0.49271721509E+02  0.00000000000E+00 0.  1.
         12    1    4    4    0    0 -0.28119978554E+02  0.11552036480E+03  0.34671314768E+02  0.12384582329E+03  0.00000000000E+00 0. -1.
         -5    1    5    5    0  502  0.18394109004E+03 -0.22583089203E+03 -0.74025579417E+03  0.79550904910E+03  0.47000000000E+01 0.  1.
         13    1    6    6    0    0  0.11456175287E+02 -0.98579669499E+02 -0.28872962016E+03  0.30530966042E+03  0.00000000000E+00 0. -1.
        -14    1    6    6    0    0  0.71791719250E+01  0.94689506832E+01 -0.61781568860E+01  0.13392951843E+02  0.00000000000E+00 0.  1.
</event>
<event>
12    1  0.9962621E-001  0.1752265E+03  0.7818608E-02  0.1172623E+00
         21   -1    0    0  503  502  0.00000000000E+00  0.00000000000E+00  0.31279415639E+03  0.31279415639E+03  0.00000000000E+00 0.  1.
         21   -1    0    0  501  503 -0.00000000000E+00 -0.00000000000E+00 -0.16950008232E+03  0.16950008232E+03  0.00000000000E+00 0.  1.
          6    2    1    2  501    0 -0.16325096008E+02  0.26850916797E+02 -0.85141922591E+02  0.19439262184E+03  0.17190655587E+03 0.  0.
         24    2    3    3    0    0 -0.54577236196E+02  0.41779645399E+02 -0.10459453948E+03  0.14871344201E+03  0.80320960311E+02 0.  0.
         -6    2    1    2    0  502  0.16325096008E+02 -0.26850916797E+02  0.22843599666E+03  0.28790161687E+03  0.17238577648E+03 0.  0.
        -24    2    5    5    0    0  0.66749773516E+02 -0.44467929107E+02  0.10749513144E+03  0.15560728553E+03  0.78901806333E+02 0.  0.
          5    1    3    3  501    0  0.38252140188E+02 -0.14928728602E+02  0.19452616885E+02  0.45679179835E+02  0.47000000000E+01 0. -1.
        -11    1    4    4    0    0 -0.94359500610E+01  0.31897038440E+02 -0.96145486440E+02  0.10173697842E+03  0.00000000000E+00 0.  1.
         12    1    4    4    0    0 -0.45141286135E+02  0.98826069590E+01 -0.84490530362E+01  0.46976463590E+02  0.00000000000E+00 0. -1.
         -5    1    5    5    0  502 -0.50424677508E+02  0.17617012310E+02  0.12094086523E+03  0.13229433134E+03  0.47000000000E+01 0.  1.
         13    1    6    6    0    0  0.45600347265E+01 -0.86317180310E+01  0.77008881294E+02  0.77625178075E+02  0.00000000000E+00 0. -1.
        -14    1    6    6    0    0  0.62189738789E+02 -0.35836211076E+02  0.30486250145E+02  0.77982107453E+02  0.00000000000E+00 0.  1.
</event>
<event>
12    1  0.9962621E-001  0.2598763E+03  0.7818608E-02  0.1107495E+00
         21   -1    0    0  503  502  0.00000000000E+00  0.00000000000E+00  0.45730015119E+03  0.45730015119E+03  0.00000000000E+00 0.  1.
         21   -1    0    0  501  503 -0.00000000000E+00 -0.00000000000E+00 -0.14664348842E+03  0.14664348842E+03  0.00000000000E+00 0.  1.
          6    2    1    2  501    0  0.17730328032E+03  0.80279699245E+02  0.15422457853E+03  0.30219350705E+03  0.17220456369E+03 0.  0.
         24    2    3    3    0    0  0.19009384563E+02  0.37504092931E+02  0.82306938758E+02  0.12308195846E+03  0.81282363656E+02 0.  0.
         -6    2    1    2    0  502 -0.17730328032E+03 -0.80279699245E+02  0.15643208424E+03  0.30175013257E+03  0.16941328815E+03 0.  0.
        -24    2    5    5    0    0 -0.18429918921E+02 -0.11575390569E+02  0.74806745216E+02  0.11031917121E+03  0.78106458308E+02 0.  0.
          5    1    3    3  501    0  0.15829389576E+03  0.42775606314E+02  0.71917639773E+02  0.17911154859E+03  0.47000000000E+01 0. -1.
        -11    1    4    4    0    0 -0.22008649628E+02  0.10105685474E+01  0.59828659011E+02  0.63756335735E+02  0.00000000000E+00 0.  1.
         12    1    4    4    0    0  0.41018034191E+02  0.36493524383E+02  0.22478279747E+02  0.59325622721E+02  0.00000000000E+00 0. -1.
         -5    1    5    5    0  502 -0.15887336140E+03 -0.68704308676E+02  0.81625339025E+02  0.19143096135E+03  0.47000000000E+01 0.  1.
         13    1    6    6    0    0  0.43457579337E+01 -0.31421105609E+02  0.73533467857E+02  0.80083346488E+02  0.00000000000E+00 0. -1.
        -14    1    6    6    0    0 -0.22775676854E+02  0.19845715040E+02  0.12732773593E+01  0.30235824726E+02  0.00000000000E+00 0.  1.
</event>
<event>
12    1  0.9962621E-001  0.2606457E+03  0.7818608E-02  0.1106920E+00
         21   -1    0    0  501  502  0.00000000000E+00  0.00000000000E+00  0.10989239446E+04  0.10989239446E+04  0.00000000000E+00 0. -1.
         21   -1    0    0  502  503 -0.00000000000E+00 -0.00000000000E+00 -0.11230076482E+03  0.11230076482E+03  0.00000000000E+00 0. -1.
         -6    2    1    2    0  503  0.52015093021E+02 -0.18771511477E+03  0.90095848275E+03  0.93790316926E+03  0.17318670000E+03 0.  0.
        -24    2    3    3    0    0 -0.37647802674E+02 -0.72205040101E+02  0.41379659563E+03  0.42924728708E+03  0.79966780912E+02 0.  0.
          6    2    1    2  501    0 -0.52015093021E+02  0.18771511477E+03  0.85664697008E+02  0.27332154014E+03  0.17153334888E+03 0.  0.
         24    2    5    5    0    0 -0.84525388266E+02  0.19391969638E+03  0.69172042133E+02  0.23604535747E+03  0.78633640785E+02 0.  0.
          5    1    5    5  501    0  0.32510295245E+02 -0.62045816135E+01  0.16492654875E+02  0.37276182674E+02  0.47000000000E+01 0. -1.
        -13    1    6    6    0    0  0.14201312485E+01  0.65409725364E+02  0.45383857077E+02  0.79625017602E+02  0.00000000000E+00 0.  1.
         14    1    6    6    0    0 -0.85945519515E+02  0.12850997102E+03  0.23788185056E+02  0.15642033987E+03  0.00000000000E+00 0. -1.
         -5    1    3    3    0  503  0.89662895696E+02 -0.11551007467E+03  0.48716188712E+03  0.50865588218E+03  0.47000000000E+01 0.  1.
         13    1    4    4    0    0  0.30406799520E+01  0.88104172251E+01  0.15033727304E+03  0.15062591029E+03  0.00000000000E+00 0. -1.
        -14    1    4    4    0    0 -0.40688482627E+02 -0.81015457326E+02  0.26345932259E+03  0.27862137679E+03  0.00000000000E+00 0.  1.
</event>
<event>
12    1  0.9962621E-001  0.1823512E+03  0.7818608E-02  0.1166178E+00
         21   -1    0    0  503  502  0.00000000000E+00  0.00000000000E+00  0.17829068830E+04  0.17829068830E+04  0.00000000000E+00 0. -1.
         21   -1    0    0  501  503 -0.00000000000E+00 -0.00000000000E+00 -0.22254745157E+02  0.22254745157E+02  0.00000000000E+00 0. -1.
          6    2    1    2  501    0 -0.52796174876E+02  0.27328042248E+02  0.12515379672E+04  0.12643759073E+04  0.16960216280E+03 0.  0.
         24    2    3    3    0    0 -0.22524125104E+02  0.47658212892E+01  0.11837516202E+04  0.11866421974E+04  0.79509478118E+02 0.  0.
         -6    2    1    2    0  502  0.52796174876E+02 -0.27328042248E+02  0.50911417064E+03  0.54078572086E+03  0.17238822224E+03 0.  0.
        -24    2    5    5    0    0  0.99888053725E+01  0.46908431583E+02  0.18949188452E+03  0.20984158552E+03  0.76329152549E+02 0.  0.
          5    1    3    3  501    0 -0.30272049772E+02  0.22562220959E+02  0.67786347060E+02  0.77733709932E+02  0.47000000000E+01 0. -1.
        -13    1    4    4    0    0 -0.38040861311E+02 -0.19756743776E+02  0.38782063767E+03  0.39018237154E+03  0.00000000000E+00 0.  1.
         14    1    4    4    0    0  0.15516736206E+02  0.24522565065E+02  0.79593098250E+03  0.79645982586E+03  0.00000000000E+00 0. -1.
         -5    1    5    5    0  502  0.42807369504E+02 -0.74236473831E+02  0.31962228613E+03  0.33094413535E+03  0.47000000000E+01 0.  1.
         13    1    6    6    0    0 -0.10928412220E+02 -0.18048546877E+02  0.57565403264E+02  0.61310324505E+02  0.00000000000E+00 0. -1.
        -14    1    6    6    0    0  0.20917217592E+02  0.64956978460E+02  0.13192648125E+03  0.14853126101E+03  0.00000000000E+00 0.  1.
</event>
<event>
12    1  0.9962621E-001  0.1753776E+03  0.7818608E-02  0.1172873E+00
         21   -1    0    0  503  502  0.00000000000E+00  0.00000000000E+00  0.51757416578E+02  0.51757416578E+02  0.00000000000E+00 0.  1.
         21   -1    0    0  501  503 -0.00000000000E+00 -0.00000000000E+00 -0.58756139723E+03  0.58756139723E+03  0.00000000000E+00 0.  1.
          6    2    1    2  501    0 -0.10504843496E+02  0.32131071210E+02 -0.26263779085E+03  0.31580993254E+03  0.17208877603E+03 0.  0.
         24    2    3    3    0    0 -0.52949153477E+02  0.64930166620E+02 -0.21370660108E+03  0.24305244879E+03  0.79902704131E+02 0.  0.
         -6    2    1    2    0  502  0.10504843496E+02 -0.32131071210E+02 -0.27316618980E+03  0.32350888127E+03  0.16998668045E+03 0.  0.
        -24    2    5    5    0    0 -0.47905608907E+02 -0.28087040563E+02 -0.23348836110E+03  0.25262478415E+03  0.78858338708E+02 0.  0.
          5    1    3    3  501    0  0.42444309981E+02 -0.32799095410E+02 -0.48931189774E+02  0.72757483754E+02  0.47000000000E+01 0. -1.
        -11    1    4    4    0    0  0.54071751238E+01  0.23111803073E+02 -0.13271892992E+03  0.13482472823E+03  0.00000000000E+00 0.  1.
         12    1    4    4    0    0 -0.58356328601E+02  0.41818363548E+02 -0.80987671160E+02  0.10822772056E+03  0.00000000000E+00 0. -1.
         -5    1    5    5    0  502  0.58410452403E+02 -0.40440306472E+01 -0.39677828705E+02  0.70884097120E+02  0.47000000000E+01 0.  1.
         11    1    6    6    0    0 -0.36153797764E+02 -0.52009260116E+02 -0.11616045361E+03  0.13230763853E+03  0.00000000000E+00 0. -1.
        -12    1    6    6    0    0 -0.11751811144E+02  0.23922219553E+02 -0.11732790749E+03  0.12031714561E+03  0.00000000000E+00 0.  1.
</event>
<event>
12    1  0.9962621E-001  0.2649688E+03  0.7818608E-02  0.1105440E+00
         21   -1    0    0  503  502  0.00000000000E+00  0.00000000000E+00  0.60364006895E+02  0.60364006895E+02  0.00000000000E+00 0.  1.
         21   -1    0    0  501  503 -0.00000000000E+00 -0.00000000000E+00 -0.15024319196E+04  0.15024319196E+04  0.00000000000E+00 0.  1.
          6    2    1    2  501    0  0.16068361177E+03  0.10495080591E+03 -0.32164451287E+03  0.41146753849E+03  0.17034214926E+03 0.  0.
         24    2    3    3    0    0  0.51992293457E+02  0.11017675671E+03 -0.16282951303E+03  0.21889181984E+03  0.80981863274E+02 0.  0.
         -6    2    1    2    0  502 -0.16068361177E+03 -0.10495080591E+03 -0.11204233998E+04  0.11513283880E+04  0.18268707503E+03 0.  0.
        -24    2    5    5    0    0 -0.13068265329E+03 -0.15894878888E+02 -0.87924202356E+03  0.89244315878E+03  0.77830923310E+02 0.  0.
          5    1    3    3  501    0  0.10869131832E+03 -0.52259508028E+01 -0.15881499984E+03  0.19257571865E+03  0.47000000000E+01 0. -1.
        -13    1    4    4    0    0  0.18176942250E+02 -0.16356288795E+01 -0.61835951888E+02  0.64472951361E+02  0.00000000000E+00 0.  1.
         14    1    4    4    0    0  0.33815351208E+02  0.11181238559E+03 -0.10099356114E+03  0.15441886848E+03  0.00000000000E+00 0. -1.
         -5    1    5    5    0  502 -0.30000958485E+02 -0.89055927022E+02 -0.24118137626E+03  0.25888522921E+03  0.47000000000E+01 0.  1.
         13    1    6    6    0    0 -0.13957939213E+03 -0.19818531967E+02 -0.85038991101E+03  0.86199662509E+03  0.00000000000E+00 0. -1.
        -14    1    6    6    0    0  0.88967388426E+01  0.39236530792E+01 -0.28852112547E+02  0.30446533694E+02  0.00000000000E+00 0.  1.
</event>
<event>
12    1  0.9962621E-001  0.2433771E+03  0.7818608E-02  0.1117579E+00
         21   -1    0    0  503  502  0.00000000000E+00  0.00000000000E+00  0.29203169268E+03  0.29203169268E+03  0.00000000000E+00 0. -1.
         21   -1    0    0  501  503 -0.00000000000E+00 -0.00000000000E+00 -0.40028646152E+03  0.40028646152E+03  0.00000000000E+00 0.  1.
          6    2    1    2  501    0  0.16874724581E+03 -0.32877101872E+02  0.18905187495E+03  0.30809990923E+03  0.17212903836E+03 0.  0.
         24    2    3    3    0    0  0.16261501409E+03 -0.73768781141E+02  0.18024674189E+03  0.26556340646E+03  0.78419124025E+02 0.  0.
         -6    2    1    2    0  502 -0.16874724581E+03  0.32877101872E+02 -0.29730664379E+03  0.38421824497E+03  0.17226689331E+03 0.  0.
        -24    2    5    5    0    0 -0.33233785226E+02  0.51143375161E+02 -0.77571232608E+02  0.12536829680E+03  0.77329065765E+02 0.  0.
          5    1    3    3  501    0  0.61322317252E+01  0.40891679270E+02  0.88051330649E+01  0.42536502768E+02  0.47000000000E+01 0. -1.
        -11    1    4    4    0    0  0.58635872161E+02 -0.39026197198E+02  0.23440048166E+02  0.74233721649E+02  0.00000000000E+00 0.  1.
         12    1    4    4    0    0  0.10397914193E+03 -0.34742583943E+02  0.15680669372E+03  0.19132968481E+03  0.00000000000E+00 0. -1.
         -5    1    5    5    0  502 -0.13551346058E+03 -0.18266273290E+02 -0.21973541118E+03  0.25884994817E+03  0.47000000000E+01 0.  1.
         13    1    6    6    0    0 -0.55055472184E+02  0.25364603459E+02 -0.66129200627E+02  0.89708078241E+02  0.00000000000E+00 0. -1.
        -14    1    6    6    0    0  0.21821686958E+02  0.25778771702E+02 -0.11442031981E+02  0.35660218564E+02  0.00000000000E+00 0.  1.
</event>
<event>
12    1  0.9962621E-001  0.1962953E+03  0.7818608E-02  0.1153800E+00
         21   -1    0    0  501  502  0.00000000000E+00  0.00000000000E+00  0.40255204735E+02  0.40255204735E+02  0.00000000000E+00 0.  1.
         21   -1    0    0  502  503 -0.00000000000E+00 -0.00000000000E+00 -0.12673291034E+04  0.12673291034E+04  0.00000000000E+00 0.  1.
         -6    2    1    2    0  503 -0.18249770084E+02  0.80148045570E+02 -0.94237672546E+03  0.96177463732E+03  0.17372333464E+03 0.  0.
        -24    2    3    3    0    0 -0.51246232818E+02  0.66181035872E+02 -0.89277932809E+03  0.90040823170E+03  0.81694241969E+02 0.  0.
          6    2    1    2  501    0  0.18249770084E+02 -0.80148045570E+02 -0.28469717323E+03  0.34580967084E+03  0.17825567223E+03 0.  0.
         24    2    5    5    0    0 -0.54298428896E+02 -0.57875404282E+02 -0.21156181538E+03  0.24030999172E+03  0.81808365052E+02 0.  0.
          5    1    5    5  501    0  0.72548198980E+02 -0.22272641288E+02 -0.73135357846E+02  0.10549967911E+03  0.47000000000E+01 0. -1.
        -11    1    6    6    0    0 -0.30109476110E+02  0.51249111758E+00 -0.14618548927E+02  0.33474545127E+02  0.00000000000E+00 0.  1.
         12    1    6    6    0    0 -0.24188952786E+02 -0.58387895400E+02 -0.19694326646E+03  0.20683544660E+03  0.00000000000E+00 0. -1.
         -5    1    3    3    0  503  0.32996462735E+02  0.13967009698E+02 -0.49597397370E+02  0.61366405620E+02  0.47000000000E+01 0.  1.
         13    1    4    4    0    0 -0.25839408947E+02  0.68365004191E+02 -0.37817104656E+03  0.38516852066E+03  0.00000000000E+00 0. -1.
        -14    1    4    4    0    0 -0.25406823871E+02 -0.21839683186E+01 -0.51460828153E+03  0.51523971104E+03  0.00000000000E+00 0.  1.
</event>
<event>
12    1  0.9962621E-001  0.2153812E+03  0.7818608E-02  0.1137475E+00
         21   -1    0    0  501  502  0.00000000000E+00  0.00000000000E+00  0.19843755889E+03  0.19843755889E+03  0.00000000000E+00 0.  1.
         21   -1    0    0  502  503 -0.00000000000E+00 -0.00000000000E+00 -0.32630062021E+03  0.32630062021E+03  0.00000000000E+00 0.  1.
         -6    2    1    2    0  503  0.10212483547E+03 -0.78037849424E+02  0.76157562945E+02  0.22844916268E+03  0.17282840499E+03 0.  0.
        -24    2    3    3    0    0  0.13086961847E+03 -0.59211206054E+02  0.24846414042E+02  0.16651670711E+03  0.80483821330E+02 0.  0.
          6    2    1    2  501    0 -0.10212483547E+03  0.78037849424E+02 -0.20402062426E+03  0.29628901643E+03  0.17217252443E+03 0.  0.
         24    2    5    5    0    0 -0.37858162115E+02 -0.20616112062E+01 -0.16240013599E+03  0.18538146961E+03  0.80962920055E+02 0.  0.
          5    1    5    5  501    0 -0.64266673358E+02  0.80099460630E+02 -0.41620488270E+02  0.11090754682E+03  0.47000000000E+01 0. -1.
        -13    1    6    6    0    0  0.19696980152E+02  0.18921567844E+02 -0.62287259273E+02  0.68012494620E+02  0.00000000000E+00 0.  1.
         14    1    6    6    0    0 -0.57555142267E+02 -0.20983179050E+02 -0.10011287672E+03  0.11736897499E+03  0.00000000000E+00 0. -1.
         -5    1    3    3    0  503 -0.28744783000E+02 -0.18826643369E+02  0.51311148904E+02  0.61932455563E+02  0.47000000000E+01 0.  1.
         13    1    4    4    0    0  0.88559660106E+02 -0.73910019406E+02  0.10997811295E+00  0.11534954036E+03  0.00000000000E+00 0. -1.
        -14    1    4    4    0    0  0.42309958368E+02  0.14698813352E+02  0.24736435929E+02  0.51167166752E+02  0.00000000000E+00 0.  1.
</event>
<event>
12    1  0.9962621E-001  0.2940338E+03  0.7818608E-02  0.1088294E+00
         21   -1    0    0  501  502  0.00000000000E+00  0.00000000000E+00  0.31831478572E+03  0.31831478572E+03  0.00000000000E+00 0. -1.
         21   -1    0    0  502  503 -0.00000000000E+00 -0.00000000000E+00 -0.98456967354E+03  0.98456967354E+03  0.00000000000E+00 0. -1.
         -6    2    1    2    0  503 -0.20422110189E+03  0.12211372497E+03  0.22135465963E+03  0.36784084068E+03  0.17231070324E+03 0.  0.
        -24    2    3    3    0    0 -0.11588620658E+03  0.12846239562E+03  0.89078122405E+02  0.20858465823E+03  0.75102914704E+02 0.  0.
          6    2    1    2  501    0  0.20422110189E+03 -0.12211372497E+03 -0.88760954744E+03  0.93504361858E+03  0.17273632985E+03 0.  0.
         24    2    5    5    0    0  0.22681721819E+03 -0.11094910118E+03 -0.84033527053E+03  0.88126462125E+03  0.81903676608E+02 0.  0.
          5    1    5    5  501    0 -0.22596116304E+02 -0.11164623787E+02 -0.47274276914E+02  0.53778997332E+02  0.47000000000E+01 0. -1.
        -11    1    6    6    0    0  0.15370560061E+03 -0.95318646362E+02 -0.47301940688E+03  0.50641723439E+03  0.00000000000E+00 0.  1.
         12    1    6    6    0    0  0.73111617582E+02 -0.15630454823E+02 -0.36731586365E+03  0.37484738685E+03  0.00000000000E+00 0. -1.
         -5    1    3    3    0  503 -0.88334895315E+02 -0.63486706444E+01  0.13227653722E+03  0.15925618245E+03  0.47000000000E+01 0.  1.
         11    1    4    4    0    0 -0.61693989112E+02  0.89587016478E+02  0.16504607088E+02  0.11001992487E+03  0.00000000000E+00 0. -1.
        -12    1    4    4    0    0 -0.54192217463E+02  0.38875379138E+02  0.72573515317E+02  0.98564733359E+02  0.00000000000E+00 0.  1.
</event>
<event>
12    1  0.9962621E-001  0.1751566E+03  0.7818608E-02  0.1173259E+00
         21   -1    0    0  501  502  0.00000000000E+00  0.00000000000E+00  0.52035595327E+03  0.52035595327E+03  0.00000000000E+00 0.  1.
         21   -1    0    0  502  503 -0.00000000000E+00 -0.00000000000E+00 -0.85244041755E+02  0.85244041755E+02  0.00000000000E+00 0.  1.
         -6    2    1    2    0  503 -0.27414356936E+02 -0.12028690367E+01  0.38741875713E+03  0.42406637518E+03  0.17025276304E+03 0.  0.
        -24    2    3    3    0    0  0.27280631597E+02 -0.51841510379E+02  0.20234436699E+03  0.22449074126E+03  0.77595586230E+02 0.  0.
          6    2    1    2  501    0  0.27414356936E+02  0.12028690367E+01  0.47693154392E+02  0.18153361985E+03  0.17299371173E+03 0.  0.
         24    2    5    5    0    0 -0.27709464961E+02  0.52324047353E+02  0.13304845640E+02  0.98728690094E+02  0.77876279767E+02 0.  0.
          5    1    5    5  501    0  0.55123821897E+02 -0.51121178316E+02  0.34388308752E+02  0.82804929755E+02  0.47000000000E+01 0. -1.
        -13    1    6    6    0    0 -0.32739218583E+02 -0.96167522155E+01  0.13192578365E+02  0.36583910131E+02  0.00000000000E+00 0.  1.
         14    1    6    6    0    0  0.50297536213E+01  0.61940799568E+02  0.11226727449E+00  0.62144779962E+02  0.00000000000E+00 0. -1.
         -5    1    3    3    0  503 -0.54694988533E+02  0.50638641342E+02  0.18507439014E+03  0.19957563392E+03  0.47000000000E+01 0.  1.
         13    1    4    4    0    0  0.26061275550E+02 -0.31033132301E+02  0.19935642435E+03  0.20343359928E+03  0.00000000000E+00 0. -1.
        -14    1    4    4    0    0  0.12193560462E+01 -0.20808378078E+02  0.29879426335E+01  0.21057141986E+02  0.00000000000E+00 0.  1.
</event>
<event>
12    1  0.9962621E-001  0.1786916E+03  0.7818608E-02  0.1169243E+00
         21   -1    0    0  501  502  0.00000000000E+00  0.00000000000E+00  0.20863651466E+03  0.20863651466E+03  0.00000000000E+00 0. -1.
         21   -1    0    0  502  503 -0.00000000000E+00 -0.00000000000E+00 -0.19890469413E+03  0.19890469413E+03  0.00000000000E+00 0. -1.
         -6    2    1    2    0  503 -0.13099010741E+02 -0.48699473620E+02  0.10334020786E+03  0.20642162316E+03  0.17142772568E+03 0.  0.
        -24    2    3    3    0    0  0.41108585590E+02 -0.29920479294E+02  0.89642957995E+01  0.95877437849E+02  0.80789687453E+02 0.  0.
          6    2    1    2  501    0  0.13099010741E+02  0.48699473620E+02 -0.93608387326E+02  0.20111958563E+03  0.17071419019E+03 0.  0.
         24    2    5    5    0    0  0.41861323230E+02  0.83857578768E+02 -0.95031302656E+02  0.15543066284E+03  0.79644702072E+02 0.  0.
          5    1    5    5  501    0 -0.28762312490E+02 -0.35158105148E+02  0.14229153299E+01  0.45688922787E+02  0.47000000000E+01 0. -1.
        -13    1    6    6    0    0  0.31744593462E+02  0.21459311045E+02 -0.82532753292E+02  0.90993827321E+02  0.00000000000E+00 0.  1.
         14    1    6    6    0    0  0.10116729769E+02  0.62398267722E+02 -0.12498549364E+02  0.64436835523E+02  0.00000000000E+00 0. -1.
         -5    1    3    3    0  503 -0.54207596331E+02 -0.18778994325E+02  0.94375912065E+02  0.11054418531E+03  0.47000000000E+01 0.  1.
         13    1    4    4    0    0  0.51575279391E+02 -0.48483426202E+02  0.17506570551E+02  0.72918667521E+02  0.00000000000E+00 0. -1.
        -14    1    4    4    0    0 -0.10466693801E+02  0.18562946908E+02 -0.85422747518E+01  0.22958770328E+02  0.00000000000E+00 0.  1.
</event>
<event>
12    1  0.9962621E-001  0.2656357E+03  0.7818608E-02  0.1103873E+00
         21   -1    0    0  501  502  0.00000000000E+00  0.00000000000E+00  0.60032182107E+02  0.60032182107E+02  0.00000000000E+00 0. -1.
         21   -1    0    0  502  503 -0.00000000000E+00 -0.00000000000E+00 -0.15454609115E+04  0.15454609115E+04  0.00000000000E+00 0. -1.
         -6    2    1    2    0  503 -0.13179025830E+03  0.15298068618E+03 -0.11361347533E+04  0.11666666939E+04  0.17186399979E+03 0.  0.
        -24    2    3    3    0    0 -0.53000212811E+02  0.15342334093E-01 -0.55666714339E+03  0.56217428812E+03  0.57901631236E+02 0.  0.
          6    2    1    2  501    0  0.13179025830E+03 -0.15298068618E+03 -0.34929397604E+03  0.43882639968E+03  0.17259943462E+03 0.  0.
         24    2    5    5    0    0  0.54030943478E+02 -0.32795966677E+02 -0.23184029524E+03  0.25360130695E+03  0.81048023452E+02 0.  0.
          5    1    5    5  501    0  0.77759314820E+02 -0.12018471950E+03 -0.11745368080E+03  0.18522509273E+03  0.47000000000E+01 0. -1.
        -11    1    6    6    0    0 -0.15970339024E+02 -0.21996644941E+02 -0.34418164171E+02  0.43857885746E+02  0.00000000000E+00 0.  1.
         12    1    6    6    0    0  0.70001282502E+02 -0.10799321736E+02 -0.19742213107E+03  0.20974342120E+03  0.00000000000E+00 0. -1.
         -5    1    3    3    0  503 -0.78790045487E+02  0.15296534384E+03 -0.57946760993E+03  0.60449240578E+03  0.47000000000E+01 0.  1.
         13    1    4    4    0    0 -0.47810023650E+02  0.11640448232E+02 -0.53328942488E+03  0.53555476759E+03  0.00000000000E+00 0. -1.
        -14    1    4    4    0    0 -0.51901891611E+01 -0.11625105898E+02 -0.23377718511E+02  0.26619520534E+02  0.00000000000E+00 0.  1.
</event>
<event>
12    1  0.9962621E-001  0.1955811E+03  0.7818608E-02  0.1153935E+00
         21   -1    0    0  501  502  0.00000000000E+00  0.00000000000E+00  0.62532027599E+03  0.62532027599E+03  0.00000000000E+00 0. -1.
         21   -1    0    0  502  503 -0.00000000000E+00 -0.00000000000E+00 -0.62957606652E+02  0.62957606652E+02  0.00000000000E+00 0. -1.
         -6    2    1    2    0  503 -0.64057872421E+02 -0.62804889449E+02  0.34936004022E+03  0.40038034188E+03  0.17379331203E+03 0.  0.
        -24    2    3    3    0    0 -0.64591443890E+02  0.25406866998E+02  0.16680710790E+03  0.19757683656E+03  0.79965189823E+02 0.  0.
          6    2    1    2  501    0  0.64057872421E+02  0.62804889449E+02  0.21300262912E+03  0.28789754076E+03  0.17165957243E+03 0.  0.
         24    2    5    5    0    0  0.97696443957E+02  0.72243899465E+02  0.12015729983E+03  0.18858493544E+03  0.79766691046E+02 0.  0.
          5    1    5    5  501    0 -0.33638571535E+02 -0.94390100157E+01  0.92845329281E+02  0.99312605315E+02  0.47000000000E+01 0. -1.
        -11    1    6    6    0    0  0.25170164872E+02  0.25619922079E+02  0.90567599304E+02  0.97428987734E+02  0.00000000000E+00 0.  1.
         12    1    6    6    0    0  0.72526279084E+02  0.46623977386E+02  0.29589700530E+02  0.91155947708E+02  0.00000000000E+00 0. -1.
         -5    1    3    3    0  503  0.53357146857E+00 -0.88211756448E+02  0.18255293232E+03  0.20280350533E+03  0.47000000000E+01 0.  1.
         11    1    4    4    0    0  0.74718062163E+01  0.16649515781E+02  0.31191671318E+01  0.18513872298E+02  0.00000000000E+00 0. -1.
        -12    1    4    4    0    0 -0.72063250106E+02  0.87573512176E+01  0.16368794077E+03  0.17906296426E+03  0.00000000000E+00 0.  1.
</event>
<event>
12    1  0.9962621E-001  0.2814917E+03  0.7818608E-02  0.1095057E+00
         21   -1    0    0  501  502  0.00000000000E+00  0.00000000000E+00  0.43811730247E+03  0.43811730247E+03  0.00000000000E+00 0. -1.
         21   -1    0    0  502  503 -0.00000000000E+00 -0.00000000000E+00 -0.23001966410E+03  0.23001966410E+03  0.00000000000E+00 0. -1.
         -6    2    1    2    0  503 -0.19108027424E+03  0.11521627399E+03 -0.51910665846E+02  0.28493739348E+03  0.16943476614E+03 0.  0.
        -24    2    3    3    0    0 -0.12275958310E+03  0.14428165255E+03 -0.42322341988E+02  0.20992713403E+03  0.79944421098E+02 0.  0.
          6    2    1    2  501    0  0.19108027424E+03 -0.11521627399E+03  0.26000830421E+03  0.38319957309E+03  0.17161332571E+03 0.  0.
         24    2    5    5    0    0  0.18217955281E+03 -0.10706807008E+03  0.27958912511E+03  0.35972374263E+03  0.81105678237E+02 0.  0.
          5    1    5    5  501    0  0.89007214294E+01 -0.81482039092E+01 -0.19580820892E+02  0.23475830458E+02  0.47000000000E+01 0. -1.
        -11    1    6    6    0    0  0.14186994065E+03 -0.63133408092E+02  0.24704734657E+03  0.29179667361E+03  0.00000000000E+00 0.  1.
         12    1    6    6    0    0  0.40309612152E+02 -0.43934661991E+02  0.32541778532E+02  0.67927069023E+02  0.00000000000E+00 0. -1.
         -5    1    3    3    0  503 -0.68320691133E+02 -0.29065378559E+02 -0.95883238574E+01  0.75010259446E+02  0.47000000000E+01 0.  1.
         13    1    4    4    0    0 -0.81743402433E+02  0.80330087671E+02 -0.63543409960E+02  0.13104454119E+03  0.00000000000E+00 0. -1.
        -14    1    4    4    0    0 -0.41016180669E+02  0.63951564881E+02  0.21221067971E+02  0.78882592840E+02  0.00000000000E+00 0.  1.
</event>
<event>
12    1  0.9962621E-001  0.1819283E+03  0.7818608E-02  0.1166470E+00
         21   -1    0    0  501  502  0.00000000000E+00  0.00000000000E+00  0.26198514381E+02  0.26198514381E+02  0.00000000000E+00 0.  1.
         21   -1    0    0  502  503 -0.00000000000E+00 -0.00000000000E+00 -0.14945626363E+04  0.14945626363E+04  0.00000000000E+00 0.  1.
         -6    2    1    2    0  503  0.57959710016E+02  0.48446395282E+01 -0.42188086096E+03  0.45858172825E+03  0.17009098189E+03 0.  0.
        -24    2    3    3    0    0  0.68806330372E+02  0.59032646459E+02 -0.32671981411E+03  0.34843771295E+03  0.80273522571E+02 0.  0.
          6    2    1    2  501    0 -0.57959710016E+02 -0.48446395282E+01 -0.10464832609E+04  0.10621794224E+04  0.17238071660E+03 0.  0.
         24    2    5    5    0    0  0.17322297104E+02 -0.39362709763E+02 -0.55829196255E+03  0.56699086076E+03  0.89102389651E+02 0.  0.
          5    1    5    5  501    0 -0.75282007120E+02  0.34518070235E+02 -0.48819129840E+03  0.49518856166E+03  0.47000000000E+01 0. -1.
        -13    1    6    6    0    0  0.17191407994E+02  0.26217817352E+02 -0.13124141065E+03  0.13493415552E+03  0.00000000000E+00 0.  1.
         14    1    6    6    0    0  0.13088911028E+00 -0.65580527115E+02 -0.42705055189E+03  0.43205670524E+03  0.00000000000E+00 0. -1.
         -5    1    3    3    0  503 -0.10846620356E+02 -0.54188006931E+02 -0.95161046847E+02  0.11014401530E+03  0.47000000000E+01 0.  1.
         13    1    4    4    0    0  0.64130182553E+02  0.13115151689E+02 -0.12065633305E+03  0.13726848955E+03  0.00000000000E+00 0. -1.
        -14    1    4    4    0    0  0.46761478184E+01  0.45917494770E+02 -0.20606348107E+03  0.21116922341E+03  0.00000000000E+00 0.  1.
</event>
<event>
12    1  0.9962621E-001  0.2654126E+03  0.7818608E-02  0.1104042E+00
         21   -1    0    0  501  502  0.00000000000E+00  0.00000000000E+00  0.65172278109E+02  0.65172278109E+02  0.00000000000E+00 0. -1.
         21   -1    0    0  502  503 -0.00000000000E+00 -0.00000000000E+00 -0.16087635321E+04  0.16087635321E+04  0.00000000000E+00 0. -1.
         -6    2    1    2    0  503 -0.82755217901E+02  0.18347852973E+03 -0.29028394475E+03  0.39283353615E+03  0.17187385369E+03 0.  0.
        -24    2    3    3    0    0  0.29692675471E+01  0.10495359948E+03 -0.85385537928E+02  0.15720607766E+03  0.79993663330E+02 0.  0.
          6    2    1    2  501    0  0.82755217901E+02 -0.18347852973E+03 -0.12533073093E+04  0.12811022741E+04  0.17300586185E+03 0.  0.
         24    2    5    5    0    0  0.68543833020E+02 -0.19772672680E+03 -0.12186182283E+04  0.12407241003E+04  0.10281921597E+03 0.  0.
          5    1    5    5  501    0  0.14211384881E+02  0.14248197065E+02 -0.34689080941E+02  0.40378173762E+02  0.47000000000E+01 0. -1.
        -11    1    6    6    0    0 -0.23545395133E+02 -0.74865207817E+02 -0.35606339902E+03  0.36460983132E+03  0.00000000000E+00 0.  1.
         12    1    6    6    0    0  0.92089228153E+02 -0.12286151898E+03 -0.86255482931E+03  0.87611426900E+03  0.00000000000E+00 0. -1.
         -5    1    3    3    0  503 -0.85724485448E+02  0.78524930256E+02 -0.20489840682E+03  0.23562745849E+03  0.47000000000E+01 0.  1.
         11    1    4    4    0    0  0.15256827150E+01  0.11094657937E+03 -0.94808680290E+02  0.14594573321E+03  0.00000000000E+00 0. -1.
        -12    1    4    4    0    0  0.14435848321E+01 -0.59929798973E+01  0.94231423629E+01  0.11260344453E+02  0.00000000000E+00 0.  1.
</event>
<event>
12    1  0.9962621E-001  0.1869795E+03  0.7818608E-02  0.1163587E+00
         21   -1    0    0  503  502  0.00000000000E+00  0.00000000000E+00  0.27889719687E+02  0.27889719687E+02  0.00000000000E+00 0.  1.
         21   -1    0    0  501  503 -0.00000000000E+00 -0.00000000000E+00 -0.11971820311E+04  0.11971820311E+04  0.00000000000E+00 0.  1.
          6    2    1    2  501    0  0.23798474894E+02 -0.35527614277E+02 -0.54518008992E+03  0.57635289015E+03  0.18202402247E+03 0.  0.
         24    2    3    3    0    0 -0.10535557409E+02 -0.44251903221E+02 -0.10600935286E+03  0.13573064233E+03  0.71523391017E+02 0.  0.
         -6    2    1    2    0  502 -0.23798474894E+02  0.35527614277E+02 -0.62411222151E+03  0.64871886066E+03  0.17173094173E+03 0.  0.
        -24    2    5    5    0    0 -0.21627129506E+02  0.30468836256E+02 -0.13879367113E+03  0.16334633226E+03  0.77603211302E+02 0.  0.
          5    1    3    3  501    0  0.34334032304E+02  0.87242889443E+01 -0.43917073705E+03  0.44062224782E+03  0.47000000000E+01 0. -1.
        -11    1    4    4    0    0 -0.27705997005E+02  0.67354673727E+01 -0.53107932233E+02  0.60278032954E+02  0.00000000000E+00 0.  1.
         12    1    4    4    0    0  0.17170439596E+02 -0.50987370594E+02 -0.52901420632E+02  0.75452609371E+02  0.00000000000E+00 0. -1.
         -5    1    5    5    0  502 -0.21713453882E+01  0.50587780205E+01 -0.48531855038E+03  0.48537252840E+03  0.47000000000E+01 0.  1.
         13    1    6    6    0    0 -0.39940440460E+02  0.86123765360E+01 -0.12531289933E+03  0.13180566965E+03  0.00000000000E+00 0. -1.
        -14    1    6    6    0    0  0.18313310953E+02  0.21856459720E+02 -0.13480771799E+02  0.31540662610E+02  0.00000000000E+00 0.  1.
</event>
<event>
12    1  0.9962621E-001  0.2024192E+03  0.7818608E-02  0.1147788E+00
         21   -1    0    0  501  502  0.00000000000E+00  0.00000000000E+00  0.58073383364E+02  0.58073383364E+02  0.00000000000E+00 0.  1.
         21   -1    0    0  502  503 -0.00000000000E+00 -0.00000000000E+00 -0.89334774551E+03  0.89334774551E+03  0.00000000000E+00 0.  1.
         -6    2    1    2    0  503  0.10605797406E+03  0.97573856771E+01 -0.63675888129E+03  0.66815820835E+03  0.17213372141E+03 0.  0.
        -24    2    3    3    0    0 -0.78641940341E+01 -0.44158998544E+01 -0.19045457909E+03  0.20730165522E+03  0.81361439507E+02 0.  0.
          6    2    1    2  501    0 -0.10605797406E+03 -0.97573856771E+01 -0.19851548085E+03  0.28326292052E+03  0.17171483793E+03 0.  0.
         24    2    5    5    0    0 -0.29310408089E+02 -0.62191533725E+02 -0.76072495745E+02  0.12946466512E+03  0.79039154949E+02 0.  0.
          5    1    5    5  501    0 -0.76747565970E+02  0.52434148048E+02 -0.12244298510E+03  0.15379825540E+03  0.47000000000E+01 0. -1.
        -13    1    6    6    0    0 -0.51356606706E+02 -0.32314683036E+02 -0.23427524827E+02  0.65042975882E+02  0.00000000000E+00 0.  1.
         14    1    6    6    0    0  0.22046198618E+02 -0.29876850690E+02 -0.52644970919E+02  0.64421689233E+02  0.00000000000E+00 0. -1.
         -5    1    3    3    0  503  0.11392216809E+03  0.14173285531E+02 -0.44630430220E+03  0.46085655314E+03  0.47000000000E+01 0.  1.
         11    1    4    4    0    0  0.36348654339E+02  0.31860121783E+01 -0.74053519595E+02  0.82554824876E+02  0.00000000000E+00 0. -1.
        -12    1    4    4    0    0 -0.44212848373E+02 -0.76019120326E+01 -0.11640105950E+03  0.12474683034E+03  0.00000000000E+00 0.  1.
</event>
<event>
12    1  0.9962621E-001  0.4656194E+03  0.7818608E-02  0.1023707E+00
         21   -1    0    0  501  502  0.00000000000E+00  0.00000000000E+00  0.29980010968E+03  0.29980010968E+03  0.00000000000E+00 0.  1.
         21   -1    0    0  502  503 -0.00000000000E+00 -0.00000000000E+00 -0.73661457276E+03  0.73661457276E+03  0.00000000000E+00 0.  1.
         -6    2    1    2    0  503 -0.31060604765E+03 -0.30054034167E+03 -0.12097905746E+03  0.47378385716E+03  0.15177152946E+03 0.  0.
        -24    2    3    3    0    0 -0.21430724198E+03 -0.24012859205E+03 -0.13757769147E+03  0.35880279734E+03  0.78882770656E+02 0.  0.
          6    2    1    2  501    0  0.31060604765E+03  0.30054034167E+03 -0.31583540562E+03  0.56263082528E+03  0.17320747184E+03 0.  0.
         24    2    5    5    0    0  0.32562041521E+03  0.29820219867E+03 -0.30996144310E+03  0.54567524857E+03  0.82049829941E+02 0.  0.
          5    1    5    5  501    0 -0.15014367562E+02  0.23381430007E+01 -0.58739625146E+01  0.16955576711E+02  0.47000000000E+01 0. -1.
        -13    1    6    6    0    0  0.21961207207E+03  0.16356022608E+03 -0.22496899354E+03  0.35439026201E+03  0.00000000000E+00 0.  1.
         14    1    6    6    0    0  0.10600834314E+03  0.13464197259E+03 -0.84992449565E+02  0.19128498656E+03  0.00000000000E+00 0. -1.
         -5    1    3    3    0  503 -0.96298805673E+02 -0.60411749623E+02  0.16598634014E+02  0.11498105982E+03  0.47000000000E+01 0.  1.
         11    1    4    4    0    0 -0.99381225070E+02 -0.15539507190E+03 -0.49298406040E+02  0.19093084901E+03  0.00000000000E+00 0. -1.
        -12    1    4    4    0    0 -0.11492601691E+03 -0.84733520148E+02 -0.88279285430E+02  0.16787194833E+03  0.00000000000E+00 0.  1.
</event>
<event>
12    1  0.9962621E-001  0.3926353E+03  0.7818608E-02  0.1046387E+00
         21   -1    0    0  503  502  0.00000000000E+00  0.00000000000E+00  0.33258200642E+03  0.33258200642E+03  0.00000000000E+00 0. -1.
         21   -1    0    0  501  503 -0.00000000000E+00 -0.00000000000E+00 -0.52286213095E+03  0.52286213095E+03  0.00000000000E+00 0. -1.
          6    2    1    2  501    0  0.27406619204E+03  0.22284419267E+03  0.49348347521E+02  0.39572435506E+03  0.17143714289E+03 0.  0.
         24    2    3    3    0    0  0.26418010508E+03  0.14218174273E+03  0.49516013658E+02  0.31432236702E+03  0.79623733353E+02 0.  0.
         -6    2    1    2    0  502 -0.27406619204E+03 -0.22284419267E+03 -0.23962847205E+03  0.45971978231E+03  0.17072979180E+03 0.  0.
        -24    2    5    5    0    0 -0.24781629582E+03 -0.19970531801E+03 -0.26081313186E+03  0.41854522242E+03  0.76560322241E+02 0.  0.
          5    1    3    3  501    0  0.98860869573E+01  0.80662449941E+02 -0.16766613659E+00  0.81401988046E+02  0.47000000000E+01 0. -1.
        -13    1    4    4    0    0  0.85021215117E+01  0.30009938949E+02  0.54925122064E+01  0.31670967719E+02  0.00000000000E+00 0.  1.
         14    1    4    4    0    0  0.25567798357E+03  0.11217180378E+03  0.44023501452E+02  0.28265139930E+03  0.00000000000E+00 0. -1.
         -5    1    5    5    0  502 -0.26249896220E+02 -0.23138874654E+02  0.21184659803E+02  0.41174559898E+02  0.47000000000E+01 0.  1.
         11    1    6    6    0    0 -0.12602431651E+03 -0.91114085969E+02 -0.17524931318E+03  0.23429943829E+03  0.00000000000E+00 0. -1.
        -12    1    6    6    0    0 -0.12179197932E+03 -0.10859123204E+03 -0.85563818679E+02  0.18424578413E+03  0.00000000000E+00 0.  1.
</event>
<event>
12    1  0.9962621E-001  0.1741662E+03  0.7818608E-02  0.1173775E+00
         21   -1    0    0  503  502  0.00000000000E+00  0.00000000000E+00  0.88115115336E+03  0.88115115336E+03  0.00000000000E+00 0. -1.
         21   -1    0    0  501  503 -0.00000000000E+00 -0.00000000000E+00 -0.34355756995E+02  0.34355756995E+02  0.00000000000E+00 0. -1.
          6    2    1    2  501    0  0.21711182761E+02 -0.12250000833E+02  0.44570966407E+03  0.47823855188E+03  0.17156214583E+03 0.  0.
         24    2    3    3    0    0 -0.13049787812E+02  0.21995154627E+02  0.40680068337E+03  0.41565217535E+03  0.81399331065E+02 0.  0.
         -6    2    1    2    0  502 -0.21711182761E+02  0.12250000833E+02  0.40108573230E+03  0.43726835848E+03  0.17237289432E+03 0.  0.
        -24    2    5    5    0    0 -0.28711505171E+02 -0.58391036517E+02  0.22815134008E+03  0.25027222300E+03  0.79682419328E+02 0.  0.
          5    1    3    3  501    0  0.34760970573E+02 -0.34245155460E+02  0.38908980703E+02  0.62586376529E+02  0.47000000000E+01 0. -1.
        -13    1    4    4    0    0 -0.19163503571E+02  0.51193410175E+02  0.28966061983E+03  0.29477326845E+03  0.00000000000E+00 0.  1.
         14    1    4    4    0    0  0.61137157590E+01 -0.29198255549E+02  0.11714006354E+03  0.12087890690E+03  0.00000000000E+00 0. -1.
         -5    1    5    5    0  502  0.70003224104E+01  0.70641037350E+02  0.17293439222E+03  0.18699613548E+03  0.47000000000E+01 0.  1.
         13    1    6    6    0    0 -0.27141309035E+02 -0.31056886316E+02  0.31957602410E+02  0.52177286204E+02  0.00000000000E+00 0. -1.
        -14    1    6    6    0    0 -0.15701961364E+01 -0.27334150201E+02  0.19619373767E+03  0.19809493680E+03  0.00000000000E+00 0.  1.
</event>
<event>
12    1  0.9962621E-001  0.2255146E+03  0.7818608E-02  0.1130400E+00
         21   -1    0    0  503  502  0.00000000000E+00  0.00000000000E+00  0.93799976268E+02  0.93799976268E+02  0.00000000000E+00 0.  1.
         21   -1    0    0  501  503 -0.00000000000E+00 -0.00000000000E+00 -0.57616305706E+03  0.57616305706E+03  0.00000000000E+00 0.  1.
          6    2    1    2  501    0 -0.11236458520E+02  0.14041139609E+03 -0.15294553399E+03  0.27248699759E+03  0.17611135493E+03 0.  0.
         24    2    3    3    0    0 -0.38373027229E+01  0.45856732382E+02 -0.15183543711E+03  0.17752040215E+03  0.79636225543E+02 0.  0.
         -6    2    1    2    0  502  0.11236458520E+02 -0.14041139609E+03 -0.32941754680E+03  0.39747603574E+03  0.17213268341E+03 0.  0.
        -24    2    5    5    0    0  0.64403266093E+02 -0.47408722780E+02 -0.13304702246E+03  0.17373583037E+03  0.78020900336E+02 0.  0.
          5    1    3    3  501    0 -0.73991557968E+01  0.94554663704E+02 -0.11100968805E+01  0.94966595442E+02  0.47000000000E+01 0. -1.
        -11    1    4    4    0    0 -0.38286219955E+02  0.10565933011E+02 -0.46102701796E+02  0.60851727106E+02  0.00000000000E+00 0.  1.
         12    1    4    4    0    0  0.34448917232E+02  0.35290799371E+02 -0.10573273532E+03  0.11666867504E+03  0.00000000000E+00 0. -1.
         -5    1    5    5    0  502 -0.53166807574E+02 -0.93002673307E+02 -0.19637052434E+03  0.22374020537E+03  0.47000000000E+01 0.  1.
         11    1    6    6    0    0 -0.28303452840E+01 -0.43695504102E+02 -0.61384789448E+02  0.75401593543E+02  0.00000000000E+00 0. -1.
        -12    1    6    6    0    0  0.67233611377E+02 -0.37132186772E+01 -0.71662233008E+02  0.98334236822E+02  0.00000000000E+00 0.  1.
</event>
<event>
12    1  0.9962621E-001  0.2094948E+03  0.7818608E-02  0.1144244E+00
         21   -1    0    0  501  502  0.00000000000E+00  0.00000000000E+00  0.31468847298E+03  0.31468847298E+03  0.00000000000E+00 0. -1.
         21   -1    0    0  502  503 -0.00000000000E+00 -0.00000000000E+00 -0.13338617310E+03  0.13338617310E+03  0.00000000000E+00 0. -1.
         -6    2    1    2    0  503  0.11372214455E+03 -0.36081177305E+02  0.66641690314E+02  0.20925432911E+03  0.15846665847E+03 0.  0.
        -24    2    3    3    0    0  0.42921122940E+02 -0.42363248612E+02 -0.14048844736E+02  0.10161929054E+03  0.80574453422E+02 0.  0.
          6    2    1    2  501    0 -0.11372214455E+03  0.36081177305E+02  0.11466060957E+03  0.23882031697E+03  0.17220194800E+03 0.  0.
         24    2    5    5    0    0 -0.19753063174E+01 -0.15669898650E+02  0.24555490070E+02  0.86155480557E+02  0.81057678098E+02 0.  0.
          5    1    5    5  501    0 -0.11174683823E+03  0.51751075956E+02  0.90105119504E+02  0.15266483642E+03  0.47000000000E+01 0. -1.
        -13    1    6    6    0    0 -0.24980351075E+02 -0.18155245562E+02  0.45470214082E+02  0.54965182160E+02  0.00000000000E+00 0.  1.
         14    1    6    6    0    0  0.23005044758E+02  0.24853469113E+01 -0.20914724011E+02  0.31190298397E+02  0.00000000000E+00 0. -1.
         -5    1    3    3    0  503  0.70801021608E+02  0.62820713064E+01  0.80690535050E+02  0.10763503857E+03  0.47000000000E+01 0.  1.
         13    1    4    4    0    0 -0.74071700073E+01 -0.23750791793E+02 -0.35902505515E+02  0.43680157744E+02  0.00000000000E+00 0. -1.
        -14    1    4    4    0    0  0.50328292947E+02 -0.18612456819E+02  0.21853660779E+02  0.57939132797E+02  0.00000000000E+00 0.  1.
</event>
<event>
12    1  0.9962621E-001  0.2189636E+03  0.7818608E-02  0.1137760E+00
         21   -1    0    0  503  502  0.00000000000E+00  0.00000000000E+00  0.62734156086E+03  0.62734156086E+03  0.00000000000E+00 0.  1.
         21   -1    0    0  501  503 -0.00000000000E+00 -0.00000000000E+00 -0.19807851042E+03  0.19807851042E+03  0.00000000000E+00 0.  1.
          6    2    1    2  501    0  0.10513548359E+03  0.31391933326E+02  0.54224698734E+03  0.57902525020E+03  0.17087867539E+03 0.  0.
         24    2    3    3    0    0  0.16306575372E+02  0.55281812630E+02  0.17585593802E+03  0.20123457762E+03  0.79044677772E+02 0.  0.
         -6    2    1    2    0  502 -0.10513548359E+03 -0.31391933326E+02 -0.11298393691E+03  0.24639482108E+03  0.18948908799E+03 0.  0.
        -24    2    5    5    0    0 -0.11589470716E+03 -0.13779800724E+02 -0.14806893608E+03  0.20541927626E+03  0.81554908923E+02 0.  0.
          5    1    3    3  501    0  0.88828908223E+02 -0.23889879304E+02  0.36639104932E+03  0.37779067258E+03  0.47000000000E+01 0. -1.
        -11    1    4    4    0    0  0.71575397222E+01  0.49956816561E+02  0.38511196326E+02  0.63482486862E+02  0.00000000000E+00 0.  1.
         12    1    4    4    0    0  0.91490356494E+01  0.53249960691E+01  0.13734474170E+03  0.13775209076E+03  0.00000000000E+00 0. -1.
         -5    1    5    5    0  502  0.10759223567E+02 -0.17612132602E+02  0.35084999176E+02  0.40975544825E+02  0.47000000000E+01 0.  1.
         13    1    6    6    0    0 -0.70510922173E+02  0.19670538441E+02 -0.39733321438E+02  0.83291398480E+02  0.00000000000E+00 0. -1.
        -14    1    6    6    0    0 -0.45383784989E+02 -0.33450339165E+02 -0.10833561464E+03  0.12212787778E+03  0.00000000000E+00 0.  1.
</event>
<event>
12    1  0.9962621E-001  0.1110243E+04  0.7818608E-02  0.9195453E-01
         21   -1    0    0  503  502  0.00000000000E+00  0.00000000000E+00  0.49110140391E+03  0.49110140391E+03  0.00000000000E+00 0.  1.
         21   -1    0    0  501  503 -0.00000000000E+00 -0.00000000000E+00 -0.28586050977E+04  0.28586050977E+04  0.00000000000E+00 0. -1.
          6    2    1    2  501    0 -0.53431068773E+03 -0.95778229503E+03 -0.17697854155E+04  0.20887916641E+04  0.16755704537E+03 0.  0.
         24    2    3    3    0    0 -0.26895774298E+03 -0.39651470145E+03 -0.66771107993E+03  0.82387133935E+03  0.57997599567E+02 0.  0.
         -6    2    1    2    0  502  0.53431068773E+03  0.95778229503E+03 -0.59771827825E+03  0.12609148374E+04  0.17263907852E+03 0.  0.
        -24    2    5    5    0    0  0.34781979910E+03  0.68428854141E+03 -0.48408690044E+03  0.91089788810E+03  0.78520155352E+02 0.  0.
          5    1    3    3  501    0 -0.26535294475E+03 -0.56126759359E+03 -0.11020743356E+04  0.12649203248E+04  0.47000000000E+01 0. -1.
        -13    1    4    4    0    0 -0.57978474370E+02 -0.70704267159E+02 -0.93528450843E+02  0.13079819571E+03  0.00000000000E+00 0.  1.
         14    1    4    4    0    0 -0.21097926861E+03 -0.32581043429E+03 -0.57418262909E+03  0.69307314363E+03  0.00000000000E+00 0. -1.
         -5    1    5    5    0  502  0.18649088862E+03  0.27349375362E+03 -0.11363137780E+03  0.35001694935E+03  0.47000000000E+01 0.  1.
         13    1    6    6    0    0  0.17548355802E+03  0.26656934373E+03 -0.21813385292E+03  0.38656962108E+03  0.00000000000E+00 0. -1.
        -14    1    6    6    0    0  0.17233624108E+03  0.41771919768E+03 -0.26595304753E+03  0.52432826702E+03  0.00000000000E+00 0.  1.
</event>
<event>
12    1  0.9962621E-001  0.3154329E+03  0.7818608E-02  0.1077819E+00
         21   -1    0    0  503  502  0.00000000000E+00  0.00000000000E+00  0.47718915221E+03  0.47718915221E+03  0.00000000000E+00 0.  1.
         21   -1    0    0  501  503 -0.00000000000E+00 -0.00000000000E+00 -0.65057246602E+03  0.65057246602E+03  0.00000000000E+00 0. -1.
          6    2    1    2  501    0 -0.24252390463E+03  0.10511235313E+03  0.37824986917E+03  0.49251483696E+03  0.17213788079E+03 0.  0.
         24    2    3    3    0    0 -0.24131651187E+03  0.12967356230E+03  0.36671408290E+03  0.46494900380E+03  0.81544257134E+02 0.  0.
         -6    2    1    2    0  502  0.24252390463E+03 -0.10511235313E+03 -0.55163318298E+03  0.63524678127E+03  0.17138510277E+03 0.  0.
        -24    2    5    5    0    0  0.10626599299E+03 -0.31370258683E+02 -0.13997735718E+03  0.19537552295E+03  0.79381232347E+02 0.  0.
          5    1    3    3  501    0 -0.12073927573E+01 -0.24561209170E+02  0.11535786266E+02  0.27565833162E+02  0.47000000000E+01 0. -1.
        -13    1    4    4    0    0 -0.18581239732E+03  0.12804132429E+03  0.25717907864E+03  0.34214310780E+03  0.00000000000E+00 0.  1.
         14    1    4    4    0    0 -0.55504114548E+02  0.16322380056E+01  0.10953500426E+03  0.12280589599E+03  0.00000000000E+00 0. -1.
         -5    1    5    5    0  502  0.13625791164E+03 -0.73742094444E+02 -0.41165582581E+03  0.43987125832E+03  0.47000000000E+01 0.  1.
         11    1    6    6    0    0  0.45947614913E+02 -0.54356328991E+02 -0.64409103267E+02  0.95991282944E+02  0.00000000000E+00 0. -1.
        -12    1    6    6    0    0  0.60318378081E+02  0.22986070309E+02 -0.75568253910E+02  0.99384240006E+02  0.00000000000E+00 0.  1.
</event>
<event>
12    1  0.9962621E-001  0.2662722E+03  0.7818608E-02  0.1103479E+00
         21   -1    0    0  503  502  0.00000000000E+00  0.00000000000E+00  0.26131718117E+02  0.26131718117E+02  0.00000000000E+00 0.  1.
         21   -1    0    0  501  503 -0.00000000000E+00 -0.00000000000E+00 -0.27847287688E+04  0.27847287688E+04  0.00000000000E+00 0.  1.
          6    2    1    2  501    0 -0.79711068716E+02  0.18793187301E+03 -0.11497773458E+04  0.11802071147E+04  0.17096387182E+03 0.  0.
         24    2    3    3    0    0 -0.10227177501E+03  0.18503191896E+03 -0.84768845828E+03  0.87722661843E+03  0.79085338567E+02 0.  0.
         -6    2    1    2    0  502  0.79711068716E+02 -0.18793187301E+03 -0.16088197049E+04  0.16306533722E+04  0.17046211869E+03 0.  0.
        -24    2    5    5    0    0  0.10573187993E+03 -0.11587701663E+03 -0.13228130707E+04  0.13345269300E+04  0.80752668427E+02 0.  0.
          5    1    3    3  501    0  0.22560706295E+02  0.28999540484E+01 -0.30208888747E+03  0.30298049629E+03  0.47000000000E+01 0. -1.
        -11    1    4    4    0    0 -0.76791054629E+02  0.85419852372E+02 -0.32979096935E+03  0.34922127758E+03  0.00000000000E+00 0.  1.
         12    1    4    4    0    0 -0.25480720381E+02  0.99612066586E+02 -0.51789748893E+03  0.52800534085E+03  0.00000000000E+00 0. -1.
         -5    1    5    5    0  502 -0.26020811217E+02 -0.72054856380E+02 -0.28600663425E+03  0.29612644222E+03  0.47000000000E+01 0.  1.
         13    1    6    6    0    0  0.72061756626E+02 -0.10114031151E+03 -0.72292665471E+03  0.73351564910E+03  0.00000000000E+00 0. -1.
        -14    1    6    6    0    0  0.33670123307E+02 -0.14736705121E+02 -0.59988641596E+03  0.60101128087E+03  0.00000000000E+00 0.  1.
</event>
<event>
12    1  0.9962621E-001  0.1984229E+03  0.7818608E-02  0.1151197E+00
         21   -1    0    0  501  502  0.00000000000E+00  0.00000000000E+00  0.33667029515E+03  0.33667029515E+03  0.00000000000E+00 0.  1.
         21   -1    0    0  502  503 -0.00000000000E+00 -0.00000000000E+00 -0.25643889471E+03  0.25643889471E+03  0.00000000000E+00 0.  1.
         -6    2    1    2    0  503 -0.88283323445E+02 -0.45572343644E+02  0.25912282840E+03  0.32636830152E+03  0.17175809831E+03 0.  0.
        -24    2    3    3    0    0  0.17301611113E+02 -0.44251455415E+02  0.12536508547E+03  0.15588913286E+03  0.79545458931E+02 0.  0.
          6    2    1    2  501    0  0.88283323445E+02  0.45572343644E+02 -0.17889142795E+03  0.26674088834E+03  0.17110749492E+03 0.  0.
         24    2    5    5    0    0  0.44805057343E+02  0.51573796572E+02 -0.27531510913E+02  0.10907576365E+03  0.80449912775E+02 0.  0.
          5    1    5    5  501    0  0.43478266102E+02 -0.60014529281E+01 -0.15135991704E+03  0.15766512470E+03  0.47000000000E+01 0. -1.
        -11    1    6    6    0    0  0.31460464208E+02  0.66575441437E+02 -0.41587178567E+02  0.84566799820E+02  0.00000000000E+00 0.  1.
         12    1    6    6    0    0  0.13344593135E+02 -0.15001644865E+02  0.14055667654E+02  0.24508963826E+02  0.00000000000E+00 0. -1.
         -5    1    3    3    0  503 -0.10558493456E+03 -0.13208882286E+01  0.13375774293E+03  0.17047916865E+03  0.47000000000E+01 0.  1.
         11    1    4    4    0    0  0.21744412857E+02 -0.24086280499E+02  0.39018183024E+01  0.32683215644E+02  0.00000000000E+00 0. -1.
        -12    1    4    4    0    0 -0.44428017440E+01 -0.20165174916E+02  0.12146326717E+03  0.12320591722E+03  0.00000000000E+00 0.  1.
</event>
<event>
12    1  0.9962621E-001  0.2471363E+03  0.7818608E-02  0.1115299E+00
         21   -1    0    0  503  502  0.00000000000E+00  0.00000000000E+00  0.53364765219E+03  0.53364765219E+03  0.00000000000E+00 0.  1.
         21   -1    0    0  501  503 -0.00000000000E+00 -0.00000000000E+00 -0.17014871298E+03  0.17014871298E+03  0.00000000000E+00 0.  1.
          6    2    1    2  501    0 -0.60280304999E+02 -0.16645645360E+03  0.38370916818E+03  0.45583506559E+03  0.17091347272E+03 0.  0.
         24    2    3    3    0    0 -0.91753060916E+02 -0.76060061503E+02  0.28026367511E+03  0.31482051986E+03  0.79752586150E+02 0.  0.
         -6    2    1    2    0  502  0.60280304999E+02  0.16645645360E+03 -0.20210228971E+02  0.24796129959E+03  0.17243806604E+03 0.  0.
        -24    2    5    5    0    0  0.26114883799E+02  0.17431178322E+03  0.20029525146E+02  0.19438602525E+03  0.79486854316E+02 0.  0.
          5    1    3    3  501    0  0.31472755917E+02 -0.90396392099E+02  0.10344549306E+03  0.14101454572E+03  0.47000000000E+01 0. -1.
        -13    1    4    4    0    0 -0.55907100052E+02 -0.18240945528E+02  0.20545280330E+03  0.21370351030E+03  0.00000000000E+00 0.  1.
         14    1    4    4    0    0 -0.35845960863E+02 -0.57819115975E+02  0.74810871809E+02  0.10111700956E+03  0.00000000000E+00 0. -1.
         -5    1    5    5    0  502  0.34165421200E+02 -0.78553296164E+01 -0.40239754117E+02  0.53575274339E+02  0.47000000000E+01 0.  1.
         11    1    6    6    0    0  0.35697061065E+02  0.17867503935E+03  0.15310996222E+02  0.18284823341E+03  0.00000000000E+00 0. -1.
        -12    1    6    6    0    0 -0.95821772663E+01 -0.43632561335E+01  0.47185289239E+01  0.11537791836E+02  0.00000000000E+00 0.  1.
</event>
<event>
12    1  0.9962621E-001  0.3377860E+03  0.7818608E-02  0.1067749E+00
         21   -1    0    0  501  502  0.00000000000E+00  0.00000000000E+00  0.83267273998E+03  0.83267273998E+03  0.00000000000E+00 0.  1.
         21   -1    0    0  502  503 -0.00000000000E+00 -0.00000000000E+00 -0.14502120939E+03  0.14502120939E+03  0.00000000000E+00 0.  1.
         -6    2    1    2    0  503 -0.13111779783E+03  0.25975151708E+03  0.45877638579E+03  0.56971495995E+03  0.17157108120E+03 0.  0.
        -24    2    3    3    0    0 -0.10542683139E+03  0.16375235255E+03  0.40601689080E+03  0.45710270636E+03  0.78508081151E+02 0.  0.
          6    2    1    2  501    0  0.13111779783E+03 -0.25975151708E+03  0.22887514480E+03  0.40797898942E+03  0.17146514622E+03 0.  0.
         24    2    5    5    0    0  0.13481535290E+03 -0.18575274608E+03  0.22885915489E+03  0.33373897138E+03  0.79535691282E+02 0.  0.
          5    1    5    5  501    0 -0.36975550706E+01 -0.73998770996E+02  0.15989911852E-01  0.74240018037E+02  0.47000000000E+01 0. -1.
        -11    1    6    6    0    0  0.26463516462E+02 -0.93218728021E+01  0.61192221824E+02  0.67317925011E+02  0.00000000000E+00 0.  1.
         12    1    6    6    0    0  0.10835183643E+03 -0.17643087328E+03  0.16766693307E+03  0.26642104637E+03  0.00000000000E+00 0. -1.
         -5    1    3    3    0  503 -0.25690966431E+02  0.95999164531E+02  0.52759494988E+02  0.11261225359E+03  0.47000000000E+01 0.  1.
         11    1    4    4    0    0 -0.46331429738E+02  0.21718193316E+02  0.14925333971E+03  0.15778098972E+03  0.00000000000E+00 0. -1.
        -12    1    4    4    0    0 -0.59095401657E+02  0.14203415923E+03  0.25676355109E+03  0.29932171664E+03  0.00000000000E+00 0.  1.
</event>
<event>
12    1  0.9962621E-001  0.2468046E+03  0.7818608E-02  0.1115452E+00
         21   -1    0    0  501  502  0.00000000000E+00  0.00000000000E+00  0.14642972281E+04  0.14642972281E+04  0.00000000000E+00 0.  1.
         21   -1    0    0  502  503 -0.00000000000E+00 -0.00000000000E+00 -0.71220257715E+02  0.71220257715E+02  0.00000000000E+00 0.  1.
         -6    2    1    2    0  503  0.42356270805E+02 -0.17107483851E+03  0.11920798030E+04  0.12172214494E+04  0.17179390631E+03 0.  0.
        -24    2    3    3    0    0  0.66274191010E+02 -0.74942457959E+02  0.88506325414E+03  0.89458426503E+03  0.83279067108E+02 0.  0.
          6    2    1    2  501    0 -0.42356270805E+02  0.17107483851E+03  0.20099716734E+03  0.31829603632E+03  0.17277688332E+03 0.  0.
         24    2    5    5    0    0 -0.51340369680E+02  0.41580249328E+02  0.14269037711E+03  0.17591859974E+03  0.78880031201E+02 0.  0.
          5    1    5    5  501    0  0.89840988749E+01  0.12949458918E+03  0.58306790230E+02  0.14237743658E+03  0.47000000000E+01 0. -1.
        -13    1    6    6    0    0 -0.30684374239E+02  0.25171836379E+02  0.10406253352E+02  0.41029773067E+02  0.00000000000E+00 0.  1.
         14    1    6    6    0    0 -0.20655995441E+02  0.16408412949E+02  0.13228412376E+03  0.13488882667E+03  0.00000000000E+00 0. -1.
         -5    1    3    3    0  503 -0.23917920204E+02 -0.96132380547E+02  0.30701654886E+03  0.32263718442E+03  0.47000000000E+01 0.  1.
         13    1    4    4    0    0  0.12006513132E+02 -0.73957413604E+02  0.45847904171E+03  0.46456096163E+03  0.00000000000E+00 0. -1.
        -14    1    4    4    0    0  0.54267677877E+02 -0.98504435421E+00  0.42658421243E+03  0.43002330340E+03  0.00000000000E+00 0.  1.
</event>
<event>
12    1  0.9962621E-001  0.1989746E+03  0.7818608E-02  0.1151431E+00
         21   -1    0    0  501  502  0.00000000000E+00  0.00000000000E+00  0.56774427933E+03  0.56774427933E+03  0.00000000000E+00 0. -1.
         21   -1    0    0  502  503 -0.00000000000E+00 -0.00000000000E+00 -0.12637303745E+03  0.12637303745E+03  0.00000000000E+00 0. -1.
         -6    2    1    2    0  503  0.57207014948E+02  0.73160110048E+02  0.45692174775E+03  0.49836570517E+03  0.17597115748E+03 0.  0.
        -24    2    3    3    0    0 -0.38514336236E+01  0.71009708339E+01  0.34690736734E+03  0.35617851197E+03  0.80331522721E+02 0.  0.
          6    2    1    2  501    0 -0.57207014948E+02 -0.73160110048E+02 -0.15550505863E+02  0.19575161160E+03  0.17161535756E+03 0.  0.
         24    2    5    5    0    0 -0.18092905151E+02 -0.95633331988E+02 -0.50599920042E+02  0.13843223683E+03  0.84439593099E+02 0.  0.
          5    1    5    5  501    0 -0.39114109797E+02  0.22473221939E+02  0.35049414179E+02  0.57319374769E+02  0.47000000000E+01 0. -1.
        -13    1    6    6    0    0 -0.13321069469E+02 -0.56012487124E+00  0.17053982790E+02  0.21647239101E+02  0.00000000000E+00 0.  1.
         14    1    6    6    0    0 -0.47718356819E+01 -0.95073207116E+02 -0.67653902832E+02  0.11678499773E+03  0.00000000000E+00 0. -1.
         -5    1    3    3    0  503  0.61058448572E+02  0.66059139214E+02  0.11001438041E+03  0.14218719321E+03  0.47000000000E+01 0.  1.
         11    1    4    4    0    0 -0.91081447688E+01  0.41418183222E+02  0.24166428978E+03  0.24535699126E+03  0.00000000000E+00 0. -1.
        -12    1    4    4    0    0  0.52567111452E+01 -0.34317212388E+02  0.10524307756E+03  0.11082152071E+03  0.00000000000E+00 0.  1.
</event>
<event>
12    1  0.9962621E-001  0.3431237E+03  0.7818608E-02  0.1065510E+00
         21   -1    0    0  503  502  0.00000000000E+00  0.00000000000E+00  0.94983443556E+02  0.94983443556E+02  0.00000000000E+00 0.  1.
         21   -1    0    0  501  503 -0.00000000000E+00 -0.00000000000E+00 -0.13083252973E+04  0.13083252973E+04  0.00000000000E+00 0.  1.
          6    2    1    2  501    0 -0.19132195466E+03  0.22647656236E+03 -0.76876416264E+03  0.84171884795E+03  0.17203650081E+03 0.  0.
         24    2    3    3    0    0 -0.19471404791E+03  0.17271928918E+03 -0.51910270584E+03  0.58626966763E+03  0.80616317613E+02 0.  0.
         -6    2    1    2    0  502  0.19132195466E+03 -0.22647656236E+03 -0.44457769113E+03  0.56158989293E+03  0.17273725933E+03 0.  0.
        -24    2    5    5    0    0  0.91872754340E+02 -0.10019778933E+03 -0.12545173592E+03  0.20423861302E+03  0.86574089820E+02 0.  0.
          5    1    3    3  501    0  0.33920932501E+01  0.53757273176E+02 -0.24966145681E+03  0.25544918033E+03  0.47000000000E+01 0. -1.
        -13    1    4    4    0    0 -0.12803744156E+03  0.12238287478E+03 -0.42501535382E+03  0.46044457372E+03  0.00000000000E+00 0.  1.
         14    1    4    4    0    0 -0.66676606344E+02  0.50336414398E+02 -0.94087352012E+02  0.12582509391E+03  0.00000000000E+00 0. -1.
         -5    1    5    5    0  502  0.99449200317E+02 -0.12627877302E+03 -0.31912595522E+03  0.35735127991E+03  0.47000000000E+01 0.  1.
         13    1    6    6    0    0  0.57870702226E+02 -0.68001083895E+02 -0.12943017297E+03  0.15724291800E+03  0.00000000000E+00 0. -1.
        -14    1    6    6    0    0  0.34002052113E+02 -0.32196705435E+02  0.39784370549E+01  0.46995695018E+02  0.00000000000E+00 0.  1.
</event>
<event>
12    1  0.9962621E-001  0.2301877E+03  0.7818608E-02  0.1127837E+00
         21   -1    0    0  503  502  0.00000000000E+00  0.00000000000E+00  0.79696618016E+02  0.79696618016E+02  0.00000000000E+00 0. -1.
         21   -1    0    0  501  503 -0.00000000000E+00 -0.00000000000E+00 -0.85154994356E+03  0.85154994356E+03  0.00000000000E+00 0. -1.
          6    2    1    2  501    0 -0.35355909017E+02 -0.14216849001E+03 -0.62080733068E+03  0.66210882631E+03  0.17755122133E+03 0.  0.
         24    2    3    3    0    0  0.33910359145E+02 -0.13289053588E+03 -0.46273825423E+03  0.48921631846E+03  0.79975667194E+02 0.  0.
         -6    2    1    2    0  502  0.35355909017E+02  0.14216849001E+03 -0.15104599487E+03  0.26913773527E+03  0.16780437457E+03 0.  0.
        -24    2    5    5    0    0 -0.35691392098E+02  0.55227397274E+02 -0.10649295018E+03  0.14825127452E+03  0.79459115772E+02 0.  0.
          5    1    3    3  501    0 -0.69266268161E+02 -0.92779541248E+01 -0.15806907646E+03  0.17289250785E+03  0.47000000000E+01 0. -1.
        -11    1    4    4    0    0 -0.90899648842E+01 -0.31227609518E+02 -0.22210349897E+03  0.22447217046E+03  0.00000000000E+00 0.  1.
         12    1    4    4    0    0  0.43000324029E+02 -0.10166292637E+03 -0.24063475526E+03  0.26474414800E+03  0.00000000000E+00 0. -1.
         -5    1    5    5    0  502  0.71047301115E+02  0.86941092736E+02 -0.44553044690E+02  0.12088646075E+03  0.47000000000E+01 0.  1.
         13    1    6    6    0    0  0.14249912952E+02  0.27571716896E+02 -0.79021439233E+02  0.84897864815E+02  0.00000000000E+00 0. -1.
        -14    1    6    6    0    0 -0.49941305051E+02  0.27655680377E+02 -0.27471510942E+02  0.63353409701E+02  0.00000000000E+00 0.  1.
</event>
<event>
12    1  0.9962621E-001  0.1979119E+03  0.7818608E-02  0.1151541E+00
         21   -1    0    0  503  502  0.00000000000E+00  0.00000000000E+00  0.25660732386E+03  0.25660732386E+03  0.00000000000E+00 0.  1.
         21   -1    0    0  501  503 -0.00000000000E+00 -0.00000000000E+00 -0.18287454528E+03  0.18287454528E+03  0.00000000000E+00 0.  1.
          6    2    1    2  501    0 -0.15505754283E+02 -0.95322347586E+02  0.12635317820E+03  0.23469409171E+03  0.17259609693E+03 0.  0.
         24    2    3    3    0    0 -0.65610811149E+01 -0.82123858442E+02  0.16092518852E+03  0.19633367993E+03  0.76567758655E+02 0.  0.
         -6    2    1    2    0  502  0.15505754283E+02  0.95322347586E+02 -0.52620399628E+02  0.20478777743E+03  0.17274938195E+03 0.  0.
        -24    2    5    5    0    0 -0.23983625038E+02 -0.74553962618E+01 -0.24520891984E+01  0.83702579822E+02  0.79807969051E+02 0.  0.
          5    1    3    3  501    0 -0.89446731677E+01 -0.13198489143E+02 -0.34572010320E+02  0.38360411772E+02  0.47000000000E+01 0. -1.
        -11    1    4    4    0    0 -0.37561928869E+02 -0.68876330694E+02  0.11902834588E+03  0.14255733777E+03  0.00000000000E+00 0.  1.
         12    1    4    4    0    0  0.31000847755E+02 -0.13247527748E+02  0.41896842643E+02  0.53776342163E+02  0.00000000000E+00 0. -1.
         -5    1    5    5    0  502  0.39489379321E+02  0.10277774385E+03 -0.50168310429E+02  0.12108519761E+03  0.47000000000E+01 0.  1.
         13    1    6    6    0    0  0.25304860740E+02  0.89802519145E+01  0.12527537172E+02  0.29629716319E+02  0.00000000000E+00 0. -1.
        -14    1    6    6    0    0 -0.49288485778E+02 -0.16435648176E+02 -0.14979626370E+02  0.54072863503E+02  0.00000000000E+00 0.  1.
</event>
<event>
12    1  0.9962621E-001  0.2873780E+03  0.7818608E-02  0.1091855E+00
         21   -1    0    0  501  502  0.00000000000E+00  0.00000000000E+00  0.57660662134E+02  0.57660662134E+02  0.00000000000E+00 0. -1.
         21   -1    0    0  502  503 -0.00000000000E+00 -0.00000000000E+00 -0.14339532181E+04  0.14339532181E+04  0.00000000000E+00 0. -1.
         -6    2    1    2    0  503  0.12125810635E+03  0.19517170824E+03 -0.63665096763E+03  0.69810535008E+03  0.17097105363E+03 0.  0.
        -24    2    3    3    0    0  0.11873111550E+02  0.26042342038E+02 -0.19790457345E+03  0.21531107919E+03  0.79833991972E+02 0.  0.
          6    2    1    2  501    0 -0.12125810635E+03 -0.19517170824E+03 -0.73964158835E+03  0.79350853017E+03  0.17259949066E+03 0.  0.
         24    2    5    5    0    0 -0.42350164047E+02 -0.84395676908E+02 -0.18395950378E+03  0.22140498920E+03  0.79138508546E+02 0.  0.
          5    1    5    5  501    0 -0.78907942299E+02 -0.11077603133E+03 -0.55568208457E+03  0.57210354097E+03  0.47000000000E+01 0. -1.
        -13    1    6    6    0    0  0.21587141600E+02 -0.24310195179E+02 -0.73269661293E+02  0.80158802000E+02  0.00000000000E+00 0.  1.
         14    1    6    6    0    0 -0.63937305647E+02 -0.60085481729E+02 -0.11068984249E+03  0.14124618720E+03  0.00000000000E+00 0. -1.
         -5    1    3    3    0  503  0.10938499480E+03  0.16912936620E+03 -0.43874639418E+03  0.48279427089E+03  0.47000000000E+01 0.  1.
         11    1    4    4    0    0 -0.18423168041E+02  0.42919721947E+02 -0.82449213368E+02  0.94759635066E+02  0.00000000000E+00 0. -1.
        -12    1    4    4    0    0  0.30296279592E+02 -0.16877379909E+02 -0.11545536008E+03  0.12055144413E+03  0.00000000000E+00 0.  1.
</event>
<event>
12    1  0.9962621E-001  0.1931519E+03  0.7818608E-02  0.1155964E+00
         21   -1    0    0  501  502  0.00000000000E+00  0.00000000000E+00  0.93403952506E+02  0.93403952506E+02  0.00000000000E+00 0. -1.
         21   -1    0    0  502  503 -0.00000000000E+00 -0.00000000000E+00 -0.45102733875E+03  0.45102733875E+03  0.00000000000E+00 0. -1.
         -6    2    1    2    0  503 -0.54646656407E+02 -0.65132393445E+02 -0.83575316086E+02  0.20915527730E+03  0.17185054795E+03 0.  0.
        -24    2    3    3    0    0 -0.11909851407E+02 -0.71700483752E+02 -0.11448019416E+03  0.15580009198E+03  0.76714730500E+02 0.  0.
          6    2    1    2  501    0  0.54646656407E+02  0.65132393445E+02 -0.27404807015E+03  0.33527601395E+03  0.17343348882E+03 0.  0.
         24    2    5    5    0    0  0.10323193219E+03  0.42668663760E+02 -0.17048807394E+03  0.21860591928E+03  0.79024792932E+02 0.  0.
          5    1    5    5  501    0 -0.48585275785E+02  0.22463729685E+02 -0.10355999621E+03  0.11667009467E+03  0.47000000000E+01 0. -1.
        -13    1    6    6    0    0  0.47686456757E+02  0.57800088567E+02 -0.68666498994E+02  0.10163629509E+03  0.00000000000E+00 0.  1.
         14    1    6    6    0    0  0.55545475435E+02 -0.15131424807E+02 -0.10182157495E+03  0.11696962419E+03  0.00000000000E+00 0. -1.
         -5    1    3    3    0  503 -0.42736804999E+02  0.65680903074E+01  0.30904878073E+02  0.53355185320E+02  0.47000000000E+01 0.  1.
         11    1    4    4    0    0  0.29067924826E+01 -0.44371898095E+02 -0.83931763840E+01  0.45252184400E+02  0.00000000000E+00 0. -1.
        -12    1    4    4    0    0 -0.14816643890E+02 -0.27328585657E+02 -0.10608701778E+03  0.11054790758E+03  0.00000000000E+00 0.  1.
</event>
<event>
12    1  0.9962621E-001  0.1966489E+03  0.7818608E-02  0.1153544E+00
         21   -1    0    0  501  502  0.00000000000E+00  0.00000000000E+00  0.31587592875E+03  0.31587592875E+03  0.00000000000E+00 0.  1.
         21   -1    0    0  502  503 -0.00000000000E+00 -0.00000000000E+00 -0.29432886591E+03  0.29432886591E+03  0.00000000000E+00 0.  1.
         -6    2    1    2    0  503  0.89973494776E+02 -0.72159442814E+01  0.24570346461E+03  0.31201547632E+03  0.16981214718E+03 0.  0.
        -24    2    3    3    0    0  0.39416324130E+02  0.20438459663E+02  0.42014296031E+02  0.10027941195E+03  0.79494541628E+02 0.  0.
          6    2    1    2  501    0 -0.89973494776E+02  0.72159442814E+01 -0.22415640177E+03  0.29818931834E+03  0.17470969494E+03 0.  0.
         24    2    5    5    0    0 -0.11399229813E+03  0.14444648395E+02 -0.99737349334E+02  0.17118007582E+03  0.78435882122E+02 0.  0.
          5    1    5    5  501    0  0.24018803356E+02 -0.72287041137E+01 -0.12441905244E+03  0.12700924253E+03  0.47000000000E+01 0. -1.
        -13    1    6    6    0    0 -0.44887123633E+02 -0.23991652908E+02 -0.70328448249E+02  0.86813270359E+02  0.00000000000E+00 0.  1.
         14    1    6    6    0    0 -0.69105174500E+02  0.38436301303E+02 -0.29408901085E+02  0.84366805460E+02  0.00000000000E+00 0. -1.
         -5    1    3    3    0  503  0.50557170646E+02 -0.27654403945E+02  0.20368916858E+03  0.21173606437E+03  0.47000000000E+01 0.  1.
         13    1    4    4    0    0 -0.98322728751E+01  0.41748337279E+01 -0.18017697372E+02  0.20946127211E+02  0.00000000000E+00 0. -1.
        -14    1    4    4    0    0  0.49248597006E+02  0.16263625935E+02  0.60031993403E+02  0.79333284739E+02  0.00000000000E+00 0.  1.
</event>
<event>
12    1  0.9962621E-001  0.2511313E+03  0.7818608E-02  0.1113005E+00
         21   -1    0    0  503  502  0.00000000000E+00  0.00000000000E+00  0.12155247262E+04  0.12155247262E+04  0.00000000000E+00 0.  1.
         21   -1    0    0  501  503 -0.00000000000E+00 -0.00000000000E+00 -0.66260711353E+02  0.66260711353E+02  0.00000000000E+00 0.  1.
          6    2    1    2  501    0 -0.39891042467E+02  0.17520086278E+03  0.87636701007E+03  0.91092197849E+03  0.17167724648E+03 0.  0.
         24    2    3    3    0    0  0.25511873143E+01  0.37052937943E+02  0.21053060434E+03  0.22956568314E+03  0.83653085696E+02 0.  0.
         -6    2    1    2    0  502  0.39891042467E+02 -0.17520086278E+03  0.27289700480E+03  0.37086345909E+03  0.17544313173E+03 0.  0.
        -24    2    5    5    0    0  0.41538781239E+02 -0.18389464989E+03  0.28248206636E+03  0.35699766007E+03  0.11003862449E+03 0.  0.
          5    1    3    3  501    0 -0.42442229781E+02  0.13814792483E+03  0.66583640573E+03  0.68135629534E+03  0.47000000000E+01 0. -1.
        -11    1    4    4    0    0  0.25608017442E+02 -0.96600497223E+01  0.13542071818E+03  0.13815881452E+03  0.00000000000E+00 0.  1.
         12    1    4    4    0    0 -0.23056830127E+02  0.46712987666E+02  0.75109886161E+02  0.91406868622E+02  0.00000000000E+00 0. -1.
         -5    1    5    5    0  502 -0.16477387724E+01  0.86937871076E+01 -0.95850615581E+01  0.13865799018E+02  0.47000000000E+01 0.  1.
         13    1    6    6    0    0 -0.16010052430E+02  0.13016752892E+01  0.22713540652E+01  0.16222675077E+02  0.00000000000E+00 0. -1.
        -14    1    6    6    0    0  0.57548833669E+02 -0.18519632517E+03  0.28021071229E+03  0.34077498499E+03  0.00000000000E+00 0.  1.
</event>
<event>
12    1  0.9962621E-001  0.2139734E+03  0.7818608E-02  0.1139064E+00
         21   -1    0    0  501  502  0.00000000000E+00  0.00000000000E+00  0.89842306530E+02  0.89842306530E+02  0.00000000000E+00 0.  1.
         21   -1    0    0  502  503 -0.00000000000E+00 -0.00000000000E+00 -0.71228793436E+03  0.71228793436E+03  0.00000000000E+00 0.  1.
         -6    2    1    2    0  503  0.11920531110E+02  0.12390917814E+03 -0.91811804661E+02  0.22997913394E+03  0.17019227680E+03 0.  0.
        -24    2    3    3    0    0  0.14700160328E+02  0.10453011666E+03  0.40067289927E+01  0.13206817565E+03  0.79267327058E+02 0.  0.
          6    2    1    2  501    0 -0.11920531110E+02 -0.12390917814E+03 -0.53063382317E+03  0.57215110695E+03  0.17403749999E+03 0.  0.
         24    2    5    5    0    0 -0.57152128251E+02 -0.78696654658E+02 -0.25646553736E+03  0.29058333784E+03  0.95940477154E+02 0.  0.
          5    1    5    5  501    0  0.45231597141E+02 -0.45212523486E+02 -0.27416828580E+03  0.28156776911E+03  0.47000000000E+01 0. -1.
        -13    1    6    6    0    0 -0.41828219241E+02  0.15645862925E+01 -0.15366841669E+03  0.15926716593E+03  0.00000000000E+00 0.  1.
         14    1    6    6    0    0 -0.15323909010E+02 -0.80261240951E+02 -0.10279712067E+03  0.13131617191E+03  0.00000000000E+00 0. -1.
         -5    1    3    3    0  503 -0.27796292181E+01  0.19379061486E+02 -0.95818533654E+02  0.97910958295E+02  0.47000000000E+01 0.  1.
         11    1    4    4    0    0  0.10010999144E+02  0.61809689769E+02 -0.36946879688E+02  0.72703024503E+02  0.00000000000E+00 0. -1.
        -12    1    4    4    0    0  0.46891611844E+01  0.42720426889E+02  0.40953608681E+02  0.59365151143E+02  0.00000000000E+00 0.  1.
</event>
<event>
12    1  0.9962621E-001  0.3668003E+03  0.7818608E-02  0.1055926E+00
         21   -1    0    0  501  502  0.00000000000E+00  0.00000000000E+00  0.30136372357E+03  0.30136372357E+03  0.00000000000E+00 0.  1.
         21   -1    0    0  502  503 -0.00000000000E+00 -0.00000000000E+00 -0.57309885681E+03  0.57309885681E+03  0.00000000000E+00 0.  1.
         -6    2    1    2    0  503 -0.30435112977E+03 -0.10819819390E+03  0.69700124814E+02  0.37336385793E+03  0.17379874467E+03 0.  0.
        -24    2    3    3    0    0 -0.24035500426E+03 -0.14026051222E+03  0.29756239863E+02  0.29125965412E+03  0.80642500877E+02 0.  0.
          6    2    1    2  501    0  0.30435112977E+03  0.10819819390E+03 -0.34143525805E+03  0.50109872245E+03  0.17373956040E+03 0.  0.
         24    2    5    5    0    0  0.68611695081E+02 -0.37653794508E+01 -0.10195334659E+03  0.14686349165E+03  0.80328435277E+02 0.  0.
          5    1    5    5  501    0  0.23573943469E+03  0.11196357335E+03 -0.23948191146E+03  0.35423523081E+03  0.47000000000E+01 0. -1.
        -13    1    6    6    0    0  0.25675325044E+02  0.34879162986E+01 -0.99970285289E+02  0.10327364532E+03  0.00000000000E+00 0.  1.
         14    1    6    6    0    0  0.42936370036E+02 -0.72532957494E+01 -0.19830613008E+01  0.43589846332E+02  0.00000000000E+00 0. -1.
         -5    1    3    3    0  503 -0.63996125512E+02  0.32062318326E+02  0.39943884952E+02  0.82104203802E+02  0.47000000000E+01 0.  1.
         13    1    4    4    0    0 -0.24369835767E+03 -0.12815691133E+03  0.21390852348E+02  0.27617141781E+03  0.00000000000E+00 0. -1.
        -14    1    4    4    0    0  0.33433534119E+01 -0.12103600896E+02  0.83653875148E+01  0.15088236311E+02  0.00000000000E+00 0.  1.
</event>
<event>
12    1  0.9962621E-001  0.1721499E+03  0.7818608E-02  0.1176755E+00
         21   -1    0    0  503  502  0.00000000000E+00  0.00000000000E+00  0.28022062700E+03  0.28022062700E+03  0.00000000000E+00 0. -1.
         21   -1    0    0  501  503 -0.00000000000E+00 -0.00000000000E+00 -0.17906183863E+03  0.17906183863E+03  0.00000000000E+00 0. -1.
          6    2    1    2  501    0  0.13846995884E+02  0.84293958952E+01 -0.99354540008E+02  0.19500762296E+03  0.16701453345E+03 0.  0.
         24    2    3    3    0    0  0.58688951652E+02 -0.46571700263E+01 -0.10864420203E+03  0.14714900801E+03  0.79894841157E+02 0.  0.
         -6    2    1    2    0  502 -0.13846995884E+02 -0.84293958952E+01  0.20051332838E+03  0.26427484266E+03  0.17138495732E+03 0.  0.
        -24    2    5    5    0    0 -0.23903458024E+02  0.50833484276E+02  0.69584333649E+02  0.12013007842E+03  0.80211207592E+02 0.  0.
          5    1    3    3  501    0 -0.44841955767E+02  0.13086565922E+02  0.92896620256E+01  0.47858614953E+02  0.47000000000E+01 0. -1.
        -13    1    4    4    0    0  0.65705493789E+01 -0.18447198254E+01 -0.92161785969E+02  0.92414121775E+02  0.00000000000E+00 0.  1.
         14    1    4    4    0    0  0.52118402273E+02 -0.28124502009E+01 -0.16482416065E+02  0.54734886233E+02  0.00000000000E+00 0. -1.
         -5    1    5    5    0  502  0.10056462140E+02 -0.59262880171E+02  0.13092899473E+03  0.14414476424E+03  0.47000000000E+01 0.  1.
         13    1    6    6    0    0  0.36646962558E+01  0.63736840540E+02  0.30958821757E+02  0.70952543896E+02  0.00000000000E+00 0. -1.
        -14    1    6    6    0    0 -0.27568154280E+02 -0.12903356264E+02  0.38625511892E+02  0.49177534527E+02  0.00000000000E+00 0.  1.
</event>
<event>
12    1  0.9962621E-001  0.2422837E+03  0.7818608E-02  0.1121081E+00
         21   -1    0    0  501  502  0.00000000000E+00  0.00000000000E+00  0.59038618752E+02  0.59038618752E+02  0.00000000000E+00 0. -1.
         21   -1    0    0  502  503 -0.00000000000E+00 -0.00000000000E+00 -0.11186854550E+04  0.11186854550E+04  0.00000000000E+00 0. -1.
         -6    2    1    2    0  503  0.13424720579E+03 -0.60657202751E+02 -0.30231622248E+03  0.38742287801E+03  0.19235326752E+03 0.  0.
        -24    2    3    3    0    0  0.41803544935E+02 -0.41821914676E+02 -0.37556432242E+02  0.10631714161E+03  0.79976497058E+02 0.  0.
          6    2    1    2  501    0 -0.13424720579E+03  0.60657202751E+02 -0.75733061373E+03  0.79030119571E+03  0.17124459972E+03 0.  0.
         24    2    5    5    0    0 -0.18448623317E+02  0.66424376404E+02 -0.30648808437E+03  0.32476532354E+03  0.82371233021E+02 0.  0.
          5    1    5    5  501    0 -0.11579858247E+03 -0.57671736535E+01 -0.45084252936E+03  0.46553587217E+03  0.47000000000E+01 0. -1.
        -11    1    6    6    0    0 -0.41243510534E+02  0.45835894687E+02 -0.27055804218E+03  0.27749524426E+03  0.00000000000E+00 0.  1.
         12    1    6    6    0    0  0.22794887216E+02  0.20588481718E+02 -0.35930042198E+02  0.47270079278E+02  0.00000000000E+00 0. -1.
         -5    1    3    3    0  503  0.92443660851E+02 -0.18835288074E+02 -0.26475979024E+03  0.28110573640E+03  0.47000000000E+01 0.  1.
         11    1    4    4    0    0  0.60193418114E+01  0.21916009284E+02  0.26690788285E+01  0.22883791657E+02  0.00000000000E+00 0. -1.
        -12    1    4    4    0    0  0.35784203124E+02 -0.63737923961E+02 -0.40225511070E+02  0.83433349956E+02  0.00000000000E+00 0.  1.
</event>
<event>
12    1  0.9962621E-001  0.3122444E+03  0.7818608E-02  0.1080747E+00
         21   -1    0    0  501  502  0.00000000000E+00  0.00000000000E+00  0.68850774875E+02  0.68850774875E+02  0.00000000000E+00 0. -1.
         21   -1    0    0  502  503 -0.00000000000E+00 -0.00000000000E+00 -0.15268899282E+04  0.15268899282E+04  0.00000000000E+00 0. -1.
         -6    2    1    2    0  503  0.59989249739E+02 -0.23989565855E+03 -0.45362132826E+03  0.54390813474E+03  0.17004444276E+03 0.  0.
        -24    2    3    3    0    0  0.92681670085E+01 -0.21199277118E+03 -0.41867526638E+03  0.47612527114E+03  0.79871529275E+02 0.  0.
          6    2    1    2  501    0 -0.59989249739E+02  0.23989565855E+03 -0.10044178250E+04  0.10518325683E+04  0.19065137664E+03 0.  0.
         24    2    5    5    0    0 -0.57144585506E+02  0.19005658674E+03 -0.96415620037E+03  0.98752771923E+03  0.78910124359E+02 0.  0.
          5    1    5    5  501    0 -0.28446642336E+01  0.49839071810E+02 -0.40261624677E+02  0.64304849079E+02  0.47000000000E+01 0. -1.
        -11    1    6    6    0    0 -0.57407480280E+02  0.61249656685E+02 -0.42345764233E+03  0.43169840640E+03  0.00000000000E+00 0.  1.
         12    1    6    6    0    0  0.26289477475E+00  0.12880693006E+03 -0.54069855804E+03  0.55582931283E+03  0.00000000000E+00 0. -1.
         -5    1    3    3    0  503  0.50721082731E+02 -0.27902887372E+02 -0.34946061875E+02  0.67782863599E+02  0.47000000000E+01 0.  1.
         13    1    4    4    0    0  0.20026512361E+01  0.62928667235E+01 -0.25706317949E+02  0.26541016674E+02  0.00000000000E+00 0. -1.
        -14    1    4    4    0    0  0.72655157723E+01 -0.21828563790E+03 -0.39296894843E+03  0.44958425447E+03  0.00000000000E+00 0.  1.
</event>
<event>
12    1  0.9962621E-001  0.2087790E+03  0.7818608E-02  0.1142557E+00
         21   -1    0    0  503  502  0.00000000000E+00  0.00000000000E+00  0.17529134446E+03  0.17529134446E+03  0.00000000000E+00 0.  1.
         21   -1    0    0  501  503 -0.00000000000E+00 -0.00000000000E+00 -0.24877851269E+03  0.24877851269E+03  0.00000000000E+00 0.  1.
          6    2    1    2  501    0 -0.11384259212E+03 -0.39782234954E+02 -0.30217300452E+02  0.21095443746E+03  0.17042865791E+03 0.  0.
         24    2    3    3    0    0 -0.14228336621E+03 -0.56745920946E+02 -0.39204212167E+02  0.17632065546E+03  0.78021455027E+02 0.  0.
         -6    2    1    2    0  502  0.11384259212E+03  0.39782234954E+02 -0.43269867769E+02  0.21311541969E+03  0.17030307882E+03 0.  0.
        -24    2    5    5    0    0  0.12097200981E+03  0.85535374752E+01  0.16032412785E+02  0.14555129740E+03  0.78871742433E+02 0.  0.
          5    1    3    3  501    0  0.28440774094E+02  0.16963685992E+02  0.89869117146E+01  0.34633782000E+02  0.47000000000E+01 0. -1.
        -11    1    4    4    0    0 -0.60456644536E+02 -0.64037578667E+02 -0.32590182641E+02  0.93903872948E+02  0.00000000000E+00 0.  1.
         12    1    4    4    0    0 -0.81826721676E+02  0.72916577205E+01 -0.66140295257E+01  0.82416782509E+02  0.00000000000E+00 0. -1.
         -5    1    5    5    0  502 -0.71294176876E+01  0.31228697479E+02 -0.59302280554E+02  0.67564122297E+02  0.47000000000E+01 0.  1.
         11    1    6    6    0    0  0.46814561142E+02  0.41661329796E+02 -0.51592089927E+00  0.62670054329E+02  0.00000000000E+00 0. -1.
        -12    1    6    6    0    0  0.74157448664E+02 -0.33107792321E+02  0.16548333684E+02  0.82881243068E+02  0.00000000000E+00 0.  1.
</event>
<event>
12    1  0.9962621E-001  0.2846524E+03  0.7818608E-02  0.1093285E+00
         21   -1    0    0  501  502  0.00000000000E+00  0.00000000000E+00  0.28460974096E+03  0.28460974096E+03  0.00000000000E+00 0. -1.
         21   -1    0    0  502  503 -0.00000000000E+00 -0.00000000000E+00 -0.34235637838E+03  0.34235637838E+03  0.00000000000E+00 0. -1.
         -6    2    1    2    0  503 -0.66865600263E+02 -0.21487949019E+03  0.10066019280E+03  0.30192628790E+03  0.17430664103E+03 0.  0.
        -24    2    3    3    0    0 -0.11240169694E+03 -0.15154984841E+03  0.84916826043E+02  0.22221353343E+03  0.81033876031E+02 0.  0.
          6    2    1    2  501    0  0.66865600263E+02  0.21487949019E+03 -0.15840683021E+03  0.32503983144E+03  0.17295653895E+03 0.  0.
         24    2    5    5    0    0  0.10087735900E+03  0.16757789689E+03 -0.76922910927E+02  0.22476042397E+03  0.79633666710E+02 0.  0.
          5    1    5    5  501    0 -0.34011758738E+02  0.47301593296E+02 -0.81483919284E+02  0.10027940747E+03  0.47000000000E+01 0. -1.
        -13    1    6    6    0    0  0.67052276009E+02  0.16273774020E+03 -0.56046677989E+02  0.18471819054E+03  0.00000000000E+00 0.  1.
         14    1    6    6    0    0  0.33825082993E+02  0.48401566862E+01 -0.20876232938E+02  0.40042233428E+02  0.00000000000E+00 0. -1.
         -5    1    3    3    0  503  0.45536096680E+02 -0.63329641778E+02  0.15743366757E+02  0.79712754471E+02  0.47000000000E+01 0.  1.
         11    1    4    4    0    0 -0.11493217656E+02 -0.24373309591E+02 -0.15727726158E+02  0.31201180148E+02  0.00000000000E+00 0. -1.
        -12    1    4    4    0    0 -0.10090847929E+03 -0.12717653882E+03  0.10064455220E+03  0.19101235328E+03  0.00000000000E+00 0.  1.
</event>
<event>
12    1  0.9962621E-001  0.2766162E+03  0.7818608E-02  0.1098032E+00
         21   -1    0    0  503  502  0.00000000000E+00  0.00000000000E+00  0.49431142390E+03  0.49431142390E+03  0.00000000000E+00 0. -1.
         21   -1    0    0  501  503 -0.00000000000E+00 -0.00000000000E+00 -0.15309051014E+03  0.15309051014E+03  0.00000000000E+00 0.  1.
          6    2    1    2  501    0 -0.11337245428E+03  0.17831939858E+03  0.18383674109E+03  0.33213317822E+03  0.17850876562E+03 0.  0.
         24    2    3    3    0    0 -0.94875473427E+02  0.20377009322E+03  0.13635004810E+03  0.27497591998E+03  0.80602820093E+02 0.  0.
         -6    2    1    2    0  502  0.11337245428E+03 -0.17831939858E+03  0.15738417268E+03  0.31526875582E+03  0.17312853400E+03 0.  0.
        -24    2    5    5    0    0  0.73455220621E+02 -0.19462974844E+03  0.15581485949E+03  0.27186408096E+03  0.79720760560E+02 0.  0.
          5    1    3    3  501    0 -0.18496980855E+02 -0.25450694636E+02  0.47486692991E+02  0.57157258239E+02  0.47000000000E+01 0. -1.
        -13    1    4    4    0    0 -0.48578820720E+02  0.31017487020E+02  0.17486252760E+02  0.60230850560E+02  0.00000000000E+00 0.  1.
         14    1    4    4    0    0 -0.46296652707E+02  0.17275260620E+03  0.11886379534E+03  0.21474506942E+03  0.00000000000E+00 0. -1.
         -5    1    5    5    0  502  0.39917233661E+02  0.16310349858E+02  0.15693131902E+01  0.43404674858E+02  0.47000000000E+01 0.  1.
         13    1    6    6    0    0  0.30293290935E+01  0.59218635760E+01 -0.22006303082E+01  0.70062883700E+01  0.00000000000E+00 0. -1.
        -14    1    6    6    0    0  0.70425891528E+02 -0.20055161202E+03  0.15801548980E+03  0.26485779259E+03  0.00000000000E+00 0.  1.
</event>
<event>
12    1  0.9962621E-001  0.2786748E+03  0.7818608E-02  0.1096416E+00
         21   -1    0    0  503  502  0.00000000000E+00  0.00000000000E+00  0.71886599009E+02  0.71886599009E+02  0.00000000000E+00 0. -1.
         21   -1    0    0  501  503 -0.00000000000E+00 -0.00000000000E+00 -0.20607438394E+04  0.20607438394E+04  0.00000000000E+00 0.  1.
          6    2    1    2  501    0  0.47819561606E+02 -0.21399663333E+03 -0.25892349911E+03  0.38039585137E+03  0.17198359166E+03 0.  0.
         24    2    3    3    0    0  0.97252712336E+02 -0.15952041556E+03 -0.18969993977E+03  0.27927569581E+03  0.84285194919E+02 0.  0.
         -6    2    1    2    0  502 -0.47819561606E+02  0.21399663333E+03 -0.17299337413E+04  0.17522345871E+04  0.17197101282E+03 0.  0.
        -24    2    5    5    0    0 -0.11181986177E+02  0.91028241562E+02 -0.43369558919E+03  0.44965292962E+03  0.75397052052E+02 0.  0.
          5    1    3    3  501    0 -0.49433150730E+02 -0.54476217767E+02 -0.69223559343E+02  0.10112015556E+03  0.47000000000E+01 0. -1.
        -11    1    4    4    0    0 -0.32411542156E+01 -0.54924891793E+02 -0.26939964617E+02  0.61261819371E+02  0.00000000000E+00 0.  1.
         12    1    4    4    0    0  0.10049386655E+03 -0.10459552377E+03 -0.16275997515E+03  0.21801387644E+03  0.00000000000E+00 0. -1.
         -5    1    5    5    0  502 -0.36637575429E+02  0.12296839176E+03 -0.12962381521E+04  0.13025816574E+04  0.47000000000E+01 0.  1.
         13    1    6    6    0    0  0.23289336180E+02  0.95385807008E+01 -0.51124626762E+02  0.56983376199E+02  0.00000000000E+00 0. -1.
        -14    1    6    6    0    0 -0.34471322357E+02  0.81489660861E+02 -0.38257096242E+03  0.39266955342E+03  0.00000000000E+00 0.  1.
</event>
<event>
12    1  0.9962621E-001  0.1746499E+03  0.7818608E-02  0.1173987E+00
         21   -1    0    0  503  502  0.00000000000E+00  0.00000000000E+00  0.13441294341E+03  0.13441294341E+03  0.00000000000E+00 0.  1.
         21   -1    0    0  501  503 -0.00000000000E+00 -0.00000000000E+00 -0.25262936104E+03  0.25262936104E+03  0.00000000000E+00 0.  1.
          6    2    1    2  501    0  0.23095245565E+02  0.23947695903E+02 -0.12664311121E+03  0.21573381968E+03  0.17145180323E+03 0.  0.
         24    2    3    3    0    0  0.52676017981E+02 -0.15819523379E+02 -0.20546598800E+02  0.98537344596E+02  0.79135487409E+02 0.  0.
         -6    2    1    2    0  502 -0.23095245565E+02 -0.23947695903E+02  0.84266935755E+01  0.17130848477E+03  0.16783535171E+03 0.  0.
        -24    2    5    5    0    0  0.19314480402E+02 -0.69124322210E+02 -0.85545100432E+01  0.10688827290E+03  0.78744537380E+02 0.  0.
          5    1    3    3  501    0 -0.29580772415E+02  0.39767219283E+02 -0.10609651241E+03  0.11719647509E+03  0.47000000000E+01 0. -1.
        -13    1    4    4    0    0  0.26596307649E+02 -0.47998250095E+02 -0.97569810801E+01  0.55735036311E+02  0.00000000000E+00 0.  1.
         14    1    4    4    0    0  0.26079710331E+02  0.32178726716E+02 -0.10789617720E+02  0.42802308285E+02  0.00000000000E+00 0. -1.
         -5    1    5    5    0  502 -0.42409725967E+02  0.45176626306E+02  0.16981203619E+02  0.64420211870E+02  0.47000000000E+01 0.  1.
         11    1    6    6    0    0 -0.22668471851E+02 -0.52238499580E+02 -0.19749721850E+02  0.60272481014E+02  0.00000000000E+00 0. -1.
        -12    1    6    6    0    0  0.41982952253E+02 -0.16885822630E+02  0.11195211807E+02  0.46615791886E+02  0.00000000000E+00 0.  1.
</event>
<event>
12    1  0.9962621E-001  0.1827233E+03  0.7818608E-02  0.1165473E+00
         21   -1    0    0  501  502  0.00000000000E+00  0.00000000000E+00  0.32036517968E+02  0.32036517968E+02  0.00000000000E+00 0.  1.
         21   -1    0    0  502  503 -0.00000000000E+00 -0.00000000000E+00 -0.10615628335E+04  0.10615628335E+04  0.00000000000E+00 0.  1.
         -6    2    1    2    0  503  0.16357772473E+02 -0.60061525747E+02 -0.42745395885E+03  0.46441025465E+03  0.17054334960E+03 0.  0.
        -24    2    3    3    0    0  0.25216807838E+02 -0.85034566862E+02 -0.18153768728E+03  0.21702586163E+03  0.79230851014E+02 0.  0.
          6    2    1    2  501    0 -0.16357772473E+02  0.60061525747E+02 -0.60207235670E+03  0.62918909683E+03  0.17179299543E+03 0.  0.
         24    2    5    5    0    0  0.23444643133E+02  0.18151422518E+02 -0.52957984940E+03  0.53635622197E+03  0.79649573283E+02 0.  0.
          5    1    5    5  501    0 -0.39802415606E+02  0.41910103230E+02 -0.72492507295E+02  0.92832874860E+02  0.47000000000E+01 0. -1.
        -13    1    6    6    0    0  0.23022974202E+01 -0.57247303542E+01 -0.36479453435E+00  0.61811152790E+01  0.00000000000E+00 0.  1.
         14    1    6    6    0    0  0.21142345713E+02  0.23876152872E+02 -0.52921505487E+03  0.53017510669E+03  0.00000000000E+00 0. -1.
         -5    1    3    3    0  503 -0.88590353649E+01  0.24973041114E+02 -0.24591627157E+03  0.24738439302E+03  0.47000000000E+01 0.  1.
         11    1    4    4    0    0  0.16281484742E+02 -0.96563032984E+02 -0.17602964373E+03  0.20143470793E+03  0.00000000000E+00 0. -1.
        -12    1    4    4    0    0  0.89353230965E+01  0.11528466123E+02 -0.55080435482E+01  0.15591153700E+02  0.00000000000E+00 0.  1.
</event>
<event>
12    1  0.9962621E-001  0.3675446E+03  0.7818608E-02  0.1055807E+00
         21   -1    0    0  501  502  0.00000000000E+00  0.00000000000E+00  0.22810679377E+03  0.22810679377E+03  0.00000000000E+00 0.  1.
         21   -1    0    0  502  503 -0.00000000000E+00 -0.00000000000E+00 -0.87097613533E+03  0.87097613533E+03  0.00000000000E+00 0.  1.
         -6    2    1    2    0  503 -0.26812416353E+03  0.18329806145E+03 -0.84308893893E+01  0.36587003438E+03  0.16822917631E+03 0.  0.
        -24    2    3    3    0    0 -0.14983727366E+03  0.13788614892E+03 -0.62005175456E+02  0.22822438701E+03  0.82328187142E+02 0.  0.
          6    2    1    2  501    0  0.26812416353E+03 -0.18329806145E+03 -0.63443845216E+03  0.73321289472E+03  0.17204724060E+03 0.  0.
         24    2    5    5    0    0  0.13416626273E+03 -0.13032394560E+03 -0.48498335859E+03  0.52558367921E+03  0.77745925243E+02 0.  0.
          5    1    5    5  501    0  0.13395790080E+03 -0.52974115852E+02 -0.14945509357E+03  0.20762921551E+03  0.47000000000E+01 0. -1.
        -13    1    6    6    0    0  0.21355381262E+02 -0.15467822863E+02 -0.16803953720E+03  0.17009583156E+03  0.00000000000E+00 0.  1.
         14    1    6    6    0    0  0.11281088147E+03 -0.11485612273E+03 -0.31694382139E+03  0.35548784765E+03  0.00000000000E+00 0. -1.
         -5    1    3    3    0  503 -0.11828688987E+03  0.45411912531E+02  0.53574286067E+02  0.13764564738E+03  0.47000000000E+01 0.  1.
         11    1    4    4    0    0 -0.72687414079E+02  0.15767084787E+02 -0.11844264040E+02  0.75314990001E+02  0.00000000000E+00 0. -1.
        -12    1    4    4    0    0 -0.77149859585E+02  0.12211906413E+03 -0.50160911416E+02  0.15290939700E+03  0.00000000000E+00 0.  1.
</event>
<event>
12    1  0.9962621E-001  0.2023580E+03  0.7818608E-02  0.1148437E+00
         21   -1    0    0  503  502  0.00000000000E+00  0.00000000000E+00  0.39920331233E+02  0.39920331233E+02  0.00000000000E+00 0.  1.
         21   -1    0    0  501  503 -0.00000000000E+00 -0.00000000000E+00 -0.12542781244E+04  0.12542781244E+04  0.00000000000E+00 0.  1.
          6    2    1    2  501    0 -0.82906507160E+02 -0.55789792671E+02 -0.88909556893E+03  0.91112628684E+03  0.17226198067E+03 0.  0.
         24    2    3    3    0    0 -0.95698088313E+02 -0.67579463025E+02 -0.45165040112E+03  0.47331013169E+03  0.79431026643E+02 0.  0.
         -6    2    1    2    0  502  0.82906507160E+02  0.55789792671E+02 -0.32526222427E+03  0.38307216882E+03  0.17596244513E+03 0.  0.
        -24    2    5    5    0    0 -0.97744076449E+01  0.65924822148E+02 -0.20759023244E+03  0.23286811278E+03  0.81806064106E+02 0.  0.
          5    1    3    3  501    0  0.12791581152E+02  0.11789670354E+02 -0.43744516781E+03  0.43781615516E+03  0.47000000000E+01 0. -1.
        -11    1    4    4    0    0 -0.28070032986E+02  0.16352641468E+02 -0.13353990558E+03  0.13743450083E+03  0.00000000000E+00 0.  1.
         12    1    4    4    0    0 -0.67628055327E+02 -0.83932104493E+02 -0.31811049554E+03  0.33587563086E+03  0.00000000000E+00 0. -1.
         -5    1    5    5    0  502  0.92680914805E+02 -0.10135029477E+02 -0.11767199182E+03  0.15020405604E+03  0.47000000000E+01 0.  1.
         11    1    6    6    0    0 -0.14437555055E+02  0.45678373851E+02 -0.35745702668E+02  0.59772168213E+02  0.00000000000E+00 0. -1.
        -12    1    6    6    0    0  0.46631474096E+01  0.20246448297E+02 -0.17184452978E+03  0.17309594457E+03  0.00000000000E+00 0.  1.
</event>
<event>
12    1  0.9962621E-001  0.1757091E+03  0.7818608E-02  0.1172248E+00
         21   -1    0    0  501  502  0.00000000000E+00  0.00000000000E+00  0.46797394868E+02  0.46797394868E+02  0.00000000000E+00 0. -1.
         21   -1    0    0  502  503 -0.00000000000E+00 -0.00000000000E+00 -0.78531308583E+03  0.78531308583E+03  0.00000000000E+00 0. -1.
         -6    2    1    2    0  503 -0.34987322227E+02 -0.73589451550E+01 -0.19985308624E+03  0.26551443426E+03  0.17110929819E+03 0.  0.
        -24    2    3    3    0    0 -0.82041384403E+02 -0.34082839396E+02 -0.15404779130E+03  0.19446187389E+03  0.78690975941E+02 0.  0.
          6    2    1    2  501    0  0.34987322227E+02  0.73589451550E+01 -0.53866260472E+03  0.56659604644E+03  0.17203316926E+03 0.  0.
         24    2    5    5    0    0  0.73824389821E+02 -0.16141631643E+02 -0.47728447136E+03  0.49011101402E+03  0.81839762094E+02 0.  0.
          5    1    5    5  501    0 -0.38837067594E+02  0.23500576798E+02 -0.61378133363E+02  0.76485032420E+02  0.47000000000E+01 0. -1.
        -13    1    6    6    0    0  0.86525682733E+02 -0.24847661795E+02 -0.33117476793E+03  0.34319211382E+03  0.00000000000E+00 0.  1.
         14    1    6    6    0    0 -0.12701292912E+02  0.87060301516E+01 -0.14610970342E+03  0.14691890020E+03  0.00000000000E+00 0. -1.
         -5    1    3    3    0  503  0.47054062176E+02  0.26723894241E+02 -0.45805294938E+02  0.71052560369E+02  0.47000000000E+01 0.  1.
         13    1    4    4    0    0 -0.85197565969E+02 -0.87269243700E+01 -0.14286814833E+03  0.16657158300E+03  0.00000000000E+00 0. -1.
        -14    1    4    4    0    0  0.31561815656E+01 -0.25355915026E+02 -0.11179642976E+02  0.27890290890E+02  0.00000000000E+00 0.  1.
</event>
<event>
12    1  0.9962621E-001  0.2657567E+03  0.7818608E-02  0.1104370E+00
         21   -1    0    0  503  502  0.00000000000E+00  0.00000000000E+00  0.56668600535E+02  0.56668600535E+02  0.00000000000E+00 0. -1.
         21   -1    0    0  501  503 -0.00000000000E+00 -0.00000000000E+00 -0.15470861903E+04  0.15470861903E+04  0.00000000000E+00 0. -1.
          6    2    1    2  501    0  0.18496098582E+03  0.70562024996E+02 -0.38481914198E+03  0.46766694332E+03  0.17730491304E+03 0.  0.
         24    2    3    3    0    0  0.22440260997E+02  0.18049967713E+02 -0.17113411250E+03  0.19407256476E+03  0.86878704413E+02 0.  0.
         -6    2    1    2    0  502 -0.18496098582E+03 -0.70562024996E+02 -0.11055984478E+04  0.11360878476E+04  0.17075744170E+03 0.  0.
        -24    2    5    5    0    0 -0.44987507717E+02  0.16715036509E+02 -0.48963350971E+03  0.49840081223E+03  0.79744137774E+02 0.  0.
          5    1    3    3  501    0  0.16252072482E+03  0.52512057283E+02 -0.21368502948E+03  0.27359437856E+03  0.47000000000E+01 0. -1.
        -13    1    4    4    0    0  0.34637695470E+02 -0.25885944676E+02 -0.60092753503E+02  0.74033715987E+02  0.00000000000E+00 0.  1.
         14    1    4    4    0    0 -0.12197434473E+02  0.43935912389E+02 -0.11104135900E+03  0.12003884877E+03  0.00000000000E+00 0. -1.
         -5    1    5    5    0  502 -0.13997347810E+03 -0.87277061505E+02 -0.61596493812E+03  0.63768703533E+03  0.47000000000E+01 0.  1.
         13    1    6    6    0    0 -0.68194748587E+02  0.14210050848E+02 -0.35815109385E+03  0.36486251562E+03  0.00000000000E+00 0. -1.
        -14    1    6    6    0    0  0.23207240870E+02  0.25049856609E+01 -0.13148241586E+03  0.13353829661E+03  0.00000000000E+00 0.  1.
</event>
<event>
12    1  0.9962621E-001  0.5927127E+03  0.7818608E-02  0.9921813E-01
         21   -1    0    0  501  502  0.00000000000E+00  0.00000000000E+00  0.10100623040E+04  0.10100623040E+04  0.00000000000E+00 0. -1.
         21   -1    0    0  502  503 -0.00000000000E+00 -0.00000000000E+00 -0.43342092249E+03  0.43342092249E+03  0.00000000000E+00 0. -1.
         -6    2    1    2    0  503  0.37813312890E+03  0.42026796917E+03  0.61195245660E+03  0.85193552207E+03  0.17804071316E+03 0.  0.
        -24    2    3    3    0    0  0.19896850310E+03  0.12726499692E+03  0.24748961299E+03  0.35113021134E+03  0.79097864127E+02 0.  0.
          6    2    1    2  501    0 -0.37813312890E+03 -0.42026796917E+03 -0.35311075074E+02  0.59154770444E+03  0.17050508943E+03 0.  0.
         24    2    5    5    0    0 -0.34421608529E+03 -0.38003420224E+03 -0.76638338665E+02  0.52447196691E+03  0.79288718499E+02 0.  0.
          5    1    5    5  501    0 -0.33917043616E+02 -0.40233766935E+02  0.41327263591E+02  0.67075737531E+02  0.47000000000E+01 0. -1.
        -11    1    6    6    0    0 -0.30475544232E+03 -0.35854086324E+03 -0.86558125200E+02  0.47845557712E+03  0.00000000000E+00 0.  1.
         12    1    6    6    0    0 -0.39460642966E+02 -0.21493338995E+02  0.99197865359E+01  0.46016389791E+02  0.00000000000E+00 0. -1.
         -5    1    3    3    0  503  0.17916462580E+03  0.29300297225E+03  0.36446284361E+03  0.50080531074E+03  0.47000000000E+01 0.  1.
         11    1    4    4    0    0  0.69316376658E+02  0.82174653363E+01  0.97284556217E+02  0.11973542370E+03  0.00000000000E+00 0. -1.
        -12    1    4    4    0    0  0.12965212644E+03  0.11904753158E+03  0.15020505677E+03  0.23139478764E+03  0.00000000000E+00 0.  1.
</event>
<event>
12    1  0.9962621E-001  0.4433716E+03  0.7818608E-02  0.1029743E+00
         21   -1    0    0  501  502  0.00000000000E+00  0.00000000000E+00  0.67540455569E+03  0.67540455569E+03  0.00000000000E+00 0.  1.
         21   -1    0    0  502  503 -0.00000000000E+00 -0.00000000000E+00 -0.34092703209E+03  0.34092703209E+03  0.00000000000E+00 0.  1.
         -6    2    1    2    0  503  0.40871667168E+03  0.31456135617E+01  0.36209403420E+03  0.57244253908E+03  0.17181140343E+03 0.  0.
        -24    2    3    3    0    0  0.20061063729E+03  0.22143495719E+02  0.10573538594E+03  0.24166937267E+03  0.80555270788E+02 0.  0.
          6    2    1    2  501    0 -0.40871667168E+03 -0.31456135617E+01 -0.27616510600E+02  0.44388904870E+03  0.17092572451E+03 0.  0.
         24    2    5    5    0    0 -0.40237113305E+03  0.17596060825E+02 -0.48566688130E+02  0.41336884464E+03  0.79390984754E+02 0.  0.
          5    1    5    5  501    0 -0.63455386382E+01 -0.20741674387E+02  0.20950177530E+02  0.30520204055E+02  0.47000000000E+01 0. -1.
        -13    1    6    6    0    0 -0.71934606420E+01  0.21861536685E+01  0.11108799260E+02  0.13413819921E+02  0.00000000000E+00 0.  1.
         14    1    6    6    0    0 -0.39517767240E+03  0.15409907157E+02 -0.59675487390E+02  0.39995502472E+03  0.00000000000E+00 0. -1.
         -5    1    3    3    0  503  0.20810603439E+03 -0.18997882158E+02  0.25635864826E+03  0.33077316641E+03  0.47000000000E+01 0.  1.
         11    1    4    4    0    0  0.13430015401E+03  0.25997882891E+02  0.10938034745E+03  0.17514702878E+03  0.00000000000E+00 0. -1.
        -12    1    4    4    0    0  0.66310483277E+02 -0.38543871712E+01 -0.36449615045E+01  0.66522343894E+02  0.00000000000E+00 0.  1.
</event>
<event>
12    1  0.9962621E-001  0.2065990E+03  0.7818608E-02  0.1145702E+00
         21   -1    0    0  501  502  0.00000000000E+00  0.00000000000E+00  0.21171867793E+03  0.21171867793E+03  0.00000000000E+00 0.  1.
         21   -1    0    0  502  503 -0.00000000000E+00 -0.00000000000E+00 -0.22300512988E+03  0.22300512988E+03  0.00000000000E+00 0.  1.
         -6    2    1    2    0  503  0.81623709606E+02 -0.62403427109E+02 -0.82635684599E+02  0.21615150056E+03  0.17127812803E+03 0.  0.
        -24    2    3    3    0    0  0.13326178442E+02 -0.94806479264E+02 -0.53086623273E+02  0.13485114646E+03  0.78745073428E+02 0.  0.
          6    2    1    2  501    0 -0.81623709606E+02  0.62403427109E+02  0.71349232650E+02  0.21857230725E+03  0.17923873134E+03 0.  0.
         24    2    5    5    0    0  0.19207499747E+02 -0.88586391803E+01  0.38491674129E+02  0.90717217307E+02  0.79376325211E+02 0.  0.
          5    1    5    5  501    0 -0.10083120935E+03  0.71262066290E+02  0.32857558522E+02  0.12785508994E+03  0.47000000000E+01 0. -1.
        -13    1    6    6    0    0 -0.17929521432E+00  0.49946516919E+01 -0.23645574899E+02  0.24167993392E+02  0.00000000000E+00 0.  1.
         14    1    6    6    0    0  0.19386794962E+02 -0.13853290872E+02  0.62137249028E+02  0.66549223915E+02  0.00000000000E+00 0. -1.
         -5    1    3    3    0  503  0.68297531164E+02  0.32403052155E+02 -0.29549061326E+02  0.81300354103E+02  0.47000000000E+01 0.  1.
         13    1    4    4    0    0 -0.30665950562E+02 -0.61052916480E+02 -0.33020132969E+02  0.75882727388E+02  0.00000000000E+00 0. -1.
        -14    1    4    4    0    0  0.43992129004E+02 -0.33753562784E+02 -0.20066490304E+02  0.58968419074E+02  0.00000000000E+00 0.  1.
</event>
<event>
12    1  0.9962621E-001  0.2309702E+03  0.7818608E-02  0.1129528E+00
         21   -1    0    0  501  502  0.00000000000E+00  0.00000000000E+00  0.94458637375E+02  0.94458637375E+02  0.00000000000E+00 0. -1.
         21   -1    0    0  502  503 -0.00000000000E+00 -0.00000000000E+00 -0.59653915822E+03  0.59653915822E+03  0.00000000000E+00 0. -1.
         -6    2    1    2    0  503  0.70971816902E+02  0.10225963198E+03 -0.38573569704E+03  0.44959899068E+03  0.19455897131E+03 0.  0.
        -24    2    3    3    0    0 -0.62083394913E+01  0.94023939694E+02 -0.33391191301E+03  0.35615169131E+03  0.80422738418E+02 0.  0.
          6    2    1    2  501    0 -0.70971816902E+02 -0.10225963198E+03 -0.11634482380E+03  0.24139880492E+03  0.17100653164E+03 0.  0.
         24    2    5    5    0    0 -0.38810762774E+02 -0.80173277771E+02  0.10388199328E+01  0.11761209213E+03  0.76795151499E+02 0.  0.
          5    1    5    5  501    0 -0.32161054128E+02 -0.22086354209E+02 -0.11738364374E+03  0.12378671278E+03  0.47000000000E+01 0. -1.
        -11    1    6    6    0    0 -0.41054449679E+02 -0.61343428688E+02 -0.31258151053E+02  0.80159566422E+02  0.00000000000E+00 0.  1.
         12    1    6    6    0    0  0.22436869049E+01 -0.18829849083E+02  0.32296970986E+02  0.37452525713E+02  0.00000000000E+00 0. -1.
         -5    1    3    3    0  503  0.77180156393E+02  0.82356922855E+01 -0.51823784029E+02  0.93447299369E+02  0.47000000000E+01 0.  1.
         11    1    4    4    0    0  0.29640053998E+02  0.14237074702E+02 -0.57594565350E+02  0.66320140643E+02  0.00000000000E+00 0. -1.
        -12    1    4    4    0    0 -0.35848393490E+02  0.79786864992E+02 -0.27631734766E+03  0.28983155067E+03  0.00000000000E+00 0.  1.
</event>
<event>
12    1  0.9962621E-001  0.2243412E+03  0.7818608E-02  0.1130978E+00
         21   -1    0    0  503  502  0.00000000000E+00  0.00000000000E+00  0.11178378406E+04  0.11178378406E+04  0.00000000000E+00 0.  1.
         21   -1    0    0  501  503 -0.00000000000E+00 -0.00000000000E+00 -0.66461297221E+02  0.66461297221E+02  0.00000000000E+00 0.  1.
          6    2    1    2  501    0  0.49338165850E+02  0.13494457780E+03  0.86322918216E+03  0.89150503725E+03  0.17021256360E+03 0.  0.
         24    2    3    3    0    0  0.52697336021E+02  0.75728894470E+02  0.77844175568E+03  0.78792521843E+03  0.79641121102E+02 0.  0.
         -6    2    1    2    0  502 -0.49338165850E+02 -0.13494457780E+03  0.18814736117E+03  0.29279410053E+03  0.17229237390E+03 0.  0.
        -24    2    5    5    0    0 -0.42436069752E+02 -0.14061206711E+03  0.21016706219E+03  0.26857186697E+03  0.79925466923E+02 0.  0.
          5    1    3    3  501    0 -0.33591701712E+01  0.59215683326E+02  0.84787426485E+02  0.10357981882E+03  0.47000000000E+01 0. -1.
        -11    1    4    4    0    0  0.64294789332E+01  0.14433201804E+02  0.46299665404E+03  0.46326618392E+03  0.00000000000E+00 0.  1.
         12    1    4    4    0    0  0.46267857088E+02  0.61295692665E+02  0.31544510164E+03  0.32465903451E+03  0.00000000000E+00 0. -1.
         -5    1    5    5    0  502 -0.69020960976E+01  0.56674893149E+01 -0.22019701023E+02  0.24222233563E+02  0.47000000000E+01 0.  1.
         13    1    6    6    0    0 -0.62886882382E+01 -0.20727799183E+02  0.98318027883E+02  0.10067583556E+03  0.00000000000E+00 0. -1.
        -14    1    6    6    0    0 -0.36147381514E+02 -0.11988426793E+03  0.11184903431E+03  0.16789603141E+03  0.00000000000E+00 0.  1.
</event>
<event>
12    1  0.9962621E-001  0.5588805E+03  0.7818608E-02  0.9994601E-01
         21   -1    0    0  501  502  0.00000000000E+00  0.00000000000E+00  0.37269626735E+03  0.37269626735E+03  0.00000000000E+00 0.  1.
         21   -1    0    0  502  503 -0.00000000000E+00 -0.00000000000E+00 -0.85298213759E+03  0.85298213759E+03  0.00000000000E+00 0. -1.
         -6    2    1    2    0  503 -0.51511345587E+03  0.13166380091E+03 -0.15905104595E+03  0.58105506555E+03  0.17219327833E+03 0.  0.
        -24    2    3    3    0    0 -0.48553793956E+03  0.90387843463E+02 -0.11354684291E+03  0.51270933912E+03  0.77851961316E+02 0.  0.
          6    2    1    2  501    0  0.51511345587E+03 -0.13166380091E+03 -0.32123482429E+03  0.64462333938E+03  0.17225042367E+03 0.  0.
         24    2    5    5    0    0  0.17085286214E+03 -0.43411057017E+00 -0.80541499933E+02  0.20451885814E+03  0.78422835771E+02 0.  0.
          5    1    5    5  501    0  0.34426059373E+03 -0.13122969034E+03 -0.24069332435E+03  0.44010448124E+03  0.47000000000E+01 0. -1.
        -13    1    6    6    0    0  0.12706849499E+03 -0.14644187861E+01 -0.18263091578E+02  0.12838258236E+03  0.00000000000E+00 0.  1.
         14    1    6    6    0    0  0.43784367155E+02  0.10303082160E+01 -0.62278408354E+02  0.76136275778E+02  0.00000000000E+00 0. -1.
         -5    1    3    3    0  503 -0.29575516305E+02  0.41275957443E+02 -0.45504203044E+02  0.68345726437E+02  0.47000000000E+01 0.  1.
         11    1    4    4    0    0 -0.17952695885E+03  0.21222780685E+02 -0.53833758282E+01  0.18085717047E+03  0.00000000000E+00 0. -1.
        -12    1    4    4    0    0 -0.30601098071E+03  0.69165062778E+02 -0.10816346708E+03  0.33185216865E+03  0.00000000000E+00 0.  1.
</event>
<event>
12    1  0.9962621E-001  0.2251879E+03  0.7818608E-02  0.1130142E+00
         21   -1    0    0  503  502  0.00000000000E+00  0.00000000000E+00  0.18342319765E+03  0.18342319765E+03  0.00000000000E+00 0.  1.
         21   -1    0    0  501  503 -0.00000000000E+00 -0.00000000000E+00 -0.30291371221E+03  0.30291371221E+03  0.00000000000E+00 0.  1.
          6    2    1    2  501    0 -0.50908460025E+02  0.13419066101E+03  0.12696839538E+02  0.22554552256E+03  0.17352454641E+03 0.  0.
         24    2    3    3    0    0 -0.53686844101E+02  0.10631392135E+03 -0.54248260193E+02  0.15282297853E+03  0.78911735059E+02 0.  0.
         -6    2    1    2    0  502  0.50908460025E+02 -0.13419066101E+03 -0.13218735410E+03  0.26079138730E+03  0.17303134485E+03 0.  0.
        -24    2    5    5    0    0  0.85834667233E+02 -0.38502844291E+02 -0.76375319540E+02  0.14454565009E+03  0.78804799389E+02 0.  0.
          5    1    3    3  501    0  0.27783840759E+01  0.27876739661E+02  0.66945099731E+02  0.72722544030E+02  0.47000000000E+01 0. -1.
        -11    1    4    4    0    0  0.18565822410E+02  0.23404678545E+02 -0.25183169783E+02  0.39072506701E+02  0.00000000000E+00 0.  1.
         12    1    4    4    0    0 -0.72252666511E+02  0.82909242802E+02 -0.29065090410E+02  0.11375047183E+03  0.00000000000E+00 0. -1.
         -5    1    5    5    0  502 -0.34926207208E+02 -0.95687816717E+02 -0.55812034561E+02  0.11624573721E+03  0.47000000000E+01 0.  1.
         11    1    6    6    0    0  0.30239514470E+02 -0.55788412169E+02 -0.30409297783E+02  0.70366899601E+02  0.00000000000E+00 0. -1.
        -12    1    6    6    0    0  0.55595152763E+02  0.17285567878E+02 -0.45966021757E+02  0.74178750486E+02  0.00000000000E+00 0.  1.
</event>
<event>
12    1  0.9962621E-001  0.4508670E+03  0.7818608E-02  0.1027654E+00
         21   -1    0    0  503  502  0.00000000000E+00  0.00000000000E+00  0.22140399986E+03  0.22140399986E+03  0.00000000000E+00 0. -1.
         21   -1    0    0  501  503 -0.00000000000E+00 -0.00000000000E+00 -0.15450912224E+04  0.15450912224E+04  0.00000000000E+00 0.  1.
          6    2    1    2  501    0 -0.15267952241E+02  0.41489501038E+03 -0.95784301618E+02  0.45843306709E+03  0.16916046984E+03 0.  0.
         24    2    3    3    0    0 -0.67942711661E+02  0.19707788833E+03 -0.37875883344E+02  0.22692841520E+03  0.81277407368E+02 0.  0.
         -6    2    1    2    0  502  0.15267952241E+02 -0.41489501038E+03 -0.12279029209E+04  0.13080621552E+04  0.17581250967E+03 0.  0.
        -24    2    5    5    0    0  0.27063230030E+02 -0.30151175080E+03 -0.10592762320E+04  0.11044646543E+04  0.78321661600E+02 0.  0.
          5    1    3    3  501    0  0.52674759420E+02  0.21781712205E+03 -0.57908418274E+02  0.23150465189E+03  0.47000000000E+01 0. -1.
        -13    1    4    4    0    0 -0.10229258093E+02  0.67674229631E+02  0.23708782228E+02  0.72433041024E+02  0.00000000000E+00 0.  1.
         14    1    4    4    0    0 -0.57713453568E+02  0.12940365870E+03 -0.61584665571E+02  0.15449537418E+03  0.00000000000E+00 0. -1.
         -5    1    5    5    0  502 -0.11795277789E+02 -0.11338325958E+03 -0.16862668891E+03  0.20359750082E+03  0.47000000000E+01 0.  1.
         13    1    6    6    0    0  0.51656892406E+02 -0.13840035856E+03 -0.49602163831E+03  0.51755247024E+03  0.00000000000E+00 0. -1.
        -14    1    6    6    0    0 -0.24593662376E+02 -0.16311139225E+03 -0.56325459370E+03  0.58691218409E+03  0.00000000000E+00 0.  1.
</event>
<event>
12    1  0.9962621E-001  0.1796836E+03  0.7818608E-02  0.1168173E+00
         21   -1    0    0  501  502  0.00000000000E+00  0.00000000000E+00  0.31227372235E+03  0.31227372235E+03  0.00000000000E+00 0. -1.
         21   -1    0    0  502  503 -0.00000000000E+00 -0.00000000000E+00 -0.10484840660E+03  0.10484840660E+03  0.00000000000E+00 0. -1.
         -6    2    1    2    0  503  0.24307665649E+02 -0.44889297452E+02  0.12960767665E+03  0.22154990035E+03  0.17227970531E+03 0.  0.
        -24    2    3    3    0    0 -0.23018914199E+02 -0.86854632405E+02  0.67469279632E+02  0.13275708036E+03  0.70701775862E+02 0.  0.
          6    2    1    2  501    0 -0.24307665649E+02  0.44889297452E+02  0.77817639103E+02  0.19557222861E+03  0.17200872074E+03 0.  0.
         24    2    5    5    0    0  0.28635232166E+01 -0.21093434257E+02 -0.69098881849E+01  0.84699155823E+02  0.81688846903E+02 0.  0.
          5    1    5    5  501    0 -0.27171188866E+02  0.65982731708E+02  0.84727527288E+02  0.11087307278E+03  0.47000000000E+01 0. -1.
        -11    1    6    6    0    0  0.29754474361E+01  0.19920157881E+02 -0.31122824166E+02  0.37071500664E+02  0.00000000000E+00 0.  1.
         12    1    6    6    0    0 -0.11192421947E+00 -0.41013592137E+02  0.24212935981E+02  0.47627655158E+02  0.00000000000E+00 0. -1.
         -5    1    3    3    0  503  0.47326579848E+02  0.41965334953E+02  0.62138397016E+02  0.88792819989E+02  0.47000000000E+01 0.  1.
         11    1    4    4    0    0 -0.28907623152E+02 -0.43370219977E+02 -0.18064725972E+00  0.52121581812E+02  0.00000000000E+00 0. -1.
        -12    1    4    4    0    0  0.58887089531E+01 -0.43484412428E+02  0.67649926892E+02  0.80635498547E+02  0.00000000000E+00 0.  1.
</event>
<event>
12    1  0.9962621E-001  0.4204662E+03  0.7818608E-02  0.1037501E+00
         21   -1    0    0  501  502  0.00000000000E+00  0.00000000000E+00  0.33486255061E+03  0.33486255061E+03  0.00000000000E+00 0. -1.
         21   -1    0    0  502  503 -0.00000000000E+00 -0.00000000000E+00 -0.52255805822E+03  0.52255805822E+03  0.00000000000E+00 0. -1.
         -6    2    1    2    0  503 -0.69870617524E+02  0.36874337857E+03 -0.12837388204E+03  0.43279030547E+03  0.17313004500E+03 0.  0.
        -24    2    3    3    0    0 -0.10882001575E+03  0.31477939815E+03 -0.12582983305E+03  0.36602407905E+03  0.84927111286E+02 0.  0.
          6    2    1    2  501    0  0.69870617524E+02 -0.36874337857E+03 -0.59321625572E+02  0.42463030336E+03  0.18957388228E+03 0.  0.
         24    2    5    5    0    0  0.35407961182E+02 -0.16438381429E+03  0.46490092740E+02  0.19188856682E+03  0.79900758690E+02 0.  0.
          5    1    5    5  501    0  0.34462656342E+02 -0.20435956428E+03 -0.10581171831E+03  0.23274173654E+03  0.47000000000E+01 0. -1.
        -13    1    6    6    0    0  0.49742705246E+02 -0.16048977612E+03  0.31814062764E+02  0.17100713305E+03  0.00000000000E+00 0.  1.
         14    1    6    6    0    0 -0.14334744064E+02 -0.38940381703E+01  0.14676029976E+02  0.20881433775E+02  0.00000000000E+00 0. -1.
         -5    1    3    3    0  503  0.38949398221E+02  0.53963980417E+02 -0.25440489875E+01  0.66766226413E+02  0.47000000000E+01 0.  1.
         13    1    4    4    0    0 -0.23337630451E+02  0.10644853315E+03 -0.19116521826E+01  0.10899353017E+03  0.00000000000E+00 0. -1.
        -14    1    4    4    0    0 -0.85482385294E+02  0.20833086501E+03 -0.12391818087E+03  0.25703054888E+03  0.00000000000E+00 0.  1.
</event>
<event>
12    1  0.9962621E-001  0.2429897E+03  0.7818608E-02  0.1118037E+00
         21   -1    0    0  501  502  0.00000000000E+00  0.00000000000E+00  0.16569449819E+04  0.16569449819E+04  0.00000000000E+00 0.  1.
         21   -1    0    0  502  503 -0.00000000000E+00 -0.00000000000E+00 -0.45857421212E+02  0.45857421212E+02  0.00000000000E+00 0.  1.
         -6    2    1    2    0  503 -0.17059828700E+03 -0.10153657314E+02  0.12096567136E+04  0.12335575578E+04  0.17084499240E+03 0.  0.
        -24    2    3    3    0    0 -0.37322172859E+02  0.28206008419E+02  0.66832029421E+03  0.67471840788E+03  0.80027437665E+02 0.  0.
          6    2    1    2  501    0  0.17059828700E+03  0.10153657314E+02  0.40143084711E+03  0.46924484530E+03  0.17273426861E+03 0.  0.
         24    2    5    5    0    0  0.58626387920E+02 -0.33544079815E+02  0.98116110049E+02  0.14294878629E+03  0.79027373733E+02 0.  0.
          5    1    5    5  501    0  0.11197189908E+03  0.43697737130E+02  0.30331473706E+03  0.32629605902E+03  0.47000000000E+01 0. -1.
        -11    1    6    6    0    0  0.32652672982E+02 -0.30815308117E+02  0.10645309773E+03  0.11553372790E+03  0.00000000000E+00 0.  1.
         12    1    6    6    0    0  0.25973714938E+02 -0.27287716988E+01 -0.83369876808E+01  0.27415058385E+02  0.00000000000E+00 0. -1.
         -5    1    3    3    0  503 -0.13327611414E+03 -0.38359665734E+02  0.54133641938E+03  0.55883914994E+03  0.47000000000E+01 0.  1.
         11    1    4    4    0    0 -0.46806908957E+02  0.38511793072E+02  0.29639088845E+03  0.30252537693E+03  0.00000000000E+00 0. -1.
        -12    1    4    4    0    0  0.94847360972E+01 -0.10305784652E+02  0.37192940576E+03  0.37219303094E+03  0.00000000000E+00 0.  1.
</event>
<event>
12    1  0.9962621E-001  0.1790794E+03  0.7818608E-02  0.1169806E+00
         21   -1    0    0  501  502  0.00000000000E+00  0.00000000000E+00  0.15299497293E+03  0.15299497293E+03  0.00000000000E+00 0. -1.
         21   -1    0    0  502  503 -0.00000000000E+00 -0.00000000000E+00 -0.25922350935E+03  0.25922350935E+03  0.00000000000E+00 0. -1.
         -6    2    1    2    0  503  0.26364226918E+02 -0.11763070096E+02 -0.14737380251E+03  0.22847315154E+03  0.17218449706E+03 0.  0.
        -24    2    3    3    0    0 -0.49183262656E+02 -0.12901221505E+02 -0.10651761181E+03  0.14244968446E+03  0.79752593277E+02 0.  0.
          6    2    1    2  501    0 -0.26364226918E+02  0.11763070096E+02  0.41145266088E+02  0.18374533075E+03  0.17673701189E+03 0.  0.
         24    2    5    5    0    0 -0.32671872509E+01  0.73541254238E+02  0.48388799021E+01  0.10831151237E+03  0.79303079168E+02 0.  0.
          5    1    5    5  501    0 -0.23097039667E+02 -0.61778184143E+02  0.36306386186E+02  0.75433818379E+02  0.47000000000E+01 0. -1.
        -13    1    6    6    0    0 -0.29836195926E+02  0.39033420942E+02 -0.25384310217E+02  0.55300720998E+02  0.00000000000E+00 0.  1.
         14    1    6    6    0    0  0.26569008675E+02  0.34507833297E+02  0.30223190119E+02  0.53010791371E+02  0.00000000000E+00 0. -1.
         -5    1    3    3    0  503  0.75547489574E+02  0.11381514089E+01 -0.40856190699E+02  0.86023467077E+02  0.47000000000E+01 0.  1.
         11    1    4    4    0    0  0.61375098571E+01  0.23577970688E+02 -0.48919182790E+02  0.54650491067E+02  0.00000000000E+00 0. -1.
        -12    1    4    4    0    0 -0.55320772513E+02 -0.36479192192E+02 -0.57598429021E+02  0.87799193391E+02  0.00000000000E+00 0.  1.
</event>
<event>
12    1  0.9962621E-001  0.2338914E+03  0.7818608E-02  0.1124017E+00
         21   -1    0    0  503  502  0.00000000000E+00  0.00000000000E+00  0.21532754866E+03  0.21532754866E+03  0.00000000000E+00 0. -1.
         21   -1    0    0  501  503 -0.00000000000E+00 -0.00000000000E+00 -0.26512332973E+03  0.26512332973E+03  0.00000000000E+00 0. -1.
          6    2    1    2  501    0 -0.14479936859E+03 -0.62588022759E+02 -0.75200207603E+02  0.24568328113E+03  0.17268782720E+03 0.  0.
         24    2    3    3    0    0 -0.11125339138E+03 -0.55231735875E+02 -0.11874427995E+03  0.19002698067E+03  0.81130682353E+02 0.  0.
         -6    2    1    2    0  502  0.14479936859E+03  0.62588022759E+02  0.25404426529E+02  0.23476759726E+03  0.17200675015E+03 0.  0.
        -24    2    5    5    0    0 -0.19223055952E+00  0.96591560008E+01  0.95700892653E+01  0.79536012205E+02  0.78364879772E+02 0.  0.
          5    1    3    3  501    0 -0.33545977212E+02 -0.73562868841E+01  0.43544072349E+02  0.55656300457E+02  0.47000000000E+01 0. -1.
        -13    1    4    4    0    0 -0.11353850500E+03 -0.60589674037E+02 -0.81499529593E+02  0.15232949170E+03  0.00000000000E+00 0.  1.
         14    1    4    4    0    0  0.22851136128E+01  0.53579381621E+01 -0.37244750359E+02  0.37697488973E+02  0.00000000000E+00 0. -1.
         -5    1    5    5    0  502  0.14499159915E+03  0.52928866758E+02  0.15834337264E+02  0.15523158505E+03  0.47000000000E+01 0.  1.
         11    1    6    6    0    0 -0.18636460034E+02 -0.25756664483E+02  0.20878681118E+02  0.38034756909E+02  0.00000000000E+00 0. -1.
        -12    1    6    6    0    0  0.18444229475E+02  0.35415820484E+02 -0.11308591853E+02  0.41501255296E+02  0.00000000000E+00 0.  1.
</event>
<event>
12    1  0.9962621E-001  0.2133710E+03  0.7818608E-02  0.1138987E+00
         21   -1    0    0  501  502  0.00000000000E+00  0.00000000000E+00  0.13879438314E+03  0.13879438314E+03  0.00000000000E+00 0. -1.
         21   -1    0    0  502  503 -0.00000000000E+00 -0.00000000000E+00 -0.35323715665E+03  0.35323715665E+03  0.00000000000E+00 0. -1.
         -6    2    1    2    0  503  0.49335473171E+02  0.11571361747E+03 -0.40760700570E+02  0.21690856665E+03  0.17194261076E+03 0.  0.
        -24    2    3    3    0    0  0.28610618156E+02  0.14362954972E+02 -0.25843653994E+02  0.11228502875E+03  0.10447569709E+03 0.  0.
          6    2    1    2  501    0 -0.49335473171E+02 -0.11571361747E+03 -0.17368207295E+03  0.27512297314E+03  0.17234720103E+03 0.  0.
         24    2    5    5    0    0 -0.86337910548E+02 -0.11092715809E+03 -0.16849118426E+03  0.23716080920E+03  0.89982781960E+02 0.  0.
          5    1    5    5  501    0  0.37002437376E+02 -0.47864593764E+01 -0.51908886903E+01  0.37962163934E+02  0.47000000000E+01 0. -1.
        -13    1    6    6    0    0 -0.99481488606E+02 -0.64294031520E+02 -0.11911278177E+03  0.16798257007E+03  0.00000000000E+00 0.  1.
         14    1    6    6    0    0  0.13143578058E+02 -0.46633126575E+02 -0.49378402484E+02  0.69178239137E+02  0.00000000000E+00 0. -1.
         -5    1    3    3    0  503  0.20724855015E+02  0.10135066250E+03 -0.14917046576E+02  0.10462353790E+03  0.47000000000E+01 0.  1.
         11    1    4    4    0    0  0.78972382393E+01  0.57624036903E+02 -0.27404495571E+02  0.64295430462E+02  0.00000000000E+00 0. -1.
        -12    1    4    4    0    0  0.20713379917E+02 -0.43261081931E+02  0.15608415762E+01  0.47989598288E+02  0.00000000000E+00 0.  1.
</event>
<event>
12    1  0.9962621E-001  0.4128312E+03  0.7818608E-02  0.1039466E+00
         21   -1    0    0  501  502  0.00000000000E+00  0.00000000000E+00  0.60117389439E+03  0.60117389439E+03  0.00000000000E+00 0.  1.
         21   -1    0    0  502  503 -0.00000000000E+00 -0.00000000000E+00 -0.30859799210E+03  0.30859799210E+03  0.00000000000E+00 0.  1.
         -6    2    1    2    0  503 -0.57564970006E+02  0.37045561893E+03  0.27682388580E+03  0.49664027668E+03  0.17166539925E+03 0.  0.
        -24    2    3    3    0    0 -0.15283097810E+01  0.27038211798E+03  0.25430044967E+03  0.37966075686E+03  0.79779359132E+02 0.  0.
          6    2    1    2  501    0  0.57564970006E+02 -0.37045561893E+03  0.15752016490E+02  0.41313160981E+03  0.17285401248E+03 0.  0.
         24    2    5    5    0    0 -0.29844615815E+01 -0.73577403633E+02 -0.63387118001E+01  0.10930106714E+03  0.80523305159E+02 0.  0.
          5    1    5    5  501    0  0.60549431587E+02 -0.29687821530E+03  0.22090728291E+02  0.30383054267E+03  0.47000000000E+01 0. -1.
        -13    1    6    6    0    0 -0.45119539233E+01 -0.69309386416E+02  0.27836445083E+02  0.74826575817E+02  0.00000000000E+00 0.  1.
         14    1    6    6    0    0  0.15274923418E+01 -0.42680172169E+01 -0.34175156883E+02  0.34474491320E+02  0.00000000000E+00 0. -1.
         -5    1    3    3    0  503 -0.56036660225E+02  0.10007350095E+03  0.22523436130E+02  0.11697951982E+03  0.47000000000E+01 0.  1.
         11    1    4    4    0    0  0.16937755945E+02  0.48355703384E+02  0.16567312745E+02  0.53848282032E+02  0.00000000000E+00 0. -1.
        -12    1    4    4    0    0 -0.18466065726E+02  0.22202641459E+03  0.23773313692E+03  0.32581247482E+03  0.00000000000E+00 0.  1.
</event>
<event>
12    1  0.9962621E-001  0.2721092E+03  0.7818608E-02  0.1100119E+00
         21   -1    0    0  503  502  0.00000000000E+00  0.00000000000E+00  0.53174116997E+03  0.53174116997E+03  0.00000000000E+00 0. -1.
         21   -1    0    0  501  503 -0.00000000000E+00 -0.00000000000E+00 -0.19930195442E+03  0.19930195442E+03  0.00000000000E+00 0. -1.
          6    2    1    2  501    0 -0.21052477852E+03  0.62242037119E+01  0.36705106147E+03  0.45674147379E+03  0.17183384146E+03 0.  0.
         24    2    3    3    0    0 -0.19673885082E+03  0.29043619817E+01  0.38100755241E+03  0.43629772680E+03  0.80463287726E+02 0.  0.
         -6    2    1    2    0  502  0.21052477852E+03 -0.62242037119E+01 -0.34611845917E+02  0.27430165060E+03  0.17229043084E+03 0.  0.
        -24    2    5    5    0    0  0.15006850742E+03  0.52800211470E+02  0.11014907754E+02  0.17816251728E+03  0.79448946640E+02 0.  0.
          5    1    3    3  501    0 -0.13785927709E+02  0.33198417302E+01 -0.13956490941E+02  0.20443746997E+02  0.47000000000E+01 0. -1.
        -13    1    4    4    0    0 -0.24047228369E+02 -0.28074954630E+02  0.72971610601E+02  0.81800539261E+02  0.00000000000E+00 0.  1.
         14    1    4    4    0    0 -0.17269162245E+03  0.30979316612E+02  0.30803594181E+03  0.35449718753E+03  0.00000000000E+00 0. -1.
         -5    1    5    5    0  502  0.60456271106E+02 -0.59024415182E+02 -0.45626753671E+02  0.96139133313E+02  0.47000000000E+01 0.  1.
         11    1    6    6    0    0  0.77249682596E+01 -0.48323087468E+01 -0.19561808547E+02  0.21579867841E+02  0.00000000000E+00 0. -1.
        -12    1    6    6    0    0  0.14234353916E+03  0.57632520217E+02  0.30576716301E+02  0.15658264944E+03  0.00000000000E+00 0.  1.
</event>
<event>
12    1  0.9962621E-001  0.1982317E+03  0.7818608E-02  0.1151276E+00
         21   -1    0    0  503  502  0.00000000000E+00  0.00000000000E+00  0.17397658057E+03  0.17397658057E+03  0.00000000000E+00 0. -1.
         21   -1    0    0  501  503 -0.00000000000E+00 -0.00000000000E+00 -0.22613496192E+03  0.22613496192E+03  0.00000000000E+00 0. -1.
          6    2    1    2  501    0  0.31969204874E+02 -0.93171554358E+02 -0.35144153675E+02  0.20132292888E+03  0.17202570027E+03 0.  0.
         24    2    3    3    0    0 -0.17227090332E+02 -0.72607083908E+02  0.33210310158E+02  0.11450360135E+03  0.80247048207E+02 0.  0.
         -6    2    1    2    0  502 -0.31969204874E+02  0.93171554358E+02 -0.17014227671E+02  0.19878861361E+03  0.17182683247E+03 0.  0.
        -24    2    5    5    0    0 -0.73376252321E+02  0.70562419832E+02 -0.40377713204E+02  0.14593353818E+03  0.96452622283E+02 0.  0.
          5    1    3    3  501    0  0.49196295206E+02 -0.20564470450E+02 -0.68354463833E+02  0.86819327530E+02  0.47000000000E+01 0. -1.
        -11    1    4    4    0    0  0.15111904508E+02  0.10019573789E+02 -0.35227659200E+01  0.18470825550E+02  0.00000000000E+00 0.  1.
         12    1    4    4    0    0 -0.32338994839E+02 -0.82626657697E+02  0.36733076078E+02  0.96032775798E+02  0.00000000000E+00 0. -1.
         -5    1    5    5    0  502  0.41407047447E+02  0.22609134526E+02  0.23363485534E+02  0.52855075429E+02  0.47000000000E+01 0.  1.
         13    1    6    6    0    0 -0.51761230771E+01  0.67854220624E+02 -0.30050437414E+01  0.68117676079E+02  0.00000000000E+00 0. -1.
        -14    1    6    6    0    0 -0.68200129244E+02  0.27081992083E+01 -0.37372669463E+02  0.77815862102E+02  0.00000000000E+00 0.  1.
</event>
<event>
12    1  0.9962621E-001  0.2341066E+03  0.7818608E-02  0.1123900E+00
         21   -1    0    0  501  502  0.00000000000E+00  0.00000000000E+00  0.76955650831E+02  0.76955650831E+02  0.00000000000E+00 0.  1.
         21   -1    0    0  502  503 -0.00000000000E+00 -0.00000000000E+00 -0.89649282866E+03  0.89649282866E+03  0.00000000000E+00 0.  1.
         -6    2    1    2    0  503  0.13238542485E+02  0.15731769990E+03 -0.18736493090E+03  0.29932116970E+03  0.17194018608E+03 0.  0.
        -24    2    3    3    0    0  0.33684683742E+02  0.15272121612E+03 -0.20606812270E+03  0.27084184844E+03  0.80204787268E+02 0.  0.
          6    2    1    2  501    0 -0.13238542485E+02 -0.15731769990E+03 -0.63217224693E+03  0.67412730979E+03  0.17286342099E+03 0.  0.
         24    2    5    5    0    0 -0.31472419614E+01 -0.11818882470E+01 -0.20440532785E+03  0.21862006168E+03  0.77471874409E+02 0.  0.
          5    1    5    5  501    0 -0.10091300524E+02 -0.15613581165E+03 -0.42776691907E+03  0.45550724811E+03  0.47000000000E+01 0. -1.
        -13    1    6    6    0    0 -0.38439590740E+02 -0.64628810749E+01 -0.13587176331E+03  0.14135242139E+03  0.00000000000E+00 0.  1.
         14    1    6    6    0    0  0.35292348779E+02  0.52809928279E+01 -0.68533564543E+02  0.77267640294E+02  0.00000000000E+00 0. -1.
         -5    1    3    3    0  503 -0.20446141256E+02  0.45964837742E+01  0.18703191804E+02  0.28479321253E+02  0.47000000000E+01 0.  1.
         13    1    4    4    0    0  0.58310840663E+02  0.80262631343E+02 -0.11844730251E+03  0.15450568792E+03  0.00000000000E+00 0. -1.
        -14    1    4    4    0    0 -0.24626156921E+02  0.72458584779E+02 -0.87620820199E+02  0.11633616052E+03  0.00000000000E+00 0.  1.
</event>
<event>
12    1  0.9962621E-001  0.2372268E+03  0.7818608E-02  0.1121757E+00
         21   -1    0    0  501  502  0.00000000000E+00  0.00000000000E+00  0.26904556459E+03  0.26904556459E+03  0.00000000000E+00 0.  1.
         21   -1    0    0  502  503 -0.00000000000E+00 -0.00000000000E+00 -0.28554623248E+03  0.28554623248E+03  0.00000000000E+00 0.  1.
         -6    2    1    2    0  503 -0.11964399176E+03  0.11108661871E+03 -0.15217044233E+03  0.28183756421E+03  0.17210940549E+03 0.  0.
        -24    2    3    3    0    0 -0.61729050657E+02  0.44079466517E+02 -0.57479157969E+01  0.11064835566E+03  0.80352629146E+02 0.  0.
          6    2    1    2  501    0  0.11964399176E+03 -0.11108661871E+03  0.13566977444E+03  0.27275423286E+03  0.17127072787E+03 0.  0.
         24    2    5    5    0    0  0.59792363124E+01 -0.35364925122E+02  0.98111117609E+01  0.86969560505E+02  0.78619446352E+02 0.  0.
          5    1    5    5  501    0  0.11366475545E+03 -0.75721693586E+02  0.12585866268E+03  0.18578467236E+03  0.47000000000E+01 0. -1.
        -13    1    6    6    0    0  0.29848190799E+02  0.12300421593E+02 -0.20849937019E+01  0.32350611495E+02  0.00000000000E+00 0.  1.
         14    1    6    6    0    0 -0.23868954487E+02 -0.47665346715E+02  0.11896105463E+02  0.54618949010E+02  0.00000000000E+00 0. -1.
         -5    1    3    3    0  503 -0.57914941108E+02  0.67007152191E+02 -0.14642252653E+03  0.17118920855E+03  0.47000000000E+01 0.  1.
         11    1    4    4    0    0 -0.14494523017E+02  0.55913372699E+02 -0.17879589398E+02  0.60465495624E+02  0.00000000000E+00 0. -1.
        -12    1    4    4    0    0 -0.47234527640E+02 -0.11833906182E+02  0.12131673601E+02  0.50182860035E+02  0.00000000000E+00 0.  1.
</event>
<event>
12    1  0.9962621E-001  0.1783483E+03  0.7818608E-02  0.1169574E+00
         21   -1    0    0  501  502  0.00000000000E+00  0.00000000000E+00  0.77742790437E+02  0.77742790437E+02  0.00000000000E+00 0.  1.
         21   -1    0    0  502  503 -0.00000000000E+00 -0.00000000000E+00 -0.48240281172E+03  0.48240281172E+03  0.00000000000E+00 0.  1.
         -6    2    1    2    0  503 -0.32298258870E+01  0.43318518184E+02 -0.91739958921E+02  0.19996913020E+03  0.17229192430E+03 0.  0.
        -24    2    3    3    0    0 -0.58150312704E+02 -0.58188948313E+01 -0.62926867636E+02  0.12070356732E+03  0.84818878138E+02 0.  0.
          6    2    1    2  501    0  0.32298258870E+01 -0.43318518184E+02 -0.31292006236E+03  0.36017647195E+03  0.17297745439E+03 0.  0.
         24    2    5    5    0    0 -0.26839635970E+02 -0.78248555999E+02 -0.13718561409E+03  0.17843774084E+03  0.78593460718E+02 0.  0.
          5    1    5    5  501    0  0.30069461857E+02  0.34930037815E+02 -0.17573444827E+03  0.18173873111E+03  0.47000000000E+01 0. -1.
        -13    1    6    6    0    0 -0.32114972945E+02 -0.41119296987E+02 -0.20814447122E+02  0.56173029836E+02  0.00000000000E+00 0.  1.
         14    1    6    6    0    0  0.52753369753E+01 -0.37129259012E+02 -0.11637116697E+03  0.12226471101E+03  0.00000000000E+00 0. -1.
         -5    1    3    3    0  503  0.54920486817E+02  0.49137413015E+02 -0.28813091286E+02  0.79265562885E+02  0.47000000000E+01 0.  1.
         13    1    4    4    0    0  0.10188000458E+02  0.14128521097E+02  0.89117028725E+01  0.19566014152E+02  0.00000000000E+00 0. -1.
        -14    1    4    4    0    0 -0.68338313162E+02 -0.19947415928E+02 -0.71838570508E+02  0.10113755317E+03  0.00000000000E+00 0.  1.
</event>
<event>
12    1  0.9962621E-001  0.1984440E+03  0.7818608E-02  0.1151354E+00
         21   -1    0    0  501  502  0.00000000000E+00  0.00000000000E+00  0.24748354677E+02  0.24748354677E+02  0.00000000000E+00 0. -1.
         21   -1    0    0  502  503 -0.00000000000E+00 -0.00000000000E+00 -0.16850400905E+04  0.16850400905E+04  0.00000000000E+00 0. -1.
         -6    2    1    2    0  503  0.98143610214E+02 -0.78833178641E+01 -0.61414970064E+03  0.64499119818E+03  0.17070288811E+03 0.  0.
        -24    2    3    3    0    0  0.72549384392E+02  0.17122333031E+02 -0.59328025837E+03  0.60330222371E+03  0.80221697148E+02 0.  0.
          6    2    1    2  501    0 -0.98143610214E+02  0.78833178641E+01 -0.10461420352E+04  0.10647972470E+04  0.17229539897E+03 0.  0.
         24    2    5    5    0    0 -0.55460164446E+02 -0.41412036396E+02 -0.88023040117E+03  0.88646982680E+03  0.78945602010E+02 0.  0.
          5    1    5    5  501    0 -0.42683445768E+02  0.49295354260E+02 -0.16591163402E+03  0.17832742021E+03  0.47000000000E+01 0. -1.
        -13    1    6    6    0    0 -0.23479345241E+02 -0.26992160460E+02 -0.76914609697E+03  0.76997764569E+03  0.00000000000E+00 0.  1.
         14    1    6    6    0    0 -0.31980819205E+02 -0.14419875937E+02 -0.11108430420E+03  0.11649218111E+03  0.00000000000E+00 0. -1.
         -5    1    3    3    0  503  0.25594225822E+02 -0.25005650896E+02 -0.20869442272E+02  0.41688974476E+02  0.47000000000E+01 0.  1.
         13    1    4    4    0    0 -0.17203841346E+02  0.53700495030E+01 -0.13196457897E+03  0.13318956299E+03  0.00000000000E+00 0. -1.
        -14    1    4    4    0    0  0.89753225738E+02  0.11752283528E+02 -0.46131567941E+03  0.47011266071E+03  0.00000000000E+00 0.  1.
</event>
<event>
12    1  0.9962621E-001  0.1940922E+03  0.7818608E-02  0.1155535E+00
         21   -1    0    0  503  502  0.00000000000E+00  0.00000000000E+00  0.33492295719E+03  0.33492295719E+03  0.00000000000E+00 0. -1.
         21   -1    0    0  501  503 -0.00000000000E+00 -0.00000000000E+00 -0.13013710412E+03  0.13013710412E+03  0.00000000000E+00 0. -1.
          6    2    1    2  501    0  0.68525593748E+02  0.50381171740E+02  0.11608678212E+02  0.19121847692E+03  0.17086756579E+03 0.  0.
         24    2    3    3    0    0  0.15297929711E+02  0.71190915007E+02  0.52633500378E+02  0.12071063574E+03  0.80613889534E+02 0.  0.
         -6    2    1    2    0  502 -0.68525593748E+02 -0.50381171740E+02  0.19317717486E+03  0.27384158439E+03  0.17446424559E+03 0.  0.
        -24    2    5    5    0    0  0.17563194016E+02  0.16192273531E+02  0.11207773928E+03  0.13803837587E+03  0.76957897999E+02 0.  0.
          5    1    3    3  501    0  0.53227664037E+02 -0.20809743268E+02 -0.41024822166E+02  0.70507841177E+02  0.47000000000E+01 0. -1.
        -13    1    4    4    0    0  0.31056409966E+02 -0.42743742977E+01  0.18483142386E+02  0.36392271543E+02  0.00000000000E+00 0.  1.
         14    1    4    4    0    0 -0.15758480255E+02  0.75465289305E+02  0.34150357993E+02  0.84318364197E+02  0.00000000000E+00 0. -1.
         -5    1    5    5    0  502 -0.86088787763E+02 -0.66573445271E+02  0.81099435586E+02  0.13580320853E+03  0.47000000000E+01 0.  1.
         11    1    6    6    0    0  0.70364860429E+01  0.45027567651E+02  0.43945825347E+02  0.63310580078E+02  0.00000000000E+00 0. -1.
        -12    1    6    6    0    0  0.10526707973E+02 -0.28835294120E+02  0.68131913928E+02  0.74727795787E+02  0.00000000000E+00 0.  1.
</event>
<event>
12    1  0.9962621E-001  0.2419576E+03  0.7818608E-02  0.1119083E+00
         21   -1    0    0  503  502  0.00000000000E+00  0.00000000000E+00  0.85815668814E+03  0.85815668814E+03  0.00000000000E+00 0. -1.
         21   -1    0    0  501  503 -0.00000000000E+00 -0.00000000000E+00 -0.74303946595E+02  0.74303946595E+02  0.00000000000E+00 0. -1.
          6    2    1    2  501    0 -0.97894929741E+02 -0.13603460604E+03  0.24541957544E+03  0.34216091621E+03  0.16957149897E+03 0.  0.
         24    2    3    3    0    0  0.18218085931E+01 -0.73251318236E+02  0.17478335164E+03  0.20469551967E+03  0.77343139038E+02 0.  0.
         -6    2    1    2    0  502  0.97894929741E+02  0.13603460604E+03  0.53843316610E+03  0.59029971852E+03  0.17451261277E+03 0.  0.
        -24    2    5    5    0    0  0.81453335714E+02  0.15962000928E+03  0.51924799148E+03  0.55541765744E+03  0.82201607510E+02 0.  0.
          5    1    3    3  501    0 -0.99716738334E+02 -0.62783287807E+02  0.70636223805E+02  0.13746539654E+03  0.47000000000E+01 0. -1.
        -13    1    4    4    0    0 -0.15820210227E+02 -0.36915197078E+02  0.15423199885E+03  0.15937540681E+03  0.00000000000E+00 0.  1.
         14    1    4    4    0    0  0.17642018820E+02 -0.36336121158E+02  0.20551352790E+02  0.45320112868E+02  0.00000000000E+00 0. -1.
         -5    1    5    5    0  502  0.16441594027E+02 -0.23585403234E+02  0.19185174618E+02  0.34882061077E+02  0.47000000000E+01 0.  1.
         11    1    6    6    0    0  0.13875508331E+02  0.11406868438E+01  0.11701636341E+03  0.11784167431E+03  0.00000000000E+00 0. -1.
        -12    1    6    6    0    0  0.67577827383E+02  0.15847932243E+03  0.40223162807E+03  0.43757598313E+03  0.00000000000E+00 0.  1.
</event>
<event>
12    1  0.9962621E-001  0.2310053E+03  0.7818608E-02  0.1125991E+00
         21   -1    0    0  501  502  0.00000000000E+00  0.00000000000E+00  0.18736848965E+03  0.18736848965E+03  0.00000000000E+00 0. -1.
         21   -1    0    0  502  503 -0.00000000000E+00 -0.00000000000E+00 -0.28471032803E+03  0.28471032803E+03  0.00000000000E+00 0. -1.
         -6    2    1    2    0  503 -0.51768116015E+02 -0.14450446334E+03 -0.40958037794E+02  0.23460825062E+03  0.17263253643E+03 0.  0.
        -24    2    3    3    0    0 -0.10140044143E+03 -0.10367705796E+03 -0.23395493683E+02  0.16781919678E+03  0.81147716018E+02 0.  0.
          6    2    1    2  501    0  0.51768116015E+02  0.14450446334E+03 -0.56383800588E+02  0.23747056707E+03  0.17219657224E+03 0.  0.
         24    2    5    5    0    0 -0.27714659520E+02  0.30379157580E+02 -0.35520966250E+02  0.96760066822E+02  0.80061076189E+02 0.  0.
          5    1    5    5  501    0  0.79482775536E+02  0.11412530576E+03 -0.20862834338E+02  0.14071050025E+03  0.47000000000E+01 0. -1.
        -11    1    6    6    0    0  0.12526840536E+02  0.26449845278E+01 -0.45165097861E+02  0.46944688110E+02  0.00000000000E+00 0.  1.
         12    1    6    6    0    0 -0.40241500057E+02  0.27734173052E+02  0.96441316113E+01  0.49815378712E+02  0.00000000000E+00 0. -1.
         -5    1    3    3    0  503  0.49632325414E+02 -0.40827405383E+02 -0.17562544111E+02  0.66789053834E+02  0.47000000000E+01 0.  1.
         13    1    4    4    0    0 -0.90972386084E+02 -0.57170595973E+02  0.12476276650E+02  0.10816704467E+03  0.00000000000E+00 0. -1.
        -14    1    4    4    0    0 -0.10428055346E+02 -0.46506461988E+02 -0.35871770333E+02  0.59652152113E+02  0.00000000000E+00 0.  1.
</event>
<event>
12    1  0.9962621E-001  0.2149583E+03  0.7818608E-02  0.1138020E+00
         21   -1    0    0  503  502  0.00000000000E+00  0.00000000000E+00  0.15777139571E+04  0.15777139571E+04  0.00000000000E+00 0. -1.
         21   -1    0    0  501  503 -0.00000000000E+00 -0.00000000000E+00 -0.38141306669E+02  0.38141306669E+02  0.00000000000E+00 0. -1.
          6    2    1    2  501    0  0.33575308661E+02  0.12376760544E+03  0.37785861261E+03  0.43472312284E+03  0.17251475563E+03 0.  0.
         24    2    3    3    0    0  0.89527849386E+02  0.87386577246E+02  0.28159177095E+03  0.31748976229E+03  0.76512574067E+02 0.  0.
         -6    2    1    2    0  502 -0.33575308661E+02 -0.12376760544E+03  0.11617140378E+04  0.11811321409E+04  0.17043446580E+03 0.  0.
        -24    2    5    5    0    0 -0.32258066654E+02  0.15517959662E+01  0.45144786338E+03  0.45987849895E+03  0.81486621683E+02 0.  0.
          5    1    3    3  501    0 -0.55952540725E+02  0.36381028192E+02  0.96266841654E+02  0.11723336056E+03  0.47000000000E+01 0. -1.
        -11    1    4    4    0    0  0.92474620433E+02  0.43018812278E+02  0.20342442882E+03  0.22756025987E+03  0.00000000000E+00 0.  1.
         12    1    4    4    0    0 -0.29467710474E+01  0.44367764967E+02  0.78167342136E+02  0.89929502414E+02  0.00000000000E+00 0. -1.
         -5    1    5    5    0  502 -0.13172420074E+01 -0.12531940140E+03  0.71026617443E+03  0.72125364195E+03  0.47000000000E+01 0.  1.
         13    1    6    6    0    0 -0.55924276912E+02  0.17677747459E+02  0.28304539718E+03  0.28905834077E+03  0.00000000000E+00 0. -1.
        -14    1    6    6    0    0  0.23666210259E+02 -0.16125951492E+02  0.16840246620E+03  0.17082015818E+03  0.00000000000E+00 0.  1.
</event>
<event>
12    1  0.9962621E-001  0.3652777E+03  0.7818608E-02  0.1056533E+00
         21   -1    0    0  503  502  0.00000000000E+00  0.00000000000E+00  0.77194185960E+03  0.77194185960E+03  0.00000000000E+00 0.  1.
         21   -1    0    0  501  503 -0.00000000000E+00 -0.00000000000E+00 -0.21013141713E+03  0.21013141713E+03  0.00000000000E+00 0.  1.
          6    2    1    2  501    0  0.23528554625E+03  0.22036317068E+03  0.73868588821E+02  0.37267190564E+03  0.17178057391E+03 0.  0.
         24    2    3    3    0    0  0.20628198095E+03  0.18580131199E+03  0.11547639610E+03  0.31111682053E+03  0.79903033494E+02 0.  0.
         -6    2    1    2    0  502 -0.23528554625E+03 -0.22036317068E+03  0.48794185365E+03  0.60940137109E+03  0.17135799743E+03 0.  0.
        -24    2    5    5    0    0 -0.25351318222E+03 -0.21140486567E+03  0.42425526457E+03  0.54238965891E+03  0.72339904510E+02 0.  0.
          5    1    3    3  501    0  0.29003565297E+02  0.34561858694E+02 -0.41607807275E+02  0.61555085107E+02  0.47000000000E+01 0. -1.
        -11    1    4    4    0    0  0.20666845674E+02  0.24256709028E+02  0.45025893822E+02  0.55161921263E+02  0.00000000000E+00 0.  1.
         12    1    4    4    0    0  0.18561513528E+03  0.16154460296E+03  0.70450502273E+02  0.25595489927E+03  0.00000000000E+00 0. -1.
         -5    1    5    5    0  502  0.18227635969E+02 -0.89583050060E+01  0.63686589080E+02  0.67011712187E+02  0.47000000000E+01 0.  1.
         11    1    6    6    0    0 -0.59063421532E+02 -0.86709459941E+02  0.10601945546E+03  0.14915476238E+03  0.00000000000E+00 0. -1.
        -12    1    6    6    0    0 -0.19444976068E+03 -0.12469540573E+03  0.31823580911E+03  0.39323489652E+03  0.00000000000E+00 0.  1.
</event>
<event>
12    1  0.9962621E-001  0.1723462E+03  0.7818608E-02  0.1175560E+00
         21   -1    0    0  501  502  0.00000000000E+00  0.00000000000E+00  0.18151495546E+03  0.18151495546E+03  0.00000000000E+00 0. -1.
         21   -1    0    0  502  503 -0.00000000000E+00 -0.00000000000E+00 -0.21223607883E+03  0.21223607883E+03  0.00000000000E+00 0. -1.
         -6    2    1    2    0  503  0.13072627052E+02 -0.68760241036E-02 -0.11007429388E+03  0.20449834571E+03  0.17184972971E+03 0.  0.
        -24    2    3    3    0    0 -0.78870069076E+01  0.43857079603E+02 -0.92743476594E+01  0.92489096022E+02  0.80514415164E+02 0.  0.
          6    2    1    2  501    0 -0.13072627052E+02  0.68760241036E-02  0.79353170509E+02  0.18925268858E+03  0.17131480041E+03 0.  0.
         24    2    5    5    0    0 -0.13538791119E+02 -0.15939328027E+01  0.12303809789E+03  0.14528403182E+03  0.76047596169E+02 0.  0.
          5    1    5    5  501    0  0.46616406655E+00  0.16008088268E+01 -0.43684927376E+02  0.43968656764E+02  0.47000000000E+01 0. -1.
        -11    1    6    6    0    0 -0.41553623274E+02  0.85505747415E+01  0.45457724500E+02  0.62178940586E+02  0.00000000000E+00 0.  1.
         12    1    6    6    0    0  0.28014832155E+02 -0.10144507544E+02  0.77580373385E+02  0.83105091231E+02  0.00000000000E+00 0. -1.
         -5    1    3    3    0  503  0.20959633960E+02 -0.43863955627E+02 -0.10079994622E+03  0.11200924969E+03  0.47000000000E+01 0.  1.
         13    1    4    4    0    0 -0.84175678085E+01  0.67995025999E+01  0.33902546682E+02  0.35587516842E+02  0.00000000000E+00 0. -1.
        -14    1    4    4    0    0  0.53056090088E+00  0.37057577003E+02 -0.43176894342E+02  0.56901579180E+02  0.00000000000E+00 0.  1.
</event>
<event>
12    1  0.9962621E-001  0.2116593E+03  0.7818608E-02  0.1140287E+00
         21   -1    0    0  501  502  0.00000000000E+00  0.00000000000E+00  0.60692651048E+03  0.60692651048E+03  0.00000000000E+00 0. -1.
         21   -1    0    0  502  503 -0.00000000000E+00 -0.00000000000E+00 -0.83466046996E+02  0.83466046996E+02  0.00000000000E+00 0. -1.
         -6    2    1    2    0  503  0.14326475709E+02 -0.12254055859E+03  0.14411346692E+03  0.25606316492E+03  0.17198318719E+03 0.  0.
        -24    2    3    3    0    0  0.37946961888E+02 -0.11173852999E+03  0.39340756178E+02  0.14801677625E+03  0.80223437687E+02 0.  0.
          6    2    1    2  501    0 -0.14326475709E+02  0.12254055859E+03  0.37934699657E+03  0.43432939256E+03  0.17180349539E+03 0.  0.
         24    2    5    5    0    0  0.52982390151E+02  0.87055494827E+02  0.19022406276E+03  0.23041949269E+03  0.80759864481E+02 0.  0.
          5    1    5    5  501    0 -0.67308865861E+02  0.35485063761E+02  0.18912293381E+03  0.20390989988E+03  0.47000000000E+01 0. -1.
        -11    1    6    6    0    0  0.23883315137E+02 -0.11623383740E+02  0.30672131234E+02  0.40574566244E+02  0.00000000000E+00 0.  1.
         12    1    6    6    0    0  0.29099075015E+02  0.98678878567E+02  0.15955193152E+03  0.18984492644E+03  0.00000000000E+00 0. -1.
         -5    1    3    3    0  503 -0.23620486178E+02 -0.10802028602E+02  0.10477271074E+03  0.10804638867E+03  0.47000000000E+01 0.  1.
         13    1    4    4    0    0 -0.83300328454E+01 -0.78264154711E+02  0.44932603970E+02  0.90628948241E+02  0.00000000000E+00 0. -1.
        -14    1    4    4    0    0  0.46276994733E+02 -0.33474375275E+02 -0.55918477922E+01  0.57387828006E+02  0.00000000000E+00 0.  1.
</event>
<event>
12    1  0.9962621E-001  0.4035753E+03  0.7818608E-02  0.1042799E+00
         21   -1    0    0  501  502  0.00000000000E+00  0.00000000000E+00  0.12336742307E+03  0.12336742307E+03  0.00000000000E+00 0. -1.
         21   -1    0    0  502  503 -0.00000000000E+00 -0.00000000000E+00 -0.13117223845E+04  0.13117223845E+04  0.00000000000E+00 0. -1.
         -6    2    1    2    0  503 -0.96787641553E+02 -0.34961021287E+03 -0.61636290172E+03  0.73673349426E+03  0.17685549592E+03 0.  0.
        -24    2    3    3    0    0 -0.56163171785E+01 -0.26761769675E+03 -0.40136847425E+03  0.48918617164E+03  0.80967177139E+02 0.  0.
          6    2    1    2  501    0  0.96787641553E+02  0.34961021287E+03 -0.57199205972E+03  0.69835631332E+03  0.17009254971E+03 0.  0.
         24    2    5    5    0    0  0.90089547048E+02  0.14939841626E+03 -0.21135655686E+03  0.28579155004E+03  0.81050618014E+02 0.  0.
          5    1    5    5  501    0  0.66980945052E+01  0.20021179662E+03 -0.36063550287E+03  0.41256476328E+03  0.47000000000E+01 0. -1.
        -13    1    6    6    0    0  0.29665934629E+02  0.11950283810E+03 -0.15477837430E+03  0.19778104344E+03  0.00000000000E+00 0.  1.
         14    1    6    6    0    0  0.60423612419E+02  0.29895578152E+02 -0.56578182555E+02  0.88010506600E+02  0.00000000000E+00 0. -1.
         -5    1    3    3    0  503 -0.91171324375E+02 -0.81992516123E+02 -0.21499442747E+03  0.24754732261E+03  0.47000000000E+01 0.  1.
         13    1    4    4    0    0 -0.20070340324E+02 -0.12849219478E+02 -0.25721720813E+02  0.35064624959E+02  0.00000000000E+00 0. -1.
        -14    1    4    4    0    0  0.14454023145E+02 -0.25476847727E+03 -0.37564675344E+03  0.45412154668E+03  0.00000000000E+00 0.  1.
</event>
<event>
12    1  0.9962621E-001  0.2793377E+03  0.7818608E-02  0.1096240E+00
         21   -1    0    0  503  502  0.00000000000E+00  0.00000000000E+00  0.17458525844E+04  0.17458525844E+04  0.00000000000E+00 0.  1.
         21   -1    0    0  501  503 -0.00000000000E+00 -0.00000000000E+00 -0.21391973453E+03  0.21391973453E+03  0.00000000000E+00 0.  1.
          6    2    1    2  501    0  0.17607589636E+03  0.13103064150E+03 -0.10573724080E+03  0.29868030421E+03  0.17279412531E+03 0.  0.
         24    2    3    3    0    0  0.19000501359E+03  0.14376380691E+03 -0.74717060027E+02  0.26206752743E+03  0.79541262931E+02 0.  0.
         -6    2    1    2    0  502 -0.17607589636E+03 -0.13103064150E+03  0.16376700907E+04  0.16610920147E+04  0.17056261366E+03 0.  0.
        -24    2    5    5    0    0 -0.15099663874E+03 -0.81464608752E+02  0.74024946551E+03  0.76194151050E+03  0.56117081563E+02 0.  0.
          5    1    3    3  501    0 -0.13929117228E+02 -0.12733165417E+02 -0.31020180772E+02  0.36612776778E+02  0.47000000000E+01 0. -1.
        -13    1    4    4    0    0  0.26733905487E+01  0.29348167676E+02  0.20034936397E+01  0.29537703867E+02  0.00000000000E+00 0.  1.
         14    1    4    4    0    0  0.18733162304E+03  0.11441563924E+03 -0.76720553667E+02  0.23252982356E+03  0.00000000000E+00 0. -1.
         -5    1    5    5    0  502 -0.25079257613E+02 -0.49566032744E+02  0.89742062516E+03  0.89915050421E+03  0.47000000000E+01 0.  1.
         11    1    6    6    0    0 -0.84481068813E+02 -0.54851151974E+02  0.53874645625E+03  0.54808160340E+03  0.00000000000E+00 0. -1.
        -12    1    6    6    0    0 -0.66515569931E+02 -0.26613456778E+02  0.20150300926E+03  0.21385990711E+03  0.00000000000E+00 0.  1.
</event>
<event>
12    1  0.9962621E-001  0.1983525E+03  0.7818608E-02  0.1151322E+00
         21   -1    0    0  503  502  0.00000000000E+00  0.00000000000E+00  0.27508121637E+03  0.27508121637E+03  0.00000000000E+00 0.  1.
         21   -1    0    0  501  503 -0.00000000000E+00 -0.00000000000E+00 -0.18456927848E+03  0.18456927848E+03  0.00000000000E+00 0.  1.
          6    2    1    2  501    0  0.63437450399E+02  0.73512792411E+02 -0.64673082191E+02  0.20780508484E+03  0.17196483641E+03 0.  0.
         24    2    3    3    0    0  0.67884323703E+02  0.11271852875E+03 -0.67860310486E+02  0.16794140628E+03  0.79281435892E+02 0.  0.
         -6    2    1    2    0  502 -0.63437450399E+02 -0.73512792411E+02  0.15518502009E+03  0.25184541002E+03  0.17296034033E+03 0.  0.
        -24    2    5    5    0    0 -0.42535283808E+02 -0.11716143754E+03  0.12867292290E+03  0.19646413080E+03  0.80655940822E+02 0.  0.
          5    1    3    3  501    0 -0.44468733046E+01 -0.39205736334E+02  0.31872282947E+01  0.39863678555E+02  0.47000000000E+01 0. -1.
        -13    1    4    4    0    0  0.54178980716E+01  0.85374199061E+00 -0.35328550457E+02  0.35751768799E+02  0.00000000000E+00 0.  1.
         14    1    4    4    0    0  0.62466425632E+02  0.11186478675E+03 -0.32531760029E+02  0.13218963748E+03  0.00000000000E+00 0. -1.
         -5    1    5    5    0  502 -0.20902166591E+02  0.43648645132E+02  0.26512097188E+02  0.55381279213E+02  0.47000000000E+01 0.  1.
         11    1    6    6    0    0 -0.45960183684E+02 -0.46088068813E+02  0.10091764745E+03  0.12008671924E+03  0.00000000000E+00 0. -1.
        -12    1    6    6    0    0  0.34248998758E+01 -0.71073368729E+02  0.27755275445E+02  0.76377411561E+02  0.00000000000E+00 0.  1.
</event>
<event>
12    1  0.9962621E-001  0.2531261E+03  0.7818608E-02  0.1111401E+00
         21   -1    0    0  501  502  0.00000000000E+00  0.00000000000E+00  0.21679260682E+04  0.21679260682E+04  0.00000000000E+00 0. -1.
         21   -1    0    0  502  503 -0.00000000000E+00 -0.00000000000E+00 -0.30636534185E+02  0.30636534185E+02  0.00000000000E+00 0. -1.
         -6    2    1    2    0  503  0.14009007998E+03 -0.12198440143E+03  0.12799194229E+04  0.13047093821E+04  0.17195178933E+03 0.  0.
        -24    2    3    3    0    0  0.21940034695E+01 -0.73236025203E+02  0.63384103179E+03  0.64226609426E+03  0.73368611989E+02 0.  0.
          6    2    1    2  501    0 -0.14009007998E+03  0.12198440143E+03  0.85737011106E+03  0.89385322025E+03  0.17141950682E+03 0.  0.
         24    2    5    5    0    0 -0.60584611653E+02  0.11864845348E+03  0.70392842159E+03  0.72094084328E+03  0.80576213052E+02 0.  0.
          5    1    5    5  501    0 -0.79505468329E+02  0.33359479562E+01  0.15344168947E+03  0.17291237697E+03  0.47000000000E+01 0. -1.
        -13    1    6    6    0    0  0.18774723708E+02  0.11636471496E+02  0.11891183051E+03  0.12094594310E+03  0.00000000000E+00 0.  1.
         14    1    6    6    0    0 -0.79359335361E+02  0.10701198198E+03  0.58501659108E+03  0.59999490017E+03  0.00000000000E+00 0. -1.
         -5    1    3    3    0  503  0.13789607651E+03 -0.48748376230E+02  0.64607839114E+03  0.66244328784E+03  0.47000000000E+01 0.  1.
         13    1    4    4    0    0  0.11729903652E+02 -0.38007048998E+02  0.10685975395E+03  0.11402251281E+03  0.00000000000E+00 0. -1.
        -14    1    4    4    0    0 -0.95359001827E+01 -0.35228976205E+02  0.52698127783E+03  0.52824358145E+03  0.00000000000E+00 0.  1.
</event>
<event>
12    1  0.9962621E-001  0.1804518E+03  0.7818608E-02  0.1167731E+00
         21   -1    0    0  503  502  0.00000000000E+00  0.00000000000E+00  0.54755522421E+02  0.54755522421E+02  0.00000000000E+00 0. -1.
         21   -1    0    0  501  503 -0.00000000000E+00 -0.00000000000E+00 -0.59187846060E+03  0.59187846060E+03  0.00000000000E+00 0. -1.
          6    2    1    2  501    0 -0.48232387595E+02  0.31719845143E+02 -0.25027000322E+03  0.30854160210E+03  0.17096880981E+03 0.  0.
         24    2    3    3    0    0 -0.49368038034E+02 -0.76501371811E+01 -0.25209975385E+03  0.26883362812E+03  0.78876523375E+02 0.  0.
         -6    2    1    2    0  502  0.48232387595E+02 -0.31719845143E+02 -0.28685293496E+03  0.33809238092E+03  0.16937927840E+03 0.  0.
        -24    2    5    5    0    0  0.61710923434E+02 -0.32201057293E+02 -0.85947413890E+02  0.13667981704E+03  0.80307336332E+02 0.  0.
          5    1    3    3  501    0  0.11356504386E+01  0.39369982324E+02  0.18297506325E+01  0.39707973979E+02  0.47000000000E+01 0. -1.
        -11    1    4    4    0    0 -0.19751862116E+02  0.32785463013E+02 -0.67991199503E+02  0.78024520838E+02  0.00000000000E+00 0.  1.
         12    1    4    4    0    0 -0.29616175918E+02 -0.40435600194E+02 -0.18410855435E+03  0.19080910728E+03  0.00000000000E+00 0. -1.
         -5    1    5    5    0  502 -0.13478535838E+02  0.48121215040E+00 -0.20090552107E+03  0.20141256388E+03  0.47000000000E+01 0.  1.
         11    1    6    6    0    0  0.20111657203E+02 -0.40817924209E+02 -0.56711826602E+01  0.45855686724E+02  0.00000000000E+00 0. -1.
        -12    1    6    6    0    0  0.41599266231E+02  0.86168669160E+01 -0.80276231230E+02  0.90824130312E+02  0.00000000000E+00 0.  1.
</event>
<event>
12    1  0.9962621E-001  0.1789747E+03  0.7818608E-02  0.1168976E+00
         21   -1    0    0  503  502  0.00000000000E+00  0.00000000000E+00  0.34862251152E+03  0.34862251152E+03  0.00000000000E+00 0. -1.
         21   -1    0    0  501  503 -0.00000000000E+00 -0.00000000000E+00 -0.99381628492E+02  0.99381628492E+02  0.00000000000E+00 0. -1.
          6    2    1    2  501    0  0.38373662072E+02  0.30278255592E+02  0.18743288067E+03  0.25865746779E+03  0.17141554826E+03 0.  0.
         24    2    3    3    0    0 -0.80432308487E+01  0.14358921391E+02  0.19206009232E+03  0.20914530527E+03  0.81140664706E+02 0.  0.
         -6    2    1    2    0  502 -0.38373662072E+02 -0.30278255592E+02  0.61808002353E+02  0.18934667222E+03  0.17217032968E+03 0.  0.
        -24    2    5    5    0    0  0.27401399647E+02  0.26248489976E+02  0.22005898684E+02  0.93806475627E+02  0.82919089262E+02 0.  0.
          5    1    3    3  501    0  0.46416892920E+02  0.15919334201E+02 -0.46272116464E+01  0.49512162520E+02  0.47000000000E+01 0. -1.
        -13    1    4    4    0    0  0.12064638365E+02 -0.90695888963E+01  0.48809581551E+00  0.15101363486E+02  0.00000000000E+00 0.  1.
         14    1    4    4    0    0 -0.20107869213E+02  0.23428510288E+02  0.19157199651E+03  0.19404394179E+03  0.00000000000E+00 0. -1.
         -5    1    5    5    0  502 -0.65775061719E+02 -0.56526745568E+02  0.39802103668E+02  0.95540196593E+02  0.47000000000E+01 0.  1.
         11    1    6    6    0    0  0.12924302836E+02  0.36936932503E+02 -0.22961619195E+02  0.45371913588E+02  0.00000000000E+00 0. -1.
        -12    1    6    6    0    0  0.14477096811E+02 -0.10688442528E+02  0.44967517879E+02  0.48434562040E+02  0.00000000000E+00 0.  1.
</event>
<event>
12    1  0.9962621E-001  0.2051530E+03  0.7818608E-02  0.1145498E+00
         21   -1    0    0  501  502  0.00000000000E+00  0.00000000000E+00  0.10289101046E+03  0.10289101046E+03  0.00000000000E+00 0.  1.
         21   -1    0    0  502  503 -0.00000000000E+00 -0.00000000000E+00 -0.40971129482E+03  0.40971129482E+03  0.00000000000E+00 0.  1.
         -6    2    1    2    0  503 -0.15212766861E+02  0.11108243494E+03 -0.14063671294E+03  0.24858575559E+03  0.17159678676E+03 0.  0.
        -24    2    3    3    0    0 -0.67943272709E+02  0.44183444249E+02 -0.10330524434E+03  0.15546374020E+03  0.83237827674E+02 0.  0.
          6    2    1    2  501    0  0.15212766861E+02 -0.11108243494E+03 -0.16618357142E+03  0.26401654969E+03  0.17180519047E+03 0.  0.
         24    2    5    5    0    0  0.18119080110E+01 -0.12809044449E+03 -0.71221333448E+02  0.16650361697E+03  0.78997032508E+02 0.  0.
          5    1    5    5  501    0  0.13400858850E+02  0.17008009553E+02 -0.94962237972E+02  0.97512932719E+02  0.47000000000E+01 0. -1.
        -11    1    6    6    0    0  0.39107812301E+02 -0.64726313612E+02 -0.24964039540E+02  0.79637427928E+02  0.00000000000E+00 0.  1.
         12    1    6    6    0    0 -0.37295904290E+02 -0.63364130882E+02 -0.46257293908E+02  0.86866189043E+02  0.00000000000E+00 0. -1.
         -5    1    3    3    0  503  0.52730505849E+02  0.66898990692E+02 -0.37331468602E+02  0.93122015392E+02  0.47000000000E+01 0.  1.
         11    1    4    4    0    0 -0.43439846811E+02  0.53767186047E+02 -0.26079213809E+02  0.73878657130E+02  0.00000000000E+00 0. -1.
        -12    1    4    4    0    0 -0.24503425898E+02 -0.95837417977E+01 -0.77226030531E+02  0.81585083067E+02  0.00000000000E+00 0.  1.
</event>
<event>
12    1  0.9962621E-001  0.2012569E+03  0.7818608E-02  0.1149143E+00
         21   -1    0    0  501  502  0.00000000000E+00  0.00000000000E+00  0.26263105324E+03  0.26263105324E+03  0.00000000000E+00 0.  1.
         21   -1    0    0  502  503 -0.00000000000E+00 -0.00000000000E+00 -0.23163511315E+03  0.23163511315E+03  0.00000000000E+00 0.  1.
         -6    2    1    2    0  503 -0.50976330486E+02 -0.90683848103E+02 -0.12895512345E+03  0.23718900760E+03  0.16972641186E+03 0.  0.
        -24    2    3    3    0    0  0.19216768243E+02 -0.96088460124E+02 -0.10008616044E+03  0.16095392403E+03  0.79288396375E+02 0.  0.
          6    2    1    2  501    0  0.50976330486E+02  0.90683848103E+02  0.15995106355E+03  0.25707715880E+03  0.17228515975E+03 0.  0.
         24    2    5    5    0    0  0.68838570766E+02  0.12400531184E+03  0.12318303950E+03  0.20413041985E+03  0.79869273789E+02 0.  0.
          5    1    5    5  501    0 -0.17862240280E+02 -0.33321463737E+02  0.36768024041E+02  0.52946738949E+02  0.47000000000E+01 0. -1.
        -13    1    6    6    0    0  0.80223039219E+01  0.24049468161E+02 -0.96395754620E+01  0.27122973549E+02  0.00000000000E+00 0.  1.
         14    1    6    6    0    0  0.60816266844E+02  0.99955843680E+02  0.13282261497E+03  0.17700744630E+03  0.00000000000E+00 0. -1.
         -5    1    3    3    0  503 -0.70193098729E+02  0.54046120210E+01 -0.28868963011E+02  0.76235083562E+02  0.47000000000E+01 0.  1.
         11    1    4    4    0    0  0.39720927190E+02 -0.18814632692E+02 -0.21806356950E+02  0.49063832540E+02  0.00000000000E+00 0. -1.
        -12    1    4    4    0    0 -0.20504158946E+02 -0.77273827432E+02 -0.78279803489E+02  0.11189009149E+03  0.00000000000E+00 0.  1.
</event>
<event>
12    1  0.9962621E-001  0.3031981E+03  0.7818608E-02  0.1083969E+00
         21   -1    0    0  503  502  0.00000000000E+00  0.00000000000E+00  0.19875076634E+03  0.19875076634E+03  0.00000000000E+00 0.  1.
         21   -1    0    0  501  503 -0.00000000000E+00 -0.00000000000E+00 -0.47052451835E+03  0.47052451835E+03  0.00000000000E+00 0.  1.
          6    2    1    2  501    0  0.24760415182E+03 -0.11164362734E+02 -0.18850452977E+03  0.35485068788E+03  0.17015461778E+03 0.  0.
         24    2    3    3    0    0  0.18908344698E+03 -0.42642059544E+02 -0.19702318590E+03  0.28769284549E+03  0.79863273169E+02 0.  0.
         -6    2    1    2    0  502 -0.24760415182E+03  0.11164362734E+02 -0.83269222244E+02  0.31442459681E+03  0.17463277101E+03 0.  0.
        -24    2    5    5    0    0 -0.25102941074E+03  0.85046115575E+01 -0.35383750967E+02  0.26611398685E+03  0.80477019644E+02 0.  0.
          5    1    3    3  501    0  0.58520704837E+02  0.31477696810E+02  0.85186561343E+01  0.67157842382E+02  0.47000000000E+01 0. -1.
        -13    1    4    4    0    0  0.28689571977E+02 -0.39988477398E+01 -0.80929314698E+02  0.85957177134E+02  0.00000000000E+00 0.  1.
         14    1    4    4    0    0  0.16039387501E+03 -0.38643211805E+02 -0.11609387120E+03  0.20173566836E+03  0.00000000000E+00 0. -1.
         -5    1    5    5    0  502  0.34252589204E+01  0.26597511764E+01 -0.47885471276E+02  0.48310609956E+02  0.47000000000E+01 0.  1.
         11    1    6    6    0    0 -0.10946438703E+03 -0.30377308338E+02  0.54547622439E+01  0.11373208571E+03  0.00000000000E+00 0. -1.
        -12    1    6    6    0    0 -0.14156502371E+03  0.38881919895E+02 -0.40838513211E+02  0.15238190114E+03  0.00000000000E+00 0.  1.
</event>
<event>
12    1  0.9962621E-001  0.3816625E+03  0.7818608E-02  0.1050417E+00
         21   -1    0    0  503  502  0.00000000000E+00  0.00000000000E+00  0.62064801946E+03  0.62064801946E+03  0.00000000000E+00 0. -1.
         21   -1    0    0  501  503 -0.00000000000E+00 -0.00000000000E+00 -0.23652796671E+03  0.23652796671E+03  0.00000000000E+00 0.  1.
          6    2    1    2  501    0  0.30659241282E+03  0.14496389540E+03  0.14800916195E+03  0.40838362149E+03  0.17279187398E+03 0.  0.
         24    2    3    3    0    0  0.28727700881E+03  0.16516087708E+03  0.10650021375E+03  0.35812344161E+03  0.84284688937E+02 0.  0.
         -6    2    1    2    0  502 -0.30659241282E+03 -0.14496389540E+03  0.23611089080E+03  0.44879236467E+03  0.17507939703E+03 0.  0.
        -24    2    5    5    0    0 -0.23985948741E+03 -0.54741429801E+02  0.21150607025E+03  0.33381034944E+03  0.78519639609E+02 0.  0.
          5    1    3    3  501    0  0.19315404012E+02 -0.20196981686E+02  0.41508948205E+02  0.50260179889E+02  0.47000000000E+01 0. -1.
        -13    1    4    4    0    0  0.14492255874E+03  0.12480511240E+03  0.37657047615E+02  0.19492797990E+03  0.00000000000E+00 0.  1.
         14    1    4    4    0    0  0.14235445007E+03  0.40355764682E+02  0.68843166130E+02  0.16319546171E+03  0.00000000000E+00 0. -1.
         -5    1    5    5    0  502 -0.66732925418E+02 -0.90222465596E+02  0.24604820552E+02  0.11498201523E+03  0.47000000000E+01 0.  1.
         11    1    6    6    0    0 -0.22792572503E+03 -0.57112955989E+02  0.21755538291E+03  0.32022237664E+03  0.00000000000E+00 0. -1.
        -12    1    6    6    0    0 -0.11933762378E+02  0.23715261878E+01 -0.60493126603E+01  0.13587972793E+02  0.00000000000E+00 0.  1.
</event>
<event>
12    1  0.9962621E-001  0.3302442E+03  0.7818608E-02  0.1071045E+00
         21   -1    0    0  501  502  0.00000000000E+00  0.00000000000E+00  0.13062538895E+03  0.13062538895E+03  0.00000000000E+00 0.  1.
         21   -1    0    0  502  503 -0.00000000000E+00 -0.00000000000E+00 -0.84675355862E+03  0.84675355862E+03  0.00000000000E+00 0.  1.
         -6    2    1    2    0  503 -0.12654782914E+03  0.25241946888E+03 -0.29944322655E+03  0.44578860966E+03  0.17126382352E+03 0.  0.
        -24    2    3    3    0    0 -0.11208183250E+03  0.13869398554E+03 -0.25617307463E+03  0.32316256566E+03  0.83731958509E+02 0.  0.
          6    2    1    2  501    0  0.12654782914E+03 -0.25241946888E+03 -0.41668494312E+03  0.53159033791E+03  0.17097369451E+03 0.  0.
         24    2    5    5    0    0  0.84314316150E+02 -0.23541666881E+03 -0.40708639342E+03  0.48482510526E+03  0.82499327975E+02 0.  0.
          5    1    5    5  501    0  0.42233512985E+02 -0.17002800067E+02 -0.95985496972E+01  0.46765232657E+02  0.47000000000E+01 0. -1.
        -13    1    6    6    0    0 -0.65036763436E+01  0.28948018381E+01 -0.50705749381E+01  0.87400465598E+01  0.00000000000E+00 0.  1.
         14    1    6    6    0    0  0.90817992494E+02 -0.23831147065E+03 -0.40201581848E+03  0.47608505870E+03  0.00000000000E+00 0. -1.
         -5    1    3    3    0  503 -0.14465996634E+02  0.11372548334E+03 -0.43270151924E+02  0.12262604400E+03  0.47000000000E+01 0.  1.
         13    1    4    4    0    0 -0.27673519413E+02  0.96628571676E+02 -0.10812460802E+03  0.14762735316E+03  0.00000000000E+00 0. -1.
        -14    1    4    4    0    0 -0.84408313088E+02  0.42065413861E+02 -0.14804846661E+03  0.17553521250E+03  0.00000000000E+00 0.  1.
</event>
<event>
12    1  0.9962621E-001  0.2050624E+03  0.7818608E-02  0.1145779E+00
         21   -1    0    0  501  502  0.00000000000E+00  0.00000000000E+00  0.53621057660E+02  0.53621057660E+02  0.00000000000E+00 0.  1.
         21   -1    0    0  502  503 -0.00000000000E+00 -0.00000000000E+00 -0.85812682343E+03  0.85812682343E+03  0.00000000000E+00 0.  1.
         -6    2    1    2    0  503  0.17808913834E+02  0.10760827139E+03 -0.53900897386E+03  0.57627932656E+03  0.17225124335E+03 0.  0.
        -24    2    3    3    0    0  0.68296472011E+02  0.65574053018E+02 -0.28062761940E+03  0.30963558788E+03  0.90321492419E+02 0.  0.
          6    2    1    2  501    0 -0.17808913834E+02 -0.10760827139E+03 -0.26549679191E+03  0.33546855453E+03  0.17364880386E+03 0.  0.
         24    2    5    5    0    0 -0.23808214784E+02 -0.38427713928E+02 -0.26676825169E+02  0.86713639690E+02  0.69022329853E+02 0.  0.
          5    1    5    5  501    0  0.59993009508E+01 -0.69180557462E+02 -0.23881996674E+03  0.24875491484E+03  0.47000000000E+01 0. -1.
        -11    1    6    6    0    0 -0.16465306580E+01  0.88078310772E+01  0.16640573992E+02  0.18899673391E+02  0.00000000000E+00 0.  1.
         12    1    6    6    0    0 -0.22161684126E+02 -0.47235545005E+02 -0.43317399161E+02  0.67813966300E+02  0.00000000000E+00 0. -1.
         -5    1    3    3    0  503 -0.50487558177E+02  0.42034218371E+02 -0.25838135446E+03  0.26664373868E+03  0.47000000000E+01 0.  1.
         13    1    4    4    0    0  0.44419534721E+02 -0.11403629085E+02 -0.14268501445E+03  0.14987378413E+03  0.00000000000E+00 0. -1.
        -14    1    4    4    0    0  0.23876937290E+02  0.76977682104E+02 -0.13794260495E+03  0.15976180374E+03  0.00000000000E+00 0.  1.
</event>
<event>
12    1  0.9962621E-001  0.2019968E+03  0.7818608E-02  0.1148311E+00
         21   -1    0    0  501  502  0.00000000000E+00  0.00000000000E+00  0.65356992494E+02  0.65356992494E+02  0.00000000000E+00 0. -1.
         21   -1    0    0  502  503 -0.00000000000E+00 -0.00000000000E+00 -0.95924953829E+03  0.95924953829E+03  0.00000000000E+00 0.  1.
         -6    2    1    2    0  503 -0.89167170686E+02  0.56894644265E+02 -0.14174135065E+03  0.24580352411E+03  0.17070728487E+03 0.  0.
        -24    2    3    3    0    0 -0.12071033890E+03  0.60000493887E+02 -0.14707697325E+03  0.21332004167E+03  0.75516613655E+02 0.  0.
          6    2    1    2  501    0  0.89167170686E+02 -0.56894644265E+02 -0.75215119515E+03  0.77880300668E+03  0.17208985435E+03 0.  0.
         24    2    5    5    0    0  0.10721521144E+03 -0.47209128177E+02 -0.74114604476E+03  0.75508077381E+03  0.84413932327E+02 0.  0.
          5    1    5    5  501    0 -0.18048040757E+02 -0.96855160879E+01 -0.11005150393E+02  0.23722232867E+02  0.47000000000E+01 0. -1.
        -13    1    6    6    0    0  0.66817919017E+02 -0.68601067605E+02 -0.56726580830E+03  0.57529230661E+03  0.00000000000E+00 0.  1.
         14    1    6    6    0    0  0.40397292426E+02  0.21391939428E+02 -0.17388023645E+03  0.17978846719E+03  0.00000000000E+00 0. -1.
         -5    1    3    3    0  503  0.31543168210E+02 -0.31058496225E+01  0.53356225963E+01  0.32483482435E+02  0.47000000000E+01 0.  1.
         13    1    4    4    0    0 -0.35412522086E+02  0.54833272295E+02 -0.87425703961E+02  0.10910539943E+03  0.00000000000E+00 0. -1.
        -14    1    4    4    0    0 -0.85297816810E+02  0.51672215924E+01 -0.59651269285E+02  0.10421464225E+03  0.00000000000E+00 0.  1.
</event>
<event>
12    1  0.9962621E-001  0.2972179E+03  0.7818608E-02  0.1086838E+00
         21   -1    0    0  501  502  0.00000000000E+00  0.00000000000E+00  0.46361187342E+03  0.46361187342E+03  0.00000000000E+00 0.  1.
         21   -1    0    0  502  503 -0.00000000000E+00 -0.00000000000E+00 -0.19209294751E+03  0.19209294751E+03  0.00000000000E+00 0. -1.
         -6    2    1    2    0  503  0.19270028177E+03 -0.14350457381E+03  0.17318608769E+03  0.34264280909E+03  0.17228961766E+03 0.  0.
        -24    2    3    3    0    0  0.11761586962E+03 -0.10878525626E+03  0.36383968344E+02  0.18270529061E+03  0.79935632217E+02 0.  0.
          6    2    1    2  501    0 -0.19270028177E+03  0.14350457381E+03  0.98332838219E+02  0.31306201184E+03  0.17496146686E+03 0.  0.
         24    2    5    5    0    0 -0.18442431022E+03  0.61291776744E+02  0.94891041056E+02  0.23022861474E+03  0.78942366806E+02 0.  0.
          5    1    5    5  501    0 -0.82759715468E+01  0.82212797065E+02  0.34417971635E+01  0.82833397094E+02  0.47000000000E+01 0. -1.
        -13    1    6    6    0    0 -0.16744605261E+03  0.30848411352E+02  0.59000547990E+02  0.18019675269E+03  0.00000000000E+00 0.  1.
         14    1    6    6    0    0 -0.16978257613E+02  0.30443365392E+02  0.35890493066E+02  0.50031862053E+02  0.00000000000E+00 0. -1.
         -5    1    3    3    0  503  0.75084412148E+02 -0.34719317545E+02  0.13680211935E+03  0.15993751848E+03  0.47000000000E+01 0.  1.
         11    1    4    4    0    0  0.28717077885E+02 -0.55678854503E+02  0.47411825702E+02  0.78566447148E+02  0.00000000000E+00 0. -1.
        -12    1    4    4    0    0  0.88898791736E+02 -0.53106401761E+02 -0.11027857358E+02  0.10413884346E+03  0.00000000000E+00 0.  1.
</event>
<event>
12    1  0.9962621E-001  0.2198706E+03  0.7818608E-02  0.1135399E+00
         21   -1    0    0  503  502  0.00000000000E+00  0.00000000000E+00  0.23463883267E+03  0.23463883267E+03  0.00000000000E+00 0.  1.
         21   -1    0    0  501  503 -0.00000000000E+00 -0.00000000000E+00 -0.40168274808E+03  0.40168274808E+03  0.00000000000E+00 0.  1.
          6    2    1    2  501    0  0.12633144475E+03 -0.47771055512E+02  0.14312929499E+03  0.25612358659E+03  0.16392555886E+03 0.  0.
         24    2    3    3    0    0  0.93032986035E+02 -0.35291421236E+02  0.22146403528E+02  0.12993531990E+03  0.80573589122E+02 0.  0.
         -6    2    1    2    0  502 -0.12633144475E+03  0.47771055512E+02 -0.31017321041E+03  0.38019799415E+03  0.17349751187E+03 0.  0.
        -24    2    5    5    0    0 -0.59447457593E+02  0.26756995849E+02 -0.53606262598E+02  0.11418343224E+03  0.76904406681E+02 0.  0.
          5    1    3    3  501    0  0.33298458714E+02 -0.12479634277E+02  0.12098289147E+03  0.12618826670E+03  0.47000000000E+01 0. -1.
        -13    1    4    4    0    0  0.67225319705E+02 -0.36630798214E+02  0.50390317667E+02  0.91652840119E+02  0.00000000000E+00 0.  1.
         14    1    4    4    0    0  0.25807666329E+02  0.13393769784E+01 -0.28243914139E+02  0.38282479778E+02  0.00000000000E+00 0. -1.
         -5    1    5    5    0  502 -0.66883987156E+02  0.21014059664E+02 -0.25656694781E+03  0.26601456191E+03  0.47000000000E+01 0.  1.
         13    1    6    6    0    0 -0.61034250154E+02  0.13353987573E+01 -0.62342634724E+02  0.87255756750E+02  0.00000000000E+00 0. -1.
        -14    1    6    6    0    0  0.15867925609E+01  0.25421597091E+02  0.87363721258E+01  0.26927675489E+02  0.00000000000E+00 0.  1.
</event>
<event>
12    1  0.9962621E-001  0.2772320E+03  0.7818608E-02  0.1099179E+00
         21   -1    0    0  503  502  0.00000000000E+00  0.00000000000E+00  0.56751550074E+03  0.56751550074E+03  0.00000000000E+00 0. -1.
         21   -1    0    0  501  503 -0.00000000000E+00 -0.00000000000E+00 -0.13148583580E+03  0.13148583580E+03  0.00000000000E+00 0. -1.
          6    2    1    2  501    0  0.12642375630E+03  0.17533978294E+03  0.16211212239E+03  0.30927271058E+03  0.15047346493E+03 0.  0.
         24    2    3    3    0    0  0.11208132974E+03  0.18481475411E+03  0.17294214283E+03  0.28841942257E+03  0.80981854363E+02 0.  0.
         -6    2    1    2    0  502 -0.12642375630E+03 -0.17533978294E+03  0.27391754255E+03  0.38972862596E+03  0.17358161231E+03 0.  0.
        -24    2    5    5    0    0 -0.12310503053E+03 -0.53587285701E+02  0.14639423237E+03  0.21332293114E+03  0.77775034215E+02 0.  0.
          5    1    3    3  501    0  0.14342426563E+02 -0.94749711728E+01 -0.10830020435E+02  0.20853288016E+02  0.47000000000E+01 0. -1.
        -11    1    4    4    0    0  0.61502647994E+02  0.16182604873E+03  0.11324230110E+03  0.20686726304E+03  0.00000000000E+00 0.  1.
         12    1    4    4    0    0  0.50578681745E+02  0.22988705379E+02  0.59699841722E+02  0.81552159528E+02  0.00000000000E+00 0. -1.
         -5    1    5    5    0  502 -0.33187257691E+01 -0.12175249723E+03  0.12752331019E+03  0.17640569482E+03  0.47000000000E+01 0.  1.
         13    1    6    6    0    0 -0.74002071445E+02 -0.27708884103E+01  0.11315096801E+03  0.13522990040E+03  0.00000000000E+00 0. -1.
        -14    1    6    6    0    0 -0.49102959089E+02 -0.50816397291E+02  0.33243264363E+02  0.78093030741E+02  0.00000000000E+00 0.  1.
</event>
<event>
12    1  0.9962621E-001  0.2341789E+03  0.7818608E-02  0.1124273E+00
         21   -1    0    0  501  502  0.00000000000E+00  0.00000000000E+00  0.27041864751E+03  0.27041864751E+03  0.00000000000E+00 0.  1.
         21   -1    0    0  502  503 -0.00000000000E+00 -0.00000000000E+00 -0.21967075840E+03  0.21967075840E+03  0.00000000000E+00 0.  1.
         -6    2    1    2    0  503 -0.43278699818E+02 -0.14928892567E+03  0.98355754381E+02  0.25112025847E+03  0.17095993860E+03 0.  0.
        -24    2    3    3    0    0  0.36841133059E+02 -0.63882771257E+02  0.71942548816E+02  0.13098222844E+03  0.80884709849E+02 0.  0.
          6    2    1    2  501    0  0.43278699818E+02  0.14928892567E+03 -0.47607865266E+02  0.23896914744E+03  0.17515568906E+03 0.  0.
         24    2    5    5    0    0  0.59837021187E+01  0.70432906693E+02  0.51309604321E+02  0.10699966471E+03  0.61803347133E+02 0.  0.
          5    1    5    5  501    0  0.37294997700E+02  0.78856018975E+02 -0.98917469587E+02  0.13196948273E+03  0.47000000000E+01 0. -1.
        -13    1    6    6    0    0  0.13790614157E+02  0.23823848149E+01 -0.82364300190E+01  0.16238706096E+02  0.00000000000E+00 0.  1.
         14    1    6    6    0    0 -0.78069120381E+01  0.68050521878E+02  0.59546034340E+02  0.90760958617E+02  0.00000000000E+00 0. -1.
         -5    1    3    3    0  503 -0.80119832878E+02 -0.85406154411E+02  0.26413205565E+02  0.12013803003E+03  0.47000000000E+01 0.  1.
         13    1    4    4    0    0 -0.25316484223E+02 -0.26853123115E+02  0.20610386570E+02  0.42270588226E+02  0.00000000000E+00 0. -1.
        -14    1    4    4    0    0  0.62157617282E+02 -0.37029648142E+02  0.51332162247E+02  0.88711640209E+02  0.00000000000E+00 0.  1.
</event>
<event>
12    1  0.9962621E-001  0.1856792E+03  0.7818608E-02  0.1162896E+00
         21   -1    0    0  503  502  0.00000000000E+00  0.00000000000E+00  0.31639330847E+03  0.31639330847E+03  0.00000000000E+00 0. -1.
         21   -1    0    0  501  503 -0.00000000000E+00 -0.00000000000E+00 -0.15716564966E+03  0.15716564966E+03  0.00000000000E+00 0. -1.
          6    2    1    2  501    0  0.55843146149E+02  0.42044672542E+02  0.21266028162E+03  0.28231390761E+03  0.17201899776E+03 0.  0.
         24    2    3    3    0    0  0.65642924528E+02  0.41657421754E+02  0.23341740954E+03  0.25888029972E+03  0.80566669167E+02 0.  0.
         -6    2    1    2    0  502 -0.55843146149E+02 -0.42044672542E+02 -0.53432622807E+02  0.19124505052E+03  0.16980404208E+03 0.  0.
        -24    2    5    5    0    0  0.92461821416E+01 -0.17755642085E+02 -0.80307035638E+02  0.11660657704E+03  0.82140849313E+02 0.  0.
          5    1    3    3  501    0 -0.97997783784E+01  0.38725078823E+00 -0.20757127917E+02  0.23433607891E+02  0.47000000000E+01 0. -1.
        -11    1    4    4    0    0  0.60758376603E+02  0.23563986618E+01  0.80296230861E+02  0.10072049261E+03  0.00000000000E+00 0.  1.
         12    1    4    4    0    0  0.48845479247E+01  0.39301023092E+02  0.15312117868E+03  0.15815980711E+03  0.00000000000E+00 0. -1.
         -5    1    5    5    0  502 -0.65089328291E+02 -0.24289030457E+02  0.26874412831E+02  0.74638473476E+02  0.47000000000E+01 0.  1.
         13    1    6    6    0    0  0.28756232940E+02 -0.43429202638E+02 -0.53573054024E+02  0.74720068871E+02  0.00000000000E+00 0. -1.
        -14    1    6    6    0    0 -0.19510050798E+02  0.25673560553E+02 -0.26733981614E+02  0.41886508168E+02  0.00000000000E+00 0.  1.
</event>
<event>
12    1  0.9962621E-001  0.2261873E+03  0.7818608E-02  0.1129806E+00
         21   -1    0    0  503  502  0.00000000000E+00  0.00000000000E+00  0.97254529833E+02  0.97254529833E+02  0.00000000000E+00 0. -1.
         21   -1    0    0  501  503 -0.00000000000E+00 -0.00000000000E+00 -0.52467852827E+03  0.52467852827E+03  0.00000000000E+00 0. -1.
          6    2    1    2  501    0  0.12984305193E+03  0.68501146545E+02 -0.18627570962E+03  0.29301760615E+03  0.17207281105E+03 0.  0.
         24    2    3    3    0    0  0.11661191924E+03 -0.18837355072E+01 -0.74764160753E+02  0.16040535171E+03  0.80859810521E+02 0.  0.
         -6    2    1    2    0  502 -0.12984305193E+03 -0.68501146545E+02 -0.24114828882E+03  0.32891545196E+03  0.16876389462E+03 0.  0.
        -24    2    5    5    0    0 -0.17683348357E+02 -0.73829278700E+02 -0.10105650094E+03  0.14931593323E+03  0.79494454722E+02 0.  0.
          5    1    3    3  501    0  0.13231132691E+02  0.70384882053E+02 -0.11151154887E+03  0.13261225443E+03  0.47000000000E+01 0. -1.
        -13    1    4    4    0    0 -0.91236483586E+01  0.12748897452E+01  0.59429554230E+01  0.10962892976E+02  0.00000000000E+00 0.  1.
         14    1    4    4    0    0  0.12573556760E+03 -0.31586252524E+01 -0.80707116176E+02  0.14944245874E+03  0.00000000000E+00 0. -1.
         -5    1    5    5    0  502 -0.11215970357E+03  0.53281321549E+01 -0.14009178788E+03  0.17959951873E+03  0.47000000000E+01 0.  1.
         13    1    6    6    0    0  0.66826259163E+01  0.14612415700E+02 -0.26992434197E+02  0.31412922271E+02  0.00000000000E+00 0. -1.
        -14    1    6    6    0    0 -0.24365974273E+02 -0.88441694400E+02 -0.74064066739E+02  0.11790301096E+03  0.00000000000E+00 0.  1.
</event>
<event>
12    1  0.9962621E-001  0.2165566E+03  0.7818608E-02  0.1136831E+00
         21   -1    0    0  501  502  0.00000000000E+00  0.00000000000E+00  0.24951032877E+04  0.24951032877E+04  0.00000000000E+00 0.  1.
         21   -1    0    0  502  503 -0.00000000000E+00 -0.00000000000E+00 -0.19825196334E+02  0.19825196334E+02  0.00000000000E+00 0. -1.
         -6    2    1    2    0  503 -0.80873008469E+02  0.10352649223E+03  0.92449173737E+03  0.94909481948E+03  0.16981703625E+03 0.  0.
        -24    2    3    3    0    0 -0.37582439579E+02 -0.16132177117E+02  0.42800380390E+03  0.43653786792E+03  0.75533880316E+02 0.  0.
          6    2    1    2  501    0  0.80873008469E+02 -0.10352649223E+03  0.15507863540E+04  0.15658336646E+04  0.17215856420E+03 0.  0.
         24    2    5    5    0    0  0.54083007047E+02 -0.94088177647E+02  0.62082509078E+03  0.63542685727E+03  0.81030492883E+02 0.  0.
          5    1    5    5  501    0  0.26790001422E+02 -0.94383145782E+01  0.92996126322E+03  0.93040680728E+03  0.47000000000E+01 0. -1.
        -13    1    6    6    0    0  0.86303969081E+01  0.14826000379E+02  0.92958966376E+02  0.94528638347E+02  0.00000000000E+00 0.  1.
         14    1    6    6    0    0  0.45452610139E+02 -0.10891417803E+03  0.52786612440E+03  0.54089821893E+03  0.00000000000E+00 0. -1.
         -5    1    3    3    0  503 -0.43290568890E+02  0.11965866934E+03  0.49648793347E+03  0.51255695156E+03  0.47000000000E+01 0.  1.
         13    1    4    4    0    0  0.68995591695E+01 -0.33297980987E+02  0.24824721948E+03  0.25056544342E+03  0.00000000000E+00 0. -1.
        -14    1    4    4    0    0 -0.44481998748E+02  0.17165803870E+02  0.17975658442E+03  0.18597242450E+03  0.00000000000E+00 0.  1.
</event>
<event>
12    1  0.9962621E-001  0.2113967E+03  0.7818608E-02  0.1140508E+00
         21   -1    0    0  501  502  0.00000000000E+00  0.00000000000E+00  0.20909945247E+03  0.20909945247E+03  0.00000000000E+00 0. -1.
         21   -1    0    0  502  503 -0.00000000000E+00 -0.00000000000E+00 -0.21549973509E+03  0.21549973509E+03  0.00000000000E+00 0. -1.
         -6    2    1    2    0  503 -0.76754564854E+02 -0.97805740955E+02  0.17263137637E+02  0.21188219562E+03  0.17070097455E+03 0.  0.
        -24    2    3    3    0    0 -0.10756079735E+02 -0.11654742687E+03  0.45658748149E+01  0.14195107729E+03  0.80188934207E+02 0.  0.
          6    2    1    2  501    0  0.76754564854E+02  0.97805740955E+02 -0.23663420259E+02  0.21271699194E+03  0.17097173747E+03 0.  0.
         24    2    5    5    0    0  0.16559174055E+02  0.30960944674E+02 -0.70042920783E+02  0.11140134689E+03  0.79192569077E+02 0.  0.
          5    1    5    5  501    0  0.60195390799E+02  0.66844796281E+02  0.46379500524E+02  0.10131564505E+03  0.47000000000E+01 0. -1.
        -11    1    6    6    0    0  0.44681259915E+02  0.32297691845E+01 -0.24288784805E+02  0.50958723138E+02  0.00000000000E+00 0.  1.
         12    1    6    6    0    0 -0.28122085860E+02  0.27731175490E+02 -0.45754135978E+02  0.60442623754E+02  0.00000000000E+00 0. -1.
         -5    1    3    3    0  503 -0.65998485118E+02  0.18741685911E+02  0.12697262822E+02  0.69931118337E+02  0.47000000000E+01 0.  1.
         13    1    4    4    0    0  0.29966529240E+02 -0.17322674772E+02  0.17758072658E+01  0.34658641453E+02  0.00000000000E+00 0. -1.
        -14    1    4    4    0    0 -0.40722608975E+02 -0.99224752094E+02  0.27900675491E+01  0.10729243583E+03  0.00000000000E+00 0.  1.
</event>
<event>
12    1  0.9962621E-001  0.2028034E+03  0.7818608E-02  0.1147470E+00
         21   -1    0    0  501  502  0.00000000000E+00  0.00000000000E+00  0.63043304122E+02  0.63043304122E+02  0.00000000000E+00 0. -1.
         21   -1    0    0  502  503 -0.00000000000E+00 -0.00000000000E+00 -0.69096090704E+03  0.69096090704E+03  0.00000000000E+00 0. -1.
         -6    2    1    2    0  503  0.69559246883E+02  0.81598815837E+02 -0.22330346806E+03  0.30140969128E+03  0.17171635792E+03 0.  0.
        -24    2    3    3    0    0  0.86483232233E+02  0.36300726589E+02 -0.22097971464E+03  0.25276991332E+03  0.79142293322E+02 0.  0.
          6    2    1    2  501    0 -0.69559246883E+02 -0.81598815837E+02 -0.40461413486E+03  0.45259451988E+03  0.17214048253E+03 0.  0.
         24    2    5    5    0    0  0.10107337751E+02 -0.69871777283E+02 -0.31215517673E+03  0.32989555053E+03  0.80037468516E+02 0.  0.
          5    1    5    5  501    0 -0.79666584633E+02 -0.11727038554E+02 -0.92458958125E+02  0.12269896934E+03  0.47000000000E+01 0. -1.
        -13    1    6    6    0    0 -0.29426186674E+02 -0.32297129809E+02 -0.77330754330E+02  0.88820327748E+02  0.00000000000E+00 0.  1.
         14    1    6    6    0    0  0.39533524425E+02 -0.37574647473E+02 -0.23482442240E+03  0.24107522279E+03  0.00000000000E+00 0. -1.
         -5    1    3    3    0  503 -0.16923985350E+02  0.45298089248E+02 -0.23237534225E+01  0.48639777956E+02  0.47000000000E+01 0.  1.
         11    1    4    4    0    0  0.79357312300E+02 -0.28462114067E+01 -0.11667938328E+03  0.14113738845E+03  0.00000000000E+00 0. -1.
        -12    1    4    4    0    0  0.71259199336E+01  0.39146937996E+02 -0.10430033136E+03  0.11163252488E+03  0.00000000000E+00 0.  1.
</event>
<event>
12    1  0.9962621E-001  0.2080057E+03  0.7818608E-02  0.1143327E+00
         21   -1    0    0  503  502  0.00000000000E+00  0.00000000000E+00  0.34499192617E+03  0.34499192617E+03  0.00000000000E+00 0.  1.
         21   -1    0    0  501  503 -0.00000000000E+00 -0.00000000000E+00 -0.12491919011E+03  0.12491919011E+03  0.00000000000E+00 0.  1.
          6    2    1    2  501    0  0.42543215922E+02 -0.10831131328E+03  0.10663982014E+03  0.23298625749E+03  0.17137467471E+03 0.  0.
         24    2    3    3    0    0  0.67299831086E+02 -0.18300488470E+02  0.27246907279E+02  0.11034791442E+03  0.81056110924E+02 0.  0.
         -6    2    1    2    0  502 -0.42543215922E+02  0.10831131328E+03  0.11343291592E+03  0.23692485879E+03  0.17240967634E+03 0.  0.
        -24    2    5    5    0    0 -0.79843078260E+01  0.20547136589E+02 -0.86462939817E+01  0.82580139648E+02  0.79112496303E+02 0.  0.
          5    1    3    3  501    0 -0.24756615164E+02 -0.90010824807E+02  0.79392912864E+02  0.12263834307E+03  0.47000000000E+01 0. -1.
        -13    1    4    4    0    0  0.15700704013E+01  0.25251169731E+02 -0.38447041797E+01  0.25590397498E+02  0.00000000000E+00 0.  1.
         14    1    4    4    0    0  0.65729760685E+02 -0.43551658201E+02  0.31091611459E+02  0.84757516922E+02  0.00000000000E+00 0. -1.
         -5    1    5    5    0  502 -0.34558908096E+02  0.87764176688E+02  0.12207920990E+03  0.15434471915E+03  0.47000000000E+01 0.  1.
         11    1    6    6    0    0  0.15870669616E+02  0.40409720200E+02  0.12310977332E+02  0.45126309439E+02  0.00000000000E+00 0. -1.
        -12    1    6    6    0    0 -0.23854977442E+02 -0.19862583611E+02 -0.20957271314E+02  0.37453830210E+02  0.00000000000E+00 0.  1.
</event>
<event>
12    1  0.9962621E-001  0.2410886E+03  0.7818608E-02  0.1119429E+00
         21   -1    0    0  503  502  0.00000000000E+00  0.00000000000E+00  0.35408625035E+03  0.35408625035E+03  0.00000000000E+00 0. -1.
         21   -1    0    0  501  503 -0.00000000000E+00 -0.00000000000E+00 -0.17547058858E+03  0.17547058858E+03  0.00000000000E+00 0. -1.
          6    2    1    2  501    0 -0.10019189942E+03 -0.13660487919E+03  0.18203155623E+02  0.24177478124E+03  0.17153536149E+03 0.  0.
         24    2    3    3    0    0 -0.34840919715E+02 -0.16487855985E+02  0.51400339668E+02  0.10098063065E+03  0.77906057324E+02 0.  0.
         -6    2    1    2    0  502  0.10019189942E+03  0.13660487919E+03  0.16041250615E+03  0.28778205768E+03  0.16848451225E+03 0.  0.
        -24    2    5    5    0    0  0.72591445204E+02  0.14435753708E+03  0.70821231860E+02  0.19359832657E+03  0.79724831391E+02 0.  0.
          5    1    3    3  501    0 -0.65350979707E+02 -0.12011702320E+03 -0.33197184045E+02  0.14079415059E+03  0.47000000000E+01 0. -1.
        -13    1    4    4    0    0 -0.78474457428E+01 -0.25140366273E+02 -0.13909766190E+02  0.29784257864E+02  0.00000000000E+00 0.  1.
         14    1    4    4    0    0 -0.26993473972E+02  0.86525102875E+01  0.65310105858E+02  0.71196372791E+02  0.00000000000E+00 0. -1.
         -5    1    5    5    0  502  0.27600454219E+02 -0.77526578934E+01  0.89591274292E+02  0.94183731115E+02  0.47000000000E+01 0.  1.
         13    1    6    6    0    0  0.82725630803E+02  0.11762356492E+03  0.35430093687E+02  0.14810173718E+03  0.00000000000E+00 0. -1.
        -14    1    6    6    0    0 -0.10134185599E+02  0.26733972155E+02  0.35391138173E+02  0.45496589390E+02  0.00000000000E+00 0.  1.
</event>
<event>
12    1  0.9962621E-001  0.1878803E+03  0.7818608E-02  0.1160574E+00
         21   -1    0    0  503  502  0.00000000000E+00  0.00000000000E+00  0.14282921590E+04  0.14282921590E+04  0.00000000000E+00 0. -1.
         21   -1    0    0  501  503 -0.00000000000E+00 -0.00000000000E+00 -0.27518215134E+02  0.27518215134E+02  0.00000000000E+00 0. -1.
          6    2    1    2  501    0  0.65798317713E+02 -0.34772173760E+02  0.93850733428E+03  0.95712853773E+03  0.17251231421E+03 0.  0.
         24    2    3    3    0    0  0.10782918139E+03 -0.45927624141E+02  0.77890541566E+03  0.79164168024E+03  0.79160749911E+02 0.  0.
         -6    2    1    2    0  502 -0.65798317713E+02  0.34772173760E+02  0.46226660959E+03  0.49868183641E+03  0.17162352095E+03 0.  0.
        -24    2    5    5    0    0 -0.93207123558E+02 -0.59807591666E+01  0.40119490477E+03  0.42017140838E+03  0.82845177556E+02 0.  0.
          5    1    3    3  501    0 -0.42030863676E+02  0.11155450381E+02  0.15960191862E+03  0.16548685749E+03  0.47000000000E+01 0. -1.
        -13    1    4    4    0    0  0.55865569915E+02 -0.56022515763E+02  0.59606284549E+03  0.60129061190E+03  0.00000000000E+00 0.  1.
         14    1    4    4    0    0  0.51963611474E+02  0.10094891622E+02  0.18284257017E+03  0.19035106834E+03  0.00000000000E+00 0. -1.
         -5    1    5    5    0  502  0.27408805846E+02  0.40752932926E+02  0.61071704819E+02  0.78510428030E+02  0.47000000000E+01 0.  1.
         11    1    6    6    0    0 -0.97683652288E+01 -0.34944455491E+02  0.12897050696E+03  0.13397733986E+03  0.00000000000E+00 0. -1.
        -12    1    6    6    0    0 -0.83438758329E+02  0.28963696325E+02  0.27222439781E+03  0.28619406852E+03  0.00000000000E+00 0.  1.
</event>
<event>
12    1  0.9962621E-001  0.2865665E+03  0.7818608E-02  0.1092226E+00
         21   -1    0    0  503  502  0.00000000000E+00  0.00000000000E+00  0.13898582528E+03  0.13898582528E+03  0.00000000000E+00 0. -1.
         21   -1    0    0  501  503 -0.00000000000E+00 -0.00000000000E+00 -0.76406723216E+03  0.76406723216E+03  0.00000000000E+00 0. -1.
          6    2    1    2  501    0  0.21323966113E+03 -0.82515545208E+02 -0.52797990024E+03  0.60048226592E+03  0.17186101464E+03 0.  0.
         24    2    3    3    0    0  0.19168841232E+03 -0.30540125482E+02 -0.48798054682E+03  0.53128733219E+03  0.80399431505E+02 0.  0.
         -6    2    1    2    0  502 -0.21323966113E+03  0.82515545208E+02 -0.97101506648E+02  0.30257079152E+03  0.17274377850E+03 0.  0.
        -24    2    5    5    0    0 -0.71961586658E+02 -0.20966020690E+02 -0.49998196414E+02  0.12116312729E+03  0.81010121543E+02 0.  0.
          5    1    3    3  501    0  0.21551248802E+02 -0.51975419726E+02 -0.39999353423E+02  0.69194933737E+02  0.47000000000E+01 0. -1.
        -13    1    4    4    0    0  0.16386176865E+00  0.53748474890E+01  0.47400118615E+00  0.53981953775E+01  0.00000000000E+00 0.  1.
         14    1    4    4    0    0  0.19152455056E+03 -0.35914972971E+02 -0.48845454800E+03  0.52588913681E+03  0.00000000000E+00 0. -1.
         -5    1    5    5    0  502 -0.14127807447E+03  0.10348156590E+03 -0.47103310234E+02  0.18140766423E+03  0.47000000000E+01 0.  1.
         13    1    6    6    0    0 -0.28697625417E+02 -0.40504378307E+02  0.33485380105E+01  0.49753101144E+02  0.00000000000E+00 0. -1.
        -14    1    6    6    0    0 -0.43263961240E+02  0.19538357617E+02 -0.53346734425E+02  0.71410026147E+02  0.00000000000E+00 0.  1.
</event>
<event>
12    1  0.9962621E-001  0.2217749E+03  0.7818608E-02  0.1133127E+00
         21   -1    0    0  503  502  0.00000000000E+00  0.00000000000E+00  0.17156875842E+03  0.17156875842E+03  0.00000000000E+00 0. -1.
         21   -1    0    0  501  503 -0.00000000000E+00 -0.00000000000E+00 -0.53890720320E+03  0.53890720320E+03  0.00000000000E+00 0. -1.
          6    2    1    2  501    0 -0.12274234142E+03 -0.57007215269E+02 -0.42922357011E+03  0.48313246555E+03  0.17569462473E+03 0.  0.
         24    2    3    3    0    0 -0.31793564130E+02 -0.73158439277E+02 -0.31579718703E+03  0.33677613153E+03  0.85599716578E+02 0.  0.
         -6    2    1    2    0  502  0.12274234142E+03  0.57007215269E+02  0.61885125331E+02  0.22734349607E+03  0.17187143886E+03 0.  0.
        -24    2    5    5    0    0  0.70781354879E+01 -0.14123426667E+02  0.12582570912E+02  0.82807657507E+02  0.80307010081E+02 0.  0.
          5    1    3    3  501    0 -0.90948777291E+02  0.16151224008E+02 -0.11342638309E+03  0.14635633402E+03  0.47000000000E+01 0. -1.
        -13    1    4    4    0    0 -0.37428073020E+02 -0.50802823155E+02 -0.30474445241E+03  0.31120888285E+03  0.00000000000E+00 0.  1.
         14    1    4    4    0    0  0.56345088898E+01 -0.22355616122E+02 -0.11052734617E+02  0.25567248682E+02  0.00000000000E+00 0. -1.
         -5    1    5    5    0  502  0.11566420593E+03  0.71130641936E+02  0.49302554419E+02  0.14453583856E+03  0.47000000000E+01 0.  1.
         13    1    6    6    0    0 -0.14042899840E+02  0.28941745436E+02  0.13367416771E+02  0.34835549313E+02  0.00000000000E+00 0. -1.
        -14    1    6    6    0    0  0.21121035328E+02 -0.43065172103E+02 -0.78484585856E+00  0.47972108194E+02  0.00000000000E+00 0.  1.
</event>
<event>
12    1  0.9962621E-001  0.1838826E+03  0.7818608E-02  0.1164144E+00
         21   -1    0    0  501  502  0.00000000000E+00  0.00000000000E+00  0.31867855010E+02  0.31867855010E+02  0.00000000000E+00 0. -1.
         21   -1    0    0  502  503 -0.00000000000E+00 -0.00000000000E+00 -0.10650760569E+04  0.10650760569E+04  0.00000000000E+00 0. -1.
         -6    2    1    2    0  503  0.65042043090E+02  0.95869233099E+01 -0.47858975771E+03  0.51269969361E+03  0.17172781711E+03 0.  0.
        -24    2    3    3    0    0 -0.15254507499E+02 -0.14284085001E+02 -0.12852054324E+03  0.15271649123E+03  0.79800135184E+02 0.  0.
          6    2    1    2  501    0 -0.65042043090E+02 -0.95869233099E+01 -0.55461844415E+03  0.58424421828E+03  0.17151475600E+03 0.  0.
         24    2    5    5    0    0  0.28773754485E+01  0.37692202872E+02 -0.39857213924E+03  0.40754984241E+03  0.76211169913E+02 0.  0.
          5    1    5    5  501    0 -0.67919418539E+02 -0.47279126182E+02 -0.15604630491E+03  0.17669437587E+03  0.47000000000E+01 0. -1.
        -11    1    6    6    0    0 -0.35054627337E+02  0.82563447860E+01 -0.20302686427E+03  0.20619626995E+03  0.00000000000E+00 0.  1.
         12    1    6    6    0    0  0.37932002785E+02  0.29435858087E+02 -0.19554527497E+03  0.20135357246E+03  0.00000000000E+00 0. -1.
         -5    1    3    3    0  503  0.80296550589E+02  0.23871008311E+02 -0.35006921447E+03  0.35998320237E+03  0.47000000000E+01 0.  1.
         13    1    4    4    0    0  0.31340624684E+02  0.29767133681E+01 -0.63573612439E+02  0.70941523641E+02  0.00000000000E+00 0. -1.
        -14    1    4    4    0    0 -0.46595132183E+02 -0.17260798369E+02 -0.64946930806E+02  0.81774967592E+02  0.00000000000E+00 0.  1.
</event>
<event>
12    1  0.9962621E-001  0.2479757E+03  0.7818608E-02  0.1114599E+00
         21   -1    0    0  501  502  0.00000000000E+00  0.00000000000E+00  0.11901331256E+04  0.11901331256E+04  0.00000000000E+00 0. -1.
         21   -1    0    0  502  503 -0.00000000000E+00 -0.00000000000E+00 -0.74034996919E+02  0.74034996919E+02  0.00000000000E+00 0. -1.
         -6    2    1    2    0  503  0.99320261189E+02  0.14745662831E+03  0.21058554040E+03  0.32532785760E+03  0.17286981689E+03 0.  0.
        -24    2    3    3    0    0  0.10353310528E+03  0.88054023517E+02  0.69959014179E+02  0.17253935218E+03  0.80018431880E+02 0.  0.
          6    2    1    2  501    0 -0.99320261189E+02 -0.14745662831E+03  0.90551258831E+03  0.93884026495E+03  0.17280053236E+03 0.  0.
         24    2    5    5    0    0  0.14509118059E+02 -0.85102319471E+02  0.48651208358E+03  0.50017330657E+03  0.77629954572E+02 0.  0.
          5    1    5    5  501    0 -0.11382937925E+03 -0.62354308834E+02  0.41900050473E+03  0.43866695838E+03  0.47000000000E+01 0. -1.
        -13    1    6    6    0    0 -0.19669215340E+02 -0.35122780224E+02  0.84172710322E+02  0.93303445197E+02  0.00000000000E+00 0.  1.
         14    1    6    6    0    0  0.34178333400E+02 -0.49979539247E+02  0.40233937326E+03  0.40686986137E+03  0.00000000000E+00 0. -1.
         -5    1    3    3    0  503 -0.42128440902E+01  0.59402604789E+02  0.14062652622E+03  0.15278850542E+03  0.47000000000E+01 0.  1.
         13    1    4    4    0    0  0.48201276052E+02  0.11230665504E+02 -0.77001929267E+01  0.50087761298E+02  0.00000000000E+00 0. -1.
        -14    1    4    4    0    0  0.55331829227E+02  0.76823358013E+02  0.77659207105E+02  0.12245159088E+03  0.00000000000E+00 0.  1.
</event>
<event>
12    1  0.9962621E-001  0.5339892E+03  0.7818608E-02  0.1005294E+00
         21   -1    0    0  501  502  0.00000000000E+00  0.00000000000E+00  0.10689876151E+04  0.10689876151E+04  0.00000000000E+00 0. -1.
         21   -1    0    0  502  503 -0.00000000000E+00 -0.00000000000E+00 -0.34305600061E+03  0.34305600061E+03  0.00000000000E+00 0. -1.
         -6    2    1    2    0  503 -0.47222884638E+03 -0.18026158741E+03  0.29637993913E+02  0.53481102875E+03  0.17219205135E+03 0.  0.
        -24    2    3    3    0    0 -0.11457206867E+03 -0.36055635801E+02  0.40059365627E+02  0.14900742313E+03  0.78560114452E+02 0.  0.
          6    2    1    2  501    0  0.47222884638E+03  0.18026158741E+03  0.69629362061E+03  0.87723258698E+03  0.17093239105E+03 0.  0.
         24    2    5    5    0    0  0.24419500424E+03  0.40833557266E+02  0.29037135324E+03  0.39119289117E+03  0.86126510609E+02 0.  0.
          5    1    5    5  501    0  0.22803384214E+03  0.13942803014E+03  0.40592226737E+03  0.48603969580E+03  0.47000000000E+01 0. -1.
        -11    1    6    6    0    0  0.11578966742E+03  0.62695182053E+02  0.13811826741E+03  0.19082606930E+03  0.00000000000E+00 0.  1.
         12    1    6    6    0    0  0.12840533682E+03 -0.21861624787E+02  0.15225308583E+03  0.20036682187E+03  0.00000000000E+00 0. -1.
         -5    1    3    3    0  503 -0.35765677771E+03 -0.14420595161E+03 -0.10421371714E+02  0.38580360562E+03  0.47000000000E+01 0.  1.
         13    1    4    4    0    0 -0.75602853105E+02 -0.25255026868E+02  0.63815097219E+02  0.10210766089E+03  0.00000000000E+00 0. -1.
        -14    1    4    4    0    0 -0.38969215562E+02 -0.10800608933E+02 -0.23755731592E+02  0.46899762242E+02  0.00000000000E+00 0.  1.
</event>
<event>
12    1  0.9962621E-001  0.1857463E+03  0.7818608E-02  0.1163123E+00
         21   -1    0    0  503  502  0.00000000000E+00  0.00000000000E+00  0.59601177701E+02  0.59601177701E+02  0.00000000000E+00 0.  1.
         21   -1    0    0  501  503 -0.00000000000E+00 -0.00000000000E+00 -0.12112589718E+04  0.12112589718E+04  0.00000000000E+00 0.  1.
          6    2    1    2  501    0  0.33277625465E+02 -0.51630434447E+02 -0.10362243495E+04  0.10521672903E+04  0.17181967916E+03 0.  0.
         24    2    3    3    0    0  0.58315365450E+02 -0.87895445355E+02 -0.87441115167E+03  0.88439470483E+03  0.80204991173E+02 0.  0.
         -6    2    1    2    0  502 -0.33277625465E+02  0.51630434447E+02 -0.11543344460E+03  0.21869285920E+03  0.17529570565E+03 0.  0.
        -24    2    5    5    0    0 -0.23686524966E+01  0.16866952500E+02  0.14562251493E+02  0.80544984488E+02  0.77364919417E+02 0.  0.
          5    1    3    3  501    0 -0.25037739986E+02  0.36265010908E+02 -0.16181319779E+03  0.16777258542E+03  0.47000000000E+01 0. -1.
        -11    1    4    4    0    0  0.42997724481E+01 -0.12187229419E+02 -0.43768623807E+03  0.43787699140E+03  0.00000000000E+00 0.  1.
         12    1    4    4    0    0  0.54015593002E+02 -0.75708215936E+02 -0.43672491360E+03  0.44651771343E+03  0.00000000000E+00 0. -1.
         -5    1    5    5    0  502 -0.30908972968E+02  0.34763481947E+02 -0.12999569609E+03  0.13814787472E+03  0.47000000000E+01 0.  1.
         11    1    6    6    0    0 -0.30301296035E+02  0.20161718173E+02 -0.15337160422E+02  0.39495466967E+02  0.00000000000E+00 0. -1.
        -12    1    6    6    0    0  0.27932643539E+02 -0.32947656726E+01  0.29899411915E+02  0.41049517522E+02  0.00000000000E+00 0.  1.
</event>
<event>
12    1  0.9962621E-001  0.2413709E+03  0.7818608E-02  0.1120539E+00
         21   -1    0    0  503  502  0.00000000000E+00  0.00000000000E+00  0.34035553793E+03  0.34035553793E+03  0.00000000000E+00 0.  1.
         21   -1    0    0  501  503 -0.00000000000E+00 -0.00000000000E+00 -0.17070909624E+03  0.17070909624E+03  0.00000000000E+00 0.  1.
          6    2    1    2  501    0  0.14188717483E+03  0.92264683866E+02  0.36995413850E+02  0.24418961761E+03  0.17209057624E+03 0.  0.
         24    2    3    3    0    0  0.10339076508E+03  0.58792031991E+02 -0.42291557307E+02  0.14979202345E+03  0.80640691594E+02 0.  0.
         -6    2    1    2    0  502 -0.14188717483E+03 -0.92264683866E+02  0.13265102784E+03  0.26687501656E+03  0.15805453808E+03 0.  0.
        -24    2    5    5    0    0 -0.62988956798E+02 -0.43748442330E+02  0.13415738839E+03  0.17412204559E+03  0.80241803429E+02 0.  0.
          5    1    3    3  501    0  0.38496409745E+02  0.33472651875E+02  0.79286971157E+02  0.94397594154E+02  0.47000000000E+01 0. -1.
        -13    1    4    4    0    0  0.39549522140E+02  0.64789398882E+02 -0.39594926803E+02  0.85613019673E+02  0.00000000000E+00 0.  1.
         14    1    4    4    0    0  0.63841242945E+02 -0.59973668903E+01 -0.26966305034E+01  0.64179003782E+02  0.00000000000E+00 0. -1.
         -5    1    5    5    0  502 -0.78898218031E+02 -0.48516241536E+02 -0.15063605479E+01  0.92752970968E+02  0.47000000000E+01 0.  1.
         11    1    6    6    0    0 -0.80946564710E+02 -0.28220380379E+02  0.92063850253E+02  0.12579542412E+03  0.00000000000E+00 0. -1.
        -12    1    6    6    0    0  0.17957607912E+02 -0.15528061951E+02  0.42093538136E+02  0.48326621470E+02  0.00000000000E+00 0.  1.
</event>
<event>
12    1  0.9962621E-001  0.2652237E+03  0.7818608E-02  0.1104265E+00
         21   -1    0    0  503  502  0.00000000000E+00  0.00000000000E+00  0.89998899814E+02  0.89998899814E+02  0.00000000000E+00 0.  1.
         21   -1    0    0  501  503 -0.00000000000E+00 -0.00000000000E+00 -0.99711886572E+03  0.99711886572E+03  0.00000000000E+00 0.  1.
          6    2    1    2  501    0 -0.39090139175E+02 -0.19479146770E+03 -0.19727882020E+03  0.32934597724E+03  0.17343034613E+03 0.  0.
         24    2    3    3    0    0 -0.31748729165E+02 -0.23204308235E+02 -0.90212371670E+02  0.12690743350E+03  0.80129912954E+02 0.  0.
         -6    2    1    2    0  502  0.39090139175E+02  0.19479146770E+03 -0.70984114571E+03  0.75777178829E+03  0.17570394454E+03 0.  0.
        -24    2    5    5    0    0 -0.17731986610E+02  0.97238098496E+02 -0.24641001017E+03  0.28076453341E+03  0.91329945602E+02 0.  0.
          5    1    3    3  501    0 -0.73414100104E+01 -0.17158715946E+03 -0.10706644853E+03  0.20243854374E+03  0.47000000000E+01 0. -1.
        -13    1    4    4    0    0 -0.34130061049E+02  0.94101371456E+01 -0.51505034777E+01  0.35776241200E+02  0.00000000000E+00 0.  1.
         14    1    4    4    0    0  0.23813318838E+01 -0.32614445380E+02 -0.85061868193E+02  0.91131192297E+02  0.00000000000E+00 0. -1.
         -5    1    5    5    0  502  0.56822125785E+02  0.97553369199E+02 -0.46343113554E+03  0.47700725488E+03  0.47000000000E+01 0.  1.
         13    1    6    6    0    0 -0.46285105381E+02  0.53354379397E+02 -0.19495937893E+03  0.20735997737E+03  0.00000000000E+00 0. -1.
        -14    1    6    6    0    0  0.28553118771E+02  0.43883719098E+02 -0.51450631235E+02  0.73404556044E+02  0.00000000000E+00 0.  1.
</event>
<event>
12    1  0.9962621E-001  0.2017484E+03  0.7818608E-02  0.1148302E+00
         21   -1    0    0  501  502  0.00000000000E+00  0.00000000000E+00  0.90575572496E+03  0.90575572496E+03  0.00000000000E+00 0.  1.
         21   -1    0    0  502  503 -0.00000000000E+00 -0.00000000000E+00 -0.45259565100E+02  0.45259565100E+02  0.00000000000E+00 0.  1.
         -6    2    1    2    0  503 -0.57185933092E+02 -0.89319199893E+02  0.47215418509E+03  0.51339456032E+03  0.17145334542E+03 0.  0.
        -24    2    3    3    0    0  0.10456984149E+02 -0.71865562080E+02  0.15076972986E+03  0.18447169431E+03  0.77616280680E+02 0.  0.
          6    2    1    2  501    0  0.57185933092E+02  0.89319199893E+02  0.38834197477E+03  0.43762072974E+03  0.17162244409E+03 0.  0.
         24    2    5    5    0    0  0.52489168707E+02 -0.11770408303E+02  0.14738586483E+03  0.17623384139E+03  0.80262808064E+02 0.  0.
          5    1    5    5  501    0  0.46967643848E+01  0.10108960820E+03  0.24095610994E+03  0.26138688835E+03  0.47000000000E+01 0. -1.
        -13    1    6    6    0    0  0.24712036173E+02  0.23260421884E+02  0.16134601563E+02  0.37577351233E+02  0.00000000000E+00 0.  1.
         14    1    6    6    0    0  0.27777132534E+02 -0.35030830187E+02  0.13125126326E+03  0.13865649016E+03  0.00000000000E+00 0. -1.
         -5    1    3    3    0  503 -0.67642917241E+02 -0.17453637813E+02  0.32138445523E+03  0.32892286601E+03  0.47000000000E+01 0.  1.
         13    1    4    4    0    0  0.39791784398E+02 -0.17911363949E+02  0.76791775933E+02  0.88324288364E+02  0.00000000000E+00 0. -1.
        -14    1    4    4    0    0 -0.29334800249E+02 -0.53954198131E+02  0.73977953931E+02  0.96147405943E+02  0.00000000000E+00 0.  1.
</event>
<event>
12    1  0.9962621E-001  0.2568121E+03  0.7818608E-02  0.1109467E+00
         21   -1    0    0  501  502  0.00000000000E+00  0.00000000000E+00  0.15804015373E+04  0.15804015373E+04  0.00000000000E+00 0.  1.
         21   -1    0    0  502  503 -0.00000000000E+00 -0.00000000000E+00 -0.22292054808E+03  0.22292054808E+03  0.00000000000E+00 0.  1.
         -6    2    1    2    0  503 -0.11813957478E+03  0.14660978049E+03  0.14919339309E+04  0.15134427112E+04  0.17085256494E+03 0.  0.
        -24    2    3    3    0    0 -0.81834834663E+02  0.15512608927E+03  0.14115459534E+04  0.14247021985E+04  0.80952652655E+02 0.  0.
          6    2    1    2  501    0  0.11813957478E+03 -0.14660978049E+03 -0.13445294164E+03  0.28987937426E+03  0.17464555889E+03 0.  0.
         24    2    5    5    0    0  0.68084772163E+02 -0.35661297788E+02 -0.12500595938E+03  0.16770579056E+03  0.81187917497E+02 0.  0.
          5    1    5    5  501    0  0.50054802618E+02 -0.11094848271E+03 -0.94469822656E+01  0.12217358370E+03  0.47000000000E+01 0. -1.
        -13    1    6    6    0    0 -0.81778686034E+01 -0.16592336730E+02  0.17200625709E+01  0.18577992041E+02  0.00000000000E+00 0.  1.
         14    1    6    6    0    0  0.76262640767E+02 -0.19068961058E+02 -0.12672602195E+03  0.14912779852E+03  0.00000000000E+00 0. -1.
         -5    1    3    3    0  503 -0.36304740118E+02 -0.85163087767E+01  0.80387977465E+02  0.88740512683E+02  0.47000000000E+01 0.  1.
         13    1    4    4    0    0  0.15001631290E+02  0.34984518641E+02  0.33436725784E+03  0.33652701022E+03  0.00000000000E+00 0. -1.
        -14    1    4    4    0    0 -0.96836465953E+02  0.12014157063E+03  0.10771786956E+04  0.10881751883E+04  0.00000000000E+00 0.  1.
</event>
<event>
12    1  0.9962621E-001  0.2075712E+03  0.7818608E-02  0.1143507E+00
         21   -1    0    0  503  502  0.00000000000E+00  0.00000000000E+00  0.41497586211E+02  0.41497586211E+02  0.00000000000E+00 0.  1.
         21   -1    0    0  501  503 -0.00000000000E+00 -0.00000000000E+00 -0.10588999554E+04  0.10588999554E+04  0.00000000000E+00 0.  1.
          6    2    1    2  501    0 -0.36177489931E+02  0.10965049121E+03 -0.43178704133E+03  0.47908856320E+03  0.17249278629E+03 0.  0.
         24    2    3    3    0    0 -0.33977558009E+02  0.71449485523E+02 -0.42532366379E+03  0.43999864397E+03  0.80243904946E+02 0.  0.
         -6    2    1    2    0  502  0.36177489931E+02 -0.10965049121E+03 -0.58561532781E+03  0.62130897837E+03  0.17247461677E+03 0.  0.
        -24    2    5    5    0    0 -0.26350672850E+02 -0.10171205191E+03 -0.49248275911E+03  0.50875430138E+03  0.72470488383E+02 0.  0.
          5    1    3    3  501    0 -0.21999319218E+01  0.38201005691E+02 -0.64633775408E+01  0.39089919232E+02  0.47000000000E+01 0. -1.
        -11    1    4    4    0    0 -0.76722898028E+01  0.70682443825E+02 -0.18422988265E+03  0.19747283752E+03  0.00000000000E+00 0.  1.
         12    1    4    4    0    0 -0.26305268207E+02  0.76704169725E+00 -0.24109378114E+03  0.24252580645E+03  0.00000000000E+00 0. -1.
         -5    1    5    5    0  502  0.62528162781E+02 -0.79384393045E+01 -0.93132568701E+02  0.11255467699E+03  0.47000000000E+01 0.  1.
         13    1    6    6    0    0  0.12586946588E+02  0.38563095750E+01 -0.29662962130E+02  0.32452945480E+02  0.00000000000E+00 0. -1.
        -14    1    6    6    0    0 -0.38937619438E+02 -0.10556836148E+03 -0.46281979698E+03  0.47630135590E+03  0.00000000000E+00 0.  1.
</event>
<event>
12    1  0.9962621E-001  0.1875721E+03  0.7818608E-02  0.1160929E+00
         21   -1    0    0  503  502  0.00000000000E+00  0.00000000000E+00  0.18989859895E+03  0.18989859895E+03  0.00000000000E+00 0. -1.
         21   -1    0    0  501  503 -0.00000000000E+00 -0.00000000000E+00 -0.18425417611E+03  0.18425417611E+03  0.00000000000E+00 0. -1.
          6    2    1    2  501    0  0.56556263971E+02  0.46859133612E+02 -0.13595463697E+01  0.18644999696E+03  0.17136908591E+03 0.  0.
         24    2    3    3    0    0  0.67892636555E+02  0.92086827358E+02 -0.40825545751E+00  0.13957726951E+03  0.79951570459E+02 0.  0.
         -6    2    1    2    0  502 -0.56556263971E+02 -0.46859133612E+02  0.70039692052E+01  0.18770277810E+03  0.17259457675E+03 0.  0.
        -24    2    5    5    0    0  0.29439998640E+02 -0.28504583609E+02  0.33083209503E+02  0.95863443043E+02  0.80100412948E+02 0.  0.
          5    1    3    3  501    0 -0.11336372584E+02 -0.45227693746E+02 -0.95129091220E+00  0.46872727458E+02  0.47000000000E+01 0. -1.
        -11    1    4    4    0    0  0.59066778464E+02  0.16188859769E+02  0.11291588033E+02  0.62277310949E+02  0.00000000000E+00 0.  1.
         12    1    4    4    0    0  0.88258580910E+01  0.75897967588E+02 -0.11699843491E+02  0.77299958556E+02  0.00000000000E+00 0. -1.
         -5    1    5    5    0  502 -0.85996262611E+02 -0.18354550003E+02 -0.26079240298E+02  0.91839335056E+02  0.47000000000E+01 0.  1.
         13    1    6    6    0    0  0.13591011382E+02 -0.55653310731E+02  0.13606155504E+02  0.58882374725E+02  0.00000000000E+00 0. -1.
        -14    1    6    6    0    0  0.15848987258E+02  0.27148727122E+02  0.19477053999E+02  0.36981068318E+02  0.00000000000E+00 0.  1.
</event>
<event>
12    1  0.9962621E-001  0.3302608E+03  0.7818608E-02  0.1071367E+00
         21   -1    0    0  501  502  0.00000000000E+00  0.00000000000E+00  0.17254993105E+03  0.17254993105E+03  0.00000000000E+00 0. -1.
         21   -1    0    0  502  503 -0.00000000000E+00 -0.00000000000E+00 -0.11615775650E+04  0.11615775650E+04  0.00000000000E+00 0.  1.
         -6    2    1    2    0  503 -0.16583546459E+03 -0.22386931620E+03 -0.42900717167E+02  0.33303549885E+03  0.17735078209E+03 0.  0.
        -24    2    3    3    0    0 -0.80589466545E+02 -0.38348770315E+02 -0.50271080763E+02  0.12868001106E+03  0.77885001016E+02 0.  0.
          6    2    1    2  501    0  0.16583546459E+03  0.22386931620E+03 -0.94612691682E+03  0.10010919972E+04  0.17149394198E+03 0.  0.
         24    2    5    5    0    0  0.16973597142E+03  0.16097073207E+03 -0.59310772915E+03  0.64246115262E+03  0.79105484514E+02 0.  0.
          5    1    5    5  501    0 -0.39005068225E+01  0.62898584136E+02 -0.35301918768E+03  0.35863084461E+03  0.47000000000E+01 0. -1.
        -11    1    6    6    0    0  0.12650066943E+03  0.82940851325E+02 -0.43981666788E+03  0.46510246778E+03  0.00000000000E+00 0.  1.
         12    1    6    6    0    0  0.43235301983E+02  0.78029880743E+02 -0.15329106126E+03  0.17735868484E+03  0.00000000000E+00 0. -1.
         -5    1    3    3    0  503 -0.85245998048E+02 -0.18552054589E+03  0.73703635954E+01  0.20435548779E+03  0.47000000000E+01 0.  1.
         13    1    4    4    0    0 -0.65023030958E+02 -0.32494745210E+02 -0.71332464135E+02  0.10184411353E+03  0.00000000000E+00 0. -1.
        -14    1    4    4    0    0 -0.15566435587E+02 -0.58540251052E+01  0.21061383372E+02  0.26835897532E+02  0.00000000000E+00 0.  1.
</event>
<event>
12    1  0.9962621E-001  0.1758067E+03  0.7818608E-02  0.1172516E+00
         21   -1    0    0  501  502  0.00000000000E+00  0.00000000000E+00  0.15538942825E+03  0.15538942825E+03  0.00000000000E+00 0.  1.
         21   -1    0    0  502  503 -0.00000000000E+00 -0.00000000000E+00 -0.24039476939E+03  0.24039476939E+03  0.00000000000E+00 0.  1.
         -6    2    1    2    0  503  0.21533317775E+02  0.55052741634E+01  0.42061442986E+02  0.18076824351E+03  0.17439610391E+03 0.  0.
        -24    2    3    3    0    0 -0.10715936406E+02 -0.25801139072E+02  0.82710262899E+02  0.11998565994E+03  0.82310636812E+02 0.  0.
          6    2    1    2  501    0 -0.21533317775E+02 -0.55052741634E+01 -0.12706678412E+03  0.21501595413E+03  0.17202296674E+03 0.  0.
         24    2    5    5    0    0 -0.22090516623E+02  0.29881830111E+01  0.39464777830E+01  0.83642387234E+02  0.80520519701E+02 0.  0.
          5    1    5    5  501    0  0.55719884730E+00 -0.84934571745E+01 -0.13101326190E+03  0.13137356689E+03  0.47000000000E+01 0. -1.
        -11    1    6    6    0    0 -0.38804723502E+02  0.30273495637E+02 -0.72382838262E+01  0.49746194396E+02  0.00000000000E+00 0.  1.
         12    1    6    6    0    0  0.16714206879E+02 -0.27285312626E+02  0.11184761609E+02  0.33896192838E+02  0.00000000000E+00 0. -1.
         -5    1    3    3    0  503  0.32249254182E+02  0.31306413235E+02 -0.40648819914E+02  0.60782583569E+02  0.47000000000E+01 0.  1.
         11    1    4    4    0    0  0.35950864290E+02 -0.14721581639E+02  0.40030800772E+02  0.55782207016E+02  0.00000000000E+00 0. -1.
        -12    1    4    4    0    0 -0.46666800696E+02 -0.11079557433E+02  0.42679462128E+02  0.64203452926E+02  0.00000000000E+00 0.  1.
</event>
<event>
12    1  0.9962621E-001  0.2367964E+03  0.7818608E-02  0.1122297E+00
         21   -1    0    0  501  502  0.00000000000E+00  0.00000000000E+00  0.86137263697E+02  0.86137263697E+02  0.00000000000E+00 0.  1.
         21   -1    0    0  502  503 -0.00000000000E+00 -0.00000000000E+00 -0.11792595825E+04  0.11792595825E+04  0.00000000000E+00 0. -1.
         -6    2    1    2    0  503  0.13787473190E+03  0.81226088620E+02 -0.97099049661E+03  0.99895974712E+03  0.17172918415E+03 0.  0.
        -24    2    3    3    0    0  0.12658081380E+03  0.12150172058E+03 -0.78403077646E+03  0.80732022595E+03  0.79223217937E+02 0.  0.
          6    2    1    2  501    0 -0.13787473190E+03 -0.81226088620E+02 -0.12213182220E+03  0.26643709908E+03  0.17454348056E+03 0.  0.
         24    2    5    5    0    0 -0.11117391829E+03 -0.67669360766E+02 -0.15764017314E+03  0.21975036324E+03  0.80628874861E+02 0.  0.
          5    1    5    5  501    0 -0.26700813603E+02 -0.13556727854E+02  0.35508350941E+02  0.46686735843E+02  0.47000000000E+01 0. -1.
        -11    1    6    6    0    0 -0.24988493627E+02  0.91092763182E+01 -0.29751968221E+01  0.26762950602E+02  0.00000000000E+00 0.  1.
         12    1    6    6    0    0 -0.86185424668E+02 -0.76778637084E+02 -0.15466497632E+03  0.19298741264E+03  0.00000000000E+00 0. -1.
         -5    1    3    3    0  503  0.11293918094E+02 -0.40275631963E+02 -0.18695972015E+03  0.19163952117E+03  0.47000000000E+01 0.  1.
         11    1    4    4    0    0  0.90991783767E+02  0.49093492979E+02 -0.55362673063E+03  0.56319821789E+03  0.00000000000E+00 0. -1.
        -12    1    4    4    0    0  0.35589030037E+02  0.72408227603E+02 -0.23040404583E+03  0.24412200806E+03  0.00000000000E+00 0.  1.
</event>
<event>
12    1  0.9962621E-001  0.2401080E+03  0.7818608E-02  0.1119774E+00
         21   -1    0    0  501  502  0.00000000000E+00  0.00000000000E+00  0.15109825462E+03  0.15109825462E+03  0.00000000000E+00 0.  1.
         21   -1    0    0  502  503 -0.00000000000E+00 -0.00000000000E+00 -0.38133345141E+03  0.38133345141E+03  0.00000000000E+00 0.  1.
         -6    2    1    2    0  503  0.26990265357E+01 -0.16517885961E+03 -0.10784406864E+03  0.26321513822E+03  0.17424271992E+03 0.  0.
        -24    2    3    3    0    0 -0.54600647364E+02 -0.46907161712E+02 -0.32623377178E+02  0.11171698782E+03  0.78961307716E+02 0.  0.
          6    2    1    2  501    0 -0.26990265357E+01  0.16517885961E+03 -0.12239112816E+03  0.26921656781E+03  0.17380055157E+03 0.  0.
         24    2    5    5    0    0  0.43986241357E+02  0.11618398300E+03 -0.13490169367E+03  0.20023384228E+03  0.80384185661E+02 0.  0.
          5    1    5    5  501    0 -0.46685267893E+02  0.48994876604E+02  0.12510565513E+02  0.68982725527E+02  0.47000000000E+01 0. -1.
        -11    1    6    6    0    0  0.65563340612E+02  0.74741665776E+02 -0.10582251570E+03  0.14520080256E+03  0.00000000000E+00 0.  1.
         12    1    6    6    0    0 -0.21577099255E+02  0.41442317227E+02 -0.29079177967E+02  0.55033039718E+02  0.00000000000E+00 0. -1.
         -5    1    3    3    0  503  0.57299673900E+02 -0.11827169789E+03 -0.75220691462E+02  0.15149815040E+03  0.47000000000E+01 0.  1.
         11    1    4    4    0    0 -0.62616064292E+02 -0.45243100228E+02  0.85151093522E+00  0.77255645079E+02  0.00000000000E+00 0. -1.
        -12    1    4    4    0    0  0.80154169285E+01 -0.16640614836E+01 -0.33474888113E+02  0.34461342739E+02  0.00000000000E+00 0.  1.
</event>
<event>
12    1  0.9962621E-001  0.2175589E+03  0.7818608E-02  0.1136280E+00
         21   -1    0    0  503  502  0.00000000000E+00  0.00000000000E+00  0.11858150075E+03  0.11858150075E+03  0.00000000000E+00 0. -1.
         21   -1    0    0  501  503 -0.00000000000E+00 -0.00000000000E+00 -0.58379222821E+03  0.58379222821E+03  0.00000000000E+00 0. -1.
          6    2    1    2  501    0  0.25361250771E+02  0.12684294119E+03 -0.31159118037E+02  0.21685063493E+03  0.17123370714E+03 0.  0.
         24    2    3    3    0    0  0.14756591895E+02  0.29878704043E+01  0.13151387323E+02  0.84797432639E+02  0.82407288633E+02 0.  0.
         -6    2    1    2    0  502 -0.25361250771E+02 -0.12684294119E+03 -0.43405160942E+03  0.48552309404E+03  0.17492727184E+03 0.  0.
        -24    2    5    5    0    0 -0.10777860012E+02  0.84875361596E+01 -0.13897539475E+03  0.16053220824E+03  0.79172147885E+02 0.  0.
          5    1    3    3  501    0  0.10604658876E+02  0.12385507079E+03 -0.44310505360E+02  0.13205320229E+03  0.47000000000E+01 0. -1.
        -11    1    4    4    0    0  0.22533335380E+02  0.33836771743E+02  0.28327349631E+02  0.49549137858E+02  0.00000000000E+00 0.  1.
         12    1    4    4    0    0 -0.77767434859E+01 -0.30848901338E+02 -0.15175962308E+02  0.35248294782E+02  0.00000000000E+00 0. -1.
         -5    1    5    5    0  502 -0.14583390759E+02 -0.13533047735E+03 -0.29507621467E+03  0.32499088580E+03  0.47000000000E+01 0.  1.
         13    1    6    6    0    0  0.20729867725E+02  0.14032673429E+02 -0.12155292287E+03  0.12410381299E+03  0.00000000000E+00 0. -1.
        -14    1    6    6    0    0 -0.31507727737E+02 -0.55451372695E+01 -0.17422471878E+02  0.36428395254E+02  0.00000000000E+00 0.  1.
</event>
<event>
12    1  0.9962621E-001  0.2272995E+03  0.7818608E-02  0.1128846E+00
         21   -1    0    0  503  502  0.00000000000E+00  0.00000000000E+00  0.13440121912E+04  0.13440121912E+04  0.00000000000E+00 0. -1.
         21   -1    0    0  501  503 -0.00000000000E+00 -0.00000000000E+00 -0.94938265520E+02  0.94938265520E+02  0.00000000000E+00 0. -1.
          6    2    1    2  501    0  0.78354988189E+02 -0.12481955513E+03  0.11800007225E+04  0.12013874839E+04  0.17091154424E+03 0.  0.
         24    2    3    3    0    0 -0.17438729252E+02 -0.97059224758E+02  0.62948555340E+03  0.64189118042E+03  0.77766465625E+02 0.  0.
         -6    2    1    2    0  502 -0.78354988189E+02  0.12481955513E+03  0.69073203155E+02  0.23756297275E+03  0.17304806590E+03 0.  0.
        -24    2    5    5    0    0  0.89065407118E+01  0.90603922143E+02  0.75178280293E+02  0.14351699499E+03  0.81590176171E+02 0.  0.
          5    1    3    3  501    0  0.95793717442E+02 -0.27760330369E+02  0.55051516909E+03  0.55949630351E+03  0.47000000000E+01 0. -1.
        -13    1    4    4    0    0 -0.30918409640E+02 -0.15318146621E+02  0.30705466688E+03  0.30898731709E+03  0.00000000000E+00 0.  1.
         14    1    4    4    0    0  0.13479680388E+02 -0.81741078137E+02  0.32243088652E+03  0.33290386333E+03  0.00000000000E+00 0. -1.
         -5    1    5    5    0  502 -0.87261528901E+02  0.34215632985E+02 -0.61050771381E+01  0.94045977764E+02  0.47000000000E+01 0.  1.
         11    1    6    6    0    0  0.47849929561E+01  0.30491687927E+02  0.77291807083E+02  0.83226574076E+02  0.00000000000E+00 0. -1.
        -12    1    6    6    0    0  0.41215477557E+01  0.60112234215E+02 -0.21135267907E+01  0.60290420912E+02  0.00000000000E+00 0.  1.
</event>
<event>
12    1  0.9962621E-001  0.2746903E+03  0.7818608E-02  0.1098765E+00
         21   -1    0    0  503  502  0.00000000000E+00  0.00000000000E+00  0.42550651464E+02  0.42550651464E+02  0.00000000000E+00 0.  1.
         21   -1    0    0  501  503 -0.00000000000E+00 -0.00000000000E+00 -0.17668557157E+04  0.17668557157E+04  0.00000000000E+00 0.  1.
          6    2    1    2  501    0  0.17267138309E+03  0.12666785380E+03 -0.86438596594E+03  0.90698283551E+03  0.17203085210E+03 0.  0.
         24    2    3    3    0    0  0.60340980815E+02  0.11115474521E+03 -0.61434077539E+03  0.63238592524E+03  0.80628523425E+02 0.  0.
         -6    2    1    2    0  502 -0.17267138309E+03 -0.12666785380E+03 -0.85991909832E+03  0.90242353168E+03  0.17043245919E+03 0.  0.
        -24    2    5    5    0    0 -0.11894232769E+03 -0.24199139106E+02 -0.34207636755E+03  0.37179199031E+03  0.80499485529E+02 0.  0.
          5    1    3    3  501    0  0.11233040227E+03  0.15513108596E+02 -0.25004519055E+03  0.27459691027E+03  0.47000000000E+01 0. -1.
        -11    1    4    4    0    0  0.27273695945E+01 -0.12875840817E+02 -0.48657834552E+02  0.50406454795E+02  0.00000000000E+00 0.  1.
         12    1    4    4    0    0  0.57613611220E+02  0.12403058602E+03 -0.56568294083E+03  0.58197947044E+03  0.00000000000E+00 0. -1.
         -5    1    5    5    0  502 -0.53729055396E+02 -0.10246871470E+03 -0.51784273077E+03  0.53063154137E+03  0.47000000000E+01 0.  1.
         11    1    6    6    0    0 -0.62726772450E+02 -0.29501811851E+02 -0.27742689666E+03  0.28595574461E+03  0.00000000000E+00 0. -1.
        -12    1    6    6    0    0 -0.56215555240E+02  0.53026727451E+01 -0.64649470890E+02  0.85836245698E+02  0.00000000000E+00 0.  1.
</event>
<event>
12    1  0.9962621E-001  0.2000008E+03  0.7818608E-02  0.1149764E+00
         21   -1    0    0  501  502  0.00000000000E+00  0.00000000000E+00  0.41301704533E+02  0.41301704533E+02  0.00000000000E+00 0.  1.
         21   -1    0    0  502  503 -0.00000000000E+00 -0.00000000000E+00 -0.96798550005E+03  0.96798550005E+03  0.00000000000E+00 0.  1.
         -6    2    1    2    0  503 -0.63269049134E+02 -0.76273087038E+02 -0.45886034690E+03  0.50055281420E+03  0.17372318630E+03 0.  0.
        -24    2    3    3    0    0 -0.10916655994E+02  0.24821621681E+02 -0.22651886111E+03  0.24177574949E+03  0.80058930312E+02 0.  0.
          6    2    1    2  501    0  0.63269049134E+02  0.76273087038E+02 -0.46782344862E+03  0.50873439039E+03  0.17358382557E+03 0.  0.
         24    2    5    5    0    0  0.45249759363E+01  0.18454179044E+02 -0.39268188936E+03  0.39710000417E+03  0.55931341412E+02 0.  0.
          5    1    5    5  501    0  0.58744073198E+02  0.57818907994E+02 -0.75141559261E+02  0.11163438622E+03  0.47000000000E+01 0. -1.
        -11    1    6    6    0    0 -0.22941645613E+02  0.15058101767E+02 -0.12420547921E+03  0.12720089071E+03  0.00000000000E+00 0.  1.
         12    1    6    6    0    0  0.27466621549E+02  0.33960772774E+01 -0.26847641015E+03  0.26989911346E+03  0.00000000000E+00 0. -1.
         -5    1    3    3    0  503 -0.52352393140E+02 -0.10109470872E+03 -0.23234148579E+03  0.25877706470E+03  0.47000000000E+01 0.  1.
         11    1    4    4    0    0 -0.35051022725E+02 -0.14849680610E+02 -0.99194539999E+02  0.10624803045E+03  0.00000000000E+00 0. -1.
        -12    1    4    4    0    0  0.24134366731E+02  0.39671302291E+02 -0.12732432111E+03  0.13552771905E+03  0.00000000000E+00 0.  1.
</event>
<event>
12    1  0.9962621E-001  0.1919548E+03  0.7818608E-02  0.1156736E+00
         21   -1    0    0  501  502  0.00000000000E+00  0.00000000000E+00  0.11963208318E+03  0.11963208318E+03  0.00000000000E+00 0. -1.
         21   -1    0    0  502  503 -0.00000000000E+00 -0.00000000000E+00 -0.34550477944E+03  0.34550477944E+03  0.00000000000E+00 0. -1.
         -6    2    1    2    0  503  0.79914620969E+02 -0.26967977397E+02 -0.36093089821E+02  0.19520547730E+03  0.17230452341E+03 0.  0.
        -24    2    3    3    0    0  0.83872711279E+02 -0.69615679851E+01  0.36168767708E+02  0.11997390846E+03  0.77475569233E+02 0.  0.
          6    2    1    2  501    0 -0.79914620969E+02  0.26967977397E+02 -0.18977960644E+03  0.26993138532E+03  0.17243269792E+03 0.  0.
         24    2    5    5    0    0  0.24861794569E+02  0.14135152696E+02 -0.99495477290E+02  0.13094903889E+03  0.80189708911E+02 0.  0.
          5    1    5    5  501    0 -0.10477641554E+03  0.12832824701E+02 -0.90284129151E+02  0.13898234643E+03  0.47000000000E+01 0. -1.
        -11    1    6    6    0    0 -0.11840769578E+02  0.38827764811E+02 -0.53186955743E+02  0.66907782848E+02  0.00000000000E+00 0.  1.
         12    1    6    6    0    0  0.36702564147E+02 -0.24692612115E+02 -0.46308521547E+02  0.64041256046E+02  0.00000000000E+00 0. -1.
         -5    1    3    3    0  503 -0.39580903100E+01 -0.20006409412E+02 -0.72261857529E+02  0.75231568839E+02  0.47000000000E+01 0.  1.
         11    1    4    4    0    0  0.53898790732E+02  0.22182114977E+02  0.49103512839E+02  0.76212078048E+02  0.00000000000E+00 0. -1.
        -12    1    4    4    0    0  0.29973920547E+02 -0.29143682962E+02 -0.12934745131E+02  0.43761830414E+02  0.00000000000E+00 0.  1.
</event>
<event>
12    1  0.9962621E-001  0.1806706E+03  0.7818608E-02  0.1167202E+00
         21   -1    0    0  503  502  0.00000000000E+00  0.00000000000E+00  0.12344492824E+03  0.12344492824E+03  0.00000000000E+00 0.  1.
         21   -1    0    0  501  503 -0.00000000000E+00 -0.00000000000E+00 -0.26608017050E+03  0.26608017050E+03  0.00000000000E+00 0.  1.
          6    2    1    2  501    0  0.50714773693E+02 -0.12030584024E+02 -0.87899277035E+02  0.20074509327E+03  0.17278769153E+03 0.  0.
         24    2    3    3    0    0  0.64462019416E+02 -0.54465872010E+02 -0.16879834098E+02  0.11674752362E+03  0.78887085832E+02 0.  0.
         -6    2    1    2    0  502 -0.50714773693E+02  0.12030584024E+02 -0.54735965229E+02  0.18878000548E+03  0.17298884749E+03 0.  0.
        -24    2    5    5    0    0 -0.57700619675E+02  0.50160920051E+02 -0.85865809032E+02  0.13884122551E+03  0.77836169800E+02 0.  0.
          5    1    3    3  501    0 -0.13747245723E+02  0.42435287986E+02 -0.71019442937E+02  0.83997569647E+02  0.47000000000E+01 0. -1.
        -11    1    4    4    0    0  0.32149458084E+02 -0.33510450359E+02 -0.48330020426E+02  0.67024837283E+02  0.00000000000E+00 0.  1.
         12    1    4    4    0    0  0.32312561332E+02 -0.20955421651E+02  0.31450186329E+02  0.49722686337E+02  0.00000000000E+00 0. -1.
         -5    1    5    5    0  502  0.69858459817E+01 -0.38130336028E+02  0.31129843803E+02  0.49938779970E+02  0.47000000000E+01 0.  1.
         13    1    6    6    0    0 -0.45516064661E+02 -0.10930352243E+02 -0.36610277002E+02  0.59426400905E+02  0.00000000000E+00 0. -1.
        -14    1    6    6    0    0 -0.12184555014E+02  0.61091272295E+02 -0.49255532030E+02  0.79414824605E+02  0.00000000000E+00 0.  1.
</event>
<event>
12    1  0.9962621E-001  0.2413396E+03  0.7818608E-02  0.1119079E+00
         21   -1    0    0  501  502  0.00000000000E+00  0.00000000000E+00  0.14707196517E+04  0.14707196517E+04  0.00000000000E+00 0.  1.
         21   -1    0    0  502  503 -0.00000000000E+00 -0.00000000000E+00 -0.42806981473E+02  0.42806981473E+02  0.00000000000E+00 0.  1.
         -6    2    1    2    0  503  0.16770515160E+03  0.97146115112E+01  0.49996243661E+03  0.55470630306E+03  0.17180585870E+03 0.  0.
        -24    2    3    3    0    0  0.33130890510E+02 -0.33394597687E+02  0.26622846097E+03  0.28153548281E+03  0.78560674582E+02 0.  0.
          6    2    1    2  501    0 -0.16770515160E+03 -0.97146115112E+01  0.92795023357E+03  0.95882033007E+03  0.17327838242E+03 0.  0.
         24    2    5    5    0    0 -0.46375051656E+02  0.28955894309E+02  0.58446566779E+03  0.59245966337E+03  0.80120201339E+02 0.  0.
          5    1    5    5  501    0 -0.12133009995E+03 -0.38670505820E+02  0.34348456578E+03  0.36636066670E+03  0.47000000000E+01 0. -1.
        -11    1    6    6    0    0  0.95538749763E+00 -0.11064321512E+02  0.34254607725E+03  0.34272605243E+03  0.00000000000E+00 0.  1.
         12    1    6    6    0    0 -0.47330439154E+02  0.40020215821E+02  0.24191959054E+03  0.24973361094E+03  0.00000000000E+00 0. -1.
         -5    1    3    3    0  503  0.13457426109E+03  0.43109209199E+02  0.23373397564E+03  0.27317082025E+03  0.47000000000E+01 0.  1.
         13    1    4    4    0    0  0.38949282377E+02  0.14838841330E+02  0.14683004006E+03  0.15263125000E+03  0.00000000000E+00 0. -1.
        -14    1    4    4    0    0 -0.58183918669E+01 -0.48233439017E+02  0.11939842091E+03  0.12890423282E+03  0.00000000000E+00 0.  1.
</event>
<event>
12    1  0.9962621E-001  0.1882113E+03  0.7818608E-02  0.1160833E+00
         21   -1    0    0  501  502  0.00000000000E+00  0.00000000000E+00  0.57822756598E+03  0.57822756598E+03  0.00000000000E+00 0.  1.
         21   -1    0    0  502  503 -0.00000000000E+00 -0.00000000000E+00 -0.60691833323E+02  0.60691833323E+02  0.00000000000E+00 0.  1.
         -6    2    1    2    0  503 -0.38036315254E+02 -0.63719860177E+02  0.28502079975E+03  0.33977614627E+03  0.16942252337E+03 0.  0.
        -24    2    3    3    0    0 -0.14692053672E+02 -0.48875833821E+02  0.29501563660E+03  0.30998879273E+03  0.80337551643E+02 0.  0.
          6    2    1    2  501    0  0.38036315254E+02  0.63719860177E+02  0.23251493291E+03  0.29914325304E+03  0.17296389783E+03 0.  0.
         24    2    5    5    0    0 -0.45870403031E+02  0.35425988775E+02  0.13300958570E+03  0.16586052852E+03  0.80368342504E+02 0.  0.
          5    1    5    5  501    0  0.83906718285E+02  0.28293871403E+02  0.99505347205E+02  0.13328272452E+03  0.47000000000E+01 0. -1.
        -11    1    6    6    0    0 -0.26965590746E+02 -0.72584542689E+01  0.11061104685E+03  0.11408168971E+03  0.00000000000E+00 0.  1.
         12    1    6    6    0    0 -0.18904812285E+02  0.42684443044E+02  0.22398538856E+02  0.51778838809E+02  0.00000000000E+00 0. -1.
         -5    1    3    3    0  503 -0.23344261582E+02 -0.14844026357E+02 -0.99948368524E+01  0.29787353541E+02  0.47000000000E+01 0.  1.
         11    1    4    4    0    0 -0.38641915488E+02 -0.39539866361E+02  0.10914186495E+03  0.12234600667E+03  0.00000000000E+00 0. -1.
        -12    1    4    4    0    0  0.23949861816E+02 -0.93359674596E+01  0.18587377165E+03  0.18764278606E+03  0.00000000000E+00 0.  1.
</event>
<event>
12    1  0.9962621E-001  0.2322356E+03  0.7818608E-02  0.1125186E+00
         21   -1    0    0  501  502  0.00000000000E+00  0.00000000000E+00  0.59820445100E+03  0.59820445100E+03  0.00000000000E+00 0.  1.
         21   -1    0    0  502  503 -0.00000000000E+00 -0.00000000000E+00 -0.95993093257E+02  0.95993093257E+02  0.00000000000E+00 0.  1.
         -6    2    1    2    0  503  0.14632676864E+03 -0.52659976175E+02  0.33812956759E+03  0.40984532481E+03  0.17163038622E+03 0.  0.
        -24    2    3    3    0    0  0.16659171953E+03 -0.28693295687E+02  0.32578657568E+03  0.37579375424E+03  0.80671845166E+02 0.  0.
          6    2    1    2  501    0 -0.14632676864E+03  0.52659976175E+02  0.16408179015E+03  0.28435221945E+03  0.17247827265E+03 0.  0.
         24    2    5    5    0    0 -0.54334865237E+02  0.81220262278E+02  0.53057936257E+02  0.13729241404E+03  0.80529831549E+02 0.  0.
          5    1    5    5  501    0 -0.91991903401E+02 -0.28560286103E+02  0.11102385389E+03  0.14705980541E+03  0.47000000000E+01 0. -1.
        -11    1    6    6    0    0 -0.69512730846E+01 -0.15827970097E+02  0.77466227352E+00  0.17304477355E+02  0.00000000000E+00 0.  1.
         12    1    6    6    0    0 -0.47383592152E+02  0.97048232375E+02  0.52283273984E+02  0.11998793669E+03  0.00000000000E+00 0. -1.
         -5    1    3    3    0  503 -0.20264950894E+02 -0.23966680487E+02  0.12342991918E+02  0.34051570563E+02  0.47000000000E+01 0.  1.
         11    1    4    4    0    0  0.22626498419E+02 -0.68357466870E+01  0.12812194091E+03  0.13028398829E+03  0.00000000000E+00 0. -1.
        -12    1    4    4    0    0  0.14396522111E+03 -0.21857549000E+02  0.19766463477E+03  0.24550976595E+03  0.00000000000E+00 0.  1.
</event>
<event>
12    1  0.9962621E-001  0.3729564E+03  0.7818608E-02  0.1054796E+00
         21   -1    0    0  501  502  0.00000000000E+00  0.00000000000E+00  0.57886493067E+03  0.57886493067E+03  0.00000000000E+00 0.  1.
         21   -1    0    0  502  503 -0.00000000000E+00 -0.00000000000E+00 -0.25914514883E+03  0.25914514883E+03  0.00000000000E+00 0.  1.
         -6    2    1    2    0  503 -0.23881035893E+03 -0.21030077060E+03  0.29257464482E+03  0.46406714137E+03  0.16882413115E+03 0.  0.
        -24    2    3    3    0    0 -0.51065591774E+02 -0.11944061277E+03  0.12483230544E+03  0.19636721926E+03  0.78123144307E+02 0.  0.
          6    2    1    2  501    0  0.23881035893E+03  0.21030077060E+03  0.27145137025E+02  0.37394293813E+03  0.19452419094E+03 0.  0.
         24    2    5    5    0    0  0.67802358001E+02  0.41970087763E+02 -0.45159281839E+02  0.12328585334E+03  0.82470557654E+02 0.  0.
          5    1    5    5  501    0  0.17100800093E+03  0.16833068284E+03  0.72304418864E+02  0.25065708479E+03  0.47000000000E+01 0. -1.
        -13    1    6    6    0    0  0.89385669752E+01 -0.16965642713E+02  0.11671404027E+02  0.22448890489E+02  0.00000000000E+00 0.  1.
         14    1    6    6    0    0  0.58863791026E+02  0.58935730476E+02 -0.56830685866E+02  0.10083696285E+03  0.00000000000E+00 0. -1.
         -5    1    3    3    0  503 -0.18774476716E+03 -0.90860157831E+02  0.16774233938E+03  0.26769992211E+03  0.47000000000E+01 0.  1.
         11    1    4    4    0    0  0.17318122976E+02 -0.41253538577E+02  0.20743022911E+02  0.49315766526E+02  0.00000000000E+00 0. -1.
        -12    1    4    4    0    0 -0.68383714750E+02 -0.78187074194E+02  0.10408928253E+03  0.14705145274E+03  0.00000000000E+00 0.  1.
</event>
<event>
12    1  0.9962621E-001  0.1980137E+03  0.7818608E-02  0.1151752E+00
         21   -1    0    0  501  502  0.00000000000E+00  0.00000000000E+00  0.16255633760E+03  0.16255633760E+03  0.00000000000E+00 0.  1.
         21   -1    0    0  502  503 -0.00000000000E+00 -0.00000000000E+00 -0.24319756752E+03  0.24319756752E+03  0.00000000000E+00 0.  1.
         -6    2    1    2    0  503  0.17536492953E+02  0.97426490776E+02 -0.65663011228E+02  0.20717456796E+03  0.16973573836E+03 0.  0.
        -24    2    3    3    0    0 -0.74541633318E+01  0.69191745365E+02  0.24481099158E+02  0.10934929317E+03  0.80714816013E+02 0.  0.
          6    2    1    2  501    0 -0.17536492953E+02 -0.97426490776E+02 -0.14978218699E+02  0.19857933716E+03  0.17149331305E+03 0.  0.
         24    2    5    5    0    0  0.12314277656E+02  0.14650013401E+02 -0.72879846600E+01  0.82246018654E+02  0.79655687412E+02 0.  0.
          5    1    5    5  501    0 -0.29850770609E+02 -0.11207650418E+03 -0.76902340389E+01  0.11633331850E+03  0.47000000000E+01 0. -1.
        -11    1    6    6    0    0  0.44547840517E+02  0.16198442288E+02 -0.13706082359E+02  0.49343250004E+02  0.00000000000E+00 0.  1.
         12    1    6    6    0    0 -0.32233562861E+02 -0.15484288870E+01  0.64180976992E+01  0.32902768650E+02  0.00000000000E+00 0. -1.
         -5    1    3    3    0  503  0.24990656285E+02  0.28234745411E+02 -0.90144110387E+02  0.97825274788E+02  0.47000000000E+01 0.  1.
         13    1    4    4    0    0  0.26218209872E+02  0.63083123905E+02  0.18852132420E+01  0.68340537600E+02  0.00000000000E+00 0. -1.
        -14    1    4    4    0    0 -0.33672373204E+02  0.61086214598E+01  0.22595885916E+02  0.41008755573E+02  0.00000000000E+00 0.  1.
</event>
<event>
12    1  0.9962621E-001  0.2038764E+03  0.7818608E-02  0.1146791E+00
         21   -1    0    0  501  502  0.00000000000E+00  0.00000000000E+00  0.19051584698E+03  0.19051584698E+03  0.00000000000E+00 0. -1.
         21   -1    0    0  502  503 -0.00000000000E+00 -0.00000000000E+00 -0.21742751445E+03  0.21742751445E+03  0.00000000000E+00 0. -1.
         -6    2    1    2    0  503 -0.10763287854E+03  0.16599004052E+02 -0.17189198734E+01  0.20251633932E+03  0.17073239156E+03 0.  0.
        -24    2    3    3    0    0 -0.10784187806E+03  0.62850144378E+02  0.21990510651E+02  0.15032976290E+03  0.80842091418E+02 0.  0.
          6    2    1    2  501    0  0.10763287854E+03 -0.16599004052E+02 -0.25192747601E+02  0.20542702211E+03  0.17235203336E+03 0.  0.
         24    2    5    5    0    0  0.33472129324E+02  0.43707413882E+02 -0.47403748676E+02  0.10718192383E+03  0.78804364965E+02 0.  0.
          5    1    5    5  501    0  0.74160749211E+02 -0.60306417934E+02  0.22211001074E+02  0.98245098281E+02  0.47000000000E+01 0. -1.
        -13    1    6    6    0    0  0.51813398416E+02  0.51702004901E+02 -0.47345240533E+02  0.87173948903E+02  0.00000000000E+00 0.  1.
         14    1    6    6    0    0 -0.18341269092E+02 -0.79945910188E+01 -0.58508142430E-01  0.20007974926E+02  0.00000000000E+00 0. -1.
         -5    1    3    3    0  503  0.20899951978E+00 -0.46251140326E+02 -0.23709430525E+02  0.52186576416E+02  0.47000000000E+01 0.  1.
         13    1    4    4    0    0  0.67863416190E+00  0.33782937900E+02 -0.65420870639E+01  0.34417239003E+02  0.00000000000E+00 0. -1.
        -14    1    4    4    0    0 -0.10852051222E+03  0.29067206478E+02  0.28532597715E+02  0.11591252390E+03  0.00000000000E+00 0.  1.
</event>
<event>
12    1  0.9962621E-001  0.2014292E+03  0.7818608E-02  0.1148701E+00
         21   -1    0    0  503  502  0.00000000000E+00  0.00000000000E+00  0.22741327704E+03  0.22741327704E+03  0.00000000000E+00 0.  1.
         21   -1    0    0  501  503 -0.00000000000E+00 -0.00000000000E+00 -0.17774188315E+03  0.17774188315E+03  0.00000000000E+00 0.  1.
          6    2    1    2  501    0  0.61162605684E+02  0.83517262478E+02  0.26598247956E+02  0.20240878023E+03  0.17188906322E+03 0.  0.
         24    2    3    3    0    0  0.63379966617E+01  0.86895739545E+01 -0.31549895197E+02  0.92826768583E+02  0.86635640364E+02 0.  0.
         -6    2    1    2    0  502 -0.61162605684E+02 -0.83517262478E+02  0.23073145927E+02  0.20274637996E+03  0.17279388606E+03 0.  0.
        -24    2    5    5    0    0 -0.27779185317E+02 -0.10969220422E+03  0.55460356525E+02  0.14916838316E+03  0.79820377008E+02 0.  0.
          5    1    3    3  501    0  0.54824609022E+02  0.74827688523E+02  0.58148143152E+02  0.10958201165E+03  0.47000000000E+01 0. -1.
        -11    1    4    4    0    0 -0.33132231737E+02 -0.14338489481E+02  0.19681171148E+01  0.36155366758E+02  0.00000000000E+00 0.  1.
         12    1    4    4    0    0  0.39470228399E+02  0.23028063435E+02 -0.33518012312E+02  0.56671401824E+02  0.00000000000E+00 0. -1.
         -5    1    5    5    0  502 -0.33383420367E+02  0.26174941743E+02 -0.32387210598E+02  0.53577996799E+02  0.47000000000E+01 0.  1.
         11    1    6    6    0    0 -0.25237064278E+02 -0.94958769878E+02  0.70567097189E+01  0.98508246061E+02  0.00000000000E+00 0. -1.
        -12    1    6    6    0    0 -0.25421210389E+01 -0.14733434343E+02  0.48403646807E+02  0.50660137101E+02  0.00000000000E+00 0.  1.
</event>
<event>
12    1  0.9962621E-001  0.2066241E+03  0.7818608E-02  0.1144356E+00
         21   -1    0    0  503  502  0.00000000000E+00  0.00000000000E+00  0.11292181907E+04  0.11292181907E+04  0.00000000000E+00 0.  1.
         21   -1    0    0  501  503 -0.00000000000E+00 -0.00000000000E+00 -0.47955819848E+02  0.47955819848E+02  0.00000000000E+00 0.  1.
          6    2    1    2  501    0  0.66502326697E+02 -0.93576089423E+02  0.81200113967E+03  0.83776994838E+03  0.17127052176E+03 0.  0.
         24    2    3    3    0    0  0.25409452378E+01 -0.97038701753E+02  0.35933186863E+03  0.38056692242E+03  0.79302109629E+02 0.  0.
         -6    2    1    2    0  502 -0.66502326697E+02  0.93576089423E+02  0.26926123116E+03  0.33940406214E+03  0.17179773812E+03 0.  0.
        -24    2    5    5    0    0  0.85362841373E+01  0.21707887786E+02  0.19377683186E+03  0.21089018717E+03  0.79881849869E+02 0.  0.
          5    1    3    3  501    0  0.63961381459E+02  0.34626123303E+01  0.45266927104E+03  0.45720302596E+03  0.47000000000E+01 0. -1.
        -13    1    4    4    0    0 -0.30515646701E+02 -0.81869743452E+02  0.22411551108E+03  0.24054442811E+03  0.00000000000E+00 0.  1.
         14    1    4    4    0    0  0.33056591939E+02 -0.15168958301E+02  0.13521635754E+03  0.14002249432E+03  0.00000000000E+00 0. -1.
         -5    1    5    5    0  502 -0.75038610834E+02  0.71868201637E+02  0.75484399296E+02  0.12851387497E+03  0.47000000000E+01 0.  1.
         13    1    6    6    0    0 -0.33622495496E+02  0.14059851561E+02  0.12170049840E+03  0.12704000528E+03  0.00000000000E+00 0. -1.
        -14    1    6    6    0    0  0.42158779634E+02  0.76480362247E+01  0.72076333462E+02  0.83850181893E+02  0.00000000000E+00 0.  1.
</event>
<event>
12    1  0.9962621E-001  0.2102088E+03  0.7818608E-02  0.1141616E+00
         21   -1    0    0  503  502  0.00000000000E+00  0.00000000000E+00  0.45456311884E+03  0.45456311884E+03  0.00000000000E+00 0.  1.
         21   -1    0    0  501  503 -0.00000000000E+00 -0.00000000000E+00 -0.14948789154E+03  0.14948789154E+03  0.00000000000E+00 0.  1.
          6    2    1    2  501    0  0.11279376225E+03 -0.40373472471E+02  0.33225759372E+03  0.39317027103E+03  0.17272898819E+03 0.  0.
         24    2    3    3    0    0  0.14478955772E+03 -0.41002091084E+02  0.22909284422E+03  0.28505375228E+03  0.78274663308E+02 0.  0.
         -6    2    1    2    0  502 -0.11279376225E+03  0.40373472471E+02 -0.27182366415E+02  0.21088073934E+03  0.17140406968E+03 0.  0.
        -24    2    5    5    0    0 -0.12738552355E+03  0.73109459778E+02 -0.41042656742E+02  0.17216689155E+03  0.79905407542E+02 0.  0.
          5    1    3    3  501    0 -0.31995795473E+02  0.62861861260E+00  0.10316474950E+03  0.10811651876E+03  0.47000000000E+01 0. -1.
        -13    1    4    4    0    0  0.71009738910E+02  0.71693112925E+01  0.55614534451E+02  0.90480707814E+02  0.00000000000E+00 0.  1.
         14    1    4    4    0    0  0.73779818810E+02 -0.48171402376E+02  0.17347830977E+03  0.19457304446E+03  0.00000000000E+00 0. -1.
         -5    1    5    5    0  502  0.14591761307E+02 -0.32735987306E+02  0.13860290328E+02  0.38713847793E+02  0.47000000000E+01 0.  1.
         11    1    6    6    0    0 -0.11651616756E+03  0.84701306129E+02 -0.19449485576E+02  0.14535684040E+03  0.00000000000E+00 0. -1.
        -12    1    6    6    0    0 -0.10869355991E+02 -0.11591846352E+02 -0.21593171166E+02  0.26810051147E+02  0.00000000000E+00 0.  1.
</event>
<event>
12    1  0.9962621E-001  0.1783359E+03  0.7818608E-02  0.1170378E+00
         21   -1    0    0  501  502  0.00000000000E+00  0.00000000000E+00  0.33044687290E+03  0.33044687290E+03  0.00000000000E+00 0.  1.
         21   -1    0    0  502  503 -0.00000000000E+00 -0.00000000000E+00 -0.97707883143E+02  0.97707883143E+02  0.00000000000E+00 0.  1.
         -6    2    1    2    0  503 -0.36088025281E+02  0.27713364976E+02  0.15583583751E+03  0.23394408449E+03  0.16844776712E+03 0.  0.
        -24    2    3    3    0    0 -0.42884917436E+02  0.76038538048E+02  0.13992081161E+03  0.18239897662E+03  0.77913912367E+02 0.  0.
          6    2    1    2  501    0  0.36088025281E+02 -0.27713364976E+02  0.76903152250E+02  0.19421067155E+03  0.17243350589E+03 0.  0.
         24    2    5    5    0    0 -0.28574311339E+02  0.16397427999E+02  0.75181034742E+02  0.11577575890E+03  0.81648462637E+02 0.  0.
          5    1    5    5  501    0  0.64662336620E+02 -0.44110792974E+02  0.17221175084E+01  0.78434912652E+02  0.47000000000E+01 0. -1.
        -11    1    6    6    0    0 -0.35002034887E+02  0.23639156413E+02  0.23481926575E+01  0.42302082347E+02  0.00000000000E+00 0.  1.
         12    1    6    6    0    0  0.64277235477E+01 -0.72417284145E+01  0.72832842084E+02  0.73473676555E+02  0.00000000000E+00 0. -1.
         -5    1    3    3    0  503  0.67968921546E+01 -0.48325173072E+02  0.15915025898E+02  0.51545107864E+02  0.47000000000E+01 0.  1.
         11    1    4    4    0    0 -0.22263421991E+02  0.47534679470E+02  0.17979340400E+02  0.55483893089E+02  0.00000000000E+00 0. -1.
        -12    1    4    4    0    0 -0.20621495445E+02  0.28503858577E+02  0.12194147121E+03  0.12691508353E+03  0.00000000000E+00 0.  1.
</event>
<event>
12    1  0.9962621E-001  0.2029368E+03  0.7818608E-02  0.1147584E+00
         21   -1    0    0  501  502  0.00000000000E+00  0.00000000000E+00  0.11929741756E+03  0.11929741756E+03  0.00000000000E+00 0. -1.
         21   -1    0    0  502  503 -0.00000000000E+00 -0.00000000000E+00 -0.76379099796E+03  0.76379099796E+03  0.00000000000E+00 0. -1.
         -6    2    1    2    0  503 -0.66807883366E+02 -0.77442735629E+02  0.50595062817E+01  0.20299981182E+03  0.17527879054E+03 0.  0.
        -24    2    3    3    0    0 -0.79303973680E+02 -0.10860504287E+02  0.46815388639E+02  0.12328162371E+03  0.81237967332E+02 0.  0.
          6    2    1    2  501    0  0.66807883366E+02  0.77442735629E+02 -0.64955308667E+03  0.68008860370E+03  0.17361055814E+03 0.  0.
         24    2    5    5    0    0  0.10300630536E+03  0.84183617224E+01 -0.42018058766E+03  0.43779018593E+03  0.66538356587E+02 0.  0.
          5    1    5    5  501    0 -0.36198421998E+02  0.69024373906E+02 -0.22937249902E+03  0.24229841777E+03  0.47000000000E+01 0. -1.
        -11    1    6    6    0    0  0.20610427257E+02 -0.24079530475E+02 -0.74907443292E+02  0.81337190511E+02  0.00000000000E+00 0.  1.
         12    1    6    6    0    0  0.82395878107E+02  0.32497892198E+02 -0.34527314437E+03  0.35645299542E+03  0.00000000000E+00 0. -1.
         -5    1    3    3    0  503  0.12496090315E+02 -0.66582231342E+02 -0.41755882358E+02  0.79718188107E+02  0.47000000000E+01 0.  1.
         11    1    4    4    0    0 -0.49984891525E+02  0.33851955378E+02  0.21091889080E+02  0.63947729034E+02  0.00000000000E+00 0. -1.
        -12    1    4    4    0    0 -0.29319082155E+02 -0.44712459665E+02  0.25723499560E+02  0.59333894675E+02  0.00000000000E+00 0.  1.
</event>
<event>
12    1  0.9962621E-001  0.4463344E+03  0.7818608E-02  0.1029077E+00
         21   -1    0    0  503  502  0.00000000000E+00  0.00000000000E+00  0.33463218001E+03  0.33463218001E+03  0.00000000000E+00 0.  1.
         21   -1    0    0  501  503 -0.00000000000E+00 -0.00000000000E+00 -0.61601638446E+03  0.61601638446E+03  0.00000000000E+00 0.  1.
          6    2    1    2  501    0  0.28848741664E+03 -0.28884055454E+03 -0.44053537710E+02  0.44513870540E+03  0.17191247003E+03 0.  0.
         24    2    3    3    0    0  0.30147039633E+03 -0.28278544305E+03 -0.57289578473E+02  0.42507618033E+03  0.80967009458E+02 0.  0.
         -6    2    1    2    0  502 -0.28848741664E+03  0.28884055454E+03 -0.23733066674E+03  0.50550985907E+03  0.18044532893E+03 0.  0.
        -24    2    5    5    0    0 -0.19473136881E+03  0.26488549038E+03 -0.13516094194E+03  0.36470934675E+03  0.81607587694E+02 0.  0.
          5    1    3    3  501    0 -0.12982979693E+02 -0.60551114977E+01  0.13236040763E+02  0.20062525066E+02  0.47000000000E+01 0. -1.
        -11    1    4    4    0    0  0.22930327657E+03 -0.18423938875E+03 -0.10690590200E+02  0.29434407372E+03  0.00000000000E+00 0.  1.
         12    1    4    4    0    0  0.72167119762E+02 -0.98546054299E+02 -0.46598988273E+02  0.13073210662E+03  0.00000000000E+00 0. -1.
         -5    1    5    5    0  502 -0.93756047828E+02  0.23955064165E+02 -0.10216972480E+03  0.14080051232E+03  0.47000000000E+01 0.  1.
         11    1    6    6    0    0 -0.15439925146E+03  0.15025522454E+03 -0.68294686447E+02  0.22600868468E+03  0.00000000000E+00 0. -1.
        -12    1    6    6    0    0 -0.40332117355E+02  0.11463026584E+03 -0.66866255488E+02  0.13870066207E+03  0.00000000000E+00 0.  1.
</event>
<event>
12    1  0.9962621E-001  0.1811550E+03  0.7818608E-02  0.1167154E+00
         21   -1    0    0  503  502  0.00000000000E+00  0.00000000000E+00  0.64168195576E+03  0.64168195576E+03  0.00000000000E+00 0.  1.
         21   -1    0    0  501  503 -0.00000000000E+00 -0.00000000000E+00 -0.85079311631E+02  0.85079311631E+02  0.00000000000E+00 0.  1.
          6    2    1    2  501    0  0.40488946019E+02 -0.29381891575E+02  0.47860880633E+02  0.18737077738E+03  0.17411057986E+03 0.  0.
         24    2    3    3    0    0  0.65064971318E+02 -0.29718183982E+02  0.89247512751E+02  0.13900718125E+03  0.79001626283E+02 0.  0.
         -6    2    1    2    0  502 -0.40488946019E+02  0.29381891575E+02  0.50874176350E+03  0.53939049002E+03  0.17210830454E+03 0.  0.
        -24    2    5    5    0    0 -0.78430950686E+02 -0.20443361514E+01  0.44234873378E+03  0.45658150558E+03  0.81478068403E+02 0.  0.
          5    1    3    3  501    0 -0.24576025299E+02  0.33629240719E+00 -0.41386632118E+02  0.48363596125E+02  0.47000000000E+01 0. -1.
        -11    1    4    4    0    0  0.30416002156E+02 -0.48883092690E+02  0.23349300512E+02  0.62127930695E+02  0.00000000000E+00 0.  1.
         12    1    4    4    0    0  0.34648969161E+02  0.19164908708E+02  0.65898212239E+02  0.76879250556E+02  0.00000000000E+00 0. -1.
         -5    1    5    5    0  502  0.37942004667E+02  0.31426227726E+02  0.66393029720E+02  0.82808984432E+02  0.47000000000E+01 0.  1.
         11    1    6    6    0    0  0.92533074823E-01  0.22727406795E+01  0.23202392431E+03  0.23203507357E+03  0.00000000000E+00 0. -1.
        -12    1    6    6    0    0 -0.78523483761E+02 -0.43170768310E+01  0.21032480947E+03  0.22454643202E+03  0.00000000000E+00 0.  1.
</event>
<event>
12    1  0.9962621E-001  0.1871535E+03  0.7818608E-02  0.1161171E+00
         21   -1    0    0  501  502  0.00000000000E+00  0.00000000000E+00  0.13805304075E+03  0.13805304075E+03  0.00000000000E+00 0. -1.
         21   -1    0    0  502  503 -0.00000000000E+00 -0.00000000000E+00 -0.35855644254E+03  0.35855644254E+03  0.00000000000E+00 0. -1.
         -6    2    1    2    0  503  0.63948642970E+02 -0.26362227132E+02 -0.24485239785E+03  0.30787869627E+03  0.17335570059E+03 0.  0.
        -24    2    3    3    0    0  0.69398686957E+02 -0.78042374962E+02 -0.12950223685E+03  0.18127581201E+03  0.71995143103E+02 0.  0.
          6    2    1    2  501    0 -0.63948642970E+02  0.26362227132E+02  0.24348996063E+02  0.18873078701E+03  0.17390238756E+03 0.  0.
         24    2    5    5    0    0 -0.96731949415E+02  0.11141947324E+02  0.60762564096E+02  0.13720952891E+03  0.75187449762E+02 0.  0.
          5    1    5    5  501    0  0.32783306446E+02  0.15220279808E+02 -0.36413568032E+02  0.51521258096E+02  0.47000000000E+01 0. -1.
        -13    1    6    6    0    0 -0.64036732957E+02  0.61777000522E+01 -0.40356102440E+01  0.64460478557E+02  0.00000000000E+00 0.  1.
         14    1    6    6    0    0 -0.32695216458E+02  0.49642472716E+01  0.64798174339E+02  0.72749050358E+02  0.00000000000E+00 0. -1.
         -5    1    3    3    0  503 -0.54500439873E+01  0.51680147830E+02 -0.11535016100E+03  0.12660288426E+03  0.47000000000E+01 0.  1.
         13    1    4    4    0    0  0.41557667553E+02 -0.40400987842E+02 -0.12033827875E+03  0.13356863735E+03  0.00000000000E+00 0. -1.
        -14    1    4    4    0    0  0.27841019404E+02 -0.37641387120E+02 -0.91639580937E+01  0.47707174656E+02  0.00000000000E+00 0.  1.
</event>
<event>
12    1  0.9962621E-001  0.1955878E+03  0.7818608E-02  0.1154551E+00
         21   -1    0    0  503  502  0.00000000000E+00  0.00000000000E+00  0.74773604199E+03  0.74773604199E+03  0.00000000000E+00 0.  1.
         21   -1    0    0  501  503 -0.00000000000E+00 -0.00000000000E+00 -0.16183215819E+03  0.16183215819E+03  0.00000000000E+00 0.  1.
          6    2    1    2  501    0 -0.51528206117E+02  0.78219984910E+02  0.67220698287E+03  0.70008342606E+03  0.17170047628E+03 0.  0.
         24    2    3    3    0    0 -0.76827616963E+02 -0.12353596030E+01  0.33553640366E+03  0.35320825994E+03  0.79166835664E+02 0.  0.
         -6    2    1    2    0  502  0.51528206117E+02 -0.78219984910E+02 -0.86303099068E+02  0.20948477412E+03  0.16631934228E+03 0.  0.
        -24    2    5    5    0    0  0.72639895311E+02 -0.10639641289E+03 -0.54161544024E+02  0.16158086953E+03  0.81105816574E+02 0.  0.
          5    1    3    3  501    0  0.25299410845E+02  0.79455344513E+02  0.33667057921E+03  0.34687516612E+03  0.47000000000E+01 0. -1.
        -13    1    4    4    0    0 -0.58288584092E+02  0.15054581336E+02  0.31613507091E+03  0.32181606938E+03  0.00000000000E+00 0.  1.
         14    1    4    4    0    0 -0.18539032871E+02 -0.16289940939E+02  0.19401332750E+02  0.31392190558E+02  0.00000000000E+00 0. -1.
         -5    1    5    5    0  502 -0.21111689194E+02  0.28176427978E+02 -0.32141555044E+02  0.47903904589E+02  0.47000000000E+01 0.  1.
         11    1    6    6    0    0  0.72652106841E+02 -0.34668617805E+02 -0.29315206019E+02  0.85671599686E+02  0.00000000000E+00 0. -1.
        -12    1    6    6    0    0 -0.12211529527E-01 -0.71727795082E+02 -0.24846338005E+02  0.75909269847E+02  0.00000000000E+00 0.  1.
</event>
<event>
12    1  0.9962621E-001  0.3292651E+03  0.7818608E-02  0.1071545E+00
         21   -1    0    0  503  502  0.00000000000E+00  0.00000000000E+00  0.53291243391E+03  0.53291243391E+03  0.00000000000E+00 0. -1.
         21   -1    0    0  501  503 -0.00000000000E+00 -0.00000000000E+00 -0.26969516078E+03  0.26969516078E+03  0.00000000000E+00 0. -1.
          6    2    1    2  501    0 -0.25869395497E+03 -0.10981328590E+03  0.33108719148E+03  0.46642043990E+03  0.17014046637E+03 0.  0.
         24    2    3    3    0    0 -0.64781044424E+02 -0.68436725861E+02  0.83792298158E+02  0.14941714203E+03  0.80150882332E+02 0.  0.
         -6    2    1    2    0  502  0.25869395497E+03  0.10981328590E+03 -0.67869918343E+02  0.33618715479E+03  0.17156327444E+03 0.  0.
        -24    2    5    5    0    0  0.17975075942E+03  0.45496246198E+02  0.25135404552E+02  0.19819878643E+03  0.65350795307E+02 0.  0.
          5    1    3    3  501    0 -0.19391291054E+03 -0.41376560034E+02  0.24729489332E+03  0.31700329787E+03  0.47000000000E+01 0. -1.
        -13    1    4    4    0    0 -0.74875652664E+02 -0.56939582387E+02  0.92404410855E+02  0.13185998085E+03  0.00000000000E+00 0.  1.
         14    1    4    4    0    0  0.10094608240E+02 -0.11497143475E+02 -0.86121126969E+01  0.17557161180E+02  0.00000000000E+00 0. -1.
         -5    1    5    5    0  502  0.78943195544E+02  0.64317039697E+02 -0.93005322895E+02  0.13798836837E+03  0.47000000000E+01 0.  1.
         11    1    6    6    0    0  0.21845970930E+02  0.12689257331E+02 -0.18276202059E+02  0.31181456977E+02  0.00000000000E+00 0. -1.
        -12    1    6    6    0    0  0.15790478849E+03  0.32806988866E+02  0.43411606611E+02  0.16701732945E+03  0.00000000000E+00 0.  1.
</event>
<event>
12    1  0.9962621E-001  0.2897915E+03  0.7818608E-02  0.1090694E+00
         21   -1    0    0  503  502  0.00000000000E+00  0.00000000000E+00  0.65116053064E+02  0.65116053064E+02  0.00000000000E+00 0. -1.
         21   -1    0    0  501  503 -0.00000000000E+00 -0.00000000000E+00 -0.14110983584E+04  0.14110983584E+04  0.00000000000E+00 0.  1.
          6    2    1    2  501    0 -0.22721143998E+03 -0.56311218193E+02 -0.89840504454E+03  0.94398662881E+03  0.17083073366E+03 0.  0.
         24    2    3    3    0    0 -0.21978170327E+03 -0.55986727720E+01 -0.79335327830E+03  0.82700403677E+03  0.78682338633E+02 0.  0.
         -6    2    1    2    0  502  0.22721143998E+03  0.56311218193E+02 -0.44757726084E+03  0.53222778270E+03  0.16776476538E+03 0.  0.
        -24    2    5    5    0    0  0.22784228253E+03  0.17763860642E+02 -0.33462024145E+03  0.41278040950E+03  0.78672104451E+02 0.  0.
          5    1    3    3  501    0 -0.74297367153E+01 -0.50712545421E+02 -0.10505176624E+03  0.11698259204E+03  0.47000000000E+01 0. -1.
        -11    1    4    4    0    0 -0.78549524384E+02 -0.33623837546E+02 -0.37345890795E+03  0.38310853052E+03  0.00000000000E+00 0.  1.
         12    1    4    4    0    0 -0.14123217888E+03  0.28025164774E+02 -0.41989437035E+03  0.44389550624E+03  0.00000000000E+00 0. -1.
         -5    1    5    5    0  502 -0.63084255045E+00  0.38547357551E+02 -0.11295701939E+03  0.11944737321E+03  0.47000000000E+01 0.  1.
         13    1    6    6    0    0  0.12027886966E+03  0.35225268872E+02 -0.12774597646E+03  0.17896049999E+03  0.00000000000E+00 0. -1.
        -14    1    6    6    0    0  0.10756341287E+03 -0.17461408230E+02 -0.20687426499E+03  0.23381990951E+03  0.00000000000E+00 0.  1.
</event>
<event>
12    1  0.9962621E-001  0.2228437E+03  0.7818608E-02  0.1131853E+00
         21   -1    0    0  503  502  0.00000000000E+00  0.00000000000E+00  0.14019792709E+04  0.14019792709E+04  0.00000000000E+00 0. -1.
         21   -1    0    0  501  503 -0.00000000000E+00 -0.00000000000E+00 -0.37543144349E+02  0.37543144349E+02  0.00000000000E+00 0. -1.
          6    2    1    2  501    0 -0.47769090263E+02 -0.13380659447E+03  0.50914429631E+03  0.55577623076E+03  0.17167764415E+03 0.  0.
         24    2    3    3    0    0 -0.78298479633E+02 -0.11798193209E+03  0.28092812557E+03  0.32493608229E+03  0.81317019306E+02 0.  0.
         -6    2    1    2    0  502  0.47769090263E+02  0.13380659447E+03  0.85529183028E+03  0.88374618453E+03  0.17116399452E+03 0.  0.
        -24    2    5    5    0    0  0.54909772621E+01  0.32468831366E+02  0.14787258412E+03  0.16784056163E+03  0.72248025240E+02 0.  0.
          5    1    3    3  501    0  0.30529389370E+02 -0.15824662384E+02  0.22821617074E+03  0.23084014847E+03  0.47000000000E+01 0. -1.
        -13    1    4    4    0    0 -0.20660865112E+02 -0.21256171772E+02  0.14703026263E+03  0.14998864729E+03  0.00000000000E+00 0.  1.
         14    1    4    4    0    0 -0.57637614520E+02 -0.96725760313E+02  0.13389786294E+03  0.17494743500E+03  0.00000000000E+00 0. -1.
         -5    1    5    5    0  502  0.42278113001E+02  0.10133776310E+03  0.70741924616E+03  0.71590562290E+03  0.47000000000E+01 0.  1.
         13    1    6    6    0    0 -0.22533938999E+02 -0.12966141246E+02  0.46775788096E+02  0.53515171471E+02  0.00000000000E+00 0. -1.
        -14    1    6    6    0    0  0.28024916261E+02  0.45434972612E+02  0.10109679603E+03  0.11432539016E+03  0.00000000000E+00 0.  1.
</event>
<event>
12    1  0.9962621E-001  0.1750347E+03  0.7818608E-02  0.1172700E+00
         21   -1    0    0  503  502  0.00000000000E+00  0.00000000000E+00  0.50136647670E+02  0.50136647670E+02  0.00000000000E+00 0. -1.
         21   -1    0    0  501  503 -0.00000000000E+00 -0.00000000000E+00 -0.61105142534E+03  0.61105142534E+03  0.00000000000E+00 0. -1.
          6    2    1    2  501    0  0.33417848987E+02  0.12541962068E+02 -0.27828016760E+03  0.32874339043E+03  0.17134267311E+03 0.  0.
         24    2    3    3    0    0 -0.40790673803E+02  0.18268797981E+02 -0.20268164308E+03  0.22255050737E+03  0.80319685239E+02 0.  0.
         -6    2    1    2    0  502 -0.33417848987E+02 -0.12541962068E+02 -0.28263461007E+03  0.33244468258E+03  0.17135661856E+03 0.  0.
        -24    2    5    5    0    0 -0.60836673136E+02 -0.41685147577E+02 -0.26891664795E+03  0.28988425890E+03  0.79233627223E+02 0.  0.
          5    1    3    3  501    0  0.74208522790E+02 -0.57268359130E+01 -0.75598524520E+02  0.10619288307E+03  0.47000000000E+01 0. -1.
        -11    1    4    4    0    0 -0.58966215227E+01 -0.12166631220E+02  0.11093008588E+01  0.13565677610E+02  0.00000000000E+00 0.  1.
         12    1    4    4    0    0 -0.34894052280E+02  0.30435429201E+02 -0.20379094394E+03  0.20898482976E+03  0.00000000000E+00 0. -1.
         -5    1    5    5    0  502  0.27418824149E+02  0.29143185509E+02 -0.13717962113E+02  0.42560423680E+02  0.47000000000E+01 0.  1.
         13    1    6    6    0    0 -0.39618249061E+02 -0.63791229442E+02 -0.21668692790E+03  0.22932978728E+03  0.00000000000E+00 0. -1.
        -14    1    6    6    0    0 -0.21218424074E+02  0.22106081865E+02 -0.52229720054E+02  0.60554471614E+02  0.00000000000E+00 0.  1.
</event>
<event>
12    1  0.9962621E-001  0.2838895E+03  0.7818608E-02  0.1093588E+00
         21   -1    0    0  501  502  0.00000000000E+00  0.00000000000E+00  0.35690552595E+03  0.35690552595E+03  0.00000000000E+00 0. -1.
         21   -1    0    0  502  503 -0.00000000000E+00 -0.00000000000E+00 -0.22605027097E+03  0.22605027097E+03  0.00000000000E+00 0. -1.
         -6    2    1    2    0  503 -0.20355148227E+03  0.95598670703E+02  0.75496439478E+02  0.29375666996E+03  0.17326556784E+03 0.  0.
        -24    2    3    3    0    0 -0.19370871938E+03  0.80364872670E+02  0.11140729640E+03  0.25325200074E+03  0.87996644625E+02 0.  0.
          6    2    1    2  501    0  0.20355148227E+03 -0.95598670703E+02  0.55358815502E+02  0.28919912695E+03  0.17320284294E+03 0.  0.
         24    2    5    5    0    0  0.19357612808E+03 -0.96562920570E+02 -0.26412584016E+01  0.23015222998E+03  0.78529979813E+02 0.  0.
          5    1    5    5  501    0  0.99753541915E+01  0.96424986662E+00  0.58000073904E+02  0.59046896971E+02  0.47000000000E+01 0. -1.
        -11    1    6    6    0    0 -0.16258438535E+01  0.43748042283E+01  0.89478752599E+01  0.10091915177E+02  0.00000000000E+00 0.  1.
         12    1    6    6    0    0  0.19520197193E+03 -0.10093772480E+03 -0.11589133661E+02  0.22006031481E+03  0.00000000000E+00 0. -1.
         -5    1    3    3    0  503 -0.98427628853E+01  0.15233798033E+02 -0.35910856920E+02  0.40504669218E+02  0.47000000000E+01 0.  1.
         13    1    4    4    0    0 -0.62158856663E+02  0.57080315304E+02  0.88951171316E+01  0.84858758921E+02  0.00000000000E+00 0. -1.
        -14    1    4    4    0    0 -0.13154986272E+03  0.23284557366E+02  0.10251217927E+03  0.16839324182E+03  0.00000000000E+00 0.  1.
</event>
<event>
12    1  0.9962621E-001  0.3175609E+03  0.7818608E-02  0.1076941E+00
         21   -1    0    0  503  502  0.00000000000E+00  0.00000000000E+00  0.48151422485E+03  0.48151422485E+03  0.00000000000E+00 0. -1.
         21   -1    0    0  501  503 -0.00000000000E+00 -0.00000000000E+00 -0.21032580448E+03  0.21032580448E+03  0.00000000000E+00 0. -1.
          6    2    1    2  501    0 -0.97425275578E+02  0.24763252970E+03  0.16807105621E+03  0.35929487973E+03  0.17329563346E+03 0.  0.
         24    2    3    3    0    0 -0.48035985097E+02  0.25096563710E+03  0.13815587636E+03  0.30126540786E+03  0.79891131768E+02 0.  0.
         -6    2    1    2    0  502  0.97425275578E+02 -0.24763252970E+03  0.10311736417E+03  0.33254514960E+03  0.17070305107E+03 0.  0.
        -24    2    5    5    0    0  0.74074387028E+02 -0.87815477763E+02  0.97749056967E+02  0.17087368395E+03  0.80276801002E+02 0.  0.
          5    1    3    3  501    0 -0.49389290482E+02 -0.33331073990E+01  0.29915179855E+02  0.58029471865E+02  0.47000000000E+01 0. -1.
        -13    1    4    4    0    0 -0.20497468353E+02  0.50803030026E+02 -0.28868367337E+01  0.54858252752E+02  0.00000000000E+00 0.  1.
         14    1    4    4    0    0 -0.27538516744E+02  0.20016260707E+03  0.14104271309E+03  0.24640715511E+03  0.00000000000E+00 0. -1.
         -5    1    5    5    0  502  0.23350888550E+02 -0.15981705193E+03  0.53683072000E+01  0.16167146566E+03  0.47000000000E+01 0.  1.
         13    1    6    6    0    0  0.83030403784E+02 -0.77302164892E+02  0.55243087704E+02  0.12618031300E+03  0.00000000000E+00 0. -1.
        -14    1    6    6    0    0 -0.89560167554E+01 -0.10513312871E+02  0.42505969263E+02  0.44693370947E+02  0.00000000000E+00 0.  1.
</event>
<event>
12    1  0.9962621E-001  0.2206716E+03  0.7818608E-02  0.1133458E+00
         21   -1    0    0  501  502  0.00000000000E+00  0.00000000000E+00  0.12236172460E+04  0.12236172460E+04  0.00000000000E+00 0. -1.
         21   -1    0    0  502  503 -0.00000000000E+00 -0.00000000000E+00 -0.40012413430E+02  0.40012413430E+02  0.00000000000E+00 0. -1.
         -6    2    1    2    0  503  0.19063696634E+02 -0.13667219981E+03  0.64599573136E+03  0.68264663669E+03  0.17220113505E+03 0.  0.
        -24    2    3    3    0    0 -0.54133858234E+02 -0.98064333014E+02  0.41901986435E+03  0.44100933902E+03  0.79777831307E+02 0.  0.
          6    2    1    2  501    0 -0.19063696634E+02  0.13667219981E+03  0.53760910116E+03  0.58098302270E+03  0.17168288289E+03 0.  0.
         24    2    5    5    0    0 -0.54767892210E+02  0.81698508712E+02  0.19471306834E+03  0.23184597851E+03  0.78518853966E+02 0.  0.
          5    1    5    5  501    0  0.35704195575E+02  0.54973691101E+02  0.34289603283E+03  0.34913704419E+03  0.47000000000E+01 0. -1.
        -13    1    6    6    0    0 -0.54048821331E+01  0.78806947881E+01  0.10563272610E+03  0.10606408876E+03  0.00000000000E+00 0.  1.
         14    1    6    6    0    0 -0.49363010077E+02  0.73817813924E+02  0.89080342235E+02  0.12578188975E+03  0.00000000000E+00 0. -1.
         -5    1    3    3    0  503  0.73197554868E+02 -0.38607866799E+02  0.22697586701E+03  0.24163729767E+03  0.47000000000E+01 0.  1.
         11    1    4    4    0    0  0.59387891958E+01 -0.63897366448E+01  0.15362946524E+03  0.15387693310E+03  0.00000000000E+00 0. -1.
        -12    1    4    4    0    0 -0.60072647430E+02 -0.91674596370E+02  0.26539039911E+03  0.28713240592E+03  0.00000000000E+00 0.  1.
</event>
<event>
12    1  0.9962621E-001  0.3065446E+03  0.7818608E-02  0.1082038E+00
         21   -1    0    0  501  502  0.00000000000E+00  0.00000000000E+00  0.14332674321E+04  0.14332674321E+04  0.00000000000E+00 0. -1.
         21   -1    0    0  502  503 -0.00000000000E+00 -0.00000000000E+00 -0.11106025749E+03  0.11106025749E+03  0.00000000000E+00 0. -1.
         -6    2    1    2    0  503 -0.34765146688E+01  0.25452051858E+03  0.11554270965E+04  0.11953503717E+04  0.17046394135E+03 0.  0.
        -24    2    3    3    0    0  0.12079174833E+02  0.21967351806E+03  0.70583622138E+03  0.74411834945E+03  0.84291076550E+02 0.  0.
          6    2    1    2  501    0  0.34765146688E+01 -0.25452051858E+03  0.16678007819E+03  0.34897731795E+03  0.17081215832E+03 0.  0.
         24    2    5    5    0    0 -0.21787066009E+02 -0.21247106985E+03  0.18924183657E+03  0.29481990630E+03  0.74078827414E+02 0.  0.
          5    1    5    5  501    0  0.25263580678E+02 -0.42049448727E+02 -0.22461758386E+02  0.54157411651E+02  0.47000000000E+01 0. -1.
        -13    1    6    6    0    0 -0.12163220594E+02 -0.19786518095E+03  0.14034712838E+03  0.24289069602E+03  0.00000000000E+00 0.  1.
         14    1    6    6    0    0 -0.96238454151E+01 -0.14605888905E+02  0.48894708194E+02  0.51929210283E+02  0.00000000000E+00 0. -1.
         -5    1    3    3    0  503 -0.15555689502E+02  0.34847000525E+02  0.44959087508E+03  0.45123202222E+03  0.47000000000E+01 0.  1.
         11    1    4    4    0    0  0.12439394979E+02  0.34498048958E+02  0.46212449450E+02  0.58995291452E+02  0.00000000000E+00 0. -1.
        -12    1    4    4    0    0 -0.36022014532E+00  0.18517546910E+03  0.65962377193E+03  0.68512305800E+03  0.00000000000E+00 0.  1.
</event>
<event>
12    1  0.9962621E-001  0.4845577E+03  0.7818608E-02  0.1017968E+00
         21   -1    0    0  503  502  0.00000000000E+00  0.00000000000E+00  0.34691132292E+03  0.34691132292E+03  0.00000000000E+00 0. -1.
         21   -1    0    0  501  503 -0.00000000000E+00 -0.00000000000E+00 -0.14109639782E+04  0.14109639782E+04  0.00000000000E+00 0. -1.
          6    2    1    2  501    0 -0.36474265165E+03 -0.26890496411E+03 -0.11664171396E+04  0.12626231768E+04  0.16834863061E+03 0.  0.
         24    2    3    3    0    0 -0.28969531705E+03 -0.27579102236E+03 -0.98285705891E+03  0.10641391385E+04  0.80000269882E+02 0.  0.
         -6    2    1    2    0  502  0.36474265165E+03  0.26890496411E+03  0.10236448437E+03  0.49525212425E+03  0.17160739278E+03 0.  0.
        -24    2    5    5    0    0  0.24724232081E+03  0.12442365702E+03  0.12191095713E+02  0.28828713719E+03  0.79692151616E+02 0.  0.
          5    1    3    3  501    0 -0.75047334606E+02  0.68860582553E+01 -0.18356008069E+03  0.19848403828E+03  0.47000000000E+01 0. -1.
        -13    1    4    4    0    0 -0.15179465426E+03 -0.19385988530E+03 -0.55330575908E+03  0.60561583138E+03  0.00000000000E+00 0.  1.
         14    1    4    4    0    0 -0.13790066278E+03 -0.81931137063E+02 -0.42955129983E+03  0.45852330716E+03  0.00000000000E+00 0. -1.
         -5    1    5    5    0  502  0.11750033084E+03  0.14448130709E+03  0.90173388657E+02  0.20696498706E+03  0.47000000000E+01 0.  1.
         11    1    6    6    0    0  0.54919289578E+02  0.62676154035E+02  0.21561931003E+02  0.86077555268E+02  0.00000000000E+00 0. -1.
        -12    1    6    6    0    0  0.19232303123E+03  0.61747502983E+02 -0.93708352902E+01  0.20220958192E+03  0.00000000000E+00 0.  1.
</event>
<event>
12    1  0.9962621E-001  0.1924611E+03  0.7818608E-02  0.1156426E+00
         21   -1    0    0  501  502  0.00000000000E+00  0.00000000000E+00  0.23776253949E+03  0.23776253949E+03  0.00000000000E+00 0. -1.
         21   -1    0    0  502  503 -0.00000000000E+00 -0.00000000000E+00 -0.18861737702E+03  0.18861737702E+03  0.00000000000E+00 0. -1.
         -6    2    1    2    0  503 -0.55493202038E+02  0.60549040080E+02  0.11436419229E+03  0.22387593441E+03  0.17405626620E+03 0.  0.
        -24    2    3    3    0    0  0.12090181743E+02  0.65013129853E+02  0.11815699022E+03  0.15587654341E+03  0.77223978783E+02 0.  0.
          6    2    1    2  501    0  0.55493202038E+02 -0.60549040080E+02 -0.65219029828E+02  0.20250398210E+03  0.17323007587E+03 0.  0.
         24    2    5    5    0    0  0.75674039902E+02 -0.64480982065E+02 -0.99707920444E+02  0.16207750611E+03  0.80268868340E+02 0.  0.
          5    1    5    5  501    0 -0.20180837864E+02  0.39319419845E+01  0.34488890616E+02  0.40426475985E+02  0.47000000000E+01 0. -1.
        -11    1    6    6    0    0  0.42387595100E+02 -0.78056438233E+02 -0.85910366748E+02  0.12357227392E+03  0.00000000000E+00 0.  1.
         12    1    6    6    0    0  0.33286444802E+02  0.13575456168E+02 -0.13797553696E+02  0.38505232186E+02  0.00000000000E+00 0. -1.
         -5    1    3    3    0  503 -0.67583383781E+02 -0.44640897727E+01 -0.37927979280E+01  0.67999391004E+02  0.47000000000E+01 0.  1.
         13    1    4    4    0    0  0.29673259137E+02  0.39897664827E+01  0.70133546592E+02  0.76257031819E+02  0.00000000000E+00 0. -1.
        -14    1    4    4    0    0 -0.17583077393E+02  0.61023363371E+02  0.48023443627E+02  0.79619511588E+02  0.00000000000E+00 0.  1.
</event>
<event>
12    1  0.9962621E-001  0.4200660E+03  0.7818608E-02  0.1037073E+00
         21   -1    0    0  503  502  0.00000000000E+00  0.00000000000E+00  0.11151614125E+04  0.11151614125E+04  0.00000000000E+00 0. -1.
         21   -1    0    0  501  503 -0.00000000000E+00 -0.00000000000E+00 -0.15986342889E+03  0.15986342889E+03  0.00000000000E+00 0. -1.
          6    2    1    2  501    0  0.38141626546E+03  0.33112129932E+02  0.41097394151E+03  0.58766912111E+03  0.17286015910E+03 0.  0.
         24    2    3    3    0    0  0.10578421614E+03  0.59330455994E+02  0.12499365272E+03  0.18958967828E+03  0.74902800317E+02 0.  0.
         -6    2    1    2    0  502 -0.38141626546E+03 -0.33112129932E+02  0.54432404208E+03  0.68735572025E+03  0.17203035390E+03 0.  0.
        -24    2    5    5    0    0 -0.71453481544E+02 -0.16205181785E+02  0.11064725913E+03  0.15400741531E+03  0.78148960812E+02 0.  0.
          5    1    3    3  501    0  0.27563204932E+03 -0.26218326062E+02  0.28598028879E+03  0.39807944284E+03  0.47000000000E+01 0. -1.
        -11    1    4    4    0    0  0.80920523690E+02  0.49041458885E+02  0.44205559859E+02  0.10443815091E+03  0.00000000000E+00 0.  1.
         12    1    4    4    0    0  0.24863692450E+02  0.10288997109E+02  0.80788092863E+02  0.85151527362E+02  0.00000000000E+00 0. -1.
         -5    1    5    5    0  502 -0.30996278392E+03 -0.16906948147E+02  0.43367678295E+03  0.53334830494E+03  0.47000000000E+01 0.  1.
         11    1    6    6    0    0 -0.41390507839E+02 -0.62173715857E+01  0.31880813229E+01  0.41976108813E+02  0.00000000000E+00 0. -1.
        -12    1    6    6    0    0 -0.30062973706E+02 -0.99878101993E+01  0.10745917780E+03  0.11203130649E+03  0.00000000000E+00 0.  1.
</event>
<event>
12    1  0.9962621E-001  0.2010064E+03  0.7818608E-02  0.1149391E+00
         21   -1    0    0  503  502  0.00000000000E+00  0.00000000000E+00  0.12495763211E+04  0.12495763211E+04  0.00000000000E+00 0. -1.
         21   -1    0    0  501  503 -0.00000000000E+00 -0.00000000000E+00 -0.33498045123E+02  0.33498045123E+02  0.00000000000E+00 0. -1.
          6    2    1    2  501    0  0.10174428551E+03 -0.24614015606E+01  0.74915483575E+03  0.77565233929E+03  0.17333673988E+03 0.  0.
         24    2    3    3    0    0  0.12985251741E+03 -0.16734063435E+01  0.44875484543E+03  0.47390254588E+03  0.79613033691E+02 0.  0.
         -6    2    1    2    0  502 -0.10174428551E+03  0.24614015606E+01  0.46692344021E+03  0.50742202692E+03  0.17059207557E+03 0.  0.
        -24    2    5    5    0    0  0.43127752527E+00  0.40342216333E+02  0.20602031169E+03  0.22463706571E+03  0.79935987172E+02 0.  0.
          5    1    3    3  501    0 -0.28108231900E+02 -0.78799521713E+00  0.30039999032E+03  0.30174979341E+03  0.47000000000E+01 0. -1.
        -13    1    4    4    0    0  0.53187953058E+02  0.28335267721E+02  0.27640831672E+03  0.28290175556E+03  0.00000000000E+00 0.  1.
         14    1    4    4    0    0  0.76664564350E+02 -0.30008674064E+02  0.17234652871E+03  0.19100079032E+03  0.00000000000E+00 0. -1.
         -5    1    5    5    0  502 -0.10217556303E+03 -0.37880814773E+02  0.26090312852E+03  0.28278496120E+03  0.47000000000E+01 0.  1.
         11    1    6    6    0    0 -0.62432891940E+01 -0.24494834583E+01  0.16451175845E+03  0.16464840509E+03  0.00000000000E+00 0. -1.
        -12    1    6    6    0    0  0.66745667192E+01  0.42791699792E+02  0.41508553240E+02  0.59988660629E+02  0.00000000000E+00 0.  1.
</event>
<event>
12    1  0.9962621E-001  0.2118157E+03  0.7818608E-02  0.1140360E+00
         21   -1    0    0  503  502  0.00000000000E+00  0.00000000000E+00  0.45141975940E+03  0.45141975940E+03  0.00000000000E+00 0. -1.
         21   -1    0    0  501  503 -0.00000000000E+00 -0.00000000000E+00 -0.20062161313E+03  0.20062161313E+03  0.00000000000E+00 0. -1.
          6    2    1    2  501    0  0.81253540225E+02 -0.89254002665E+02  0.35776463272E+03  0.41576609282E+03  0.17406176122E+03 0.  0.
         24    2    3    3    0    0  0.69187783324E+02 -0.12828147473E+00  0.27022387036E+03  0.29016970854E+03  0.79940939628E+02 0.  0.
         -6    2    1    2    0  502 -0.81253540225E+02  0.89254002665E+02 -0.10696648644E+03  0.23627527972E+03  0.17267241758E+03 0.  0.
        -24    2    5    5    0    0  0.20233560549E+02  0.63512267848E+02 -0.68524805306E+02  0.12464140769E+03  0.79978912399E+02 0.  0.
          5    1    3    3  501    0  0.12065756901E+02 -0.89125721190E+02  0.87540762364E+02  0.12559638427E+03  0.47000000000E+01 0. -1.
        -11    1    4    4    0    0  0.67971211888E+01  0.32239586092E+02  0.11779309401E+03  0.12231436859E+03  0.00000000000E+00 0.  1.
         12    1    4    4    0    0  0.62390662135E+02 -0.32367867567E+02  0.15243077635E+03  0.16785533995E+03  0.00000000000E+00 0. -1.
         -5    1    5    5    0  502 -0.10148710077E+03  0.25741734817E+02 -0.38441681139E+02  0.11163387203E+03  0.47000000000E+01 0.  1.
         13    1    6    6    0    0 -0.10647875193E+02  0.71147270433E+02 -0.42620002607E+02  0.83616840160E+02  0.00000000000E+00 0. -1.
        -14    1    6    6    0    0  0.30881435742E+02 -0.76350025847E+01 -0.25904802700E+02  0.41024567528E+02  0.00000000000E+00 0.  1.
</event>
<event>
12    1  0.9962621E-001  0.1888140E+03  0.7818608E-02  0.1159734E+00
         21   -1    0    0  503  502  0.00000000000E+00  0.00000000000E+00  0.73910618006E+03  0.73910618006E+03  0.00000000000E+00 0.  1.
         21   -1    0    0  501  503 -0.00000000000E+00 -0.00000000000E+00 -0.73821510561E+02  0.73821510561E+02  0.00000000000E+00 0.  1.
          6    2    1    2  501    0  0.20993896501E+02  0.73525338296E+02  0.57347559986E+03  0.60375906003E+03  0.17263840785E+03 0.  0.
         24    2    3    3    0    0  0.67158106506E+02  0.88720623559E+02  0.44856452273E+03  0.46964381790E+03  0.83508229105E+02 0.  0.
         -6    2    1    2    0  502 -0.20993896501E+02 -0.73525338296E+02  0.91809069639E+02  0.20916863060E+03  0.17168544404E+03 0.  0.
        -24    2    5    5    0    0  0.40211145134E+02 -0.75181115364E+02  0.25697807664E+02  0.11893788374E+03  0.78846094186E+02 0.  0.
          5    1    3    3  501    0 -0.46164210005E+02 -0.15195285263E+02  0.12491107713E+03  0.13411524212E+03  0.47000000000E+01 0. -1.
        -11    1    4    4    0    0  0.52723152403E+02  0.10482528823E+03  0.38653448304E+03  0.40395170309E+03  0.00000000000E+00 0.  1.
         12    1    4    4    0    0  0.14434954104E+02 -0.16104664675E+02  0.62030039689E+02  0.65692114810E+02  0.00000000000E+00 0. -1.
         -5    1    5    5    0  502 -0.61205041635E+02  0.16557770671E+01  0.66111261975E+02  0.90230746861E+02  0.47000000000E+01 0.  1.
         11    1    6    6    0    0  0.57684102244E+02 -0.54319212709E+02  0.39378539014E+02  0.88479951717E+02  0.00000000000E+00 0. -1.
        -12    1    6    6    0    0 -0.17472957111E+02 -0.20861902655E+02 -0.13680731349E+02  0.30457932018E+02  0.00000000000E+00 0.  1.
</event>
<event>
12    1  0.9962621E-001  0.3015081E+03  0.7818608E-02  0.1084589E+00
         21   -1    0    0  501  502  0.00000000000E+00  0.00000000000E+00  0.59719500770E+03  0.59719500770E+03  0.00000000000E+00 0.  1.
         21   -1    0    0  502  503 -0.00000000000E+00 -0.00000000000E+00 -0.28970433477E+03  0.28970433477E+03  0.00000000000E+00 0.  1.
         -6    2    1    2    0  503  0.22269729315E+03 -0.10886039110E+03  0.45957062619E+03  0.54920796727E+03  0.17023384424E+03 0.  0.
        -24    2    3    3    0    0  0.12705022682E+03  0.48062959486E+01  0.25295461227E+03  0.29468735071E+03  0.81790819690E+02 0.  0.
          6    2    1    2  501    0 -0.22269729315E+03  0.10886039110E+03 -0.15207995326E+03  0.33769137521E+03  0.17164639110E+03 0.  0.
         24    2    5    5    0    0 -0.39944070226E+02  0.71859186001E+02 -0.66581556738E+02  0.13250878463E+03  0.79788488817E+02 0.  0.
          5    1    5    5  501    0 -0.18275322292E+03  0.37001205102E+02 -0.85498396518E+02  0.20518259057E+03  0.47000000000E+01 0. -1.
        -13    1    6    6    0    0 -0.15353203315E+02  0.53237898107E+01 -0.58969196966E+02  0.61167227997E+02  0.00000000000E+00 0.  1.
         14    1    6    6    0    0 -0.24590866911E+02  0.66535396191E+02 -0.76123597713E+01  0.71341556634E+02  0.00000000000E+00 0. -1.
         -5    1    3    3    0  503  0.95647066328E+02 -0.11366668705E+03  0.20661601392E+03  0.25452061655E+03  0.47000000000E+01 0.  1.
         11    1    4    4    0    0  0.77361404959E+02 -0.27372780920E+02  0.19623437662E+03  0.21270163770E+03  0.00000000000E+00 0. -1.
        -12    1    4    4    0    0  0.49688821862E+02  0.32179076868E+02  0.56720235649E+02  0.81985713013E+02  0.00000000000E+00 0.  1.
</event>
<event>
12    1  0.9962621E-001  0.3545799E+03  0.7818608E-02  0.1061021E+00
         21   -1    0    0  501  502  0.00000000000E+00  0.00000000000E+00  0.26507782516E+04  0.26507782516E+04  0.00000000000E+00 0. -1.
         21   -1    0    0  502  503 -0.00000000000E+00 -0.00000000000E+00 -0.87209694583E+02  0.87209694583E+02  0.00000000000E+00 0. -1.
         -6    2    1    2    0  503  0.24976155827E+03 -0.17824865252E+03  0.35045356588E+03  0.49664797560E+03  0.17230232650E+03 0.  0.
        -24    2    3    3    0    0  0.97089982490E+02 -0.21737336676E+02  0.98006801263E+02  0.16264818368E+03  0.83367392037E+02 0.  0.
          6    2    1    2  501    0 -0.24976155827E+03  0.17824865252E+03  0.22131149911E+04  0.22413399706E+04  0.17768928394E+03 0.  0.
         24    2    5    5    0    0 -0.27119267883E+03  0.15764862505E+03  0.20526517341E+04  0.20780788272E+04  0.81448835273E+02 0.  0.
          5    1    5    5  501    0  0.21431120567E+02  0.20600027472E+02  0.16046325706E+03  0.16326114335E+03  0.47000000000E+01 0. -1.
        -11    1    6    6    0    0 -0.12494904448E+03  0.29186328355E+02  0.73242161341E+03  0.74357617314E+03  0.00000000000E+00 0.  1.
         12    1    6    6    0    0 -0.14624363436E+03  0.12846229669E+03  0.13202301207E+04  0.13345026541E+04  0.00000000000E+00 0. -1.
         -5    1    3    3    0  503  0.15267157578E+03 -0.15651131584E+03  0.25244676462E+03  0.33399979192E+03  0.47000000000E+01 0.  1.
         13    1    4    4    0    0 -0.94645192042E+01  0.98356310769E+01 -0.11648892439E+01  0.13699406170E+02  0.00000000000E+00 0. -1.
        -14    1    4    4    0    0  0.10655450169E+03 -0.31572967753E+02  0.99171690507E+02  0.14894877751E+03  0.00000000000E+00 0.  1.
</event>
<event>
12    1  0.9962621E-001  0.2652351E+03  0.7818608E-02  0.1104105E+00
         21   -1    0    0  501  502  0.00000000000E+00  0.00000000000E+00  0.18617719746E+03  0.18617719746E+03  0.00000000000E+00 0.  1.
         21   -1    0    0  502  503 -0.00000000000E+00 -0.00000000000E+00 -0.40855535940E+03  0.40855535940E+03  0.00000000000E+00 0.  1.
         -6    2    1    2    0  503  0.84881606087E+02  0.18265590269E+03 -0.28744684380E+02  0.26633709427E+03  0.17187531836E+03 0.  0.
        -24    2    3    3    0    0  0.95084056315E+02  0.67161261785E+02 -0.47301168257E+02  0.14882311568E+03  0.79745259374E+02 0.  0.
          6    2    1    2  501    0 -0.84881606087E+02 -0.18265590269E+03 -0.19363347756E+03  0.32839546260E+03  0.17257343476E+03 0.  0.
         24    2    5    5    0    0 -0.63840494967E+02 -0.11153355138E+03 -0.38429078952E+02  0.15631521225E+03  0.80263999341E+02 0.  0.
          5    1    5    5  501    0 -0.21041111121E+02 -0.71122351309E+02 -0.15520439860E+03  0.17208025035E+03  0.47000000000E+01 0. -1.
        -11    1    6    6    0    0 -0.21483850041E+02  0.92205092377E+01 -0.32755240284E+01  0.23607258647E+02  0.00000000000E+00 0.  1.
         12    1    6    6    0    0 -0.42356644926E+02 -0.12075406062E+03 -0.35153554924E+02  0.13270795360E+03  0.00000000000E+00 0. -1.
         -5    1    3    3    0  503 -0.10202450227E+02  0.11549464091E+03  0.18556483877E+02  0.11751397859E+03  0.47000000000E+01 0.  1.
         11    1    4    4    0    0  0.10391474229E+03  0.48107579291E+02 -0.23165389023E+02  0.11682999657E+03  0.00000000000E+00 0. -1.
        -12    1    4    4    0    0 -0.88306859715E+01  0.19053682494E+02 -0.24135779233E+02  0.31993119112E+02  0.00000000000E+00 0.  1.
</event>
<event>
12    1  0.9962621E-001  0.1858240E+03  0.7818608E-02  0.1162449E+00
         21   -1    0    0  503  502  0.00000000000E+00  0.00000000000E+00  0.30123896731E+03  0.30123896731E+03  0.00000000000E+00 0. -1.
         21   -1    0    0  501  503 -0.00000000000E+00 -0.00000000000E+00 -0.11974612370E+03  0.11974612370E+03  0.00000000000E+00 0. -1.
          6    2    1    2  501    0 -0.52305157304E+02 -0.44254689156E+02  0.45565681628E+02  0.19132899193E+03  0.17273171341E+03 0.  0.
         24    2    3    3    0    0 -0.79956866656E+02 -0.78275994695E+02  0.56208826108E+02  0.14597005913E+03  0.75017292391E+02 0.  0.
         -6    2    1    2    0  502  0.52305157304E+02  0.44254689156E+02  0.13592716198E+03  0.22965609908E+03  0.17196343649E+03 0.  0.
        -24    2    5    5    0    0 -0.25261620662E+02  0.38374985280E+02  0.11722237533E+03  0.14951163574E+03  0.80634080688E+02 0.  0.
          5    1    3    3  501    0  0.27651709352E+02  0.34021305539E+02 -0.10643144481E+02  0.45358932804E+02  0.47000000000E+01 0. -1.
        -13    1    4    4    0    0 -0.52405346177E+01 -0.26659112437E+02 -0.14573512918E+02  0.30831132931E+02  0.00000000000E+00 0.  1.
         14    1    4    4    0    0 -0.74716332038E+02 -0.51616882258E+02  0.70782339026E+02  0.11513892619E+03  0.00000000000E+00 0. -1.
         -5    1    5    5    0  502  0.77566777966E+02  0.58797038759E+01  0.18704786647E+02  0.80144463347E+02  0.47000000000E+01 0.  1.
         11    1    6    6    0    0  0.23173835270E+02  0.24690495762E+02  0.18227090965E+02  0.38456131723E+02  0.00000000000E+00 0. -1.
        -12    1    6    6    0    0 -0.48435455932E+02  0.13684489518E+02  0.98995284366E+02  0.11105550401E+03  0.00000000000E+00 0.  1.
</event>
<event>
12    1  0.9962621E-001  0.3384731E+03  0.7818608E-02  0.1067509E+00
         21   -1    0    0  503  502  0.00000000000E+00  0.00000000000E+00  0.62719073378E+02  0.62719073378E+02  0.00000000000E+00 0.  1.
         21   -1    0    0  501  503 -0.00000000000E+00 -0.00000000000E+00 -0.20650563151E+04  0.20650563151E+04  0.00000000000E+00 0.  1.
          6    2    1    2  501    0 -0.25457317200E+03  0.14008790449E+03 -0.13642571389E+04  0.14054802553E+04  0.17246763831E+03 0.  0.
         24    2    3    3    0    0 -0.14018690026E+03  0.15306851536E+03 -0.93598160582E+03  0.96197745079E+03  0.79099380501E+02 0.  0.
         -6    2    1    2    0  502  0.25457317200E+03 -0.14008790449E+03 -0.63808010283E+03  0.72229513313E+03  0.17358548566E+03 0.  0.
        -24    2    5    5    0    0  0.23307250975E+03 -0.11565535092E+03 -0.41257482245E+03  0.49440491915E+03  0.80742089131E+02 0.  0.
          5    1    3    3  501    0 -0.11438627174E+03 -0.12980610870E+02 -0.42827553303E+03  0.44350280452E+03  0.47000000000E+01 0. -1.
        -13    1    4    4    0    0 -0.35852042237E+02  0.97560306753E+02 -0.44043215817E+03  0.45253051647E+03  0.00000000000E+00 0.  1.
         14    1    4    4    0    0 -0.10433485802E+03  0.55508208604E+02 -0.49554944766E+03  0.50944693433E+03  0.00000000000E+00 0. -1.
         -5    1    5    5    0  502  0.21500662248E+02 -0.24432553567E+02 -0.22550528038E+03  0.22789021398E+03  0.47000000000E+01 0.  1.
         11    1    6    6    0    0  0.92864969820E+02 -0.16435458282E+02 -0.98100593396E+02  0.13607995199E+03  0.00000000000E+00 0. -1.
        -12    1    6    6    0    0  0.14020753993E+03 -0.99219892639E+02 -0.31447422905E+03  0.35832496716E+03  0.00000000000E+00 0.  1.
</event>
<event>
12    1  0.9962621E-001  0.1790645E+03  0.7818608E-02  0.1168715E+00
         21   -1    0    0  503  502  0.00000000000E+00  0.00000000000E+00  0.12819502053E+04  0.12819502053E+04  0.00000000000E+00 0. -1.
         21   -1    0    0  501  503 -0.00000000000E+00 -0.00000000000E+00 -0.30386333727E+02  0.30386333727E+02  0.00000000000E+00 0. -1.
          6    2    1    2  501    0  0.48442059968E+02 -0.10928779942E+02  0.90180608089E+03  0.91941193341E+03  0.17204076370E+03 0.  0.
         24    2    3    3    0    0  0.69275075466E+02 -0.55762738892E+02  0.76070331636E+03  0.76982524093E+03  0.77800044533E+02 0.  0.
         -6    2    1    2    0  502 -0.48442059968E+02  0.10928779942E+02  0.34975779065E+03  0.39292460558E+03  0.17202663207E+03 0.  0.
        -24    2    5    5    0    0  0.25870513330E+02  0.44973356652E+02  0.15045958952E+03  0.17746404138E+03  0.78508035471E+02 0.  0.
          5    1    3    3  501    0 -0.20833015498E+02  0.44833958950E+02  0.14110276453E+03  0.14958669248E+03  0.47000000000E+01 0. -1.
        -11    1    4    4    0    0  0.42550179727E+02 -0.48403966115E+02  0.24364697462E+03  0.25202640729E+03  0.00000000000E+00 0.  1.
         12    1    4    4    0    0  0.26724895738E+02 -0.73587727764E+01  0.51705634174E+03  0.51779883365E+03  0.00000000000E+00 0. -1.
         -5    1    5    5    0  502 -0.74312573298E+02 -0.34044576710E+02  0.19929820113E+03  0.21546056420E+03  0.47000000000E+01 0.  1.
         11    1    6    6    0    0  0.68911523873E+00  0.62176369979E+02  0.11466657065E+03  0.13044078460E+03  0.00000000000E+00 0. -1.
        -12    1    6    6    0    0  0.25181398091E+02 -0.17203013327E+02  0.35793018873E+02  0.47023256772E+02  0.00000000000E+00 0.  1.
</event>
<event>
12    1  0.9962621E-001  0.3256369E+03  0.7818608E-02  0.1073190E+00
         21   -1    0    0  501  502  0.00000000000E+00  0.00000000000E+00  0.24792524448E+03  0.24792524448E+03  0.00000000000E+00 0. -1.
         21   -1    0    0  502  503 -0.00000000000E+00 -0.00000000000E+00 -0.49221373866E+03  0.49221373866E+03  0.00000000000E+00 0.  1.
         -6    2    1    2    0  503  0.17757723161E+02 -0.27578209226E+03  0.12954165284E+02  0.32589450496E+03  0.17224493845E+03 0.  0.
        -24    2    3    3    0    0  0.65963153374E+02 -0.10666462414E+03  0.18539315751E+02  0.14988948960E+03  0.79966700687E+02 0.  0.
          6    2    1    2  501    0 -0.17757723161E+02  0.27578209226E+03 -0.25724265947E+03  0.41424447817E+03  0.17045117395E+03 0.  0.
         24    2    5    5    0    0 -0.22231133392E+02  0.78052738243E+02 -0.15382680034E+03  0.19100953745E+03  0.78965218002E+02 0.  0.
          5    1    5    5  501    0  0.44734102310E+01  0.19772935402E+03 -0.10341585913E+03  0.22323494072E+03  0.47000000000E+01 0. -1.
        -13    1    6    6    0    0  0.22008569531E+02  0.34476303463E+02 -0.10279460989E+03  0.11063328819E+03  0.00000000000E+00 0.  1.
         14    1    6    6    0    0 -0.44239702923E+02  0.43576434780E+02 -0.51032190456E+02  0.80376249263E+02  0.00000000000E+00 0. -1.
         -5    1    3    3    0  503 -0.48205430213E+02 -0.16911746813E+03 -0.55851504668E+01  0.17600501536E+03  0.47000000000E+01 0.  1.
         11    1    4    4    0    0  0.54409564121E+02 -0.16371118041E+02 -0.81525773086E+00  0.56824984109E+02  0.00000000000E+00 0. -1.
        -12    1    4    4    0    0  0.11553589253E+02 -0.90293506095E+02  0.19354573482E+02  0.93064505491E+02  0.00000000000E+00 0.  1.
</event>
<event>
12    1  0.9962621E-001  0.2251652E+03  0.7818608E-02  0.1130145E+00
         21   -1    0    0  503  502  0.00000000000E+00  0.00000000000E+00  0.30742435016E+03  0.30742435016E+03  0.00000000000E+00 0. -1.
         21   -1    0    0  501  503 -0.00000000000E+00 -0.00000000000E+00 -0.21361968053E+03  0.21361968053E+03  0.00000000000E+00 0. -1.
          6    2    1    2  501    0 -0.13770686126E+03 -0.48696173843E+02  0.17155576335E+03  0.28283281514E+03  0.17096351773E+03 0.  0.
         24    2    3    3    0    0 -0.95057927516E+01  0.47966608845E+01  0.83611539987E+02  0.11835402089E+03  0.83086801541E+02 0.  0.
         -6    2    1    2    0  502  0.13770686126E+03  0.48696173843E+02 -0.77751093720E+02  0.23821121555E+03  0.17136176252E+03 0.  0.
        -24    2    5    5    0    0  0.10191136170E+03 -0.17671744135E+00 -0.10831846866E+03  0.17019407284E+03  0.82747658013E+02 0.  0.
          5    1    3    3  501    0 -0.12820106851E+03 -0.53492834727E+02  0.87944223362E+02  0.16447879425E+03  0.47000000000E+01 0. -1.
        -11    1    4    4    0    0 -0.78301422601E+01  0.13145756008E+02  0.99316869607E+02  0.10048861934E+03  0.00000000000E+00 0.  1.
         12    1    4    4    0    0 -0.16756504915E+01 -0.83490951238E+01 -0.15705329620E+02  0.17865401547E+02  0.00000000000E+00 0. -1.
         -5    1    5    5    0  502  0.35795499565E+02  0.48872891284E+02  0.30567374939E+02  0.68017142708E+02  0.47000000000E+01 0.  1.
         13    1    6    6    0    0  0.39752052072E+02 -0.12786360887E+01 -0.99813700282E+02  0.10744596464E+03  0.00000000000E+00 0. -1.
        -14    1    6    6    0    0  0.62159309623E+02  0.11019186473E+01 -0.85047683777E+01  0.62748108200E+02  0.00000000000E+00 0.  1.
</event>
<event>
12    1  0.9962621E-001  0.3024591E+03  0.7818608E-02  0.1084057E+00
         21   -1    0    0  501  502  0.00000000000E+00  0.00000000000E+00  0.75063819320E+02  0.75063819320E+02  0.00000000000E+00 0. -1.
         21   -1    0    0  502  503 -0.00000000000E+00 -0.00000000000E+00 -0.12224434855E+04  0.12224434855E+04  0.00000000000E+00 0. -1.
         -6    2    1    2    0  503  0.24234340201E+02  0.24786189392E+03 -0.61484831129E+03  0.68507678152E+03  0.17108164418E+03 0.  0.
        -24    2    3    3    0    0  0.59003105294E+02  0.56781858722E+02 -0.16809701886E+03  0.19791227731E+03  0.64862283680E+02 0.  0.
          6    2    1    2  501    0 -0.24234340201E+02 -0.24786189392E+03 -0.53253135493E+03  0.61243052334E+03  0.17163531174E+03 0.  0.
         24    2    5    5    0    0 -0.15859411047E+02 -0.13978367124E+03 -0.17157161199E+03  0.23551532376E+03  0.78991480670E+02 0.  0.
          5    1    5    5  501    0 -0.83749291540E+01 -0.10807822268E+03 -0.36095974294E+03  0.37691519958E+03  0.47000000000E+01 0. -1.
        -11    1    6    6    0    0  0.13020936246E+01 -0.10624538660E+03 -0.16648141567E+03  0.19749896046E+03  0.00000000000E+00 0.  1.
         12    1    6    6    0    0 -0.17161504672E+02 -0.33538284647E+02 -0.50901963242E+01  0.38016363296E+02  0.00000000000E+00 0. -1.
         -5    1    3    3    0  503 -0.34768765093E+02  0.19108003520E+03 -0.44675129242E+03  0.48716450421E+03  0.47000000000E+01 0.  1.
         11    1    4    4    0    0  0.67519962525E+02  0.33835906933E+02 -0.14833521314E+03  0.16645464666E+03  0.00000000000E+00 0. -1.
        -12    1    4    4    0    0 -0.85168572313E+01  0.22945951789E+02 -0.19761805727E+02  0.31457630652E+02  0.00000000000E+00 0.  1.
</event>
<event>
12    1  0.9962621E-001  0.3064067E+03  0.7818608E-02  0.1083328E+00
         21   -1    0    0  503  502  0.00000000000E+00  0.00000000000E+00  0.68327351979E+03  0.68327351979E+03  0.00000000000E+00 0. -1.
         21   -1    0    0  501  503 -0.00000000000E+00 -0.00000000000E+00 -0.22997273229E+03  0.22997273229E+03  0.00000000000E+00 0. -1.
          6    2    1    2  501    0  0.23115918761E+03 -0.68098432952E+02  0.52106286463E+03  0.59943619251E+03  0.17246818088E+03 0.  0.
         24    2    3    3    0    0  0.17241974476E+03 -0.12342329159E+02  0.44317851313E+03  0.48697674442E+03  0.10420294447E+03 0.  0.
         -6    2    1    2    0  502 -0.23115918761E+03  0.68098432952E+02 -0.67762077119E+02  0.31381005957E+03  0.18924346172E+03 0.  0.
        -24    2    5    5    0    0 -0.62371968275E+02 -0.21768032168E+02  0.20268195424E+02  0.10324765588E+03  0.76714855456E+02 0.  0.
          5    1    3    3  501    0  0.58739442848E+02 -0.55756103793E+02  0.77884351494E+02  0.11245944809E+03  0.47000000000E+01 0. -1.
        -13    1    4    4    0    0  0.15581065093E+03  0.57335170051E+01  0.43333067618E+03  0.46052720558E+03  0.00000000000E+00 0.  1.
         14    1    4    4    0    0  0.16609093829E+02 -0.18075846164E+02  0.98478369480E+01  0.26449538842E+02  0.00000000000E+00 0. -1.
         -5    1    5    5    0  502 -0.16878721933E+03  0.89866465120E+02 -0.88030272543E+02  0.21056240369E+03  0.47000000000E+01 0.  1.
         11    1    6    6    0    0 -0.32416693137E+02  0.26268410222E+02  0.20828748473E+02  0.46633766013E+02  0.00000000000E+00 0. -1.
        -12    1    6    6    0    0 -0.29955275138E+02 -0.48036442390E+02 -0.56055304923E+00  0.56613889866E+02  0.00000000000E+00 0.  1.
</event>
<event>
12    1  0.9962621E-001  0.2122560E+03  0.7818608E-02  0.1142040E+00
         21   -1    0    0  503  502  0.00000000000E+00  0.00000000000E+00  0.20548047541E+04  0.20548047541E+04  0.00000000000E+00 0. -1.
         21   -1    0    0  501  503 -0.00000000000E+00 -0.00000000000E+00 -0.24889912812E+02  0.24889912812E+02  0.00000000000E+00 0. -1.
          6    2    1    2  501    0  0.12438124155E+02 -0.10323996715E+03  0.14141700013E+04  0.14283926624E+04  0.17209185817E+03 0.  0.
         24    2    3    3    0    0 -0.19266324754E+02 -0.13274391520E+03  0.11621263020E+04  0.11726119528E+04  0.80555023474E+02 0.  0.
         -6    2    1    2    0  502 -0.12438124155E+02  0.10323996715E+03  0.61574484004E+03  0.65130200458E+03  0.18503890233E+03 0.  0.
        -24    2    5    5    0    0 -0.21659306671E+01  0.69399718561E+02  0.14338398544E+03  0.17759582207E+03  0.78487556618E+02 0.  0.
          5    1    3    3  501    0  0.31704448909E+02  0.29503948052E+02  0.25204369927E+03  0.25578070954E+03  0.47000000000E+01 0. -1.
        -13    1    4    4    0    0 -0.30883829751E+02 -0.10988736856E+02  0.31514199682E+03  0.31684229742E+03  0.00000000000E+00 0.  1.
         14    1    4    4    0    0  0.11617504997E+02 -0.12175517835E+03  0.84698430518E+03  0.85576965539E+03  0.00000000000E+00 0. -1.
         -5    1    5    5    0  502 -0.10272193488E+02  0.33840248589E+02  0.47236085460E+03  0.47370618250E+03  0.47000000000E+01 0.  1.
         13    1    6    6    0    0 -0.14164571720E+02  0.25539741027E+02  0.12530284501E+03  0.12866124681E+03  0.00000000000E+00 0. -1.
        -14    1    6    6    0    0  0.11998641053E+02  0.43859977534E+02  0.18081140432E+02  0.48934575259E+02  0.00000000000E+00 0.  1.
</event>
<event>
12    1  0.9962621E-001  0.3324398E+03  0.7818608E-02  0.1070079E+00
         21   -1    0    0  501  502  0.00000000000E+00  0.00000000000E+00  0.76607850208E+02  0.76607850208E+02  0.00000000000E+00 0.  1.
         21   -1    0    0  502  503 -0.00000000000E+00 -0.00000000000E+00 -0.18724462300E+04  0.18724462300E+04  0.00000000000E+00 0.  1.
         -6    2    1    2    0  503 -0.26365613548E+03  0.10700607695E+03 -0.13653371101E+04  0.14052265558E+04  0.17190517902E+03 0.  0.
        -24    2    3    3    0    0 -0.65388745368E+02  0.72075635231E+02 -0.63018117590E+03  0.64298877704E+03  0.82678097059E+02 0.  0.
          6    2    1    2  501    0  0.26365613548E+03 -0.10700607695E+03 -0.43050126969E+03  0.54382752442E+03  0.17161635947E+03 0.  0.
         24    2    5    5    0    0  0.68290146889E+02 -0.68864182580E+02 -0.22594590698E+03  0.25836708931E+03  0.79348472906E+02 0.  0.
          5    1    5    5  501    0  0.19536598859E+03 -0.38141894375E+02 -0.20455536270E+03  0.28546043511E+03  0.47000000000E+01 0. -1.
        -11    1    6    6    0    0 -0.57277569827E+01 -0.28841817367E+02 -0.19107597790E+02  0.35067904449E+02  0.00000000000E+00 0.  1.
         12    1    6    6    0    0  0.74017903872E+02 -0.40022365212E+02 -0.20683830919E+03  0.22329918486E+03  0.00000000000E+00 0. -1.
         -5    1    3    3    0  503 -0.19826739011E+03  0.34930441724E+02 -0.73515593419E+03  0.76223777872E+03  0.47000000000E+01 0.  1.
         13    1    4    4    0    0 -0.41653807220E+02  0.47179863417E+02 -0.57161014411E+03  0.57506446249E+03  0.00000000000E+00 0. -1.
        -14    1    4    4    0    0 -0.23734938147E+02  0.24895771814E+02 -0.58571031789E+02  0.67924314556E+02  0.00000000000E+00 0.  1.
</event>
<event>
12    1  0.9962621E-001  0.1933458E+03  0.7818608E-02  0.1155635E+00
         21   -1    0    0  503  502  0.00000000000E+00  0.00000000000E+00  0.38456125609E+03  0.38456125609E+03  0.00000000000E+00 0.  1.
         21   -1    0    0  501  503 -0.00000000000E+00 -0.00000000000E+00 -0.11718393390E+03  0.11718393390E+03  0.00000000000E+00 0.  1.
          6    2    1    2  501    0 -0.51726142403E+02 -0.67722053902E+02  0.23839136429E+03  0.30694140489E+03  0.17355319954E+03 0.  0.
         24    2    3    3    0    0  0.13748299562E+02 -0.43516691604E+02  0.47389841405E+02  0.10352932594E+03  0.79936262563E+02 0.  0.
         -6    2    1    2    0  502  0.51726142403E+02  0.67722053902E+02  0.28985957897E+02  0.19480378511E+03  0.17276127618E+03 0.  0.
        -24    2    5    5    0    0 -0.21518493724E+02 -0.43248690633E+01 -0.18962077497E+02  0.81328501777E+02  0.75980357683E+02 0.  0.
          5    1    3    3  501    0 -0.65474441965E+02 -0.24205362298E+02  0.19100152289E+03  0.20341207894E+03  0.47000000000E+01 0. -1.
        -13    1    4    4    0    0  0.35937551117E+01  0.23438003028E+02  0.17684468591E+02  0.29580322701E+02  0.00000000000E+00 0.  1.
         14    1    4    4    0    0  0.10154544451E+02 -0.66954694633E+02  0.29705372814E+02  0.73949003241E+02  0.00000000000E+00 0. -1.
         -5    1    5    5    0  502  0.73244636127E+02  0.72046922965E+02  0.47948035394E+02  0.11347528334E+03  0.47000000000E+01 0.  1.
         11    1    6    6    0    0  0.10218423696E+02 -0.16013249885E+02  0.21436329274E+02  0.28641867388E+02  0.00000000000E+00 0. -1.
        -12    1    6    6    0    0 -0.31736917420E+02  0.11688380821E+02 -0.40398406772E+02  0.52686634389E+02  0.00000000000E+00 0.  1.
</event>
<event>
12    1  0.9962621E-001  0.2235371E+03  0.7818608E-02  0.1131326E+00
         21   -1    0    0  503  502  0.00000000000E+00  0.00000000000E+00  0.51705445296E+03  0.51705445296E+03  0.00000000000E+00 0. -1.
         21   -1    0    0  501  503 -0.00000000000E+00 -0.00000000000E+00 -0.96980525606E+02  0.96980525606E+02  0.00000000000E+00 0. -1.
          6    2    1    2  501    0 -0.14190814343E+03 -0.14816952819E+02  0.23112022431E+03  0.32133661480E+03  0.17170672283E+03 0.  0.
         24    2    3    3    0    0 -0.13366567157E+03  0.16835392887E+02  0.24018704623E+03  0.28707137599E+03  0.81056866013E+02 0.  0.
         -6    2    1    2    0  502  0.14190814343E+03  0.14816952819E+02  0.18895370305E+03  0.29269836377E+03  0.17207953683E+03 0.  0.
        -24    2    5    5    0    0  0.98810076360E+02 -0.50123535847E+01  0.20608704532E+03  0.24203983838E+03  0.79516402296E+02 0.  0.
          5    1    3    3  501    0 -0.82424718596E+01 -0.31652345707E+02 -0.90668219185E+01  0.34265238811E+02  0.47000000000E+01 0. -1.
        -11    1    4    4    0    0 -0.95384360329E+02  0.47986570104E+02  0.17940465587E+03  0.20877480129E+03  0.00000000000E+00 0.  1.
         12    1    4    4    0    0 -0.38281311237E+02 -0.31151177217E+02  0.60782390353E+02  0.78296574696E+02  0.00000000000E+00 0. -1.
         -5    1    5    5    0  502  0.43098067065E+02  0.19829306404E+02 -0.17133342272E+02  0.50658525390E+02  0.47000000000E+01 0.  1.
         13    1    6    6    0    0 -0.62580304127E+01  0.14398951554E+02  0.96604442886E+01  0.18434124182E+02  0.00000000000E+00 0. -1.
        -14    1    6    6    0    0  0.10506810677E+03 -0.19411305139E+02  0.19642660103E+03  0.22360571419E+03  0.00000000000E+00 0.  1.
</event>
<event>
12    1  0.9962621E-001  0.2257005E+03  0.7818608E-02  0.1129819E+00
         21   -1    0    0  501  502  0.00000000000E+00  0.00000000000E+00  0.39301164096E+03  0.39301164096E+03  0.00000000000E+00 0. -1.
         21   -1    0    0  502  503 -0.00000000000E+00 -0.00000000000E+00 -0.14301075217E+03  0.14301075217E+03  0.00000000000E+00 0.  1.
         -6    2    1    2    0  503 -0.48556298773E+02 -0.13699906573E+03  0.20798494973E+03  0.30644440413E+03  0.17182542114E+03 0.  0.
        -24    2    3    3    0    0 -0.80042406852E+02 -0.13518754603E+03  0.21014900129E+03  0.27448458992E+03  0.80602282002E+02 0.  0.
          6    2    1    2  501    0  0.48556298773E+02  0.13699906573E+03  0.42015939057E+02  0.22957798900E+03  0.17266805071E+03 0.  0.
         24    2    5    5    0    0 -0.37090554970E+02  0.37899791641E+02  0.14302810872E+02  0.95614721063E+02  0.78265579987E+02 0.  0.
          5    1    5    5  501    0  0.85646853743E+02  0.99099274090E+02  0.27713128185E+02  0.13396326793E+03  0.47000000000E+01 0. -1.
        -13    1    6    6    0    0 -0.29583513796E+02  0.10476075274E+01 -0.26779257078E+02  0.39917544760E+02  0.00000000000E+00 0.  1.
         14    1    6    6    0    0 -0.75070411742E+01  0.36852184114E+02  0.41082067950E+02  0.55697176303E+02  0.00000000000E+00 0. -1.
         -5    1    3    3    0  503  0.31486108079E+02 -0.18115197024E+01 -0.21640515618E+01  0.31959814217E+02  0.47000000000E+01 0.  1.
         13    1    4    4    0    0  0.11584056712E+02 -0.40727379863E+02  0.73136011445E+02  0.84509088331E+02  0.00000000000E+00 0. -1.
        -14    1    4    4    0    0 -0.91626463565E+02 -0.94460166166E+02  0.13701298984E+03  0.18997550159E+03  0.00000000000E+00 0.  1.
</event>
<event>
12    1  0.9962621E-001  0.7408473E+03  0.7818608E-02  0.9649832E-01
         21   -1    0    0  503  502  0.00000000000E+00  0.00000000000E+00  0.85000999166E+03  0.85000999166E+03  0.00000000000E+00 0. -1.
         21   -1    0    0  501  503 -0.00000000000E+00 -0.00000000000E+00 -0.65681187018E+03  0.65681187018E+03  0.00000000000E+00 0. -1.
          6    2    1    2  501    0 -0.44413568849E+03 -0.56740215696E+03  0.19469636653E+03  0.76597302155E+03  0.17206474678E+03 0.  0.
         24    2    3    3    0    0 -0.45366733826E+03 -0.56089844463E+03  0.19895038542E+03  0.75280725920E+03  0.81953612867E+02 0.  0.
         -6    2    1    2    0  502  0.44413568849E+03  0.56740215696E+03 -0.14982450499E+01  0.74084884029E+03  0.17220058626E+03 0.  0.
        -24    2    5    5    0    0  0.99112391218E+02  0.10360533906E+03  0.10241285812E+02  0.16265469423E+03  0.76120517898E+02 0.  0.
          5    1    3    3  501    0  0.95316497678E+01 -0.65037123332E+01 -0.42540188882E+01  0.13165762344E+02  0.47000000000E+01 0. -1.
        -13    1    4    4    0    0 -0.30359001462E+03 -0.39936344915E+03  0.17368909052E+03  0.53087283003E+03  0.00000000000E+00 0.  1.
         14    1    4    4    0    0 -0.15007732364E+03 -0.16153499547E+03  0.25261294901E+02  0.22193442917E+03  0.00000000000E+00 0. -1.
         -5    1    5    5    0  502  0.34502329727E+03  0.46379681790E+03 -0.11739530862E+02  0.57819414606E+03  0.47000000000E+01 0.  1.
         13    1    6    6    0    0  0.10283557784E+03  0.61338765583E+02  0.10750950661E+02  0.12022139233E+03  0.00000000000E+00 0. -1.
        -14    1    6    6    0    0 -0.37231866198E+01  0.42266573481E+02 -0.50966484942E+00  0.42433301907E+02  0.00000000000E+00 0.  1.
</event>
<event>
12    1  0.9962621E-001  0.1736999E+03  0.7818608E-02  0.1174078E+00
         21   -1    0    0  501  502  0.00000000000E+00  0.00000000000E+00  0.27794543109E+02  0.27794543109E+02  0.00000000000E+00 0.  1.
         21   -1    0    0  502  503 -0.00000000000E+00 -0.00000000000E+00 -0.10853092507E+04  0.10853092507E+04  0.00000000000E+00 0.  1.
         -6    2    1    2    0  503  0.51592179677E+01 -0.21899310470E+02 -0.51517453001E+03  0.54362638812E+03  0.17210071515E+03 0.  0.
        -24    2    3    3    0    0  0.30210481962E+01 -0.13815156533E+02 -0.10532006060E+03  0.13365968043E+03  0.81071633297E+02 0.  0.
          6    2    1    2  501    0 -0.51592179677E+01  0.21899310470E+02 -0.54234017753E+03  0.56947740565E+03  0.17223661065E+03 0.  0.
         24    2    5    5    0    0  0.14306728412E+02  0.58503644542E+02 -0.50166638699E+03  0.51120865263E+03  0.77703048731E+02 0.  0.
          5    1    5    5  501    0 -0.19465946380E+02 -0.36604334072E+02 -0.40673790540E+02  0.58268753018E+02  0.47000000000E+01 0. -1.
        -13    1    6    6    0    0 -0.21329431236E+02  0.53507375474E+02 -0.22696653009E+03  0.23416188769E+03  0.00000000000E+00 0.  1.
         14    1    6    6    0    0  0.35636159648E+02  0.49962690683E+01 -0.27469985690E+03  0.27704676494E+03  0.00000000000E+00 0. -1.
         -5    1    3    3    0  503  0.21381697715E+01 -0.80841539369E+01 -0.40985446942E+03  0.40996670769E+03  0.47000000000E+01 0.  1.
         13    1    4    4    0    0 -0.30590427966E+02  0.17704397110E+02 -0.55490532375E+02  0.65790722320E+02  0.00000000000E+00 0. -1.
        -14    1    4    4    0    0  0.33611476162E+02 -0.31519553643E+02 -0.49829528222E+02  0.67868958106E+02  0.00000000000E+00 0.  1.
</event>
<event>
12    1  0.9962621E-001  0.2154262E+03  0.7818608E-02  0.1137479E+00
         21   -1    0    0  503  502  0.00000000000E+00  0.00000000000E+00  0.39697424019E+03  0.39697424019E+03  0.00000000000E+00 0.  1.
         21   -1    0    0  501  503 -0.00000000000E+00 -0.00000000000E+00 -0.20655417219E+03  0.20655417219E+03  0.00000000000E+00 0.  1.
          6    2    1    2  501    0 -0.74051882492E+02 -0.10616825207E+03  0.29454064960E+03  0.36491458107E+03  0.17220069154E+03 0.  0.
         24    2    3    3    0    0 -0.10610367090E+03 -0.70786279212E+02  0.27226569618E+03  0.31202351668E+03  0.83434880857E+02 0.  0.
         -6    2    1    2    0  502  0.74051882492E+02  0.10616825207E+03 -0.10412058160E+03  0.23861383130E+03  0.17128947992E+03 0.  0.
        -24    2    5    5    0    0 -0.19276488070E+02  0.57137258211E+02 -0.19876842250E+02  0.10358301730E+03  0.81841941252E+02 0.  0.
          5    1    3    3  501    0  0.32051788403E+02 -0.35381972855E+02  0.22274953420E+02  0.52891064395E+02  0.47000000000E+01 0. -1.
        -11    1    4    4    0    0 -0.22674684198E+02 -0.27606501545E+02  0.16767558916E+03  0.17143909540E+03  0.00000000000E+00 0.  1.
         12    1    4    4    0    0 -0.83428986698E+02 -0.43179777666E+02  0.10459010702E+03  0.14058442128E+03  0.00000000000E+00 0. -1.
         -5    1    5    5    0  502  0.93328370562E+02  0.49030993855E+02 -0.84243739347E+02  0.13503081400E+03  0.47000000000E+01 0.  1.
         13    1    6    6    0    0  0.47868148697E+01  0.16769196295E+02  0.30221387448E+02  0.34892001952E+02  0.00000000000E+00 0. -1.
        -14    1    6    6    0    0 -0.24063302940E+02  0.40368061916E+02 -0.50098229698E+02  0.68691015352E+02  0.00000000000E+00 0.  1.
</event>
<event>
12    1  0.9962621E-001  0.1899807E+03  0.7818608E-02  0.1158674E+00
         21   -1    0    0  503  502  0.00000000000E+00  0.00000000000E+00  0.79938230841E+02  0.79938230841E+02  0.00000000000E+00 0. -1.
         21   -1    0    0  501  503 -0.00000000000E+00 -0.00000000000E+00 -0.56712194157E+03  0.56712194157E+03  0.00000000000E+00 0. -1.
          6    2    1    2  501    0 -0.40644638726E+02  0.69807234224E+02 -0.39051787376E+03  0.43390068869E+03  0.17099871729E+03 0.  0.
         24    2    3    3    0    0 -0.11171253632E+02  0.87333902767E+02 -0.14977136067E+03  0.19067890080E+03  0.78581010772E+02 0.  0.
         -6    2    1    2    0  502  0.40644638726E+02 -0.69807234224E+02 -0.96665836976E+02  0.21315948373E+03  0.17195244941E+03 0.  0.
        -24    2    5    5    0    0  0.64360328873E+02  0.71994190965E+01 -0.81605012190E+02  0.13105359443E+03  0.79508383391E+02 0.  0.
          5    1    3    3  501    0 -0.29473385095E+02 -0.17526668543E+02 -0.24074651308E+03  0.24322178788E+03  0.47000000000E+01 0. -1.
        -13    1    4    4    0    0 -0.18256332208E+02  0.47375878121E+02 -0.14002231074E+03  0.14894299244E+03  0.00000000000E+00 0.  1.
         14    1    4    4    0    0  0.70850785763E+01  0.39958024646E+02 -0.97490499329E+01  0.41735908360E+02  0.00000000000E+00 0. -1.
         -5    1    5    5    0  502 -0.23715690147E+02 -0.77006653320E+02 -0.15060824787E+02  0.82105889301E+02  0.47000000000E+01 0.  1.
         13    1    6    6    0    0 -0.13769910343E+02  0.19024108545E+02 -0.20277927203E+02  0.31027753197E+02  0.00000000000E+00 0. -1.
        -14    1    6    6    0    0  0.78130239216E+02 -0.11824689449E+02 -0.61327084987E+02  0.10002584123E+03  0.00000000000E+00 0.  1.
</event>
<event>
12    1  0.9962621E-001  0.2080537E+03  0.7818608E-02  0.1143163E+00
         21   -1    0    0  503  502  0.00000000000E+00  0.00000000000E+00  0.32743349187E+02  0.32743349187E+02  0.00000000000E+00 0.  1.
         21   -1    0    0  501  503 -0.00000000000E+00 -0.00000000000E+00 -0.15662953710E+04  0.15662953710E+04  0.00000000000E+00 0.  1.
          6    2    1    2  501    0 -0.10362115282E+03  0.45472990368E+02 -0.45043101879E+03  0.49615971594E+03  0.17458873064E+03 0.  0.
         24    2    3    3    0    0 -0.14235950104E+03  0.34436636901E+02 -0.37746032333E+03  0.41267754349E+03  0.79839524767E+02 0.  0.
         -6    2    1    2    0  502  0.10362115282E+03 -0.45472990368E+02 -0.10831210030E+04  0.11028790042E+04  0.17431538846E+03 0.  0.
        -24    2    5    5    0    0  0.57827274427E+02  0.33685285927E+01 -0.28118234201E+03  0.29813663597E+03  0.80415195060E+02 0.  0.
          5    1    3    3  501    0  0.38738348222E+02  0.11036353468E+02 -0.72970695461E+02  0.83482172450E+02  0.47000000000E+01 0. -1.
        -11    1    4    4    0    0 -0.73642576277E+02  0.49686604985E+02 -0.14750942101E+03  0.17219470678E+03  0.00000000000E+00 0.  1.
         12    1    4    4    0    0 -0.68716924768E+02 -0.15249968085E+02 -0.22995090231E+03  0.24048283671E+03  0.00000000000E+00 0. -1.
         -5    1    5    5    0  502  0.45793878396E+02 -0.48841518961E+02 -0.80193866100E+03  0.80474236826E+03  0.47000000000E+01 0.  1.
         11    1    6    6    0    0  0.65069629455E+02  0.13421730831E+02 -0.27730620660E+03  0.28515422451E+03  0.00000000000E+00 0. -1.
        -12    1    6    6    0    0 -0.72423550276E+01 -0.10053202238E+02 -0.38761354063E+01  0.12982411458E+02  0.00000000000E+00 0.  1.
</event>
<event>
12    1  0.9962621E-001  0.2425462E+03  0.7818608E-02  0.1118153E+00
         21   -1    0    0  501  502  0.00000000000E+00  0.00000000000E+00  0.10647711200E+03  0.10647711200E+03  0.00000000000E+00 0.  1.
         21   -1    0    0  502  503 -0.00000000000E+00 -0.00000000000E+00 -0.64410356426E+03  0.64410356426E+03  0.00000000000E+00 0.  1.
         -6    2    1    2    0  503  0.16122707045E+03  0.56352267551E+02 -0.12693819627E+03  0.27375529539E+03  0.17221762331E+03 0.  0.
        -24    2    3    3    0    0  0.80802321954E+02  0.24979436837E+02  0.43096244325E+01  0.11659144739E+03  0.80137414763E+02 0.  0.
          6    2    1    2  501    0 -0.16122707045E+03 -0.56352267551E+02 -0.41068825599E+03  0.47682538087E+03  0.17183670716E+03 0.  0.
         24    2    5    5    0    0 -0.72543693888E+01 -0.21436649842E+02 -0.13719287930E+03  0.16099551512E+03  0.81151179440E+02 0.  0.
          5    1    5    5  501    0 -0.15397270106E+03 -0.34915617709E+02 -0.27349537669E+03  0.31582986575E+03  0.47000000000E+01 0. -1.
        -13    1    6    6    0    0 -0.20403010953E+02 -0.35400322689E+02 -0.26606754696E+02  0.48758436171E+02  0.00000000000E+00 0.  1.
         14    1    6    6    0    0  0.13148641564E+02  0.13963672847E+02 -0.11058612461E+03  0.11223707895E+03  0.00000000000E+00 0. -1.
         -5    1    3    3    0  503  0.80424748497E+02  0.31372830715E+02 -0.13124782070E+03  0.15716384799E+03  0.47000000000E+01 0.  1.
         13    1    4    4    0    0  0.41618393514E+02  0.26555778090E+01 -0.36763173051E+02  0.55593827580E+02  0.00000000000E+00 0. -1.
        -14    1    4    4    0    0  0.39183928440E+02  0.22323859028E+02  0.41072797484E+02  0.60997619815E+02  0.00000000000E+00 0.  1.
</event>
<event>
12    1  0.9962621E-001  0.6396221E+03  0.7818608E-02  0.9826469E-01
         21   -1    0    0  501  502  0.00000000000E+00  0.00000000000E+00  0.22855280948E+03  0.22855280948E+03  0.00000000000E+00 0.  1.
         21   -1    0    0  502  503 -0.00000000000E+00 -0.00000000000E+00 -0.18526625413E+04  0.18526625413E+04  0.00000000000E+00 0.  1.
         -6    2    1    2    0  503  0.61560361204E+03 -0.24462896421E+02 -0.10035344338E+04  0.11900194416E+04  0.17175177143E+03 0.  0.
        -24    2    3    3    0    0  0.54494670684E+03 -0.42017879938E+02 -0.95073771928E+03  0.10999630217E+04  0.85346485904E+02 0.  0.
          6    2    1    2  501    0 -0.61560361204E+03  0.24462896421E+02 -0.62057529797E+03  0.89119590918E+03  0.17190173834E+03 0.  0.
         24    2    5    5    0    0 -0.47652789989E+03  0.41952371890E+02 -0.55329694220E+03  0.73564398019E+03  0.78712886193E+02 0.  0.
          5    1    5    5  501    0 -0.13907571214E+03 -0.17489475469E+02 -0.67278355769E+02  0.15555192900E+03  0.47000000000E+01 0. -1.
        -11    1    6    6    0    0 -0.16976200602E+03  0.31989374025E+02 -0.14962643777E+03  0.22853999566E+03  0.00000000000E+00 0.  1.
         12    1    6    6    0    0 -0.30676589387E+03  0.99629978655E+01 -0.40367050444E+03  0.50710398452E+03  0.00000000000E+00 0. -1.
         -5    1    3    3    0  503  0.70656905193E+02  0.17554983517E+02 -0.52796714548E+02  0.90056419898E+02  0.47000000000E+01 0.  1.
         13    1    4    4    0    0  0.47523522691E+03 -0.73082664667E+01 -0.82024291306E+03  0.94799808443E+03  0.00000000000E+00 0. -1.
        -14    1    4    4    0    0  0.69711479932E+02 -0.34709613471E+02 -0.13049480621E+03  0.15196493724E+03  0.00000000000E+00 0.  1.
</event>
<event>
12    1  0.9962621E-001  0.1804717E+03  0.7818608E-02  0.1168168E+00
         21   -1    0    0  503  502  0.00000000000E+00  0.00000000000E+00  0.18316737537E+03  0.18316737537E+03  0.00000000000E+00 0. -1.
         21   -1    0    0  501  503 -0.00000000000E+00 -0.00000000000E+00 -0.17584506193E+03  0.17584506193E+03  0.00000000000E+00 0. -1.
          6    2    1    2  501    0  0.35609993942E+02 -0.45347488280E+02  0.19323625797E+02  0.18150325292E+03  0.17101333849E+03 0.  0.
         24    2    3    3    0    0  0.90854252266E+02 -0.17108446691E+02  0.10631467338E+02  0.11867797802E+03  0.73649441717E+02 0.  0.
         -6    2    1    2    0  502 -0.35609993942E+02  0.45347488280E+02 -0.12001312357E+02  0.17750918438E+03  0.16745450928E+03 0.  0.
        -24    2    5    5    0    0 -0.83383795010E+01  0.77520531838E+02 -0.49121962792E+02  0.12112764153E+03  0.78612829002E+02 0.  0.
          5    1    3    3  501    0 -0.55244258323E+02 -0.28239041589E+02  0.86921584589E+01  0.62825274900E+02  0.47000000000E+01 0. -1.
        -13    1    4    4    0    0  0.10227544407E+01 -0.50340195055E+01 -0.21810817713E+02  0.22407568997E+02  0.00000000000E+00 0.  1.
         14    1    4    4    0    0  0.89831497825E+02 -0.12074427185E+02  0.32442285051E+02  0.96270409019E+02  0.00000000000E+00 0. -1.
         -5    1    5    5    0  502 -0.27271614441E+02 -0.32173043559E+02  0.37120650435E+02  0.56381542855E+02  0.47000000000E+01 0.  1.
         13    1    6    6    0    0 -0.29172954318E+02  0.76836972733E+02 -0.18766945898E+02  0.84304091839E+02  0.00000000000E+00 0. -1.
        -14    1    6    6    0    0  0.20834574817E+02  0.68355910487E+00 -0.30355016894E+02  0.36823549686E+02  0.00000000000E+00 0.  1.
</event>
<event>
12    1  0.9962621E-001  0.2182398E+03  0.7818608E-02  0.1135206E+00
         21   -1    0    0  501  502  0.00000000000E+00  0.00000000000E+00  0.24281845730E+03  0.24281845730E+03  0.00000000000E+00 0.  1.
         21   -1    0    0  502  503 -0.00000000000E+00 -0.00000000000E+00 -0.20872229848E+03  0.20872229848E+03  0.00000000000E+00 0.  1.
         -6    2    1    2    0  503 -0.81265724426E+02 -0.10746844539E+03  0.72497285716E+02  0.22994817743E+03  0.17165874037E+03 0.  0.
        -24    2    3    3    0    0  0.11395723501E+01 -0.86972883522E+02  0.78116981413E+02  0.14471689225E+03  0.85294402072E+02 0.  0.
          6    2    1    2  501    0  0.81265724426E+02  0.10746844539E+03 -0.38401126890E+02  0.22159257835E+03  0.17168296221E+03 0.  0.
         24    2    5    5    0    0 -0.15252862728E+02  0.33284775746E+02  0.16744886001E+02  0.87868133146E+02  0.78101802140E+02 0.  0.
          5    1    5    5  501    0  0.96518587155E+02  0.74183669640E+02 -0.55146012891E+02  0.13372444520E+03  0.47000000000E+01 0. -1.
        -13    1    6    6    0    0 -0.26058394707E+00 -0.16853731610E+02 -0.18304567332E+02  0.24883194296E+02  0.00000000000E+00 0.  1.
         14    1    6    6    0    0 -0.14992278781E+02  0.50138507357E+02  0.35049453333E+02  0.62984938850E+02  0.00000000000E+00 0. -1.
         -5    1    3    3    0  503 -0.82405296777E+02 -0.20495561864E+02 -0.56196956968E+01  0.85231285176E+02  0.47000000000E+01 0.  1.
         11    1    4    4    0    0  0.28792400612E+01 -0.10074017646E+03  0.48149945155E+02  0.11169283949E+03  0.00000000000E+00 0. -1.
        -12    1    4    4    0    0 -0.17396677111E+01  0.13767292935E+02  0.29967036258E+02  0.33024052758E+02  0.00000000000E+00 0.  1.
</event>
<event>
12    1  0.9962621E-001  0.8122747E+03  0.7818608E-02  0.9542447E-01
         21   -1    0    0  503  502  0.00000000000E+00  0.00000000000E+00  0.13754781420E+04  0.13754781420E+04  0.00000000000E+00 0. -1.
         21   -1    0    0  501  503 -0.00000000000E+00 -0.00000000000E+00 -0.50804624419E+03  0.50804624419E+03  0.00000000000E+00 0. -1.
          6    2    1    2  501    0 -0.13520093230E+02  0.79367274449E+03  0.65645366730E+03  0.10443761923E+04  0.17231075273E+03 0.  0.
         24    2    3    3    0    0 -0.37674266772E+02  0.58377761164E+03  0.40847846309E+03  0.71856461671E+03  0.85233815839E+02 0.  0.
         -6    2    1    2    0  502  0.13520093230E+02 -0.79367274449E+03  0.21097823050E+03  0.83914819385E+03  0.17192631920E+03 0.  0.
        -24    2    5    5    0    0  0.42931605708E+01 -0.25167970562E+03  0.10213533532E+03  0.28623730021E+03  0.90216738275E+02 0.  0.
          5    1    3    3  501    0  0.24154173543E+02  0.20989513285E+03  0.24797520421E+03  0.32581157560E+03  0.47000000000E+01 0. -1.
        -11    1    4    4    0    0  0.18848406608E+02  0.86481966741E+02  0.84426386846E+02  0.12232010382E+03  0.00000000000E+00 0.  1.
         12    1    4    4    0    0 -0.56522673380E+02  0.49729564490E+03  0.32405207624E+03  0.59624451289E+03  0.00000000000E+00 0. -1.
         -5    1    5    5    0  502  0.92269326588E+01 -0.54199303887E+03  0.10884289518E+03  0.55291089363E+03  0.47000000000E+01 0.  1.
         13    1    6    6    0    0  0.38148711196E+01 -0.21759715832E+03  0.11918049062E+03  0.24812711640E+03  0.00000000000E+00 0. -1.
        -14    1    6    6    0    0  0.47828945116E+00 -0.34082547300E+02 -0.17045155295E+02  0.38110183814E+02  0.00000000000E+00 0.  1.
</event>
<event>
12    1  0.9962621E-001  0.1913118E+03  0.7818608E-02  0.1157458E+00
         21   -1    0    0  501  502  0.00000000000E+00  0.00000000000E+00  0.21800120161E+04  0.21800120161E+04  0.00000000000E+00 0. -1.
         21   -1    0    0  502  503 -0.00000000000E+00 -0.00000000000E+00 -0.19810405823E+02  0.19810405823E+02  0.00000000000E+00 0. -1.
         -6    2    1    2    0  503 -0.48285254281E+02  0.67841344592E+02  0.15163411946E+04  0.15283621430E+04  0.17223910032E+03 0.  0.
        -24    2    3    3    0    0 -0.75256249508E+02  0.48192945166E+01  0.62934620663E+03  0.63870973212E+03  0.78655866985E+02 0.  0.
          6    2    1    2  501    0  0.48285254281E+02 -0.67841344592E+02  0.64386041564E+03  0.67146027895E+03  0.17137315301E+03 0.  0.
         24    2    5    5    0    0  0.28459779869E+02 -0.57178808235E+02  0.64016182743E+03  0.64816846340E+03  0.78967185970E+02 0.  0.
          5    1    5    5  501    0  0.19825474412E+02 -0.10662536357E+02  0.36985882032E+01  0.23291815557E+02  0.47000000000E+01 0. -1.
        -13    1    6    6    0    0  0.11242407559E+02 -0.10035947675E+02  0.15954468552E+02  0.21946686316E+02  0.00000000000E+00 0.  1.
         14    1    6    6    0    0  0.17217372310E+02 -0.47142860559E+02  0.62420735888E+03  0.62622177708E+03  0.00000000000E+00 0. -1.
         -5    1    3    3    0  503  0.26970995227E+02  0.63022050075E+02  0.88699498799E+03  0.88965241084E+03  0.47000000000E+01 0.  1.
         13    1    4    4    0    0 -0.62750204976E+02  0.35049244909E+02  0.33961589144E+03  0.34713828875E+03  0.00000000000E+00 0. -1.
        -14    1    4    4    0    0 -0.12506044532E+02 -0.30229950392E+02  0.28973031518E+03  0.29157144337E+03  0.00000000000E+00 0.  1.
</event>
<event>
12    1  0.9962621E-001  0.1778532E+03  0.7818608E-02  0.1169902E+00
         21   -1    0    0  501  502  0.00000000000E+00  0.00000000000E+00  0.52655701847E+02  0.52655701847E+02  0.00000000000E+00 0. -1.
         21   -1    0    0  502  503 -0.00000000000E+00 -0.00000000000E+00 -0.60111193419E+03  0.60111193419E+03  0.00000000000E+00 0. -1.
         -6    2    1    2    0  503  0.21039777610E+02 -0.35971677671E+02 -0.26526033312E+03  0.31936622954E+03  0.17290202546E+03 0.  0.
        -24    2    3    3    0    0  0.56113060806E+02 -0.74124123208E+02 -0.15935891808E+03  0.20137070419E+03  0.80695938565E+02 0.  0.
          6    2    1    2  501    0 -0.21039777610E+02  0.35971677671E+02 -0.28319589922E+03  0.33440140650E+03  0.17288073778E+03 0.  0.
         24    2    5    5    0    0  0.18773719397E+02  0.10268265536E+02 -0.46350620393E+02  0.92815901876E+02  0.77514655473E+02 0.  0.
          5    1    5    5  501    0 -0.39813497006E+02  0.25703412136E+02 -0.23684527883E+03  0.24158550462E+03  0.47000000000E+01 0. -1.
        -13    1    6    6    0    0 -0.38598153117E+01  0.92165784167E+01  0.20187874602E+02  0.22525402835E+02  0.00000000000E+00 0.  1.
         14    1    6    6    0    0  0.22633534708E+02  0.10516871192E+01 -0.66538494995E+02  0.70290499041E+02  0.00000000000E+00 0. -1.
         -5    1    3    3    0  503 -0.35073283197E+02  0.38152445537E+02 -0.10590141504E+03  0.11799552534E+03  0.47000000000E+01 0.  1.
         11    1    4    4    0    0  0.59504250373E+02 -0.62656841740E+02 -0.16639662314E+03  0.18749525813E+03  0.00000000000E+00 0. -1.
        -12    1    4    4    0    0 -0.33911895665E+01 -0.11467281468E+02  0.70377050585E+01  0.13875446063E+02  0.00000000000E+00 0.  1.
</event>
<event>
12    1  0.9962621E-001  0.1902872E+03  0.7818608E-02  0.1159384E+00
         21   -1    0    0  503  502  0.00000000000E+00  0.00000000000E+00  0.52289174233E+02  0.52289174233E+02  0.00000000000E+00 0. -1.
         21   -1    0    0  501  503 -0.00000000000E+00 -0.00000000000E+00 -0.67384448984E+03  0.67384448984E+03  0.00000000000E+00 0. -1.
          6    2    1    2  501    0 -0.45871765540E+01  0.69522708783E+02 -0.31012394483E+03  0.36116965679E+03  0.17149988515E+03 0.  0.
         24    2    3    3    0    0 -0.68572339653E+02  0.50342247899E+02 -0.20955547156E+03  0.24034706374E+03  0.81343147822E+02 0.  0.
         -6    2    1    2    0  502  0.45871765540E+01 -0.69522708783E+02 -0.31143137078E+03  0.36496400728E+03  0.17707280616E+03 0.  0.
        -24    2    5    5    0    0 -0.11511765723E+01  0.30842026712E+02 -0.15392793240E+03  0.17805378303E+03  0.84004675229E+02 0.  0.
          5    1    3    3  501    0  0.63985163099E+02  0.19180460885E+02 -0.10056847327E+03  0.12082259306E+03  0.47000000000E+01 0. -1.
        -11    1    4    4    0    0 -0.44597254096E+02 -0.15753593485E+02 -0.88967426119E+02  0.10075859115E+03  0.00000000000E+00 0.  1.
         12    1    4    4    0    0 -0.23975085557E+02  0.66095841383E+02 -0.12058804544E+03  0.13958847258E+03  0.00000000000E+00 0. -1.
         -5    1    5    5    0  502  0.57383531262E+01 -0.10036473550E+03 -0.15750343838E+03  0.18691022425E+03  0.47000000000E+01 0.  1.
         13    1    6    6    0    0 -0.22128237580E+02 -0.16987892374E+02 -0.20066317701E+02  0.34364290940E+02  0.00000000000E+00 0. -1.
        -14    1    6    6    0    0  0.20977061008E+02  0.47829919086E+02 -0.13386161470E+03  0.14368949209E+03  0.00000000000E+00 0.  1.
</event>
<event>
12    1  0.9962621E-001  0.2051533E+03  0.7818608E-02  0.1146530E+00
         21   -1    0    0  503  502  0.00000000000E+00  0.00000000000E+00  0.37097719041E+03  0.37097719041E+03  0.00000000000E+00 0. -1.
         21   -1    0    0  501  503 -0.00000000000E+00 -0.00000000000E+00 -0.12531021902E+03  0.12531021902E+03  0.00000000000E+00 0. -1.
          6    2    1    2  501    0  0.64850812910E+02 -0.80106009372E+02  0.20918510171E+03  0.29299539509E+03  0.17738459373E+03 0.  0.
         24    2    3    3    0    0  0.75250431563E+02 -0.32082121519E+00  0.16542719012E+03  0.20128567290E+03  0.86527663246E+02 0.  0.
         -6    2    1    2    0  502 -0.64850812910E+02  0.80106009372E+02  0.36481869682E+02  0.20329201434E+03  0.17138878495E+03 0.  0.
        -24    2    5    5    0    0 -0.31071172429E+02 -0.25169513350E+02  0.26535351361E+02  0.92183855224E+02  0.78707154273E+02 0.  0.
          5    1    3    3  501    0 -0.10399618653E+02 -0.79785188157E+02  0.43757911590E+02  0.91709722190E+02  0.47000000000E+01 0. -1.
        -11    1    4    4    0    0  0.65259582798E+02 -0.37660181392E+02  0.11934086520E+03  0.14113590796E+03  0.00000000000E+00 0.  1.
         12    1    4    4    0    0  0.99908487651E+01  0.37339360176E+02  0.46086324921E+02  0.60149764939E+02  0.00000000000E+00 0. -1.
         -5    1    5    5    0  502 -0.33779640481E+02  0.10527552272E+03  0.99465183218E+01  0.11110815912E+03  0.47000000000E+01 0.  1.
         13    1    6    6    0    0 -0.45432983562E+02 -0.34922146668E+02  0.40277606232E+02  0.70042828948E+02  0.00000000000E+00 0. -1.
        -14    1    6    6    0    0  0.14361811133E+02  0.97526333178E+01 -0.13742254871E+02  0.22141026277E+02  0.00000000000E+00 0.  1.
</event>
<event>
12    1  0.9962621E-001  0.3751949E+03  0.7818608E-02  0.1052750E+00
         21   -1    0    0  503  502  0.00000000000E+00  0.00000000000E+00  0.12918138279E+03  0.12918138279E+03  0.00000000000E+00 0.  1.
         21   -1    0    0  501  503 -0.00000000000E+00 -0.00000000000E+00 -0.12020032797E+04  0.12020032797E+04  0.00000000000E+00 0.  1.
          6    2    1    2  501    0  0.32940385963E+03  0.49061332394E+02 -0.74038352137E+03  0.82989980935E+03  0.17219761255E+03 0.  0.
         24    2    3    3    0    0  0.18747657591E+03  0.85236111139E+02 -0.36367309555E+03  0.42569094824E+03  0.80882642309E+02 0.  0.
         -6    2    1    2    0  502 -0.32940385963E+03 -0.49061332394E+02 -0.33243837556E+03  0.50128485317E+03  0.17279268906E+03 0.  0.
        -24    2    5    5    0    0 -0.25649765246E+03  0.17194386656E+02 -0.28484657974E+03  0.39177592942E+03  0.79146144780E+02 0.  0.
          5    1    3    3  501    0  0.14192728372E+03 -0.36174778745E+02 -0.37671042582E+03  0.40420886111E+03  0.47000000000E+01 0. -1.
        -13    1    4    4    0    0  0.13281385332E+02  0.32460242911E+02 -0.94100345471E+02  0.10042378993E+03  0.00000000000E+00 0.  1.
         14    1    4    4    0    0  0.17419519058E+03  0.52775868228E+02 -0.26957275008E+03  0.32526715831E+03  0.00000000000E+00 0. -1.
         -5    1    5    5    0  502 -0.72906207177E+02 -0.66255719050E+02 -0.47591795822E+02  0.10950892375E+03  0.47000000000E+01 0.  1.
         13    1    6    6    0    0 -0.24986860823E+03  0.81345675178E-01 -0.25717019928E+03  0.35856776123E+03  0.00000000000E+00 0. -1.
        -14    1    6    6    0    0 -0.66290442252E+01  0.17113040981E+02 -0.27676380460E+02  0.33208168187E+02  0.00000000000E+00 0.  1.
</event>
<event>
12    1  0.9962621E-001  0.2312362E+03  0.7818608E-02  0.1127221E+00
         21   -1    0    0  503  502  0.00000000000E+00  0.00000000000E+00  0.41284403150E+02  0.41284403150E+02  0.00000000000E+00 0. -1.
         21   -1    0    0  501  503 -0.00000000000E+00 -0.00000000000E+00 -0.19188958261E+04  0.19188958261E+04  0.00000000000E+00 0. -1.
          6    2    1    2  501    0  0.12134795219E+03  0.82410106644E+02 -0.34927340020E+03  0.41444827106E+03  0.16810327220E+03 0.  0.
         24    2    3    3    0    0  0.19031536922E+02  0.78481851739E+02 -0.12932243435E+03  0.17178678381E+03  0.79150531362E+02 0.  0.
         -6    2    1    2    0  502 -0.12134795219E+03 -0.82410106644E+02 -0.15283380227E+04  0.15457319582E+04  0.17875520579E+03 0.  0.
        -24    2    5    5    0    0 -0.14058242487E+03 -0.84494375927E+02 -0.15019156043E+04  0.15126480752E+04  0.73830882254E+02 0.  0.
          5    1    3    3  501    0  0.10231641527E+03  0.39282549054E+01 -0.21995096585E+03  0.24266148725E+03  0.47000000000E+01 0. -1.
        -13    1    4    4    0    0  0.41306963244E+02  0.58333860202E+02 -0.12114163208E+03  0.14065702784E+03  0.00000000000E+00 0.  1.
         14    1    4    4    0    0 -0.22275426322E+02  0.20147991537E+02 -0.81808022743E+01  0.31129755969E+02  0.00000000000E+00 0. -1.
         -5    1    5    5    0  502  0.19234472686E+02  0.20842692823E+01 -0.26422418472E+02  0.33083883023E+02  0.47000000000E+01 0.  1.
         13    1    6    6    0    0 -0.49739038926E+02 -0.71988342141E+02 -0.79873697774E+03  0.80351543421E+03  0.00000000000E+00 0. -1.
        -14    1    6    6    0    0 -0.90843385948E+02 -0.12506033786E+02 -0.70317862653E+03  0.70913264095E+03  0.00000000000E+00 0.  1.
</event>
<event>
12    1  0.9962621E-001  0.1816685E+03  0.7818608E-02  0.1166440E+00
         21   -1    0    0  503  502  0.00000000000E+00  0.00000000000E+00  0.14824632542E+04  0.14824632542E+04  0.00000000000E+00 0. -1.
         21   -1    0    0  501  503 -0.00000000000E+00 -0.00000000000E+00 -0.22373072178E+02  0.22373072178E+02  0.00000000000E+00 0. -1.
          6    2    1    2  501    0  0.33679093405E+02 -0.44869763087E+02  0.65508326846E+03  0.67980698633E+03  0.17278852128E+03 0.  0.
         24    2    3    3    0    0 -0.49362295182E+02 -0.42550500785E+02  0.27370795496E+03  0.28946038273E+03  0.68000641632E+02 0.  0.
         -6    2    1    2    0  502 -0.33679093405E+02  0.44869763087E+02  0.80500691356E+03  0.82502934004E+03  0.17172566516E+03 0.  0.
        -24    2    5    5    0    0  0.39489067046E+02  0.53469754937E+02  0.39692749958E+03  0.41032650947E+03  0.79987519938E+02 0.  0.
          5    1    3    3  501    0  0.83041388587E+02 -0.23192623025E+01  0.38137531350E+03  0.39034660360E+03  0.47000000000E+01 0. -1.
        -11    1    4    4    0    0 -0.10409423833E+01 -0.38728190504E+02  0.17812104394E+03  0.18228566206E+03  0.00000000000E+00 0.  1.
         12    1    4    4    0    0 -0.48321352799E+02 -0.38223102811E+01  0.95586911021E+02  0.10717472067E+03  0.00000000000E+00 0. -1.
         -5    1    5    5    0  502 -0.73168160451E+02 -0.85999918494E+01  0.40807941398E+03  0.41470283057E+03  0.47000000000E+01 0.  1.
         13    1    6    6    0    0  0.14788752689E+02 -0.12272579143E+02  0.20596227472E+03  0.20685691193E+03  0.00000000000E+00 0. -1.
        -14    1    6    6    0    0  0.24700314357E+02  0.65742334080E+02  0.19096522486E+03  0.20346959755E+03  0.00000000000E+00 0.  1.
</event>
<event>
12    1  0.9962621E-001  0.2001031E+03  0.7818608E-02  0.1149757E+00
         21   -1    0    0  501  502  0.00000000000E+00  0.00000000000E+00  0.67259829960E+03  0.67259829960E+03  0.00000000000E+00 0.  1.
         21   -1    0    0  502  503 -0.00000000000E+00 -0.00000000000E+00 -0.14964110286E+03  0.14964110286E+03  0.00000000000E+00 0.  1.
         -6    2    1    2    0  503  0.67846865213E+02 -0.76346566707E+02  0.58063774040E+03  0.61398882642E+03  0.17149372589E+03 0.  0.
        -24    2    3    3    0    0 -0.28229998841E+02 -0.50326584988E+02  0.32682399104E+03  0.34131445538E+03  0.79699048557E+02 0.  0.
          6    2    1    2  501    0 -0.67846865213E+02  0.76346566707E+02 -0.57680543663E+02  0.20825057605E+03  0.17207342020E+03 0.  0.
         24    2    5    5    0    0  0.27912673039E+02  0.27711371226E+02 -0.35860978316E+02  0.98553471085E+02  0.82944195009E+02 0.  0.
          5    1    5    5  501    0 -0.95759538251E+02  0.48635195480E+02 -0.21819565347E+02  0.10969710496E+03  0.47000000000E+01 0. -1.
        -11    1    6    6    0    0  0.28545042709E+02  0.94398739781E+01  0.22399197807E+02  0.37492062445E+02  0.00000000000E+00 0.  1.
         12    1    6    6    0    0 -0.63236967037E+00  0.18271497248E+02 -0.58260176123E+02  0.61061408639E+02  0.00000000000E+00 0. -1.
         -5    1    3    3    0  503  0.96076864053E+02 -0.26019981718E+02  0.25381374936E+03  0.27267437104E+03  0.47000000000E+01 0.  1.
         13    1    4    4    0    0  0.19658859636E+01 -0.46938337250E+02  0.81143959583E+02  0.93762542565E+02  0.00000000000E+00 0. -1.
        -14    1    4    4    0    0 -0.30195884804E+02 -0.33882477387E+01  0.24568003145E+03  0.24755191281E+03  0.00000000000E+00 0.  1.
</event>
<event>
12    1  0.9962621E-001  0.2063901E+03  0.7818608E-02  0.1144721E+00
         21   -1    0    0  503  502  0.00000000000E+00  0.00000000000E+00  0.56352046972E+03  0.56352046972E+03  0.00000000000E+00 0.  1.
         21   -1    0    0  501  503 -0.00000000000E+00 -0.00000000000E+00 -0.94286888983E+02  0.94286888983E+02  0.00000000000E+00 0.  1.
          6    2    1    2  501    0  0.10995625058E+03 -0.20731127058E+02  0.38233508644E+03  0.43386936131E+03  0.17187887507E+03 0.  0.
         24    2    3    3    0    0  0.13626500649E+03  0.13123380034E+02  0.26368602835E+03  0.30762369892E+03  0.79759911552E+02 0.  0.
         -6    2    1    2    0  502 -0.10995625058E+03  0.20731127058E+02  0.86898494302E+02  0.22393799739E+03  0.17342641579E+03 0.  0.
        -24    2    5    5    0    0 -0.13339507869E+03  0.13744767567E+02  0.27288262778E+02  0.15933414623E+03  0.81606097915E+02 0.  0.
          5    1    3    3  501    0 -0.26308755916E+02 -0.33854507092E+02  0.11864905809E+03  0.12624566240E+03  0.47000000000E+01 0. -1.
        -13    1    4    4    0    0  0.49805351195E+02  0.20419987218E+02  0.17687859061E+03  0.18488803288E+03  0.00000000000E+00 0.  1.
         14    1    4    4    0    0  0.86459655299E+02 -0.72966071843E+01  0.86807437734E+02  0.12273566603E+03  0.00000000000E+00 0. -1.
         -5    1    5    5    0  502  0.23438828110E+02  0.69863594912E+01  0.59610231524E+02  0.64603851158E+02  0.47000000000E+01 0.  1.
         13    1    6    6    0    0 -0.22741455597E+02  0.84061706961E+01  0.41075356437E+02  0.47697195042E+02  0.00000000000E+00 0. -1.
        -14    1    6    6    0    0 -0.11065362309E+03  0.53385968705E+01 -0.13787093660E+02  0.11163695119E+03  0.00000000000E+00 0.  1.
</event>
<event>
12    1  0.9962621E-001  0.4106112E+03  0.7818608E-02  0.1040234E+00
         21   -1    0    0  503  502  0.00000000000E+00  0.00000000000E+00  0.19913959081E+03  0.19913959081E+03  0.00000000000E+00 0. -1.
         21   -1    0    0  501  503 -0.00000000000E+00 -0.00000000000E+00 -0.87343464891E+03  0.87343464891E+03  0.00000000000E+00 0. -1.
          6    2    1    2  501    0  0.19776735828E+03  0.31594025791E+03 -0.43361081257E+03  0.59662210811E+03  0.17032154454E+03 0.  0.
         24    2    3    3    0    0  0.19870111882E+03  0.28038650171E+03 -0.31610169419E+03  0.47375867013E+03  0.80176502119E+02 0.  0.
         -6    2    1    2    0  502 -0.19776735828E+03 -0.31594025791E+03 -0.24068424553E+03  0.47595213162E+03  0.17225374009E+03 0.  0.
        -24    2    5    5    0    0 -0.30136170781E+02 -0.65551863675E+02 -0.44190780159E+02  0.11619341397E+03  0.79642003855E+02 0.  0.
          5    1    3    3  501    0 -0.93376053838E+00  0.35553756203E+02 -0.11750911839E+03  0.12286343798E+03  0.47000000000E+01 0. -1.
        -13    1    4    4    0    0  0.58447112803E+02  0.15129229313E+03 -0.14051673967E+03  0.21459351595E+03  0.00000000000E+00 0.  1.
         14    1    4    4    0    0  0.14025400602E+03  0.12909420858E+03 -0.17558495451E+03  0.25916515418E+03  0.00000000000E+00 0. -1.
         -5    1    5    5    0  502 -0.16763118750E+03 -0.25038839424E+03 -0.19649346537E+03  0.35975871765E+03  0.47000000000E+01 0.  1.
         11    1    6    6    0    0  0.97878203435E+00 -0.59361507742E+02  0.28689596384E+01  0.59438855516E+02  0.00000000000E+00 0. -1.
        -12    1    6    6    0    0 -0.31114952815E+02 -0.61903559327E+01 -0.47059739798E+02  0.56754558452E+02  0.00000000000E+00 0.  1.
</event>
<event>
12    1  0.9962621E-001  0.1909623E+03  0.7818608E-02  0.1157704E+00
         21   -1    0    0  501  502  0.00000000000E+00  0.00000000000E+00  0.27444872968E+03  0.27444872968E+03  0.00000000000E+00 0. -1.
         21   -1    0    0  502  503 -0.00000000000E+00 -0.00000000000E+00 -0.14171230380E+03  0.14171230380E+03  0.00000000000E+00 0. -1.
         -6    2    1    2    0  503  0.47627698721E+02 -0.65547772710E+02  0.11923694415E+03  0.22472219163E+03  0.17238824313E+03 0.  0.
        -24    2    3    3    0    0 -0.32782528934E+01  0.28168675251E+02  0.64208557540E+02  0.10462056025E+03  0.77579002039E+02 0.  0.
          6    2    1    2  501    0 -0.47627698721E+02  0.65547772710E+02  0.13499481731E+02  0.19143884185E+03  0.17292103970E+03 0.  0.
         24    2    5    5    0    0 -0.76269053418E+02  0.92631913035E+02  0.25071415668E+02  0.15008817667E+03  0.86603955280E+02 0.  0.
          5    1    5    5  501    0  0.28641354697E+02 -0.27084140324E+02 -0.11571933937E+02  0.41350665183E+02  0.47000000000E+01 0. -1.
        -13    1    6    6    0    0  0.13443927216E+02  0.26634793391E+02  0.24670327543E+02  0.38714034394E+02  0.00000000000E+00 0.  1.
         14    1    6    6    0    0 -0.89712980634E+02  0.65997119644E+02  0.40108812518E+00  0.11137414227E+03  0.00000000000E+00 0. -1.
         -5    1    3    3    0  503  0.50905951614E+02 -0.93716447962E+02  0.55028386612E+02  0.12010163139E+03  0.47000000000E+01 0.  1.
         11    1    4    4    0    0  0.34520920461E+02  0.23527159714E+02  0.46842125623E+02  0.62764686939E+02  0.00000000000E+00 0. -1.
        -12    1    4    4    0    0 -0.37799173354E+02  0.46415155369E+01  0.17366431917E+02  0.41855873307E+02  0.00000000000E+00 0.  1.
</event>
<event>
12    1  0.9962621E-001  0.1754087E+03  0.7818608E-02  0.1172537E+00
         21   -1    0    0  501  502  0.00000000000E+00  0.00000000000E+00  0.12432606123E+03  0.12432606123E+03  0.00000000000E+00 0.  1.
         21   -1    0    0  502  503 -0.00000000000E+00 -0.00000000000E+00 -0.27198138096E+03  0.27198138096E+03  0.00000000000E+00 0.  1.
         -6    2    1    2    0  503 -0.16960704027E+02  0.34876466376E+02 -0.12738636042E+02  0.17501416882E+03  0.17018711189E+03 0.  0.
        -24    2    3    3    0    0  0.18508724003E+01  0.29674557806E+02  0.56794932729E+02  0.10264053794E+03  0.80158658524E+02 0.  0.
          6    2    1    2  501    0  0.16960704027E+02 -0.34876466376E+02 -0.13491668369E+03  0.22129327337E+03  0.17106772902E+03 0.  0.
         24    2    5    5    0    0  0.58828380466E+02  0.82075126118E+01 -0.36955699335E+02  0.10628207378E+03  0.80012585774E+02 0.  0.
          5    1    5    5  501    0 -0.41867676439E+02 -0.43083978988E+02 -0.97960984350E+02  0.11501119959E+03  0.47000000000E+01 0. -1.
        -11    1    6    6    0    0  0.20310167462E+02  0.35869972451E+02 -0.41685544426E+02  0.58624589039E+02  0.00000000000E+00 0.  1.
         12    1    6    6    0    0  0.38518213004E+02 -0.27662459839E+02  0.47298450903E+01  0.47657484742E+02  0.00000000000E+00 0. -1.
         -5    1    3    3    0  503 -0.18811576427E+02  0.52019085696E+01 -0.69533568771E+02  0.72373630878E+02  0.47000000000E+01 0.  1.
         11    1    4    4    0    0 -0.37628992115E+02  0.25230398055E+02  0.35551647136E+02  0.57588485375E+02  0.00000000000E+00 0. -1.
        -12    1    4    4    0    0  0.39479864515E+02  0.44441597508E+01  0.21243285592E+02  0.45052052570E+02  0.00000000000E+00 0.  1.
</event>
<event>
12    1  0.9962621E-001  0.2353813E+03  0.7818608E-02  0.1122950E+00
         21   -1    0    0  501  502  0.00000000000E+00  0.00000000000E+00  0.13306167992E+03  0.13306167992E+03  0.00000000000E+00 0. -1.
         21   -1    0    0  502  503 -0.00000000000E+00 -0.00000000000E+00 -0.42326145568E+03  0.42326145568E+03  0.00000000000E+00 0. -1.
         -6    2    1    2    0  503  0.48220593308E+02  0.15711434261E+03 -0.10862086654E+03  0.25923513847E+03  0.16850585182E+03 0.  0.
        -24    2    3    3    0    0  0.10142614654E+02  0.16917021346E+03 -0.60051667014E+02  0.19617696198E+03  0.78471421203E+02 0.  0.
          6    2    1    2  501    0 -0.48220593308E+02 -0.15711434261E+03 -0.18157890923E+03  0.29708799713E+03  0.16816728425E+03 0.  0.
         24    2    5    5    0    0  0.30052404109E+01 -0.14577850435E+03 -0.83538311533E+02  0.18579273189E+03  0.79245731297E+02 0.  0.
          5    1    5    5  501    0 -0.51225833719E+02 -0.11335838260E+02 -0.98040597692E+02  0.11129526524E+03  0.47000000000E+01 0. -1.
        -13    1    6    6    0    0  0.19521656468E+02 -0.77413355155E+02 -0.83410062531E+02  0.11546064766E+03  0.00000000000E+00 0.  1.
         14    1    6    6    0    0 -0.16516416057E+02 -0.68365149191E+02 -0.12824900236E+00  0.70332084222E+02  0.00000000000E+00 0. -1.
         -5    1    3    3    0  503  0.38077978654E+02 -0.12055870852E+02 -0.48569199521E+02  0.63058176492E+02  0.47000000000E+01 0.  1.
         11    1    4    4    0    0  0.29624055318E+02  0.23525709802E+02 -0.24257477940E+02  0.44938501435E+02  0.00000000000E+00 0. -1.
        -12    1    4    4    0    0 -0.19481440664E+02  0.14564450366E+03 -0.35794189074E+02  0.15123846054E+03  0.00000000000E+00 0.  1.
</event>
<event>
12    1  0.9962621E-001  0.3470158E+03  0.7818608E-02  0.1063937E+00
         21   -1    0    0  503  502  0.00000000000E+00  0.00000000000E+00  0.15119409706E+03  0.15119409706E+03  0.00000000000E+00 0. -1.
         21   -1    0    0  501  503 -0.00000000000E+00 -0.00000000000E+00 -0.79596520258E+03  0.79596520258E+03  0.00000000000E+00 0. -1.
          6    2    1    2  501    0 -0.25714930193E+03 -0.15630524587E+03 -0.34252613433E+03  0.48697238213E+03  0.17105804538E+03 0.  0.
         24    2    3    3    0    0 -0.14522602434E+03 -0.17262179261E+02 -0.17615916400E+03  0.24292350740E+03  0.81186195927E+02 0.  0.
         -6    2    1    2    0  502  0.25714930193E+03  0.15630524587E+03 -0.30224497119E+03  0.46018691750E+03  0.17280880492E+03 0.  0.
        -24    2    5    5    0    0  0.17982501562E+03  0.17881163532E+03 -0.23471796994E+03  0.35498440462E+03  0.81306610666E+02 0.  0.
          5    1    3    3  501    0 -0.11192327759E+03 -0.13904306661E+03 -0.16636697033E+03  0.24404887473E+03  0.47000000000E+01 0. -1.
        -13    1    4    4    0    0 -0.12674998980E+03 -0.38758711489E+02 -0.16685002847E+03  0.21308854880E+03  0.00000000000E+00 0.  1.
         14    1    4    4    0    0 -0.18476034546E+02  0.21496532228E+02 -0.93091355248E+01  0.29834958599E+02  0.00000000000E+00 0. -1.
         -5    1    5    5    0  502  0.77324286305E+02 -0.22506389450E+02 -0.67527001248E+02  0.10520251288E+03  0.47000000000E+01 0.  1.
         13    1    6    6    0    0  0.13442965451E+03  0.12936494694E+03 -0.11924239137E+03  0.22141673245E+03  0.00000000000E+00 0. -1.
        -14    1    6    6    0    0  0.45395361117E+02  0.49446688385E+02 -0.11547557857E+03  0.13356767217E+03  0.00000000000E+00 0.  1.
</event>
<event>
12    1  0.9962621E-001  0.2205684E+03  0.7818608E-02  0.1135254E+00
         21   -1    0    0  501  502  0.00000000000E+00  0.00000000000E+00  0.23026208374E+03  0.23026208374E+03  0.00000000000E+00 0. -1.
         21   -1    0    0  502  503 -0.00000000000E+00 -0.00000000000E+00 -0.20441809256E+03  0.20441809256E+03  0.00000000000E+00 0.  1.
         -6    2    1    2    0  503 -0.89794303306E+02  0.81227820577E+02  0.34540636561E+02  0.21394037583E+03  0.17296373346E+03 0.  0.
        -24    2    3    3    0    0 -0.40740732170E+02 -0.21033679749E+02 -0.80909925888E+01  0.92683569446E+02  0.80140856887E+02 0.  0.
          6    2    1    2  501    0  0.89794303306E+02 -0.81227820577E+02 -0.86966453767E+01  0.22073980047E+03  0.18436228499E+03 0.  0.
         24    2    5    5    0    0  0.74969578832E+02 -0.35383098212E+02 -0.76064049978E+02  0.13778217136E+03  0.79534807830E+02 0.  0.
          5    1    5    5  501    0  0.14824724474E+02 -0.45844722365E+02  0.67367404602E+02  0.82957629108E+02  0.47000000000E+01 0. -1.
        -13    1    6    6    0    0 -0.83372301139E+01 -0.30225071895E+02 -0.22825403934E+02  0.38782256791E+02  0.00000000000E+00 0.  1.
         14    1    6    6    0    0  0.83306808946E+02 -0.51580263166E+01 -0.53238646044E+02  0.98999914570E+02  0.00000000000E+00 0. -1.
         -5    1    3    3    0  503 -0.49053571136E+02  0.10226150033E+03  0.42631629150E+02  0.12125680638E+03  0.47000000000E+01 0.  1.
         11    1    4    4    0    0  0.15649943737E+02 -0.71776641978E+00  0.20885458092E+02  0.26108203448E+02  0.00000000000E+00 0. -1.
        -12    1    4    4    0    0 -0.56390675907E+02 -0.20315913330E+02 -0.28976450680E+02  0.66575365998E+02  0.00000000000E+00 0.  1.
</event>
<event>
12    1  0.3168336E+000  0.8351336E+03  0.7818608E-02  0.9510730E-01
         21   -1    0    0  503  502  0.00000000000E+00  0.00000000000E+00  0.75650005374E+03  0.75650005374E+03  0.00000000000E+00 0.  1.
         21   -1    0    0  501  503 -0.00000000000E+00 -0.00000000000E+00 -0.20589594506E+04  0.20589594506E+04  0.00000000000E+00 0. -1.
          6    2    1    2  501    0 -0.78890225567E+03  0.21165069017E+03  0.39532124191E+03  0.92339524705E+03  0.17093014457E+03 0.  0.
         24    2    3    3    0    0 -0.73232770356E+03  0.23461970027E+03  0.36133929133E+03  0.85335869705E+03  0.79402224230E+02 0.  0.
         -6    2    1    2    0  502  0.78890225567E+03 -0.21165069017E+03 -0.16977806387E+04  0.18920642573E+04  0.17402664360E+03 0.  0.
        -24    2    5    5    0    0  0.48775578344E+03 -0.18743198115E+03 -0.11904460525E+04  0.13015676730E+04  0.62290863768E+02 0.  0.
          5    1    3    3  501    0 -0.56574552109E+02 -0.22969010097E+02  0.33981950575E+02  0.70036550001E+02  0.47000000000E+01 0. -1.
        -13    1    4    4    0    0 -0.84517027785E+02  0.54575360299E+02  0.42215655764E+02  0.10910435156E+03  0.00000000000E+00 0.  1.
         14    1    4    4    0    0 -0.64781067578E+03  0.18004433997E+03  0.31912363557E+03  0.74425434549E+03  0.00000000000E+00 0. -1.
         -5    1    5    5    0  502  0.30114647224E+03 -0.24218709023E+02 -0.50733458624E+03  0.59049658424E+03  0.47000000000E+01 0.  1.
         13    1    6    6    0    0  0.15225156226E+03 -0.80095111370E+02 -0.33969038858E+03  0.38076938580E+03  0.00000000000E+00 0. -1.
        -14    1    6    6    0    0  0.33550422118E+03 -0.10733686978E+03 -0.85075566392E+03  0.92079828721E+03  0.00000000000E+00 0.  1.
</event>
<event>
12    1  0.9962621E-001  0.2678215E+03  0.7818608E-02  0.1102560E+00
         21   -1    0    0  503  502  0.00000000000E+00  0.00000000000E+00  0.31606071419E+03  0.31606071419E+03  0.00000000000E+00 0.  1.
         21   -1    0    0  501  503 -0.00000000000E+00 -0.00000000000E+00 -0.22877920388E+03  0.22877920388E+03  0.00000000000E+00 0. -1.
          6    2    1    2  501    0 -0.69971685864E+02 -0.19371196821E+03  0.69064560977E+02  0.27658322232E+03  0.17119579971E+03 0.  0.
         24    2    3    3    0    0 -0.10886166082E+03 -0.17912737167E+03  0.50555696423E+02  0.23086879708E+03  0.82504827415E+02 0.  0.
         -6    2    1    2    0  502  0.69971685864E+02  0.19371196821E+03  0.18216949335E+02  0.26825669575E+03  0.17090767719E+03 0.  0.
        -24    2    5    5    0    0  0.11011285016E+03  0.15677786700E+03 -0.78514150755E+01  0.20761767757E+03  0.79619821468E+02 0.  0.
          5    1    3    3  501    0  0.38889974955E+02 -0.14584596539E+02  0.18508864554E+02  0.45714425243E+02  0.47000000000E+01 0. -1.
        -11    1    4    4    0    0 -0.87479960408E+02 -0.16717341483E+03  0.68257410245E+02  0.20064587748E+03  0.00000000000E+00 0.  1.
         12    1    4    4    0    0 -0.21381700411E+02 -0.11953956842E+02 -0.17701713822E+02  0.30222919596E+02  0.00000000000E+00 0. -1.
         -5    1    5    5    0  502 -0.40141164295E+02  0.36934101209E+02  0.26068364410E+02  0.60639018182E+02  0.47000000000E+01 0.  1.
         13    1    6    6    0    0 -0.94547464849E+01  0.19081471749E+02 -0.13415073863E+02  0.25168611443E+02  0.00000000000E+00 0. -1.
        -14    1    6    6    0    0  0.11956759664E+03  0.13769639525E+03  0.55636587878E+01  0.18244906613E+03  0.00000000000E+00 0.  1.
</event>
<event>
12    1  0.9962621E-001  0.4670808E+03  0.7818608E-02  0.1023019E+00
         21   -1    0    0  503  502  0.00000000000E+00  0.00000000000E+00  0.14382984190E+03  0.14382984190E+03  0.00000000000E+00 0. -1.
         21   -1    0    0  501  503 -0.00000000000E+00 -0.00000000000E+00 -0.15400092154E+04  0.15400092154E+04  0.00000000000E+00 0. -1.
          6    2    1    2  501    0 -0.45310539237E+02 -0.42728928742E+03 -0.57302911801E+03  0.73927456050E+03  0.18312652895E+03 0.  0.
         24    2    3    3    0    0  0.47166987015E+02 -0.25245888691E+03 -0.32425986578E+03  0.42142869744E+03  0.80606899413E+02 0.  0.
         -6    2    1    2    0  502  0.45310539237E+02  0.42728928742E+03 -0.82315025550E+03  0.94456449680E+03  0.17319516557E+03 0.  0.
        -24    2    5    5    0    0  0.23608150674E+02  0.33613475524E+03 -0.74686915353E+03  0.82364700872E+03  0.83886494834E+02 0.  0.
          5    1    3    3  501    0 -0.92477526252E+02 -0.17483040052E+03 -0.24876925224E+03  0.31784586306E+03  0.47000000000E+01 0. -1.
        -11    1    4    4    0    0  0.99618573736E+01 -0.17813702197E+02 -0.12376139994E+01  0.20447451595E+02  0.00000000000E+00 0.  1.
         12    1    4    4    0    0  0.37205129641E+02 -0.23464518471E+03 -0.32302225178E+03  0.40098124585E+03  0.00000000000E+00 0. -1.
         -5    1    5    5    0  502  0.21702388563E+02  0.91154532180E+02 -0.76281101962E+02  0.12091748808E+03  0.47000000000E+01 0.  1.
         13    1    6    6    0    0  0.87193592196E+01  0.40279702609E+02 -0.17288487754E+03  0.17772918317E+03  0.00000000000E+00 0. -1.
        -14    1    6    6    0    0  0.14888791454E+02  0.29585505263E+03 -0.57398427599E+03  0.64591782555E+03  0.00000000000E+00 0.  1.
</event>
<event>
12    1  0.9962621E-001  0.2141928E+03  0.7818608E-02  0.1138849E+00
         21   -1    0    0  503  502  0.00000000000E+00  0.00000000000E+00  0.62578709630E+02  0.62578709630E+02  0.00000000000E+00 0. -1.
         21   -1    0    0  501  503 -0.00000000000E+00 -0.00000000000E+00 -0.77101728478E+03  0.77101728478E+03  0.00000000000E+00 0. -1.
          6    2    1    2  501    0  0.71748385276E+02  0.10266650923E+03 -0.46016157374E+03  0.50756992121E+03  0.17375358432E+03 0.  0.
         24    2    3    3    0    0 -0.16198920112E+02  0.25280606420E+02 -0.11438058712E+03  0.14245365592E+03  0.79426766894E+02 0.  0.
         -6    2    1    2    0  502 -0.71748385276E+02 -0.10266650923E+03 -0.24827700141E+03  0.32602607320E+03  0.17018603958E+03 0.  0.
        -24    2    5    5    0    0 -0.11437580057E+01 -0.66255757645E+02 -0.21681824027E+03  0.24045446648E+03  0.80106601063E+02 0.  0.
          5    1    3    3  501    0  0.87947305387E+02  0.77385902813E+02 -0.34578098662E+03  0.36511626530E+03  0.47000000000E+01 0. -1.
        -13    1    4    4    0    0  0.15518680905E+02  0.44913250163E+02 -0.67347939120E+02  0.82424355630E+02  0.00000000000E+00 0.  1.
         14    1    4    4    0    0 -0.31717601016E+02 -0.19632643743E+02 -0.47032648004E+02  0.60029300286E+02  0.00000000000E+00 0. -1.
         -5    1    5    5    0  502 -0.70604627270E+02 -0.36410751588E+02 -0.31458761138E+02  0.85571606713E+02  0.47000000000E+01 0.  1.
         13    1    6    6    0    0  0.37096540313E+02 -0.44201111963E+02 -0.14617222184E+03  0.15715027852E+03  0.00000000000E+00 0. -1.
        -14    1    6    6    0    0 -0.38240298319E+02 -0.22054645682E+02 -0.70646018430E+02  0.83304187960E+02  0.00000000000E+00 0.  1.
</event>
<event>
12    1  0.9962621E-001  0.1881318E+03  0.7818608E-02  0.1160723E+00
         21   -1    0    0  501  502  0.00000000000E+00  0.00000000000E+00  0.38165472146E+03  0.38165472146E+03  0.00000000000E+00 0. -1.
         21   -1    0    0  502  503 -0.00000000000E+00 -0.00000000000E+00 -0.10846125955E+03  0.10846125955E+03  0.00000000000E+00 0. -1.
         -6    2    1    2    0  503  0.53351818631E+02 -0.47436572588E+02  0.23266295007E+03  0.29766782038E+03  0.17139847719E+03 0.  0.
        -24    2    3    3    0    0  0.18883710234E+02  0.36707128044E+02  0.14966100894E+03  0.17446219923E+03  0.79590411488E+02 0.  0.
          6    2    1    2  501    0 -0.53351818631E+02  0.47436572588E+02  0.40530511838E+02  0.19244816062E+03  0.17406012515E+03 0.  0.
         24    2    5    5    0    0 -0.60738885556E+02  0.40958784031E+02 -0.35724803205E+02  0.11541898709E+03  0.81721764597E+02 0.  0.
          5    1    5    5  501    0  0.73870669251E+01  0.64777885567E+01  0.76255315043E+02  0.77029173530E+02  0.47000000000E+01 0. -1.
        -13    1    6    6    0    0 -0.54903717310E+02  0.61291763036E+02 -0.11222241065E+02  0.83048402062E+02  0.00000000000E+00 0.  1.
         14    1    6    6    0    0 -0.58351682458E+01 -0.20332979004E+02 -0.24502562140E+02  0.32370585028E+02  0.00000000000E+00 0. -1.
         -5    1    3    3    0  503  0.34468108397E+02 -0.84143700633E+02  0.83001941135E+02  0.12320562116E+03  0.47000000000E+01 0.  1.
         11    1    4    4    0    0  0.17794025799E+02  0.27465006855E+02  0.96168860506E+01  0.34109213609E+02  0.00000000000E+00 0. -1.
        -12    1    4    4    0    0  0.10896844348E+01  0.92421211896E+01  0.14004412289E+03  0.14035298562E+03  0.00000000000E+00 0.  1.
</event>
<event>
12    1  0.9962621E-001  0.1844833E+03  0.7818608E-02  0.1165891E+00
         21   -1    0    0  501  502  0.00000000000E+00  0.00000000000E+00  0.27074019838E+02  0.27074019838E+02  0.00000000000E+00 0.  1.
         21   -1    0    0  502  503 -0.00000000000E+00 -0.00000000000E+00 -0.18501194477E+04  0.18501194477E+04  0.00000000000E+00 0.  1.
         -6    2    1    2    0  503 -0.11233545634E+02  0.22740708745E+02 -0.14554860313E+04  0.14659344494E+04  0.17286089862E+03 0.  0.
        -24    2    3    3    0    0 -0.95920245650E+01  0.58130590107E+02 -0.13647173584E+04  0.13683835382E+04  0.80925069693E+02 0.  0.
          6    2    1    2  501    0  0.11233545634E+02 -0.22740708745E+02 -0.36755939656E+03  0.41125901812E+03  0.18273132630E+03 0.  0.
         24    2    5    5    0    0  0.34830602909E+02  0.44017020446E+02 -0.29154440704E+03  0.30726967179E+03  0.79157065012E+02 0.  0.
          5    1    5    5  501    0 -0.23597057275E+02 -0.66757729191E+02 -0.76014989520E+02  0.10398934633E+03  0.47000000000E+01 0. -1.
        -11    1    6    6    0    0 -0.12648582737E+02  0.44404447477E+02 -0.18410641851E+03  0.18980757344E+03  0.00000000000E+00 0.  1.
         12    1    6    6    0    0  0.47479185646E+02 -0.38742703070E+00 -0.10743798853E+03  0.11746209835E+03  0.00000000000E+00 0. -1.
         -5    1    3    3    0  503 -0.16415210689E+01 -0.35389881363E+02 -0.90768672914E+02  0.97550911205E+02  0.47000000000E+01 0.  1.
         11    1    4    4    0    0  0.21899958529E+02 -0.93616079175E+01 -0.45481245597E+03  0.45543563540E+03  0.00000000000E+00 0. -1.
        -12    1    4    4    0    0 -0.31491983094E+02  0.67492198025E+02 -0.90990490245E+03  0.91294790283E+03  0.00000000000E+00 0.  1.
</event>
<event>
12    1  0.9962621E-001  0.2618831E+03  0.7818608E-02  0.1106198E+00
         21   -1    0    0  503  502  0.00000000000E+00  0.00000000000E+00  0.49546247837E+03  0.49546247837E+03  0.00000000000E+00 0.  1.
         21   -1    0    0  501  503 -0.00000000000E+00 -0.00000000000E+00 -0.13785281920E+03  0.13785281920E+03  0.00000000000E+00 0.  1.
          6    2    1    2  501    0 -0.19664173033E+03  0.19156141782E+02  0.17207994997E+03  0.31335964396E+03  0.17189482076E+03 0.  0.
         24    2    3    3    0    0 -0.16398357494E+03  0.69644938630E+02  0.15984691052E+03  0.25181769912E+03  0.78230994225E+02 0.  0.
         -6    2    1    2    0  502  0.19664173033E+03 -0.19156141782E+02  0.18552970921E+03  0.31995565362E+03  0.17004534515E+03 0.  0.
        -24    2    5    5    0    0  0.59201935396E+02  0.39691909537E+02  0.49101433199E+02  0.11750181969E+03  0.79469554246E+02 0.  0.
          5    1    3    3  501    0 -0.32658155386E+02 -0.50488796847E+02  0.12233039444E+02  0.61541944837E+02  0.47000000000E+01 0. -1.
        -13    1    4    4    0    0 -0.19999411900E+02  0.35704537812E+02  0.62584676649E+02  0.74777217439E+02  0.00000000000E+00 0.  1.
         14    1    4    4    0    0 -0.14398416304E+03  0.33940400818E+02  0.97262233876E+02  0.17704048168E+03  0.00000000000E+00 0. -1.
         -5    1    5    5    0  502  0.13743979493E+03 -0.58848051319E+02  0.13642827601E+03  0.20245383392E+03  0.47000000000E+01 0.  1.
         13    1    6    6    0    0  0.20002388063E+02 -0.19991901250E+02  0.34515599771E+02  0.44621724209E+02  0.00000000000E+00 0. -1.
        -14    1    6    6    0    0  0.39199547333E+02  0.59683810787E+02  0.14585833428E+02  0.72880095486E+02  0.00000000000E+00 0.  1.
</event>
<event>
12    1  0.9962621E-001  0.2602910E+03  0.7818608E-02  0.1107206E+00
         21   -1    0    0  503  502  0.00000000000E+00  0.00000000000E+00  0.19064289367E+03  0.19064289367E+03  0.00000000000E+00 0. -1.
         21   -1    0    0  501  503 -0.00000000000E+00 -0.00000000000E+00 -0.40721604427E+03  0.40721604427E+03  0.00000000000E+00 0. -1.
          6    2    1    2  501    0 -0.18148421578E+03 -0.71385896866E+02 -0.21741174879E+03  0.33914493504E+03  0.17239185480E+03 0.  0.
         24    2    3    3    0    0 -0.10332981464E+03 -0.20817836172E+02 -0.39135876247E+02  0.13797432110E+03  0.79967890924E+02 0.  0.
         -6    2    1    2    0  502  0.18148421578E+03  0.71385896866E+02  0.83859818685E+00  0.25871400291E+03  0.16999930943E+03 0.  0.
        -24    2    5    5    0    0  0.21552129954E+02 -0.20728785360E+01 -0.66382445777E+00  0.82649210760E+02  0.79760016583E+02 0.  0.
          5    1    3    3  501    0 -0.78154401146E+02 -0.50568060694E+02 -0.17827587254E+03  0.20117061393E+03  0.47000000000E+01 0. -1.
        -13    1    4    4    0    0 -0.94177080319E+02 -0.34222553248E+02 -0.55816726233E+02  0.11469966232E+03  0.00000000000E+00 0.  1.
         14    1    4    4    0    0 -0.91527343164E+01  0.13404717076E+02  0.16680849986E+02  0.23274658786E+02  0.00000000000E+00 0. -1.
         -5    1    5    5    0  502  0.15993208583E+03  0.73458775402E+02  0.15024226446E+01  0.17606479215E+03  0.47000000000E+01 0.  1.
         13    1    6    6    0    0  0.26276059616E+02 -0.14166283460E+02  0.34230058770E+02  0.45418188201E+02  0.00000000000E+00 0. -1.
        -14    1    6    6    0    0 -0.47239296622E+01  0.12093404924E+02 -0.34893883228E+02  0.37231022559E+02  0.00000000000E+00 0.  1.
</event>
<event>
12    1  0.9962621E-001  0.1948386E+03  0.7818608E-02  0.1154464E+00
         21   -1    0    0  503  502  0.00000000000E+00  0.00000000000E+00  0.24345523815E+03  0.24345523815E+03  0.00000000000E+00 0.  1.
         21   -1    0    0  501  503 -0.00000000000E+00 -0.00000000000E+00 -0.15543350365E+03  0.15543350365E+03  0.00000000000E+00 0.  1.
          6    2    1    2  501    0 -0.68669469899E+02 -0.49562381183E+02  0.31639045472E+02  0.19605608258E+03  0.17396848161E+03 0.  0.
         24    2    3    3    0    0 -0.29015992654E+02 -0.15328174836E+02 -0.50342093433E+02  0.98652918988E+02  0.78238042410E+02 0.  0.
         -6    2    1    2    0  502  0.68669469899E+02  0.49562381183E+02  0.56382689026E+02  0.20283265923E+03  0.17547123497E+03 0.  0.
        -24    2    5    5    0    0  0.35566135332E+02 -0.13226439560E+01  0.97052361711E+02  0.12961224664E+03  0.78188708878E+02 0.  0.
          5    1    3    3  501    0 -0.39653477245E+02 -0.34234206346E+02  0.81981138905E+02  0.97403163593E+02  0.47000000000E+01 0. -1.
        -11    1    4    4    0    0 -0.49211023210E+02  0.83324685603E+01 -0.44773951680E+02  0.67051186319E+02  0.00000000000E+00 0.  1.
         12    1    4    4    0    0  0.20195030556E+02 -0.23660643397E+02 -0.55681417528E+01  0.31601732669E+02  0.00000000000E+00 0. -1.
         -5    1    5    5    0  502  0.33103334568E+02  0.50885025139E+02 -0.40669672685E+02  0.73220412585E+02  0.47000000000E+01 0.  1.
         11    1    6    6    0    0 -0.12816766333E+02  0.23663943982E+02  0.14095577670E+02  0.30379879096E+02  0.00000000000E+00 0. -1.
        -12    1    6    6    0    0  0.48382901664E+02 -0.24986587938E+02  0.82956784041E+02  0.99232367545E+02  0.00000000000E+00 0.  1.
</event>
<event>
12    1  0.9962621E-001  0.1819250E+03  0.7818608E-02  0.1165998E+00
         21   -1    0    0  501  502  0.00000000000E+00  0.00000000000E+00  0.36184153435E+02  0.36184153435E+02  0.00000000000E+00 0.  1.
         21   -1    0    0  502  503 -0.00000000000E+00 -0.00000000000E+00 -0.16609741627E+04  0.16609741627E+04  0.00000000000E+00 0. -1.
         -6    2    1    2    0  503  0.59363283284E+02 -0.60551232957E+01 -0.24345611778E+03  0.30392039260E+03  0.17186058255E+03 0.  0.
        -24    2    3    3    0    0  0.37717654140E+02 -0.70637785362E+02 -0.16681500156E+03  0.20127827553E+03  0.79204679795E+02 0.  0.
          6    2    1    2  501    0 -0.59363283284E+02  0.60551232957E+01 -0.13813338915E+04  0.13932379236E+04  0.17166224946E+03 0.  0.
         24    2    5    5    0    0 -0.46346310302E+02  0.49828155772E+02 -0.12426958913E+04  0.12471964737E+04  0.81087238943E+02 0.  0.
          5    1    5    5  501    0 -0.13016972982E+02 -0.43773032476E+02 -0.13863800024E+03  0.14604144983E+03  0.47000000000E+01 0. -1.
        -13    1    6    6    0    0 -0.62652841879E+02  0.26082529311E+02 -0.59453429537E+03  0.59839510802E+03  0.00000000000E+00 0.  1.
         14    1    6    6    0    0  0.16306531578E+02  0.23745626461E+02 -0.64816159590E+03  0.64880136571E+03  0.00000000000E+00 0. -1.
         -5    1    3    3    0  503  0.21645629144E+02  0.64582662066E+02 -0.76641116224E+02  0.10264211707E+03  0.47000000000E+01 0.  1.
         13    1    4    4    0    0 -0.15575573486E+02 -0.36211710107E+02 -0.10720541976E+03  0.11422297695E+03  0.00000000000E+00 0. -1.
        -14    1    4    4    0    0  0.53293227625E+02 -0.34426075256E+02 -0.59609581796E+02  0.87055298576E+02  0.00000000000E+00 0.  1.
</event>
<event>
12    1  0.9962621E-001  0.3089737E+03  0.7818608E-02  0.1080917E+00
         21   -1    0    0  503  502  0.00000000000E+00  0.00000000000E+00  0.16662712769E+03  0.16662712769E+03  0.00000000000E+00 0. -1.
         21   -1    0    0  501  503 -0.00000000000E+00 -0.00000000000E+00 -0.58183589620E+03  0.58183589620E+03  0.00000000000E+00 0. -1.
          6    2    1    2  501    0 -0.70142236835E+02  0.24590681820E+03 -0.15846966023E+03  0.34724251900E+03  0.17342040584E+03 0.  0.
         24    2    3    3    0    0 -0.11322810866E+03  0.17781734731E+03 -0.13329361251E+03  0.26269376516E+03  0.82469470238E+02 0.  0.
         -6    2    1    2    0  502  0.70142236835E+02 -0.24590681820E+03 -0.25673910828E+03  0.40122050489E+03  0.17225802507E+03 0.  0.
        -24    2    5    5    0    0 -0.17378601587E+02 -0.73162493596E+02 -0.57574409745E+02  0.12339112203E+03  0.79093552678E+02 0.  0.
          5    1    3    3  501    0  0.43085871829E+02  0.68089470882E+02 -0.25176047715E+02  0.84548753834E+02  0.47000000000E+01 0. -1.
        -13    1    4    4    0    0 -0.74337261377E+02  0.17108118416E+03 -0.10424118419E+03  0.21368440393E+03  0.00000000000E+00 0.  1.
         14    1    4    4    0    0 -0.38890847287E+02  0.67361631542E+01 -0.29052428324E+02  0.49009361231E+02  0.00000000000E+00 0. -1.
         -5    1    5    5    0  502  0.87520838422E+02 -0.17274432460E+03 -0.19916469853E+03  0.27782938286E+03  0.47000000000E+01 0.  1.
         11    1    6    6    0    0 -0.17017928843E+02  0.86958897930E+00 -0.45233416781E+02  0.48336612218E+02  0.00000000000E+00 0. -1.
        -12    1    6    6    0    0 -0.36067274454E+00 -0.74032082576E+02 -0.12340992964E+02  0.75054509809E+02  0.00000000000E+00 0.  1.
</event>
<event>
12    1  0.9962621E-001  0.2678080E+03  0.7818608E-02  0.1102608E+00
         21   -1    0    0  503  502  0.00000000000E+00  0.00000000000E+00  0.14364169191E+03  0.14364169191E+03  0.00000000000E+00 0.  1.
         21   -1    0    0  501  503 -0.00000000000E+00 -0.00000000000E+00 -0.53087123046E+03  0.53087123046E+03  0.00000000000E+00 0.  1.
          6    2    1    2  501    0 -0.13503863298E+02 -0.20436847000E+03 -0.27681419795E+03  0.38483610611E+03  0.17182520923E+03 0.  0.
         24    2    3    3    0    0 -0.60384188377E+02 -0.11296527492E+03 -0.22159844268E+03  0.26811773318E+03  0.79836367050E+02 0.  0.
         -6    2    1    2    0  502  0.13503863298E+02  0.20436847000E+03 -0.11041534060E+03  0.28967681626E+03  0.17254647079E+03 0.  0.
        -24    2    5    5    0    0 -0.59470222042E+02  0.15786918064E+03 -0.91674996154E+02  0.20101627513E+03  0.59530264930E+02 0.  0.
          5    1    3    3  501    0  0.46880325078E+02 -0.91403195084E+02 -0.55215755274E+02  0.11671837294E+03  0.47000000000E+01 0. -1.
        -13    1    4    4    0    0 -0.46085136262E+02 -0.10941859553E+03 -0.22368195624E+03  0.25323879320E+03  0.00000000000E+00 0.  1.
         14    1    4    4    0    0 -0.14299052115E+02 -0.35466793890E+01  0.20835135672E+01  0.14878939977E+02  0.00000000000E+00 0. -1.
         -5    1    5    5    0  502  0.72974085341E+02  0.46499289359E+02 -0.18740344442E+02  0.88660541122E+02  0.47000000000E+01 0.  1.
         13    1    6    6    0    0 -0.27995671308E+02  0.14399177524E+02 -0.10443963219E+02  0.33168815069E+02  0.00000000000E+00 0. -1.
        -14    1    6    6    0    0 -0.31474550734E+02  0.14347000312E+03 -0.81231032935E+02  0.16784746007E+03  0.00000000000E+00 0.  1.
</event>
<event>
12    1  0.9962621E-001  0.3223489E+03  0.7818608E-02  0.1074728E+00
         21   -1    0    0  501  502  0.00000000000E+00  0.00000000000E+00  0.51814449216E+03  0.51814449216E+03  0.00000000000E+00 0. -1.
         21   -1    0    0  502  503 -0.00000000000E+00 -0.00000000000E+00 -0.22633791355E+03  0.22633791355E+03  0.00000000000E+00 0. -1.
         -6    2    1    2    0  503  0.18671823459E+03  0.19900917331E+03  0.18466086122E+02  0.32287740243E+03  0.17158225572E+03 0.  0.
        -24    2    3    3    0    0  0.10841138680E+03  0.18949264871E+03  0.50882291115E+02  0.23746413064E+03  0.78356321331E+02 0.  0.
          6    2    1    2  501    0 -0.18671823459E+03 -0.19900917331E+03  0.27334049248E+03  0.42160500328E+03  0.16901894501E+03 0.  0.
         24    2    5    5    0    0 -0.62524376473E+02 -0.12421010337E+03  0.21038810424E+03  0.26347812877E+03  0.76289727384E+02 0.  0.
          5    1    5    5  501    0 -0.12419385811E+03 -0.74799069939E+02  0.62952388247E+02  0.15812687451E+03  0.47000000000E+01 0. -1.
        -13    1    6    6    0    0 -0.25978165901E+02 -0.49532472048E+02  0.26965623300E+02  0.62092477247E+02  0.00000000000E+00 0.  1.
         14    1    6    6    0    0 -0.36546210573E+02 -0.74677631321E+02  0.18342248094E+03  0.20138565152E+03  0.00000000000E+00 0. -1.
         -5    1    3    3    0  503  0.78306847789E+02  0.95165246015E+01 -0.32416204993E+02  0.85413271787E+02  0.47000000000E+01 0.  1.
         13    1    4    4    0    0 -0.73429422739E+01 -0.80556306452E-01 -0.44103789990E+01  0.85660220330E+01  0.00000000000E+00 0. -1.
        -14    1    4    4    0    0  0.11575432907E+03  0.18957320501E+03  0.55292670114E+02  0.22889810861E+03  0.00000000000E+00 0.  1.
</event>
<event>
12    1  0.9962621E-001  0.1809003E+03  0.7818608E-02  0.1167676E+00
         21   -1    0    0  501  502  0.00000000000E+00  0.00000000000E+00  0.73166276173E+03  0.73166276173E+03  0.00000000000E+00 0.  1.
         21   -1    0    0  502  503 -0.00000000000E+00 -0.00000000000E+00 -0.12257227434E+03  0.12257227434E+03  0.00000000000E+00 0.  1.
         -6    2    1    2    0  503 -0.48154859196E+02  0.49034498446E+01  0.64749550130E+03  0.67229112039E+03  0.17430430880E+03 0.  0.
        -24    2    3    3    0    0 -0.53088617543E+02  0.51638429663E+02  0.26423886461E+03  0.28613540066E+03  0.81033087145E+02 0.  0.
          6    2    1    2  501    0  0.48154859196E+02 -0.49034498446E+01 -0.38405013921E+02  0.18194391567E+03  0.17113067835E+03 0.  0.
         24    2    5    5    0    0  0.37136633652E+02  0.50246173042E+02  0.17739749996E+02  0.10233734111E+03  0.79084923916E+02 0.  0.
          5    1    5    5  501    0  0.11018225544E+02 -0.55149622886E+02 -0.56144763917E+02  0.79606574565E+02  0.47000000000E+01 0. -1.
        -13    1    6    6    0    0 -0.13434174155E+02 -0.46401154248E+01 -0.15155656167E+02  0.20777430549E+02  0.00000000000E+00 0.  1.
         14    1    6    6    0    0  0.50570807806E+02  0.54886288466E+02  0.32895406163E+02  0.81559910559E+02  0.00000000000E+00 0. -1.
         -5    1    3    3    0  503  0.49337583468E+01 -0.46734979818E+02  0.38325663670E+03  0.38615571973E+03  0.47000000000E+01 0.  1.
         11    1    4    4    0    0 -0.48058541337E+02 -0.65526874555E+01  0.88159204039E+02  0.10062110298E+03  0.00000000000E+00 0. -1.
        -12    1    4    4    0    0 -0.50300762062E+01  0.58191117118E+02  0.17607966057E+03  0.18551429768E+03  0.00000000000E+00 0.  1.
</event>
<event>
12    1  0.9962621E-001  0.2035807E+03  0.7818608E-02  0.1146845E+00
         21   -1    0    0  501  502  0.00000000000E+00  0.00000000000E+00  0.16539142562E+04  0.16539142562E+04  0.00000000000E+00 0.  1.
         21   -1    0    0  502  503 -0.00000000000E+00 -0.00000000000E+00 -0.25257946430E+02  0.25257946430E+02  0.00000000000E+00 0.  1.
         -6    2    1    2    0  503 -0.79628065080E+01  0.10891706167E+03  0.89947476527E+03  0.92222555219E+03  0.17181031150E+03 0.  0.
        -24    2    3    3    0    0 -0.14734410281E+02  0.13877061178E+03  0.59865609908E+03  0.61981680727E+03  0.79431505536E+02 0.  0.
          6    2    1    2  501    0  0.79628065080E+01 -0.10891706167E+03  0.72918154445E+03  0.75694665039E+03  0.17127806096E+03 0.  0.
         24    2    5    5    0    0  0.52619960366E+02 -0.11807732665E+03  0.62566865311E+03  0.64374249623E+03  0.78943161054E+02 0.  0.
          5    1    5    5  501    0 -0.44657153858E+02  0.91602649828E+01  0.10351289134E+03  0.11320415416E+03  0.47000000000E+01 0. -1.
        -13    1    6    6    0    0  0.19359469897E+02  0.79474226176E+01  0.98676453013E+02  0.10087117021E+03  0.00000000000E+00 0.  1.
         14    1    6    6    0    0  0.33260490469E+02 -0.12602474927E+03  0.52699220009E+03  0.54287132602E+03  0.00000000000E+00 0. -1.
         -5    1    3    3    0  503  0.67716037725E+01 -0.29853550111E+02  0.30081866619E+03  0.30240874492E+03  0.47000000000E+01 0.  1.
         13    1    4    4    0    0 -0.17051074213E+02  0.14683990492E+02  0.28516652804E+02  0.36325723609E+02  0.00000000000E+00 0. -1.
        -14    1    4    4    0    0  0.23166639326E+01  0.12408662128E+03  0.57013944628E+03  0.58349108366E+03  0.00000000000E+00 0.  1.
</event>
<event>
12    1  0.9962621E-001  0.2115725E+03  0.7818608E-02  0.1140342E+00
         21   -1    0    0  501  502  0.00000000000E+00  0.00000000000E+00  0.15768675112E+04  0.15768675112E+04  0.00000000000E+00 0. -1.
         21   -1    0    0  502  503 -0.00000000000E+00 -0.00000000000E+00 -0.28380323534E+02  0.28380323534E+02  0.00000000000E+00 0. -1.
         -6    2    1    2    0  503  0.39993355584E+02 -0.11700418966E+03  0.78336880425E+03  0.81143675356E+03  0.17167839897E+03 0.  0.
        -24    2    3    3    0    0  0.82125440403E+02 -0.38455554882E+02  0.49497713339E+03  0.50954795546E+03  0.80083323329E+02 0.  0.
          6    2    1    2  501    0 -0.39993355584E+02  0.11700418966E+03  0.76511838337E+03  0.79381108113E+03  0.17158217582E+03 0.  0.
         24    2    5    5    0    0 -0.50714419386E+02  0.14647329120E+03  0.70419421696E+03  0.72512910964E+03  0.76787714319E+02 0.  0.
          5    1    5    5  501    0  0.10721063802E+02 -0.29469101547E+02  0.60924166412E+02  0.68681971493E+02  0.47000000000E+01 0. -1.
        -11    1    6    6    0    0  0.18602465401E+01  0.63157436742E+02  0.15880241690E+03  0.17091088306E+03  0.00000000000E+00 0.  1.
         12    1    6    6    0    0 -0.52574665927E+02  0.83315854461E+02  0.54539180006E+03  0.55421822658E+03  0.00000000000E+00 0. -1.
         -5    1    3    3    0  503 -0.42132084819E+02 -0.78548634774E+02  0.28839167086E+03  0.30188879810E+03  0.47000000000E+01 0.  1.
         13    1    4    4    0    0  0.65005099761E+02  0.35587791943E+01  0.38682992664E+03  0.39226995813E+03  0.00000000000E+00 0. -1.
        -14    1    4    4    0    0  0.17120340642E+02 -0.42014334076E+02  0.10814720675E+03  0.11727799734E+03  0.00000000000E+00 0.  1.
</event>
<event>
12    1  0.9962621E-001  0.3196635E+03  0.7818608E-02  0.1075938E+00
         21   -1    0    0  503  502  0.00000000000E+00  0.00000000000E+00  0.67383947481E+03  0.67383947481E+03  0.00000000000E+00 0. -1.
         21   -1    0    0  501  503 -0.00000000000E+00 -0.00000000000E+00 -0.16001071972E+03  0.16001071972E+03  0.00000000000E+00 0. -1.
          6    2    1    2  501    0  0.10092615092E+03  0.24857020446E+03  0.35488254633E+03  0.47685068789E+03  0.17167330126E+03 0.  0.
         24    2    3    3    0    0  0.99565353461E+02  0.20678918188E+03  0.36021843841E+03  0.43444706349E+03  0.79447481105E+02 0.  0.
         -6    2    1    2    0  502 -0.10092615092E+03 -0.24857020446E+03  0.15894620876E+03  0.35699950664E+03  0.17381460232E+03 0.  0.
        -24    2    5    5    0    0 -0.15542358819E+02 -0.11380737227E+03  0.13476842189E+03  0.19557439004E+03  0.83024885419E+02 0.  0.
          5    1    3    3  501    0  0.13607974541E+01  0.41781022581E+02 -0.53358920812E+01  0.42403624396E+02  0.47000000000E+01 0. -1.
        -13    1    4    4    0    0  0.97550946612E+02  0.15693302075E+03  0.23023544616E+03  0.29521605792E+03  0.00000000000E+00 0.  1.
         14    1    4    4    0    0  0.20144068489E+01  0.49856161127E+02  0.12998299225E+03  0.13923100557E+03  0.00000000000E+00 0. -1.
         -5    1    5    5    0  502 -0.85383792096E+02 -0.13476283219E+03  0.24177786873E+02  0.16142511661E+03  0.47000000000E+01 0.  1.
         13    1    6    6    0    0 -0.77381356284E+01  0.11188486442E+02  0.27481661275E+02  0.30664355175E+02  0.00000000000E+00 0. -1.
        -14    1    6    6    0    0 -0.78042231904E+01 -0.12499585871E+03  0.10728676062E+03  0.16491003486E+03  0.00000000000E+00 0.  1.
</event>
<event>
12    1  0.9962621E-001  0.3186462E+03  0.7818608E-02  0.1076565E+00
         21   -1    0    0  503  502  0.00000000000E+00  0.00000000000E+00  0.33607729582E+03  0.33607729582E+03  0.00000000000E+00 0. -1.
         21   -1    0    0  501  503 -0.00000000000E+00 -0.00000000000E+00 -0.30576870094E+03  0.30576870094E+03  0.00000000000E+00 0.  1.
          6    2    1    2  501    0 -0.26872252146E+03 -0.12115548771E+02 -0.29920577265E+02  0.31755758108E+03  0.16609935669E+03 0.  0.
         24    2    3    3    0    0 -0.15652142809E+03 -0.65213789253E+02 -0.41086892728E+02  0.19283675243E+03  0.82134551649E+02 0.  0.
         -6    2    1    2    0  502  0.26872252146E+03  0.12115548771E+02  0.60229172147E+02  0.32428841569E+03  0.17081230433E+03 0.  0.
        -24    2    5    5    0    0  0.20792836342E+03 -0.48628021704E+02  0.67825534558E+02  0.23788525759E+03  0.79938750524E+02 0.  0.
          5    1    3    3  501    0 -0.11220109338E+03  0.53098240482E+02  0.11166315463E+02  0.12472082865E+03  0.47000000000E+01 0. -1.
        -13    1    4    4    0    0 -0.15582578092E+03 -0.49760716059E+02 -0.54442596162E+02  0.17240011351E+03  0.00000000000E+00 0.  1.
         14    1    4    4    0    0 -0.69564716869E+00 -0.15453073194E+02  0.13355703434E+02  0.20436638920E+02  0.00000000000E+00 0. -1.
         -5    1    5    5    0  502  0.60794158047E+02  0.60743570475E+02 -0.75963624113E+01  0.86403158094E+02  0.47000000000E+01 0.  1.
         13    1    6    6    0    0  0.16113182761E+03 -0.41872572137E+02  0.85812278457E+02  0.18729795861E+03  0.00000000000E+00 0. -1.
        -14    1    6    6    0    0  0.46796535806E+02 -0.67554495674E+01 -0.17986743899E+02  0.50587298983E+02  0.00000000000E+00 0.  1.
</event>
<event>
12    1  0.9962621E-001  0.4463639E+03  0.7818608E-02  0.1028873E+00
         21   -1    0    0  501  502  0.00000000000E+00  0.00000000000E+00  0.63834017154E+03  0.63834017154E+03  0.00000000000E+00 0. -1.
         21   -1    0    0  502  503 -0.00000000000E+00 -0.00000000000E+00 -0.41184007496E+03  0.41184007496E+03  0.00000000000E+00 0. -1.
         -6    2    1    2    0  503  0.61169657670E+02  0.40634688072E+03  0.37244174391E+03  0.58133776094E+03  0.17430210898E+03 0.  0.
        -24    2    3    3    0    0 -0.56625163822E+01  0.34837976010E+03  0.30134017702E+03  0.46774088873E+03  0.81087085049E+02 0.  0.
          6    2    1    2  501    0 -0.61169657670E+02 -0.40634688072E+03 -0.14594164733E+03  0.46884248556E+03  0.17220568327E+03 0.  0.
         24    2    5    5    0    0 -0.76544647183E+02 -0.28473319173E+03 -0.16054833759E+03  0.34530413098E+03  0.80790473959E+02 0.  0.
          5    1    5    5  501    0  0.15374989513E+02 -0.12161368899E+03  0.14606690261E+02  0.12353835458E+03  0.47000000000E+01 0. -1.
        -11    1    6    6    0    0 -0.45207408309E+02 -0.59825029912E+02 -0.63871561490E+02  0.98500357040E+02  0.00000000000E+00 0.  1.
         12    1    6    6    0    0 -0.31337238874E+02 -0.22490816182E+03 -0.96676776102E+02  0.24680377394E+03  0.00000000000E+00 0. -1.
         -5    1    3    3    0  503  0.66832174052E+02  0.57967120621E+02  0.71101566887E+02  0.11359687221E+03  0.47000000000E+01 0.  1.
         13    1    4    4    0    0  0.27633755861E+02  0.63261848784E+02  0.41493675932E+02  0.80544466705E+02  0.00000000000E+00 0. -1.
        -14    1    4    4    0    0 -0.33296272243E+02  0.28511791132E+03  0.25984650109E+03  0.38719642202E+03  0.00000000000E+00 0.  1.
</event>
<event>
12    1  0.9962621E-001  0.1776166E+03  0.7818608E-02  0.1170383E+00
         21   -1    0    0  501  502  0.00000000000E+00  0.00000000000E+00  0.10499433512E+03  0.10499433512E+03  0.00000000000E+00 0. -1.
         21   -1    0    0  502  503 -0.00000000000E+00 -0.00000000000E+00 -0.29874722321E+03  0.29874722321E+03  0.00000000000E+00 0. -1.
         -6    2    1    2    0  503 -0.38926544371E+02 -0.56380988306E+01 -0.96191319619E+02  0.20199116355E+03  0.17320680173E+03 0.  0.
        -24    2    3    3    0    0 -0.50900621775E+01  0.62721992174E+02 -0.81948167752E+02  0.12425464096E+03  0.69019972226E+02 0.  0.
          6    2    1    2  501    0  0.38926544371E+02  0.56380988306E+01 -0.97561568473E+02  0.20175039478E+03  0.17215660933E+03 0.  0.
         24    2    5    5    0    0  0.43804001427E+02  0.10470430872E+02 -0.13522366226E+03  0.16318014292E+03  0.79460051243E+02 0.  0.
          5    1    5    5  501    0 -0.48774570561E+01 -0.48323320418E+01  0.37662093789E+02  0.38570251864E+02  0.47000000000E+01 0. -1.
        -11    1    6    6    0    0  0.76762528676E+01 -0.22616233301E+02 -0.54916787676E+01  0.24506680772E+02  0.00000000000E+00 0.  1.
         12    1    6    6    0    0  0.36127748559E+02  0.33086664173E+02 -0.12973198349E+03  0.13867346215E+03  0.00000000000E+00 0. -1.
         -5    1    3    3    0  503 -0.33836482193E+02 -0.68360091005E+02 -0.14243151867E+02  0.77736522591E+02  0.47000000000E+01 0.  1.
         11    1    4    4    0    0  0.31263953175E+02  0.29618897994E+02 -0.28561372090E+02  0.51676550409E+02  0.00000000000E+00 0. -1.
        -12    1    4    4    0    0 -0.36354015352E+02  0.33103094180E+02 -0.53386795661E+02  0.72578090548E+02  0.00000000000E+00 0.  1.
</event>
<event>
12    1  0.9962621E-001  0.2899569E+03  0.7818608E-02  0.1090384E+00
         21   -1    0    0  501  502  0.00000000000E+00  0.00000000000E+00  0.10584043106E+04  0.10584043106E+04  0.00000000000E+00 0. -1.
         21   -1    0    0  502  503 -0.00000000000E+00 -0.00000000000E+00 -0.11522075914E+03  0.11522075914E+03  0.00000000000E+00 0.  1.
         -6    2    1    2    0  503  0.22545343730E+03 -0.60658092565E+02  0.79879722657E+03  0.84979528600E+03  0.17194872011E+03 0.  0.
        -24    2    3    3    0    0  0.98047883290E+02 -0.92210469323E+02  0.47082747330E+03  0.49650506999E+03  0.81991565645E+02 0.  0.
          6    2    1    2  501    0 -0.22545343730E+03  0.60658092565E+02  0.14438632484E+03  0.32382978368E+03  0.17178376354E+03 0.  0.
         24    2    5    5    0    0 -0.11612856139E+03 -0.76689784990E+01  0.15761010365E+02  0.14165657309E+03  0.79205550636E+02 0.  0.
          5    1    5    5  501    0 -0.10932487591E+03  0.68327071064E+02  0.12862531448E+03  0.18217321059E+03  0.47000000000E+01 0. -1.
        -13    1    6    6    0    0 -0.29159478835E+02  0.27289737137E+02  0.25555460100E+02  0.47413990549E+02  0.00000000000E+00 0.  1.
         14    1    6    6    0    0 -0.86969082551E+02 -0.34958715636E+02 -0.97944497347E+01  0.94242582543E+02  0.00000000000E+00 0. -1.
         -5    1    3    3    0  503  0.12740555401E+03  0.31552376758E+02  0.32796975327E+03  0.35329021602E+03  0.47000000000E+01 0.  1.
         13    1    4    4    0    0 -0.52964977471E+01  0.86244347013E+01  0.13160614523E+02  0.16602275053E+02  0.00000000000E+00 0. -1.
        -14    1    4    4    0    0  0.10334438104E+03 -0.10083490402E+03  0.45766685878E+03  0.47990279493E+03  0.00000000000E+00 0.  1.
</event>
<event>
12    1  0.9962621E-001  0.2975171E+03  0.7818608E-02  0.1086520E+00
         21   -1    0    0  501  502  0.00000000000E+00  0.00000000000E+00  0.13403026034E+03  0.13403026034E+03  0.00000000000E+00 0. -1.
         21   -1    0    0  502  503 -0.00000000000E+00 -0.00000000000E+00 -0.67667233877E+03  0.67667233877E+03  0.00000000000E+00 0. -1.
         -6    2    1    2    0  503 -0.10768069443E+03  0.21758175912E+03 -0.33532253688E+03  0.44828297985E+03  0.17198683795E+03 0.  0.
        -24    2    3    3    0    0 -0.14449889985E+03  0.17188475022E+03 -0.27178797786E+03  0.36166585070E+03  0.80679509398E+02 0.  0.
          6    2    1    2  501    0  0.10768069443E+03 -0.21758175912E+03 -0.20731954155E+03  0.36241961927E+03  0.17155067551E+03 0.  0.
         24    2    5    5    0    0  0.69488677542E+02 -0.17587786239E+03 -0.22530413314E+03  0.30289331675E+03  0.72254481776E+02 0.  0.
          5    1    5    5  501    0  0.38192016891E+02 -0.41703896724E+02  0.17984591593E+02  0.59526302514E+02  0.47000000000E+01 0. -1.
        -11    1    6    6    0    0  0.32809960765E+02 -0.10805323335E+03 -0.18274624851E+03  0.21482128877E+03  0.00000000000E+00 0.  1.
         12    1    6    6    0    0  0.36678716777E+02 -0.67824629045E+02 -0.42557884630E+02  0.88072027987E+02  0.00000000000E+00 0. -1.
         -5    1    3    3    0  503  0.36818205418E+02  0.45697008894E+02 -0.63534559018E+02  0.86617129147E+02  0.47000000000E+01 0.  1.
         13    1    4    4    0    0 -0.27411737542E+02  0.10289609842E+02 -0.78771409362E+02  0.84036982089E+02  0.00000000000E+00 0. -1.
        -14    1    4    4    0    0 -0.11708716231E+03  0.16159514038E+03 -0.19301656850E+03  0.27762886861E+03  0.00000000000E+00 0.  1.
</event>
<event>
12    1  0.9962621E-001  0.2163227E+03  0.7818608E-02  0.1137460E+00
         21   -1    0    0  503  502  0.00000000000E+00  0.00000000000E+00  0.20749565133E+03  0.20749565133E+03  0.00000000000E+00 0. -1.
         21   -1    0    0  501  503 -0.00000000000E+00 -0.00000000000E+00 -0.23198044755E+03  0.23198044755E+03  0.00000000000E+00 0.  1.
          6    2    1    2  501    0  0.12394689689E+03  0.41370643642E+02  0.35269401225E+02  0.21505217894E+03  0.16712015318E+03 0.  0.
         24    2    3    3    0    0  0.10300666237E+03 -0.26805292136E+02 -0.58304972180E+01  0.13260375086E+03  0.78872453143E+02 0.  0.
         -6    2    1    2    0  502 -0.12394689689E+03 -0.41370643642E+02 -0.59754197443E+02  0.22442391994E+03  0.17239828400E+03 0.  0.
        -24    2    5    5    0    0 -0.37166847793E+02  0.33434611630E+01 -0.86427888892E+02  0.12311398012E+03  0.79339264026E+02 0.  0.
          5    1    3    3  501    0  0.20940234520E+02  0.68175935777E+02  0.41099898443E+02  0.82448428080E+02  0.47000000000E+01 0. -1.
        -11    1    4    4    0    0  0.87005827838E+02  0.14095099138E+02 -0.88371980103E+01  0.88582063457E+02  0.00000000000E+00 0.  1.
         12    1    4    4    0    0  0.16000834531E+02 -0.40900391273E+02  0.30067007923E+01  0.44021687401E+02  0.00000000000E+00 0. -1.
         -5    1    5    5    0  502 -0.86780049097E+02 -0.44714104804E+02  0.26673691449E+02  0.10130993981E+03  0.47000000000E+01 0.  1.
         13    1    6    6    0    0 -0.93570115969E+01  0.40254623096E+02 -0.44209816257E+02  0.60518560790E+02  0.00000000000E+00 0. -1.
        -14    1    6    6    0    0 -0.27809836196E+02 -0.36911161933E+02 -0.42218072636E+02  0.62595419334E+02  0.00000000000E+00 0.  1.
</event>
<event>
12    1  0.9962621E-001  0.1814366E+03  0.7818608E-02  0.1167339E+00
         21   -1    0    0  501  502  0.00000000000E+00  0.00000000000E+00  0.54631759667E+02  0.54631759667E+02  0.00000000000E+00 0.  1.
         21   -1    0    0  502  503 -0.00000000000E+00 -0.00000000000E+00 -0.59102933103E+03  0.59102933103E+03  0.00000000000E+00 0.  1.
         -6    2    1    2    0  503  0.45782217177E+02 -0.20830508952E+02 -0.25774319797E+03  0.31519959013E+03  0.17432528218E+03 0.  0.
        -24    2    3    3    0    0  0.52826964967E+02 -0.30422510420E+02 -0.27568385622E+03  0.29316343388E+03  0.78911298411E+02 0.  0.
          6    2    1    2  501    0 -0.45782217177E+02  0.20830508952E+02 -0.27865437339E+03  0.33046150056E+03  0.17037201070E+03 0.  0.
         24    2    5    5    0    0 -0.73307970516E+02 -0.21645438329E+02 -0.24391033809E+03  0.26888950056E+03  0.83466921273E+02 0.  0.
          5    1    5    5  501    0  0.27525753338E+02  0.42475947281E+02 -0.34744035309E+02  0.61571999999E+02  0.47000000000E+01 0. -1.
        -11    1    6    6    0    0  0.88678417540E+01 -0.28271757108E+02 -0.49021435306E+02  0.57280293180E+02  0.00000000000E+00 0.  1.
         12    1    6    6    0    0 -0.82175812270E+02  0.66263187791E+01 -0.19488890278E+03  0.21160920738E+03  0.00000000000E+00 0. -1.
         -5    1    3    3    0  503 -0.70447477898E+01  0.95920014679E+01  0.17940658255E+02  0.22036156249E+02  0.47000000000E+01 0.  1.
         11    1    4    4    0    0 -0.14638200281E+02 -0.16184464631E+02 -0.25069862085E+02  0.33237204874E+02  0.00000000000E+00 0. -1.
        -12    1    4    4    0    0  0.67465165248E+02 -0.14238045790E+02 -0.25061399414E+03  0.25992622901E+03  0.00000000000E+00 0.  1.
</event>
<event>
12    1  0.9962621E-001  0.2137437E+03  0.7818608E-02  0.1138942E+00
         21   -1    0    0  501  502  0.00000000000E+00  0.00000000000E+00  0.69196310573E+02  0.69196310573E+02  0.00000000000E+00 0.  1.
         21   -1    0    0  502  503 -0.00000000000E+00 -0.00000000000E+00 -0.82194220344E+03  0.82194220344E+03  0.00000000000E+00 0.  1.
         -6    2    1    2    0  503 -0.10646711914E+03 -0.67701638258E+02 -0.57806499364E+03  0.61631607462E+03  0.17253291768E+03 0.  0.
        -24    2    3    3    0    0 -0.41597877151E+02 -0.21535005753E+02 -0.12047526023E+03  0.15182729043E+03  0.79643568081E+02 0.  0.
          6    2    1    2  501    0  0.10646711914E+03  0.67701638258E+02 -0.17468089922E+03  0.27482243939E+03  0.17057314371E+03 0.  0.
         24    2    5    5    0    0  0.65807542948E+02  0.10468212639E+03 -0.15943122413E+03  0.21759132696E+03  0.81478156864E+02 0.  0.
          5    1    5    5  501    0  0.40659576195E+02 -0.36980488136E+02 -0.15249675092E+02  0.57231112426E+02  0.47000000000E+01 0. -1.
        -13    1    6    6    0    0 -0.13991809891E+02  0.96744354845E+01 -0.19754374842E+01  0.17125063481E+02  0.00000000000E+00 0.  1.
         14    1    6    6    0    0  0.79799352840E+02  0.95007690910E+02 -0.15745578664E+03  0.20046626348E+03  0.00000000000E+00 0. -1.
         -5    1    3    3    0  503 -0.64869241993E+02 -0.46166632505E+02 -0.45758973341E+03  0.46448878419E+03  0.47000000000E+01 0.  1.
         13    1    4    4    0    0 -0.14134218129E+02 -0.11937204156E+02  0.79584989156E+01  0.20139778305E+02  0.00000000000E+00 0. -1.
        -14    1    4    4    0    0 -0.27463659022E+02 -0.95978015975E+01 -0.12843375915E+03  0.13168751213E+03  0.00000000000E+00 0.  1.
</event>
<event>
12    1  0.9962621E-001  0.1949222E+03  0.7818608E-02  0.1156322E+00
         21   -1    0    0  501  502  0.00000000000E+00  0.00000000000E+00  0.18817649077E+03  0.18817649077E+03  0.00000000000E+00 0.  1.
         21   -1    0    0  502  503 -0.00000000000E+00 -0.00000000000E+00 -0.21636375509E+03  0.21636375509E+03  0.00000000000E+00 0.  1.
         -6    2    1    2    0  503 -0.33135998469E+02 -0.86259380563E+02  0.53771256407E+02  0.20220289501E+03  0.17162746752E+03 0.  0.
        -24    2    3    3    0    0  0.36572097734E+02 -0.29147855357E+02  0.60871586276E+02  0.11168521900E+03  0.81124116770E+02 0.  0.
          6    2    1    2  501    0  0.33135998469E+02  0.86259380563E+02 -0.81958520724E+02  0.20233735084E+03  0.16026393636E+03 0.  0.
         24    2    5    5    0    0  0.22652231936E+02 -0.12338340583E+02 -0.19796550802E+02  0.85215104960E+02  0.78767711847E+02 0.  0.
          5    1    5    5  501    0  0.10483766532E+02  0.98597721147E+02 -0.62161969922E+02  0.11712224588E+03  0.47000000000E+01 0. -1.
        -11    1    6    6    0    0 -0.95702473805E+01  0.28814007518E+02 -0.40676020926E+01  0.30633022230E+02  0.00000000000E+00 0.  1.
         12    1    6    6    0    0  0.32222479317E+02 -0.41152348102E+02 -0.15728948709E+02  0.54582082730E+02  0.00000000000E+00 0. -1.
         -5    1    3    3    0  503 -0.69708096203E+02 -0.57111525207E+02 -0.71003298687E+01  0.90517676019E+02  0.47000000000E+01 0.  1.
         11    1    4    4    0    0 -0.21833403704E+02  0.50266287277E+01  0.29644311980E+02  0.37158441119E+02  0.00000000000E+00 0. -1.
        -12    1    4    4    0    0  0.58405501438E+02 -0.34174484084E+02  0.31227274296E+02  0.74526777876E+02  0.00000000000E+00 0.  1.
</event>
<event>
12    1  0.9962621E-001  0.1911046E+03  0.7818608E-02  0.1157531E+00
         21   -1    0    0  501  502  0.00000000000E+00  0.00000000000E+00  0.15577858513E+04  0.15577858513E+04  0.00000000000E+00 0.  1.
         21   -1    0    0  502  503 -0.00000000000E+00 -0.00000000000E+00 -0.48039891509E+02  0.48039891509E+02  0.00000000000E+00 0.  1.
         -6    2    1    2    0  503  0.13451878920E+02  0.79822237805E+02  0.13300457861E+04  0.13437048660E+04  0.17311392481E+03 0.  0.
        -24    2    3    3    0    0 -0.40709663022E+02  0.99336924244E+02  0.88664503494E+03  0.89655767347E+03  0.78429220935E+02 0.  0.
          6    2    1    2  501    0 -0.13451878920E+02 -0.79822237805E+02  0.17970017367E+03  0.26212087684E+03  0.17280815653E+03 0.  0.
         24    2    5    5    0    0 -0.61443551218E+02 -0.96344424043E+01  0.12690523632E+03  0.16192645263E+03  0.79038627185E+02 0.  0.
          5    1    5    5  501    0  0.47991672298E+02 -0.70187795401E+02  0.52794937345E+02  0.10019442421E+03  0.47000000000E+01 0. -1.
        -13    1    6    6    0    0  0.63933734366E+01  0.81772178658E+01 -0.57538718713E+01  0.11867988770E+02  0.00000000000E+00 0.  1.
         14    1    6    6    0    0 -0.67836924655E+02 -0.17811660270E+02  0.13265910820E+03  0.15005846386E+03  0.00000000000E+00 0. -1.
         -5    1    3    3    0  503  0.54161541942E+02 -0.19514686439E+02  0.44340075118E+03  0.44714719250E+03  0.47000000000E+01 0.  1.
         13    1    4    4    0    0  0.15388702444E+02  0.37817465937E+02  0.15873336601E+03  0.16390013538E+03  0.00000000000E+00 0. -1.
        -14    1    4    4    0    0 -0.56098365466E+02  0.61519458307E+02  0.72791166893E+03  0.73265753809E+03  0.00000000000E+00 0.  1.
</event>
<event>
12    1  0.9962621E-001  0.2280559E+03  0.7818608E-02  0.1129346E+00
         21   -1    0    0  501  502  0.00000000000E+00  0.00000000000E+00  0.22344203073E+03  0.22344203073E+03  0.00000000000E+00 0.  1.
         21   -1    0    0  502  503 -0.00000000000E+00 -0.00000000000E+00 -0.33972131488E+03  0.33972131488E+03  0.00000000000E+00 0.  1.
         -6    2    1    2    0  503 -0.12086243704E+03 -0.64515283560E+02 -0.22215649736E+03  0.31837557568E+03  0.18231716148E+03 0.  0.
        -24    2    3    3    0    0 -0.45434931481E+02 -0.96404529498E+02 -0.18652860662E+03  0.22894588710E+03  0.79152585704E+02 0.  0.
          6    2    1    2  501    0  0.12086243704E+03  0.64515283560E+02  0.10587721321E+03  0.24478776993E+03  0.17303501821E+03 0.  0.
         24    2    5    5    0    0  0.15258577419E+03  0.43800929274E+02  0.68362964699E+02  0.19126335087E+03  0.81897707862E+02 0.  0.
          5    1    5    5  501    0 -0.31723337150E+02  0.20714354286E+02  0.37514248515E+02  0.53524419054E+02  0.47000000000E+01 0. -1.
        -11    1    6    6    0    0 -0.40343979723E+01 -0.10170471966E+00 -0.99488227560E+01  0.10736190436E+02  0.00000000000E+00 0.  1.
         12    1    6    6    0    0  0.15662017217E+03  0.43902633993E+02  0.78311787455E+02  0.18052716044E+03  0.00000000000E+00 0. -1.
         -5    1    3    3    0  503 -0.75427505562E+02  0.31889245938E+02 -0.35627890739E+02  0.89429688584E+02  0.47000000000E+01 0.  1.
         11    1    4    4    0    0 -0.30574452251E+02 -0.72606507346E+02 -0.59153040838E+02  0.98516923825E+02  0.00000000000E+00 0. -1.
        -12    1    4    4    0    0 -0.14860479230E+02 -0.23798022151E+02 -0.12737556579E+03  0.13042896327E+03  0.00000000000E+00 0.  1.
</event>
<event>
12    1  0.9962621E-001  0.1829570E+03  0.7818608E-02  0.1165137E+00
         21   -1    0    0  503  502  0.00000000000E+00  0.00000000000E+00  0.50183896892E+02  0.50183896892E+02  0.00000000000E+00 0. -1.
         21   -1    0    0  501  503 -0.00000000000E+00 -0.00000000000E+00 -0.68008222511E+03  0.68008222511E+03  0.00000000000E+00 0. -1.
          6    2    1    2  501    0 -0.35824880902E+02  0.47022533257E+02 -0.36966916540E+03  0.41215847181E+03  0.17240873910E+03 0.  0.
         24    2    3    3    0    0 -0.89196312387E+01  0.95943553597E+02 -0.23424403471E+03  0.26560058321E+03  0.79929198085E+02 0.  0.
         -6    2    1    2    0  502  0.35824880902E+02 -0.47022533257E+02 -0.26022916283E+03  0.31810765019E+03  0.17314363748E+03 0.  0.
        -24    2    5    5    0    0  0.11913624146E+02 -0.97543773866E+02 -0.19596671720E+03  0.23280878813E+03  0.78359781248E+02 0.  0.
          5    1    3    3  501    0 -0.26905249663E+02 -0.48921020340E+02 -0.13542513068E+03  0.14655788860E+03  0.47000000000E+01 0. -1.
        -13    1    4    4    0    0 -0.34961741658E+02  0.18175821706E+02 -0.10890517806E+03  0.11581460047E+03  0.00000000000E+00 0.  1.
         14    1    4    4    0    0  0.26042110419E+02  0.77767731891E+02 -0.12533885666E+03  0.14978598274E+03  0.00000000000E+00 0. -1.
         -5    1    5    5    0  502  0.23911256756E+02  0.50521240609E+02 -0.64262445623E+02  0.85298862066E+02  0.47000000000E+01 0.  1.
         13    1    6    6    0    0  0.85025238705E+01 -0.28142671744E+02 -0.14149717051E+03  0.14451903732E+03  0.00000000000E+00 0. -1.
        -14    1    6    6    0    0  0.34111002754E+01 -0.69401102121E+02 -0.54469546692E+02  0.88289750807E+02  0.00000000000E+00 0.  1.
</event>
<event>
12    1  0.9962621E-001  0.1959611E+03  0.7818608E-02  0.1154080E+00
         21   -1    0    0  503  502  0.00000000000E+00  0.00000000000E+00  0.48753568893E+03  0.48753568893E+03  0.00000000000E+00 0.  1.
         21   -1    0    0  501  503 -0.00000000000E+00 -0.00000000000E+00 -0.10656232218E+03  0.10656232218E+03  0.00000000000E+00 0.  1.
          6    2    1    2  501    0 -0.35506174663E+02  0.78734848441E+02  0.34799608673E+03  0.39937707449E+03  0.17590027415E+03 0.  0.
         24    2    3    3    0    0 -0.85016745796E+02  0.56617508302E+02  0.17301667164E+03  0.21612762948E+03  0.79642917118E+02 0.  0.
         -6    2    1    2    0  502  0.35506174663E+02 -0.78734848441E+02  0.32977280016E+02  0.19472093663E+03  0.17137350252E+03 0.  0.
        -24    2    5    5    0    0  0.79213090275E+02 -0.47671625934E+02 -0.14357359790E+02  0.12304195512E+03  0.79911772283E+02 0.  0.
          5    1    3    3  501    0  0.49510571133E+02  0.22117340139E+02  0.17497941509E+03  0.18324944500E+03  0.47000000000E+01 0. -1.
        -11    1    4    4    0    0 -0.31575164530E+01 -0.17938384497E+02  0.17810477630E+02  0.25474863335E+02  0.00000000000E+00 0.  1.
         12    1    4    4    0    0 -0.81859229343E+02  0.74555892799E+02  0.15520619401E+03  0.19065276615E+03  0.00000000000E+00 0. -1.
         -5    1    5    5    0  502 -0.43706915612E+02 -0.31063222507E+02  0.47334639805E+02  0.71678981510E+02  0.47000000000E+01 0.  1.
         11    1    6    6    0    0  0.34733690071E+02 -0.39788711433E+02  0.29148466516E+02  0.60325814405E+02  0.00000000000E+00 0. -1.
        -12    1    6    6    0    0  0.44479400204E+02 -0.78829145012E+01 -0.43505826306E+02  0.62716140714E+02  0.00000000000E+00 0.  1.
</event>
<event>
12    1  0.9962621E-001  0.7709680E+03  0.7818608E-02  0.9603366E-01
         21   -1    0    0  503  502  0.00000000000E+00  0.00000000000E+00  0.86631892248E+03  0.86631892248E+03  0.00000000000E+00 0.  1.
         21   -1    0    0  501  503 -0.00000000000E+00 -0.00000000000E+00 -0.68551200287E+03  0.68551200287E+03  0.00000000000E+00 0.  1.
          6    2    1    2  501    0  0.71405848942E+03  0.23506234622E+03  0.10418451184E+03  0.77706478027E+03  0.16685750601E+03 0.  0.
         24    2    3    3    0    0  0.61528343821E+03  0.20360955099E+03  0.13858653011E+03  0.66774242240E+03  0.81505568861E+02 0.  0.
         -6    2    1    2    0  502 -0.71405848942E+03 -0.23506234622E+03  0.76622407776E+02  0.77476614508E+03  0.17104897914E+03 0.  0.
        -24    2    5    5    0    0 -0.16774478672E+03 -0.36656151120E+02  0.30975017022E+02  0.19173145118E+03  0.79495350832E+02 0.  0.
          5    1    3    3  501    0  0.98775051211E+02  0.31452795238E+02 -0.34402018275E+02  0.10932235788E+03  0.47000000000E+01 0. -1.
        -11    1    4    4    0    0  0.19173587859E+03  0.50516306202E+02  0.64186043918E+01  0.19838281885E+03  0.00000000000E+00 0.  1.
         12    1    4    4    0    0  0.42354755961E+03  0.15309324478E+03  0.13216792572E+03  0.46935960355E+03  0.00000000000E+00 0. -1.
         -5    1    5    5    0  502 -0.54631370270E+03 -0.19840619510E+03  0.45647390754E+02  0.58303469390E+03  0.47000000000E+01 0.  1.
         11    1    6    6    0    0 -0.13797919073E+03 -0.44157814447E+02  0.52661442299E+02  0.15414732290E+03  0.00000000000E+00 0. -1.
        -12    1    6    6    0    0 -0.29765595994E+02  0.75016633262E+01 -0.21686425276E+02  0.37584128283E+02  0.00000000000E+00 0.  1.
</event>
<event>
12    1  0.9962621E-001  0.1809231E+03  0.7818608E-02  0.1167739E+00
         21   -1    0    0  503  502  0.00000000000E+00  0.00000000000E+00  0.66321350865E+03  0.66321350865E+03  0.00000000000E+00 0. -1.
         21   -1    0    0  501  503 -0.00000000000E+00 -0.00000000000E+00 -0.11834344036E+03  0.11834344036E+03  0.00000000000E+00 0. -1.
          6    2    1    2  501    0  0.16942782189E+02 -0.43577779367E+02  0.57384384764E+03  0.60168921837E+03  0.17477721051E+03 0.  0.
         24    2    3    3    0    0 -0.56884886655E+01 -0.40153620031E+01  0.11128774285E+03  0.13686925391E+03  0.79370957676E+02 0.  0.
         -6    2    1    2    0  502 -0.16942782189E+02  0.43577779367E+02 -0.28973779349E+02  0.17986773064E+03  0.17125080996E+03 0.  0.
        -24    2    5    5    0    0  0.25715273360E+02 -0.24003984633E+02 -0.45516008197E+02  0.98119703974E+02  0.79487752160E+02 0.  0.
          5    1    3    3  501    0  0.22631270854E+02 -0.39562417364E+02  0.46255610478E+03  0.46481996446E+03  0.47000000000E+01 0. -1.
        -11    1    4    4    0    0  0.34694103601E+02  0.10925884420E+02  0.56321942922E+02  0.67046379690E+02  0.00000000000E+00 0.  1.
         12    1    4    4    0    0 -0.40382592266E+02 -0.14941246423E+02  0.54965799932E+02  0.69822874224E+02  0.00000000000E+00 0. -1.
         -5    1    5    5    0  502 -0.42658055548E+02  0.67581764001E+02  0.16542228848E+02  0.81748026666E+02  0.47000000000E+01 0.  1.
         11    1    6    6    0    0  0.80263040168E+01  0.28376536979E+02 -0.58215697802E+01  0.30058943458E+02  0.00000000000E+00 0. -1.
        -12    1    6    6    0    0  0.17688969343E+02 -0.52380521613E+02 -0.39694438417E+02  0.68060760516E+02  0.00000000000E+00 0.  1.
</event>
<event>
12    1  0.9962621E-001  0.2072848E+03  0.7818608E-02  0.1143782E+00
         21   -1    0    0  503  502  0.00000000000E+00  0.00000000000E+00  0.40006204072E+03  0.40006204072E+03  0.00000000000E+00 0.  1.
         21   -1    0    0  501  503 -0.00000000000E+00 -0.00000000000E+00 -0.24983403147E+03  0.24983403147E+03  0.00000000000E+00 0.  1.
          6    2    1    2  501    0 -0.72153744851E+02  0.88928182796E+02  0.32055574967E+03  0.38160794799E+03  0.17249421072E+03 0.  0.
         24    2    3    3    0    0 -0.66893773198E+02  0.16631342068E+02  0.27956370966E+03  0.29819968805E+03  0.77561638488E+02 0.  0.
         -6    2    1    2    0  502  0.72153744851E+02 -0.88928182796E+02 -0.17032774042E+03  0.26828812420E+03  0.17277903183E+03 0.  0.
        -24    2    5    5    0    0  0.95452162116E+02 -0.57458158101E+02 -0.18176905868E+03  0.22722509381E+03  0.78604690562E+02 0.  0.
          5    1    3    3  501    0 -0.52599716526E+01  0.72296840729E+02  0.40992040007E+02  0.83408259933E+02  0.47000000000E+01 0. -1.
        -11    1    4    4    0    0 -0.52420039194E+01  0.33466714933E+02  0.53900647412E+02  0.63661443629E+02  0.00000000000E+00 0.  1.
         12    1    4    4    0    0 -0.61651769279E+02 -0.16835372865E+02  0.22566306225E+03  0.23453824443E+03  0.00000000000E+00 0. -1.
         -5    1    5    5    0  502 -0.23298417265E+02 -0.31470024695E+02  0.11441318265E+02  0.41063030392E+02  0.47000000000E+01 0.  1.
         13    1    6    6    0    0  0.57077279648E+02 -0.19080047315E+02 -0.32502147353E+02  0.68397760491E+02  0.00000000000E+00 0. -1.
        -14    1    6    6    0    0  0.38374882467E+02 -0.38378110786E+02 -0.14926691133E+03  0.15882733332E+03  0.00000000000E+00 0.  1.
</event>
<event>
12    1  0.9962621E-001  0.2033795E+03  0.7818608E-02  0.1150849E+00
         21   -1    0    0  503  502  0.00000000000E+00  0.00000000000E+00  0.50986160510E+02  0.50986160510E+02  0.00000000000E+00 0.  1.
         21   -1    0    0  501  503 -0.00000000000E+00 -0.00000000000E+00 -0.10130850087E+04  0.10130850087E+04  0.00000000000E+00 0.  1.
          6    2    1    2  501    0 -0.31205467302E+02 -0.10414453602E+03 -0.18895224457E+03  0.26462205366E+03  0.15000671646E+03 0.  0.
         24    2    3    3    0    0 -0.17461664003E+02 -0.12564322474E+03 -0.13116840015E+03  0.20128053156E+03  0.84956303789E+02 0.  0.
         -6    2    1    2    0  502  0.31205467302E+02  0.10414453602E+03 -0.77314660364E+03  0.79944911557E+03  0.17188179686E+03 0.  0.
        -24    2    5    5    0    0 -0.36998062152E+02  0.58597808314E+02 -0.57901570397E+03  0.58865271607E+03  0.80313603786E+02 0.  0.
          5    1    3    3  501    0 -0.13743803299E+02  0.21498688724E+02 -0.57783844427E+02  0.63341522106E+02  0.47000000000E+01 0. -1.
        -13    1    4    4    0    0  0.24363597164E+02 -0.17467207862E+02 -0.58770196517E+01  0.30548773744E+02  0.00000000000E+00 0.  1.
         14    1    4    4    0    0 -0.41825261167E+02 -0.10817601688E+03 -0.12529138050E+03  0.17073175781E+03  0.00000000000E+00 0. -1.
         -5    1    5    5    0  502  0.68203529453E+02  0.45546727706E+02 -0.19413089967E+03  0.21079639950E+03  0.47000000000E+01 0.  1.
         11    1    6    6    0    0  0.49911994301E+01  0.37829651379E+02 -0.95019534408E+02  0.10239485590E+03  0.00000000000E+00 0. -1.
        -12    1    6    6    0    0 -0.41989261582E+02  0.20768156934E+02 -0.48399616956E+03  0.48625786017E+03  0.00000000000E+00 0.  1.
</event>
<event>
12    1  0.9962621E-001  0.2396612E+03  0.7818608E-02  0.1120219E+00
         21   -1    0    0  501  502  0.00000000000E+00  0.00000000000E+00  0.60599350378E+03  0.60599350378E+03  0.00000000000E+00 0.  1.
         21   -1    0    0  502  503 -0.00000000000E+00 -0.00000000000E+00 -0.97737261191E+02  0.97737261191E+02  0.00000000000E+00 0.  1.
         -6    2    1    2    0  503 -0.16349565441E+03  0.31013332112E+02  0.32062694672E+03  0.40029877380E+03  0.17246684773E+03 0.  0.
        -24    2    3    3    0    0 -0.35049452119E+02  0.49572021658E+02  0.19193612718E+03  0.21747025066E+03  0.82267755416E+02 0.  0.
          6    2    1    2  501    0  0.16349565441E+03 -0.31013332112E+02  0.18762929587E+03  0.30343199117E+03  0.17080270728E+03 0.  0.
         24    2    5    5    0    0  0.40863391139E+02 -0.57638945046E+02  0.83365375227E+02  0.14021235262E+03  0.87850175411E+02 0.  0.
          5    1    5    5  501    0  0.12263226327E+03  0.26625612934E+02  0.10426392065E+03  0.16321963855E+03  0.47000000000E+01 0. -1.
        -11    1    6    6    0    0  0.73332879133E+01  0.23638062647E+02  0.20330245576E+02  0.32028955689E+02  0.00000000000E+00 0.  1.
         12    1    6    6    0    0  0.33530103226E+02 -0.81277007694E+02  0.63035129650E+02  0.10818339693E+03  0.00000000000E+00 0. -1.
         -5    1    3    3    0  503 -0.12844620229E+03 -0.18558689546E+02  0.12869081953E+03  0.18282852314E+03  0.47000000000E+01 0.  1.
         13    1    4    4    0    0 -0.25832339209E+02 -0.58553332830E+00  0.14775254080E+03  0.14999488629E+03  0.00000000000E+00 0. -1.
        -14    1    4    4    0    0 -0.92171129101E+01  0.50157554987E+02  0.44183586380E+02  0.67475364379E+02  0.00000000000E+00 0.  1.
</event>
<event>
12    1  0.9962621E-001  0.1973048E+03  0.7818608E-02  0.1152112E+00
         21   -1    0    0  501  502  0.00000000000E+00  0.00000000000E+00  0.97153066931E+02  0.97153066931E+02  0.00000000000E+00 0.  1.
         21   -1    0    0  502  503 -0.00000000000E+00 -0.00000000000E+00 -0.44014264967E+03  0.44014264967E+03  0.00000000000E+00 0.  1.
         -6    2    1    2    0  503 -0.32159315121E+02 -0.90307873080E+02 -0.90462970770E+02  0.21705469171E+03  0.17245131668E+03 0.  0.
        -24    2    3    3    0    0  0.16968194878E+02 -0.19540197056E+02  0.10042057458E+02  0.84597427255E+02  0.79913345830E+02 0.  0.
          6    2    1    2  501    0  0.32159315121E+02  0.90307873080E+02 -0.25252661197E+03  0.32024102489E+03  0.17203165633E+03 0.  0.
         24    2    5    5    0    0  0.25858736282E+02  0.11896996411E+03 -0.13505401279E+03  0.19906712377E+03  0.81028431982E+02 0.  0.
          5    1    5    5  501    0  0.63005788382E+01 -0.28662091033E+02 -0.11747259918E+03  0.12117390113E+03  0.47000000000E+01 0. -1.
        -13    1    6    6    0    0 -0.39724489175E+01  0.77147550232E+02 -0.31411703816E+02  0.83391966003E+02  0.00000000000E+00 0.  1.
         14    1    6    6    0    0  0.29831185200E+02  0.41822413882E+02 -0.10364230898E+03  0.11567515776E+03  0.00000000000E+00 0. -1.
         -5    1    3    3    0  503 -0.49127509999E+02 -0.70767676025E+02 -0.10050502823E+03  0.13245726446E+03  0.47000000000E+01 0.  1.
         11    1    4    4    0    0  0.34372599684E+02 -0.40552985434E+02 -0.50799032192E+01  0.53402487333E+02  0.00000000000E+00 0. -1.
        -12    1    4    4    0    0 -0.17404404805E+02  0.21012788378E+02  0.15121960677E+02  0.31194939922E+02  0.00000000000E+00 0.  1.
</event>
<event>
12    1  0.9962621E-001  0.2060734E+03  0.7818608E-02  0.1145544E+00
         21   -1    0    0  501  502  0.00000000000E+00  0.00000000000E+00  0.44230542958E+03  0.44230542958E+03  0.00000000000E+00 0. -1.
         21   -1    0    0  502  503 -0.00000000000E+00 -0.00000000000E+00 -0.16246159176E+03  0.16246159176E+03  0.00000000000E+00 0. -1.
         -6    2    1    2    0  503 -0.73376423429E+02 -0.79912053048E+02  0.33682069702E+03  0.39485999070E+03  0.17520329498E+03 0.  0.
        -24    2    3    3    0    0 -0.79685042585E+02 -0.77794302038E+02  0.35167558909E+03  0.37791769559E+03  0.82124327890E+02 0.  0.
          6    2    1    2  501    0  0.73376423429E+02  0.79912053048E+02 -0.56976859193E+02  0.20990703064E+03  0.17042465577E+03 0.  0.
         24    2    5    5    0    0  0.92770813542E+02  0.10523780473E+03 -0.31642124081E+02  0.16890123996E+03  0.88571922497E+02 0.  0.
          5    1    5    5  501    0 -0.19394390114E+02 -0.25325751684E+02 -0.25334735112E+02  0.41005790681E+02  0.47000000000E+01 0. -1.
        -11    1    6    6    0    0 -0.11626946473E+02  0.17417280210E+02 -0.24585584958E+02  0.32295487640E+02  0.00000000000E+00 0.  1.
         12    1    6    6    0    0  0.10439776002E+03  0.87820524521E+02 -0.70565391239E+01  0.13660575232E+03  0.00000000000E+00 0. -1.
         -5    1    3    3    0  503  0.63086191563E+01 -0.21177510098E+01 -0.14854892074E+02  0.16942295108E+02  0.47000000000E+01 0.  1.
         11    1    4    4    0    0  0.67540667183E+01  0.14814722323E+00  0.10441119257E+03  0.10462952021E+03  0.00000000000E+00 0. -1.
        -12    1    4    4    0    0 -0.86439109303E+02 -0.77942449261E+02  0.24726439653E+03  0.27328817538E+03  0.00000000000E+00 0.  1.
</event>
<event>
12    1  0.9962621E-001  0.3300613E+03  0.7818608E-02  0.1071133E+00
         21   -1    0    0  503  502  0.00000000000E+00  0.00000000000E+00  0.17502337816E+03  0.17502337816E+03  0.00000000000E+00 0.  1.
         21   -1    0    0  501  503 -0.00000000000E+00 -0.00000000000E+00 -0.12305368209E+04  0.12305368209E+04  0.00000000000E+00 0. -1.
          6    2    1    2  501    0 -0.91436009103E+02  0.26604861380E+03 -0.33641480972E+02  0.33177137131E+03  0.17262121802E+03 0.  0.
         24    2    3    3    0    0 -0.12537187820E+03  0.22057765356E+03 -0.55438665641E+02  0.27080860647E+03  0.76754456551E+02 0.  0.
         -6    2    1    2    0  502  0.91436009103E+02 -0.26604861380E+03 -0.10218719618E+04  0.10737888278E+04  0.17221420293E+03 0.  0.
        -24    2    5    5    0    0  0.67842310330E+02 -0.10069580488E+03 -0.31918462691E+03  0.35150786122E+03  0.83287011316E+02 0.  0.
          5    1    3    3  501    0  0.33935869095E+02  0.45470960243E+02  0.21797184670E+02  0.60962764834E+02  0.47000000000E+01 0. -1.
        -11    1    4    4    0    0 -0.38137047645E+02  0.13948851440E+03 -0.44022607740E+02  0.15116041163E+03  0.00000000000E+00 0.  1.
         12    1    4    4    0    0 -0.87234830553E+02  0.81089139158E+02 -0.11416057901E+02  0.11964819484E+03  0.00000000000E+00 0. -1.
         -5    1    5    5    0  502  0.23593698772E+02 -0.16535280892E+03 -0.70268733491E+03  0.72228096657E+03  0.47000000000E+01 0.  1.
         13    1    6    6    0    0  0.79522108335E+02 -0.10656113271E+03 -0.30150883002E+03  0.32952483259E+03  0.00000000000E+00 0. -1.
        -14    1    6    6    0    0 -0.11679798005E+02  0.58653278234E+01 -0.17675796890E+02  0.21983028626E+02  0.00000000000E+00 0.  1.
</event>
<event>
12    1  0.9962621E-001  0.2192697E+03  0.7818608E-02  0.1134622E+00
         21   -1    0    0  503  502  0.00000000000E+00  0.00000000000E+00  0.23506090581E+03  0.23506090581E+03  0.00000000000E+00 0. -1.
         21   -1    0    0  501  503 -0.00000000000E+00 -0.00000000000E+00 -0.22800631996E+03  0.22800631996E+03  0.00000000000E+00 0. -1.
          6    2    1    2  501    0 -0.12799989504E+03 -0.45099789319E+02 -0.72260219169E+02  0.22989342936E+03  0.17091367839E+03 0.  0.
         24    2    3    3    0    0 -0.20077800513E+02  0.19486802916E+02 -0.63782326134E+02  0.10374838960E+03  0.76894015740E+02 0.  0.
         -6    2    1    2    0  502  0.12799989504E+03  0.45099789319E+02  0.79314805020E+02  0.23317379642E+03  0.17222432150E+03 0.  0.
        -24    2    5    5    0    0  0.19733641908E+02 -0.33512551161E+02  0.30239603482E+02  0.90583659843E+02  0.76016170014E+02 0.  0.
          5    1    3    3  501    0 -0.10792209453E+03 -0.64586592236E+02 -0.84778930346E+01  0.12614503975E+03  0.47000000000E+01 0. -1.
        -13    1    4    4    0    0 -0.40458201804E+02  0.95682951736E+01 -0.64156575933E+01  0.42066364570E+02  0.00000000000E+00 0.  1.
         14    1    4    4    0    0  0.20380401291E+02  0.99185077427E+01 -0.57366668541E+02  0.61682025032E+02  0.00000000000E+00 0. -1.
         -5    1    5    5    0  502  0.10826625313E+03  0.78612340481E+02  0.49075201538E+02  0.14259013658E+03  0.47000000000E+01 0.  1.
         11    1    6    6    0    0 -0.23715599870E+02  0.97012868570E+00 -0.58005648679E+01  0.24433939094E+02  0.00000000000E+00 0. -1.
        -12    1    6    6    0    0  0.43449241778E+02 -0.34482679847E+02  0.36040168350E+02  0.66149720749E+02  0.00000000000E+00 0.  1.
</event>
<event>
12    1  0.9962621E-001  0.6307458E+03  0.7818608E-02  0.9843853E-01
         21   -1    0    0  503  502  0.00000000000E+00  0.00000000000E+00  0.81452838409E+03  0.81452838409E+03  0.00000000000E+00 0.  1.
         21   -1    0    0  501  503 -0.00000000000E+00 -0.00000000000E+00 -0.50112977938E+03  0.50112977938E+03  0.00000000000E+00 0. -1.
          6    2    1    2  501    0  0.58065667176E+03 -0.17289672253E+03  0.26303263457E+03  0.68290465485E+03  0.17354294466E+03 0.  0.
         24    2    3    3    0    0  0.21305638092E+03 -0.82406703151E+02  0.16086361939E+03  0.29075797936E+03  0.80493554662E+02 0.  0.
         -6    2    1    2    0  502 -0.58065667176E+03  0.17289672253E+03  0.50365970140E+02  0.63275350863E+03  0.17545604752E+03 0.  0.
        -24    2    5    5    0    0 -0.56242840680E+03  0.12649888049E+03  0.46579713353E+02  0.58253941568E+03  0.69676549762E+02 0.  0.
          5    1    3    3  501    0  0.36760029084E+03 -0.90490019383E+02  0.10216901518E+03  0.39214667549E+03  0.47000000000E+01 0. -1.
        -11    1    4    4    0    0  0.94091140814E+02 -0.60477924594E+02  0.37474962183E+02  0.11796226063E+03  0.00000000000E+00 0.  1.
         12    1    4    4    0    0  0.11896524010E+03 -0.21928778558E+02  0.12338865721E+03  0.17279571872E+03  0.00000000000E+00 0. -1.
         -5    1    5    5    0  502 -0.18228264959E+02  0.46397842047E+02  0.37862567867E+01  0.50214092947E+02  0.47000000000E+01 0.  1.
         11    1    6    6    0    0 -0.27047268128E+03  0.96187552012E+02  0.27928060395E+02  0.28842242118E+03  0.00000000000E+00 0. -1.
        -12    1    6    6    0    0 -0.29195572552E+03  0.30311328476E+02  0.18651652958E+02  0.29411699450E+03  0.00000000000E+00 0.  1.
</event>
<event>
12    1  0.9962621E-001  0.1898510E+03  0.7818608E-02  0.1158689E+00
         21   -1    0    0  501  502  0.00000000000E+00  0.00000000000E+00  0.98519450425E+02  0.98519450425E+02  0.00000000000E+00 0. -1.
         21   -1    0    0  502  503 -0.00000000000E+00 -0.00000000000E+00 -0.46135962049E+03  0.46135962049E+03  0.00000000000E+00 0. -1.
         -6    2    1    2    0  503  0.24944714814E+02  0.76155407174E+02 -0.30916404528E+03  0.36258610172E+03  0.17165194270E+03 0.  0.
        -24    2    3    3    0    0 -0.50058732844E+02  0.26261464681E+02 -0.17243029937E+03  0.19877789092E+03  0.81147399932E+02 0.  0.
          6    2    1    2  501    0 -0.24944714814E+02 -0.76155407174E+02 -0.53676124788E+02  0.19729296919E+03  0.17210899012E+03 0.  0.
         24    2    5    5    0    0 -0.76402118643E+02 -0.72261915427E+02 -0.60504025265E+02  0.14502697727E+03  0.79454508415E+02 0.  0.
          5    1    5    5  501    0  0.51457403829E+02 -0.38934917473E+01  0.68279004768E+01  0.52265991923E+02  0.47000000000E+01 0. -1.
        -13    1    6    6    0    0 -0.29170787128E+02 -0.56450382729E+00 -0.50855040354E+02  0.58630099912E+02  0.00000000000E+00 0.  1.
         14    1    6    6    0    0 -0.47231331515E+02 -0.71697411600E+02 -0.96489849102E+01  0.86396877354E+02  0.00000000000E+00 0. -1.
         -5    1    3    3    0  503  0.75003447658E+02  0.49893942493E+02 -0.13673374591E+03  0.16380821081E+03  0.47000000000E+01 0.  1.
         11    1    4    4    0    0 -0.12068049614E+02 -0.27034829581E+02 -0.30620168851E+02  0.42592423885E+02  0.00000000000E+00 0. -1.
        -12    1    4    4    0    0 -0.37990683231E+02  0.53296294262E+02 -0.14181013052E+03  0.15618546703E+03  0.00000000000E+00 0.  1.
</event>
<event>
12    1  0.9962621E-001  0.2332618E+03  0.7818608E-02  0.1124579E+00
         21   -1    0    0  503  502  0.00000000000E+00  0.00000000000E+00  0.28027495728E+03  0.28027495728E+03  0.00000000000E+00 0. -1.
         21   -1    0    0  501  503 -0.00000000000E+00 -0.00000000000E+00 -0.27034852928E+03  0.27034852928E+03  0.00000000000E+00 0. -1.
          6    2    1    2  501    0 -0.14458111564E+03  0.61988825470E+02  0.15213387956E+03  0.27848842430E+03  0.17223464134E+03 0.  0.
         24    2    3    3    0    0 -0.76703425919E+02  0.67131883281E+02  0.16471045654E+03  0.20910476560E+03  0.78772858296E+02 0.  0.
         -6    2    1    2    0  502  0.14458111564E+03 -0.61988825470E+02 -0.14220745155E+03  0.27213506226E+03  0.17055268790E+03 0.  0.
        -24    2    5    5    0    0  0.22955674917E+02  0.41756223546E+00 -0.13103360164E+02  0.84046621700E+02  0.79780945108E+02 0.  0.
          5    1    3    3  501    0 -0.67877689720E+02 -0.51430578112E+01 -0.12576576981E+02  0.69383658696E+02  0.47000000000E+01 0. -1.
        -11    1    4    4    0    0 -0.36872810508E+02  0.75364247196E+02  0.83992064445E+02  0.11871832546E+03  0.00000000000E+00 0.  1.
         12    1    4    4    0    0 -0.39830615411E+02 -0.82323639149E+01  0.80718392093E+02  0.90386440143E+02  0.00000000000E+00 0. -1.
         -5    1    5    5    0  502  0.12162544072E+03 -0.62406387705E+02 -0.12910409139E+03  0.18808844056E+03  0.47000000000E+01 0.  1.
         13    1    6    6    0    0 -0.33727779222E+01  0.22401585510E+01 -0.43559157747E+02  0.43746933206E+02  0.00000000000E+00 0. -1.
        -14    1    6    6    0    0  0.26328452840E+02 -0.18225963155E+01  0.30455797583E+02  0.40299688494E+02  0.00000000000E+00 0.  1.
</event>
<event>
12    1  0.9962621E-001  0.2783366E+03  0.7818608E-02  0.1096823E+00
         21   -1    0    0  501  502  0.00000000000E+00  0.00000000000E+00  0.16604659296E+03  0.16604659296E+03  0.00000000000E+00 0. -1.
         21   -1    0    0  502  503 -0.00000000000E+00 -0.00000000000E+00 -0.46417111767E+03  0.46417111767E+03  0.00000000000E+00 0. -1.
         -6    2    1    2    0  503  0.13157434908E+03  0.17581366271E+03 -0.14143997239E+03  0.31221235242E+03  0.17102348926E+03 0.  0.
        -24    2    3    3    0    0  0.58119478837E+02  0.15830042436E+02 -0.50491794101E+02  0.11401033968E+03  0.82586150278E+02 0.  0.
          6    2    1    2  501    0 -0.13157434908E+03 -0.17581366271E+03 -0.15668455232E+03  0.31800535822E+03  0.16838974311E+03 0.  0.
         24    2    5    5    0    0 -0.96774050872E+02 -0.19555127226E+03 -0.11665227744E+03  0.26121357167E+03  0.83781019275E+02 0.  0.
          5    1    5    5  501    0 -0.34800298212E+02  0.19737609548E+02 -0.40032274883E+02  0.56791786542E+02  0.47000000000E+01 0. -1.
        -13    1    6    6    0    0 -0.81321072037E+02 -0.84436092321E+02 -0.84511567364E+02  0.14451565819E+03  0.00000000000E+00 0.  1.
         14    1    6    6    0    0 -0.15452978835E+02 -0.11111517994E+03 -0.32140710074E+02  0.11669791348E+03  0.00000000000E+00 0. -1.
         -5    1    3    3    0  503  0.73454870247E+02  0.15998362027E+03 -0.90948178292E+02  0.19820201274E+03  0.47000000000E+01 0.  1.
         11    1    4    4    0    0  0.93411417830E+01 -0.23633488201E+02 -0.44158098117E+02  0.50948369196E+02  0.00000000000E+00 0. -1.
        -12    1    4    4    0    0  0.48778337054E+02  0.39463530637E+02 -0.63336959835E+01  0.63061970481E+02  0.00000000000E+00 0.  1.
</event>
<event>
12    1  0.9962621E-001  0.3027299E+03  0.7818608E-02  0.1083889E+00
         21   -1    0    0  503  502  0.00000000000E+00  0.00000000000E+00  0.59094859681E+03  0.59094859681E+03  0.00000000000E+00 0. -1.
         21   -1    0    0  501  503 -0.00000000000E+00 -0.00000000000E+00 -0.19682975757E+03  0.19682975757E+03  0.00000000000E+00 0.  1.
          6    2    1    2  501    0  0.22470699252E+03 -0.10898296641E+03  0.37852291373E+03  0.48469060594E+03  0.17109900004E+03 0.  0.
         24    2    3    3    0    0  0.60231836490E+02 -0.75050967131E+02  0.22362372997E+03  0.25617516958E+03  0.79734704547E+02 0.  0.
         -6    2    1    2    0  502 -0.22470699252E+03  0.10898296641E+03  0.15595925513E+02  0.30308774844E+03  0.17102172643E+03 0.  0.
        -24    2    5    5    0    0 -0.15990604116E+03  0.10606346326E+03  0.69458838566E+02  0.21864255795E+03  0.78489729605E+02 0.  0.
          5    1    3    3  501    0  0.16447515603E+03 -0.33931999281E+02  0.15489918376E+03  0.22851543636E+03  0.47000000000E+01 0. -1.
        -13    1    4    4    0    0 -0.63005724455E+01  0.88988305771E+01  0.57401962603E+02  0.58428346797E+02  0.00000000000E+00 0.  1.
         14    1    4    4    0    0  0.66532408936E+02 -0.83949797708E+02  0.16622176737E+03  0.19774682278E+03  0.00000000000E+00 0. -1.
         -5    1    5    5    0  502 -0.64800951352E+02  0.29195031530E+01 -0.53862913053E+02  0.84445190492E+02  0.47000000000E+01 0.  1.
         11    1    6    6    0    0 -0.59701426260E+02  0.66705320315E+02 -0.18004694128E+01  0.89538269728E+02  0.00000000000E+00 0. -1.
        -12    1    6    6    0    0 -0.10020461490E+03  0.39358142944E+02  0.71259307979E+02  0.12910428822E+03  0.00000000000E+00 0.  1.
</event>
<event>
12    1  0.9962621E-001  0.2006125E+03  0.7818608E-02  0.1149486E+00
         21   -1    0    0  501  502  0.00000000000E+00  0.00000000000E+00  0.45675368120E+03  0.45675368120E+03  0.00000000000E+00 0.  1.
         21   -1    0    0  502  503 -0.00000000000E+00 -0.00000000000E+00 -0.87648774679E+02  0.87648774679E+02  0.00000000000E+00 0.  1.
         -6    2    1    2    0  503 -0.77985804418E+02  0.66200599847E+02  0.17672210512E+03  0.26735008499E+03  0.17257189921E+03 0.  0.
        -24    2    3    3    0    0 -0.11393461007E+03  0.18018943585E+02  0.11675794467E+03  0.18231139282E+03  0.79367805869E+02 0.  0.
          6    2    1    2  501    0  0.77985804418E+02 -0.66200599847E+02  0.19238280139E+03  0.27705237088E+03  0.17112150312E+03 0.  0.
         24    2    5    5    0    0  0.50786649748E+01 -0.90424908293E+02  0.12753124719E+03  0.17640406149E+03  0.81558059206E+02 0.  0.
          5    1    5    5  501    0  0.72907139443E+02  0.24224308446E+02  0.64851554199E+02  0.10064830939E+03  0.47000000000E+01 0. -1.
        -13    1    6    6    0    0  0.29732891372E+02 -0.97417448175E+01  0.62461722652E+02  0.69859954324E+02  0.00000000000E+00 0.  1.
         14    1    6    6    0    0 -0.24654226398E+02 -0.80683163476E+02  0.65069524543E+02  0.10654410717E+03  0.00000000000E+00 0. -1.
         -5    1    3    3    0  503  0.35948805651E+02  0.48181656262E+02  0.59964160451E+02  0.85038692173E+02  0.47000000000E+01 0.  1.
         13    1    4    4    0    0 -0.15860607248E+02  0.66836980045E+01  0.71792679686E+02  0.73826956715E+02  0.00000000000E+00 0. -1.
        -14    1    4    4    0    0 -0.98074002821E+02  0.11335245580E+02  0.44965264985E+02  0.10848443610E+03  0.00000000000E+00 0.  1.
</event>
<event>
12    1  0.9962621E-001  0.3826086E+03  0.7818608E-02  0.1050073E+00
         21   -1    0    0  503  502  0.00000000000E+00  0.00000000000E+00  0.28623213707E+03  0.28623213707E+03  0.00000000000E+00 0. -1.
         21   -1    0    0  501  503 -0.00000000000E+00 -0.00000000000E+00 -0.51014750361E+03  0.51014750361E+03  0.00000000000E+00 0.  1.
          6    2    1    2  501    0  0.30648721207E+03 -0.15116551992E+03 -0.10521336799E+03  0.39681130592E+03  0.17205793829E+03 0.  0.
         24    2    3    3    0    0  0.26471154255E+03 -0.14655036706E+03 -0.42503030074E+02  0.32117280593E+03  0.98976021616E+02 0.  0.
         -6    2    1    2    0  502 -0.30648721207E+03  0.15116551992E+03 -0.11870199855E+03  0.39956833476E+03  0.16964452278E+03 0.  0.
        -24    2    5    5    0    0 -0.19905192389E+03  0.13306918028E+03 -0.20492939810E+02  0.25281368280E+03  0.78522114611E+02 0.  0.
          5    1    3    3  501    0  0.41775669516E+02 -0.46151528544E+01 -0.62710337918E+02  0.75638499993E+02  0.47000000000E+01 0. -1.
        -13    1    4    4    0    0  0.35726152370E+02  0.77124258707E+01 -0.25468642821E+02  0.44547628928E+02  0.00000000000E+00 0.  1.
         14    1    4    4    0    0  0.22898539018E+03 -0.15426279293E+03 -0.17034387253E+02  0.27662517700E+03  0.00000000000E+00 0. -1.
         -5    1    5    5    0  502 -0.10743528818E+03  0.18096339635E+02 -0.98209058737E+02  0.14675465196E+03  0.47000000000E+01 0.  1.
         13    1    6    6    0    0 -0.16404279699E+03  0.10050663422E+03 -0.47143433665E+02  0.19807606141E+03  0.00000000000E+00 0. -1.
        -14    1    6    6    0    0 -0.35009126898E+02  0.32562546062E+02  0.26650493855E+02  0.54737621385E+02  0.00000000000E+00 0.  1.
</event>
<event>
12    1  0.9962621E-001  0.2602975E+03  0.7818608E-02  0.1108339E+00
         21   -1    0    0  503  502  0.00000000000E+00  0.00000000000E+00  0.41266899519E+03  0.41266899519E+03  0.00000000000E+00 0.  1.
         21   -1    0    0  501  503 -0.00000000000E+00 -0.00000000000E+00 -0.16858365749E+03  0.16858365749E+03  0.00000000000E+00 0. -1.
          6    2    1    2  501    0 -0.17659217686E+03 -0.45875302050E+02  0.19087361609E+03  0.31557189900E+03  0.17281072262E+03 0.  0.
         24    2    3    3    0    0 -0.58962614645E+02 -0.60564677356E+02  0.34534620767E+02  0.11931578288E+03  0.76804595856E+02 0.  0.
         -6    2    1    2    0  502  0.17659217686E+03  0.45875302050E+02  0.53211721603E+02  0.26568075368E+03  0.18564868783E+03 0.  0.
        -24    2    5    5    0    0  0.12075362372E+03 -0.16775400100E+02 -0.29996021841E+02  0.14740703274E+03  0.77241312026E+02 0.  0.
          5    1    3    3  501    0 -0.11762956222E+03  0.14689375306E+02  0.15633899533E+03  0.19625611612E+03  0.47000000000E+01 0. -1.
        -13    1    4    4    0    0 -0.21134854512E+02  0.11501640282E+02  0.29077341808E+02  0.37742040367E+02  0.00000000000E+00 0.  1.
         14    1    4    4    0    0 -0.37827760132E+02 -0.72066317638E+02  0.54572789593E+01  0.81573742516E+02  0.00000000000E+00 0. -1.
         -5    1    5    5    0  502  0.55838553137E+02  0.62650702150E+02  0.83207743445E+02  0.11827372094E+03  0.47000000000E+01 0.  1.
         11    1    6    6    0    0  0.96456064674E+02  0.69151171032E+01  0.73049245411E+01  0.96979137857E+02  0.00000000000E+00 0. -1.
        -12    1    6    6    0    0  0.24297559050E+02 -0.23690517203E+02 -0.37300946382E+02  0.50427894882E+02  0.00000000000E+00 0.  1.
</event>
<event>
12    1  0.9962621E-001  0.1796367E+03  0.7818608E-02  0.1168156E+00
         21   -1    0    0  501  502  0.00000000000E+00  0.00000000000E+00  0.86187454420E+03  0.86187454420E+03  0.00000000000E+00 0.  1.
         21   -1    0    0  502  503 -0.00000000000E+00 -0.00000000000E+00 -0.39856779118E+02  0.39856779118E+02  0.00000000000E+00 0.  1.
         -6    2    1    2    0  503  0.17558066525E+02 -0.48286942847E+02  0.52201893375E+03  0.55206197209E+03  0.17213000694E+03 0.  0.
        -24    2    3    3    0    0  0.41121713425E+02 -0.18662113296E+02  0.49837188925E+03  0.50718270411E+03  0.82586231079E+02 0.  0.
          6    2    1    2  501    0 -0.17558066525E+02  0.48286942847E+02  0.29999883134E+03  0.34966935123E+03  0.17213204767E+03 0.  0.
         24    2    5    5    0    0 -0.59803178166E+02  0.25243550389E+02  0.96947333478E+02  0.14094070399E+03  0.79068575418E+02 0.  0.
          5    1    5    5  501    0  0.42245111641E+02  0.23043392458E+02  0.20305149786E+03  0.20872864724E+03  0.47000000000E+01 0. -1.
        -11    1    6    6    0    0 -0.10137578401E+02 -0.10937126225E+02  0.73779214329E+02  0.75271267379E+02  0.00000000000E+00 0.  1.
         12    1    6    6    0    0 -0.49665599765E+02  0.36180676615E+02  0.23168119149E+02  0.65669436614E+02  0.00000000000E+00 0. -1.
         -5    1    3    3    0  503 -0.23563646900E+02 -0.29624829551E+02  0.23647044494E+02  0.44879267980E+02  0.47000000000E+01 0.  1.
         13    1    4    4    0    0 -0.22315751706E+02 -0.20943990268E+02  0.15500273104E+03  0.15799522187E+03  0.00000000000E+00 0. -1.
        -14    1    4    4    0    0  0.63437465131E+02  0.22818769719E+01  0.34336915821E+03  0.34918748224E+03  0.00000000000E+00 0.  1.
</event>
<event>
12    1  0.9962621E-001  0.4352511E+03  0.7818608E-02  0.1032283E+00
         21   -1    0    0  503  502  0.00000000000E+00  0.00000000000E+00  0.61929118095E+03  0.61929118095E+03  0.00000000000E+00 0. -1.
         21   -1    0    0  501  503 -0.00000000000E+00 -0.00000000000E+00 -0.39088567952E+03  0.39088567952E+03  0.00000000000E+00 0.  1.
          6    2    1    2  501    0 -0.89712102049E+02  0.39069173795E+03  0.35048172511E+03  0.55813022681E+03  0.16728303884E+03 0.  0.
         24    2    3    3    0    0 -0.44162988911E+02  0.10768665284E+03  0.69282950093E+02  0.15655652127E+03  0.78504983215E+02 0.  0.
         -6    2    1    2    0  502  0.89712102049E+02 -0.39069173795E+03 -0.12207622368E+03  0.45204663367E+03  0.16957375761E+03 0.  0.
        -24    2    5    5    0    0  0.50652655080E+01 -0.83049186594E+02 -0.40604274826E+02  0.12270062293E+03  0.80522738559E+02 0.  0.
          5    1    3    3  501    0 -0.45549113137E+02  0.28300508511E+03  0.28119877502E+03  0.40157370553E+03  0.47000000000E+01 0. -1.
        -13    1    4    4    0    0 -0.64807779532E+02  0.62819461684E+02  0.52380062233E+02  0.10435518183E+03  0.00000000000E+00 0.  1.
         14    1    4    4    0    0  0.20644790621E+02  0.44867191156E+02  0.16902887860E+02  0.52201339447E+02  0.00000000000E+00 0. -1.
         -5    1    5    5    0  502  0.84646836541E+02 -0.30764255135E+03 -0.81471948856E+02  0.32934601074E+03  0.47000000000E+01 0.  1.
         11    1    6    6    0    0 -0.30487603054E+02 -0.33174408260E+02  0.63807206012E+01  0.45505482074E+02  0.00000000000E+00 0. -1.
        -12    1    6    6    0    0  0.35552868562E+02 -0.49874778334E+02 -0.46984995427E+02  0.77195140858E+02  0.00000000000E+00 0.  1.
</event>
<event>
12    1  0.9962621E-001  0.1957136E+03  0.7818608E-02  0.1153611E+00
         21   -1    0    0  501  502  0.00000000000E+00  0.00000000000E+00  0.53215079179E+02  0.53215079179E+02  0.00000000000E+00 0.  1.
         21   -1    0    0  502  503 -0.00000000000E+00 -0.00000000000E+00 -0.71989039561E+03  0.71989039561E+03  0.00000000000E+00 0.  1.
         -6    2    1    2    0  503 -0.91940405307E+02  0.58069750834E+01 -0.35970986037E+03  0.40905654748E+03  0.17160803101E+03 0.  0.
        -24    2    3    3    0    0 -0.85080109918E+02 -0.44899076209E+02 -0.32130321632E+03  0.34490572834E+03  0.80434149926E+02 0.  0.
          6    2    1    2  501    0  0.91940405307E+02 -0.58069750834E+01 -0.30696545606E+03  0.36404892730E+03  0.17267620324E+03 0.  0.
         24    2    5    5    0    0  0.52494258826E+02  0.55715743602E+02 -0.24163564223E+03  0.26591066788E+03  0.80379154028E+02 0.  0.
          5    1    5    5  501    0  0.39446146481E+02 -0.61522718686E+02 -0.65329813835E+02  0.98138259422E+02  0.47000000000E+01 0. -1.
        -11    1    6    6    0    0  0.30904840620E+02  0.41643922246E+02 -0.48308177757E+02  0.70873164682E+02  0.00000000000E+00 0.  1.
         12    1    6    6    0    0  0.21589418206E+02  0.14071821356E+02 -0.19332746447E+03  0.19503750320E+03  0.00000000000E+00 0. -1.
         -5    1    3    3    0  503 -0.68602953891E+01  0.50706051292E+02 -0.38406644047E+02  0.64150819148E+02  0.47000000000E+01 0.  1.
         13    1    4    4    0    0 -0.16571261760E+02 -0.17725094221E+01 -0.35988602856E+01  0.17049935523E+02  0.00000000000E+00 0. -1.
        -14    1    4    4    0    0 -0.68508848157E+02 -0.43126566787E+02 -0.31770435603E+03  0.32785579281E+03  0.00000000000E+00 0.  1.
</event>
<event>
12    1  0.9962621E-001  0.4062074E+03  0.7818608E-02  0.1041665E+00
         21   -1    0    0  501  502  0.00000000000E+00  0.00000000000E+00  0.22542152222E+03  0.22542152222E+03  0.00000000000E+00 0.  1.
         21   -1    0    0  502  503 -0.00000000000E+00 -0.00000000000E+00 -0.75845655292E+03  0.75845655292E+03  0.00000000000E+00 0.  1.
         -6    2    1    2    0  503 -0.74100731316E+02 -0.36088976716E+03 -0.35889463576E+03  0.54191730822E+03  0.17069466000E+03 0.  0.
        -24    2    3    3    0    0 -0.65367953330E+02 -0.34955414107E+03 -0.27531859871E+03  0.45699498018E+03  0.81135776683E+02 0.  0.
          6    2    1    2  501    0  0.74100731316E+02  0.36088976716E+03 -0.17414039495E+03  0.44196076692E+03  0.17109091128E+03 0.  0.
         24    2    5    5    0    0 -0.78781237709E+01  0.20720762107E+03 -0.51234745210E+02  0.22873172705E+03  0.81829950369E+02 0.  0.
          5    1    5    5  501    0  0.81978855087E+02  0.15368214609E+03 -0.12290564974E+03  0.21322903987E+03  0.47000000000E+01 0. -1.
        -11    1    6    6    0    0  0.20244066024E+02  0.35107249837E+02 -0.35084017469E+02  0.53602513767E+02  0.00000000000E+00 0.  1.
         12    1    6    6    0    0 -0.28122189795E+02  0.17210037123E+03 -0.16150727740E+02  0.17512921328E+03  0.00000000000E+00 0. -1.
         -5    1    3    3    0  503 -0.87327779858E+01 -0.11335626091E+02 -0.83576037049E+02  0.84922328036E+02  0.47000000000E+01 0.  1.
         13    1    4    4    0    0 -0.27980364919E+02 -0.27046844171E+02 -0.41522291010E+02  0.56908112351E+02  0.00000000000E+00 0. -1.
        -14    1    4    4    0    0 -0.37387588412E+02 -0.32250729690E+03 -0.23379630770E+03  0.40008686783E+03  0.00000000000E+00 0.  1.
</event>
<event>
12    1  0.9962621E-001  0.1742467E+03  0.7818608E-02  0.1174129E+00
         21   -1    0    0  501  502  0.00000000000E+00  0.00000000000E+00  0.15773729432E+03  0.15773729432E+03  0.00000000000E+00 0.  1.
         21   -1    0    0  502  503 -0.00000000000E+00 -0.00000000000E+00 -0.24303805705E+03  0.24303805705E+03  0.00000000000E+00 0.  1.
         -6    2    1    2    0  503 -0.15602765305E+02 -0.94628643808E+00 -0.13674617227E+03  0.22149812057E+03  0.17354411556E+03 0.  0.
        -24    2    3    3    0    0  0.14389383595E+02  0.13536418919E+02 -0.16043333703E+03  0.18035872918E+03  0.80000791020E+02 0.  0.
          6    2    1    2  501    0  0.15602765305E+02  0.94628643808E+00  0.51445409536E+02  0.17927723080E+03  0.17102442392E+03 0.  0.
         24    2    5    5    0    0  0.45571553452E+02 -0.51977767869E+02  0.11701988413E+02  0.10647123304E+03  0.80129470834E+02 0.  0.
          5    1    5    5  501    0 -0.29968788147E+02  0.52924054307E+02  0.39743421123E+02  0.72805997760E+02  0.47000000000E+01 0. -1.
        -13    1    6    6    0    0  0.55586826500E+02 -0.21462405866E+02 -0.18492056213E+02  0.62389793147E+02  0.00000000000E+00 0.  1.
         14    1    6    6    0    0 -0.10015273049E+02 -0.30515362003E+02  0.30194044626E+02  0.44081439895E+02  0.00000000000E+00 0. -1.
         -5    1    3    3    0  503 -0.29992148900E+02 -0.14482705357E+02  0.23687164760E+02  0.41139391396E+02  0.47000000000E+01 0.  1.
         13    1    4    4    0    0  0.27699913146E+02  0.15306715769E+02 -0.16295314262E+02  0.35596601001E+02  0.00000000000E+00 0. -1.
        -14    1    4    4    0    0 -0.13310529551E+02 -0.17702968495E+01 -0.14413802276E+03  0.14476212818E+03  0.00000000000E+00 0.  1.
</event>
<event>
12    1  0.9962621E-001  0.2833336E+03  0.7818608E-02  0.1093956E+00
         21   -1    0    0  501  502  0.00000000000E+00  0.00000000000E+00  0.70284540568E+02  0.70284540568E+02  0.00000000000E+00 0. -1.
         21   -1    0    0  502  503 -0.00000000000E+00 -0.00000000000E+00 -0.15897102548E+04  0.15897102548E+04  0.00000000000E+00 0. -1.
         -6    2    1    2    0  503 -0.22135788204E+03  0.87840705341E+01 -0.12017081861E+04  0.12346580576E+04  0.17663941409E+03 0.  0.
        -24    2    3    3    0    0 -0.73173562356E+02 -0.53662123235E+02 -0.57142119003E+03  0.58416447021E+03  0.80572688530E+02 0.  0.
          6    2    1    2  501    0  0.22135788204E+03 -0.87840705341E+01 -0.31771752811E+03  0.42533673783E+03  0.17575676671E+03 0.  0.
         24    2    5    5    0    0  0.52900525759E+02  0.71770528728E+01 -0.50669221582E+02  0.10915715853E+03  0.80609797975E+02 0.  0.
          5    1    5    5  501    0  0.16845735628E+03 -0.15961123407E+02 -0.26704830653E+03  0.31617957930E+03  0.47000000000E+01 0. -1.
        -13    1    6    6    0    0  0.90874299655E+01 -0.29382970381E+01 -0.62044278393E+02  0.62775054394E+02  0.00000000000E+00 0.  1.
         14    1    6    6    0    0  0.43813095794E+02  0.10115349911E+02  0.11375056811E+02  0.46382104139E+02  0.00000000000E+00 0. -1.
         -5    1    3    3    0  503 -0.14818431968E+03  0.62446193769E+02 -0.63028699611E+03  0.65049358735E+03  0.47000000000E+01 0.  1.
         13    1    4    4    0    0 -0.15416358204E+02 -0.44728014722E+02 -0.12022291062E+03  0.12919677875E+03  0.00000000000E+00 0. -1.
        -14    1    4    4    0    0 -0.57757204152E+02 -0.89341085130E+01 -0.45119827941E+03  0.45496769146E+03  0.00000000000E+00 0.  1.
</event>
<event>
12    1  0.9962621E-001  0.2336480E+03  0.7818608E-02  0.1124199E+00
         21   -1    0    0  503  502  0.00000000000E+00  0.00000000000E+00  0.81571626163E+02  0.81571626163E+02  0.00000000000E+00 0. -1.
         21   -1    0    0  501  503 -0.00000000000E+00 -0.00000000000E+00 -0.73707534213E+03  0.73707534213E+03  0.00000000000E+00 0. -1.
          6    2    1    2  501    0 -0.14138132074E+03  0.68896715292E+02 -0.20168728488E+03  0.30821507106E+03  0.17199806370E+03 0.  0.
         24    2    3    3    0    0 -0.84749791718E+02  0.31647934392E+02 -0.20753379054E+03  0.24001775890E+03  0.79712805888E+02 0.  0.
         -6    2    1    2    0  502  0.14138132074E+03 -0.68896715292E+02 -0.45381643108E+03  0.51043189722E+03  0.17278869567E+03 0.  0.
        -24    2    5    5    0    0  0.56669359659E+02  0.15455793992E+02 -0.27421234005E+03  0.29462832522E+03  0.90350122832E+02 0.  0.
          5    1    3    3  501    0 -0.56631529022E+02  0.37248780900E+02  0.58465056629E+01  0.68197312164E+02  0.47000000000E+01 0. -1.
        -13    1    4    4    0    0  0.74820016878E+01  0.25556087477E+02 -0.31965331311E+02  0.41603802256E+02  0.00000000000E+00 0.  1.
         14    1    4    4    0    0 -0.92231793406E+02  0.60918469151E+01 -0.17556845923E+03  0.19841395664E+03  0.00000000000E+00 0. -1.
         -5    1    5    5    0  502  0.84711961081E+02 -0.84352509284E+02 -0.17960409103E+03  0.21580357200E+03  0.47000000000E+01 0.  1.
         13    1    6    6    0    0 -0.11379354757E+02 -0.16712639387E+02 -0.16341748340E+02  0.25997206942E+02  0.00000000000E+00 0. -1.
        -14    1    6    6    0    0  0.68048714417E+02  0.32168433379E+02 -0.25787059171E+03  0.26863111828E+03  0.00000000000E+00 0.  1.
</event>
<event>
12    1  0.9962621E-001  0.4150098E+03  0.7818608E-02  0.1038716E+00
         21   -1    0    0  501  502  0.00000000000E+00  0.00000000000E+00  0.80492060571E+03  0.80492060571E+03  0.00000000000E+00 0. -1.
         21   -1    0    0  502  503 -0.00000000000E+00 -0.00000000000E+00 -0.44327464930E+03  0.44327464930E+03  0.00000000000E+00 0. -1.
         -6    2    1    2    0  503 -0.14244976259E+03 -0.35005394497E+03 -0.26810534408E+03  0.49407857916E+03  0.17147439343E+03 0.  0.
        -24    2    3    3    0    0 -0.79384873360E+02 -0.89763764182E+02 -0.13276205305E+03  0.19396517576E+03  0.75081523695E+02 0.  0.
          6    2    1    2  501    0  0.14244976259E+03  0.35005394497E+03  0.62975130049E+03  0.75411667585E+03  0.17110102592E+03 0.  0.
         24    2    5    5    0    0  0.16767042036E+03  0.31786421103E+03  0.52322402105E+03  0.63991329668E+03  0.81084058525E+02 0.  0.
          5    1    5    5  501    0 -0.25220657765E+02  0.32189733948E+02  0.10652727944E+03  0.11420337917E+03  0.47000000000E+01 0. -1.
        -13    1    6    6    0    0  0.69748035223E+02  0.68430259534E+02  0.17609774981E+03  0.20138993601E+03  0.00000000000E+00 0.  1.
         14    1    6    6    0    0  0.97922385133E+02  0.24943395149E+03  0.34712627124E+03  0.43852336067E+03  0.00000000000E+00 0. -1.
         -5    1    3    3    0  503 -0.63064889231E+02 -0.26029018079E+03 -0.13534329103E+03  0.30011340340E+03  0.47000000000E+01 0.  1.
         11    1    4    4    0    0 -0.49223839801E+02 -0.68629700794E+02 -0.13250904622E+03  0.15713583158E+03  0.00000000000E+00 0. -1.
        -12    1    4    4    0    0 -0.30161033559E+02 -0.21134063388E+02 -0.25300682998E+00  0.36829344185E+02  0.00000000000E+00 0.  1.
</event>
<event>
12    1  0.9962621E-001  0.2640801E+03  0.7818608E-02  0.1104722E+00
         21   -1    0    0  503  502  0.00000000000E+00  0.00000000000E+00  0.96601497920E+03  0.96601497920E+03  0.00000000000E+00 0.  1.
         21   -1    0    0  501  503 -0.00000000000E+00 -0.00000000000E+00 -0.82681037333E+02  0.82681037333E+02  0.00000000000E+00 0.  1.
          6    2    1    2  501    0 -0.16489829154E+03 -0.11363356285E+03  0.62854591144E+03  0.68176847880E+03  0.17214605060E+03 0.  0.
         24    2    3    3    0    0 -0.39985914523E+02 -0.10503410662E+03  0.31958155835E+03  0.34836464850E+03  0.81206643639E+02 0.  0.
         -6    2    1    2    0  502  0.16489829154E+03  0.11363356285E+03  0.25478803042E+03  0.36692753773E+03  0.17208964041E+03 0.  0.
        -24    2    5    5    0    0  0.17947965854E+03  0.11297021155E+03  0.26492638189E+03  0.34854459811E+03  0.79511838850E+02 0.  0.
          5    1    3    3  501    0 -0.12491237702E+03 -0.85994562299E+01  0.30896435309E+03  0.33340383030E+03  0.47000000000E+01 0. -1.
        -11    1    4    4    0    0  0.79839251236E+00  0.75001938946E+01  0.48646299949E+00  0.75582395642E+01  0.00000000000E+00 0.  1.
         12    1    4    4    0    0 -0.40784307036E+02 -0.11253430052E+03  0.31909509535E+03  0.34080640893E+03  0.00000000000E+00 0. -1.
         -5    1    5    5    0  502 -0.14581367002E+02  0.66335129915E+00 -0.10138351472E+02  0.18382939622E+02  0.47000000000E+01 0.  1.
         13    1    6    6    0    0  0.12507105777E+03  0.57105654659E+02  0.11377137448E+03  0.17845938175E+03  0.00000000000E+00 0. -1.
        -14    1    6    6    0    0  0.54408600777E+02  0.55864556893E+02  0.15115500742E+03  0.17008521636E+03  0.00000000000E+00 0.  1.
</event>
<event>
12    1  0.9962621E-001  0.1880851E+03  0.7818608E-02  0.1160663E+00
         21   -1    0    0  501  502  0.00000000000E+00  0.00000000000E+00  0.36916311269E+03  0.36916311269E+03  0.00000000000E+00 0. -1.
         21   -1    0    0  502  503 -0.00000000000E+00 -0.00000000000E+00 -0.94851281655E+02  0.94851281655E+02  0.00000000000E+00 0. -1.
         -6    2    1    2    0  503 -0.68018751207E+02  0.35025985338E+02  0.14315232147E+03  0.23636539683E+03  0.17182154554E+03 0.  0.
        -24    2    3    3    0    0 -0.45624561644E+02  0.41299565919E+02  0.16910044335E+03  0.20120501333E+03  0.90006903492E+02 0.  0.
          6    2    1    2  501    0  0.68018751207E+02 -0.35025985338E+02  0.13115950956E+03  0.22764899751E+03  0.16961096355E+03 0.  0.
         24    2    5    5    0    0 -0.18644342701E+02 -0.22811140431E+02  0.40322585199E+02  0.10142249036E+03  0.88275993510E+02 0.  0.
          5    1    5    5  501    0  0.86663093908E+02 -0.12214844908E+02  0.90836924361E+02  0.12622650716E+03  0.47000000000E+01 0. -1.
        -13    1    6    6    0    0 -0.87103488531E+01  0.25764566481E+02 -0.11655407810E+02  0.29589383135E+02  0.00000000000E+00 0.  1.
         14    1    6    6    0    0 -0.99339938484E+01 -0.48575706911E+02  0.51977993009E+02  0.71833107220E+02  0.00000000000E+00 0. -1.
         -5    1    3    3    0  503 -0.22394189563E+02 -0.62735805811E+01 -0.25948121874E+02  0.35160383506E+02  0.47000000000E+01 0.  1.
         11    1    4    4    0    0  0.43859470092E+00  0.56757242548E+02  0.64801982945E+02  0.86144494546E+02  0.00000000000E+00 0. -1.
        -12    1    4    4    0    0 -0.46063156345E+02 -0.15457676629E+02  0.10429846040E+03  0.11506051878E+03  0.00000000000E+00 0.  1.
</event>
<event>
12    1  0.9962621E-001  0.2226585E+03  0.7818608E-02  0.1131929E+00
         21   -1    0    0  503  502  0.00000000000E+00  0.00000000000E+00  0.59801030829E+02  0.59801030829E+02  0.00000000000E+00 0.  1.
         21   -1    0    0  501  503 -0.00000000000E+00 -0.00000000000E+00 -0.11949397174E+04  0.11949397174E+04  0.00000000000E+00 0.  1.
          6    2    1    2  501    0 -0.11678576462E+03  0.80289895752E+02 -0.91491451025E+03  0.94161847321E+03  0.17173061998E+03 0.  0.
         24    2    3    3    0    0 -0.11087832633E+03  0.33812712355E+01 -0.70053191478E+03  0.71373292827E+03  0.79776519223E+02 0.  0.
         -6    2    1    2    0  502  0.11678576462E+03 -0.80289895752E+02 -0.22022417629E+03  0.31312227500E+03  0.17164349419E+03 0.  0.
        -24    2    5    5    0    0  0.15011399414E+03 -0.77534324410E+02 -0.19873378265E+03  0.27309364679E+03  0.80865572750E+02 0.  0.
          5    1    3    3  501    0 -0.59074382855E+01  0.76908624517E+02 -0.21438259547E+03  0.22788554494E+03  0.47000000000E+01 0. -1.
        -11    1    4    4    0    0 -0.70439273345E+01 -0.27006531041E+02 -0.11969102709E+03  0.12290204065E+03  0.00000000000E+00 0.  1.
         12    1    4    4    0    0 -0.10383439900E+03  0.30387802277E+02 -0.58084088769E+03  0.59083088761E+03  0.00000000000E+00 0. -1.
         -5    1    5    5    0  502 -0.33328229524E+02 -0.27555713418E+01 -0.21490393647E+02  0.40028628202E+02  0.47000000000E+01 0.  1.
         13    1    6    6    0    0  0.20765759185E+02 -0.38490847159E+02 -0.88504655427E+02  0.98721001321E+02  0.00000000000E+00 0. -1.
        -14    1    6    6    0    0  0.12934823496E+03 -0.39043477251E+02 -0.11022912722E+03  0.17437264547E+03  0.00000000000E+00 0.  1.
</event>
<event>
12    1  0.9962621E-001  0.2171048E+03  0.7818608E-02  0.1136140E+00
         21   -1    0    0  503  502  0.00000000000E+00  0.00000000000E+00  0.15713214556E+03  0.15713214556E+03  0.00000000000E+00 0. -1.
         21   -1    0    0  501  503 -0.00000000000E+00 -0.00000000000E+00 -0.70248595650E+03  0.70248595650E+03  0.00000000000E+00 0. -1.
          6    2    1    2  501    0 -0.55401295012E+02 -0.11982899099E+03  0.52794072061E+02  0.22343167191E+03  0.17235488795E+03 0.  0.
         24    2    3    3    0    0 -0.41485275056E+02 -0.14704532410E+03  0.12864712046E+02  0.17292594758E+03  0.79965787327E+02 0.  0.
         -6    2    1    2    0  502  0.55401295012E+02  0.11982899099E+03 -0.59814788301E+03  0.63618643015E+03  0.17182547363E+03 0.  0.
        -24    2    5    5    0    0  0.38474962633E+02  0.15192306300E+03 -0.53403395597E+03  0.56236762613E+03  0.80648254625E+02 0.  0.
          5    1    3    3  501    0 -0.13916019956E+02  0.27216333113E+02  0.39929360015E+02  0.50505724337E+02  0.47000000000E+01 0. -1.
        -11    1    4    4    0    0  0.15342249795E+01 -0.11480173315E+03  0.25700050235E+02  0.11765323779E+03  0.00000000000E+00 0.  1.
         12    1    4    4    0    0 -0.43019500035E+02 -0.32243590951E+02 -0.12835338189E+02  0.55272709786E+02  0.00000000000E+00 0. -1.
         -5    1    5    5    0  502  0.16926332379E+02 -0.32094072010E+02 -0.64113927041E+02  0.73818804017E+02  0.47000000000E+01 0.  1.
         11    1    6    6    0    0  0.37861261399E+02  0.49563953413E+02 -0.30777988492E+03  0.31403585489E+03  0.00000000000E+00 0. -1.
        -12    1    6    6    0    0  0.61370123395E+00  0.10235910958E+03 -0.22625407105E+03  0.24833177124E+03  0.00000000000E+00 0.  1.
</event>
<event>
12    1  0.9962621E-001  0.2665077E+03  0.7818608E-02  0.1104161E+00
         21   -1    0    0  503  502  0.00000000000E+00  0.00000000000E+00  0.12863239189E+04  0.12863239189E+04  0.00000000000E+00 0. -1.
         21   -1    0    0  501  503 -0.00000000000E+00 -0.00000000000E+00 -0.21734527155E+03  0.21734527155E+03  0.00000000000E+00 0. -1.
          6    2    1    2  501    0  0.18328117924E+03 -0.69248015147E+02  0.11877288158E+04  0.12172617231E+04  0.18066290287E+03 0.  0.
         24    2    3    3    0    0  0.24129960104E+02  0.19336042133E+02  0.29658675266E+03  0.30768351735E+03  0.75824188049E+02 0.  0.
         -6    2    1    2    0  502 -0.18328117924E+03  0.69248015147E+02 -0.11875016845E+03  0.28640746730E+03  0.17187308269E+03 0.  0.
        -24    2    5    5    0    0 -0.17863958644E+03  0.10624941009E+03 -0.93230491489E+02  0.24097629382E+03  0.78591415915E+02 0.  0.
          5    1    3    3  501    0  0.15915121913E+03 -0.88584057280E+02  0.89114206312E+03  0.90957820578E+03  0.47000000000E+01 0. -1.
        -11    1    4    4    0    0  0.38770056797E+02 -0.17071640327E+02  0.14114276038E+03  0.14736294315E+03  0.00000000000E+00 0.  1.
         12    1    4    4    0    0 -0.14640096693E+02  0.36407682460E+02  0.15544399228E+03  0.16032057420E+03  0.00000000000E+00 0. -1.
         -5    1    5    5    0  502 -0.46415927991E+01 -0.37001394939E+02 -0.25519676965E+02  0.45431173477E+02  0.47000000000E+01 0.  1.
         11    1    6    6    0    0 -0.14199106737E+02  0.12922593713E+02  0.13857991041E+02  0.23678090635E+02  0.00000000000E+00 0. -1.
        -12    1    6    6    0    0 -0.16444047970E+03  0.93326816373E+02 -0.10708848253E+03  0.21729820319E+03  0.00000000000E+00 0.  1.
</event>
<event>
12    1  0.9962621E-001  0.2788981E+03  0.7818608E-02  0.1096394E+00
         21   -1    0    0  501  502  0.00000000000E+00  0.00000000000E+00  0.71270213200E+03  0.71270213200E+03  0.00000000000E+00 0.  1.
         21   -1    0    0  502  503 -0.00000000000E+00 -0.00000000000E+00 -0.18609261911E+03  0.18609261911E+03  0.00000000000E+00 0. -1.
         -6    2    1    2    0  503 -0.80292531403E+02 -0.20346379442E+03  0.55303874618E+03  0.61938356587E+03  0.17303103956E+03 0.  0.
        -24    2    3    3    0    0 -0.11579556520E+03 -0.11115918523E+03  0.32138372572E+03  0.36745749578E+03  0.77282175595E+02 0.  0.
          6    2    1    2  501    0  0.80292531403E+02  0.20346379442E+03 -0.26429233288E+02  0.27941118525E+03  0.17183625878E+03 0.  0.
         24    2    5    5    0    0 -0.16462531720E+02  0.90029326184E+02  0.19540855068E+02  0.12332063510E+03  0.80310892784E+02 0.  0.
          5    1    5    5  501    0  0.96755063124E+02  0.11343446823E+03 -0.45970088356E+02  0.15609055015E+03  0.47000000000E+01 0. -1.
        -13    1    6    6    0    0  0.40808174098E+01  0.15562423572E+02  0.40248270558E+02  0.43344727258E+02  0.00000000000E+00 0.  1.
         14    1    6    6    0    0 -0.20543349130E+02  0.74466902612E+02 -0.20707415490E+02  0.79975907837E+02  0.00000000000E+00 0. -1.
         -5    1    3    3    0  503  0.35503033797E+02 -0.92304609184E+02  0.23165502046E+03  0.25192607009E+03  0.47000000000E+01 0.  1.
         13    1    4    4    0    0 -0.10040841436E+03 -0.11750006425E+03  0.31240618244E+03  0.34854804203E+03  0.00000000000E+00 0. -1.
        -14    1    4    4    0    0 -0.15387150841E+02  0.63408790212E+01  0.89775432740E+01  0.18909453747E+02  0.00000000000E+00 0.  1.
</event>
<event>
12    1  0.9962621E-001  0.3552317E+03  0.7818608E-02  0.1060503E+00
         21   -1    0    0  501  502  0.00000000000E+00  0.00000000000E+00  0.76280362743E+03  0.76280362743E+03  0.00000000000E+00 0. -1.
         21   -1    0    0  502  503 -0.00000000000E+00 -0.00000000000E+00 -0.26248200242E+03  0.26248200242E+03  0.00000000000E+00 0. -1.
         -6    2    1    2    0  503 -0.94669140775E+01 -0.31069089105E+03  0.56202746844E+03  0.66487928504E+03  0.17196260103E+03 0.  0.
        -24    2    3    3    0    0 -0.20093645579E+02 -0.99744276977E+02  0.30972874732E+03  0.33580765745E+03  0.80512176092E+02 0.  0.
          6    2    1    2  501    0  0.94669140775E+01  0.31069089105E+03 -0.61705843435E+02  0.36040634481E+03  0.17165858565E+03 0.  0.
         24    2    5    5    0    0 -0.51270646267E+02  0.25746518688E+03 -0.45113110524E+02  0.27782647071E+03  0.78964254353E+02 0.  0.
          5    1    5    5  501    0  0.60737560344E+02  0.53225704170E+02 -0.16592732911E+02  0.82579874101E+02  0.47000000000E+01 0. -1.
        -11    1    6    6    0    0  0.18487775414E+02  0.49857475398E+02 -0.22178794088E+02  0.57614794975E+02  0.00000000000E+00 0.  1.
         12    1    6    6    0    0 -0.69758421681E+02  0.20760771148E+03 -0.22934316435E+02  0.22021167574E+03  0.00000000000E+00 0. -1.
         -5    1    3    3    0  503  0.10626731501E+02 -0.21094661407E+03  0.25229872111E+03  0.32907162759E+03  0.47000000000E+01 0.  1.
         11    1    4    4    0    0  0.31405120408E+02 -0.36624938368E+02  0.11116547453E+03  0.12118345772E+03  0.00000000000E+00 0. -1.
        -12    1    4    4    0    0 -0.51498765986E+02 -0.63119338608E+02  0.19856327280E+03  0.21462419973E+03  0.00000000000E+00 0.  1.
</event>
<event>
12    1  0.9962621E-001  0.2761306E+03  0.7818608E-02  0.1098048E+00
         21   -1    0    0  503  502  0.00000000000E+00  0.00000000000E+00  0.52949709540E+03  0.52949709540E+03  0.00000000000E+00 0.  1.
         21   -1    0    0  501  503 -0.00000000000E+00 -0.00000000000E+00 -0.14359360630E+03  0.14359360630E+03  0.00000000000E+00 0.  1.
          6    2    1    2  501    0  0.88998446596E+02  0.19536586231E+03  0.17489287440E+03  0.32685717380E+03  0.17366505377E+03 0.  0.
         24    2    3    3    0    0  0.10437180326E+03  0.11284241451E+03  0.16983179575E+03  0.24263031319E+03  0.79998413765E+02 0.  0.
         -6    2    1    2    0  502 -0.88998446596E+02 -0.19536586231E+03  0.21101061471E+03  0.34623352789E+03  0.17106616458E+03 0.  0.
        -24    2    5    5    0    0 -0.73043057003E+02 -0.17739323977E+03  0.96311141904E+02  0.22894905032E+03  0.79612699328E+02 0.  0.
          5    1    3    3  501    0 -0.15373356666E+02  0.82523447796E+02  0.50610786496E+01  0.84226860611E+02  0.47000000000E+01 0. -1.
        -13    1    4    4    0    0  0.22744307797E+02 -0.10319388977E+02  0.31753883119E+02  0.40399287359E+02  0.00000000000E+00 0.  1.
         14    1    4    4    0    0  0.81627495466E+02  0.12316180349E+03  0.13807791263E+03  0.20223102583E+03  0.00000000000E+00 0. -1.
         -5    1    5    5    0  502 -0.15955389594E+02 -0.17972622533E+02  0.11469947280E+03  0.11728447757E+03  0.47000000000E+01 0.  1.
         11    1    6    6    0    0 -0.67781266230E+02 -0.11517663466E+03  0.99213361988E+02  0.16644292842E+03  0.00000000000E+00 0. -1.
        -12    1    6    6    0    0 -0.52617907728E+01 -0.62216605113E+02 -0.29022200834E+01  0.62506121903E+02  0.00000000000E+00 0.  1.
</event>
<event>
12    1  0.9962621E-001  0.2286592E+03  0.7818608E-02  0.1128718E+00
         21   -1    0    0  503  502  0.00000000000E+00  0.00000000000E+00  0.38304170808E+03  0.38304170808E+03  0.00000000000E+00 0. -1.
         21   -1    0    0  501  503 -0.00000000000E+00 -0.00000000000E+00 -0.13696170909E+03  0.13696170909E+03  0.00000000000E+00 0. -1.
          6    2    1    2  501    0 -0.34493520145E+01 -0.14821043412E+03  0.16684285908E+03  0.27800429224E+03  0.16574563664E+03 0.  0.
         24    2    3    3    0    0 -0.20048778455E+02 -0.48966069895E+02  0.14962542598E+03  0.17581077585E+03  0.75644109395E+02 0.  0.
         -6    2    1    2    0  502  0.34493520145E+01  0.14821043412E+03  0.79237139913E+02  0.24199912494E+03  0.17408854447E+03 0.  0.
        -24    2    5    5    0    0 -0.39792716917E+02  0.74164195927E+02  0.10146988890E+03  0.15329113745E+03  0.78219218804E+02 0.  0.
          5    1    3    3  501    0  0.16599426440E+02 -0.99244364227E+02  0.17217433098E+02  0.10219351639E+03  0.47000000000E+01 0. -1.
        -13    1    4    4    0    0 -0.26041086899E+02 -0.58636622784E+02  0.68357491884E+02  0.93750404986E+02  0.00000000000E+00 0.  1.
         14    1    4    4    0    0  0.59923084446E+01  0.96705528896E+01  0.81267934098E+02  0.82060370863E+02  0.00000000000E+00 0. -1.
         -5    1    5    5    0  502  0.43242068931E+02  0.74046238195E+02 -0.22232748986E+02  0.88707987486E+02  0.47000000000E+01 0.  1.
         11    1    6    6    0    0 -0.27255773093E+02  0.30843274072E+02 -0.11734640373E+01  0.41177199276E+02  0.00000000000E+00 0. -1.
        -12    1    6    6    0    0 -0.12536943824E+02  0.43320921855E+02  0.10264335294E+03  0.11211393817E+03  0.00000000000E+00 0.  1.
</event>
<event>
12    1  0.9962621E-001  0.2066468E+03  0.7818608E-02  0.1144397E+00
         21   -1    0    0  503  502  0.00000000000E+00  0.00000000000E+00  0.24217976558E+03  0.24217976558E+03  0.00000000000E+00 0. -1.
         21   -1    0    0  501  503 -0.00000000000E+00 -0.00000000000E+00 -0.32357671253E+03  0.32357671253E+03  0.00000000000E+00 0. -1.
          6    2    1    2  501    0  0.10091624454E+03 -0.53536874383E+02 -0.23196728492E+03  0.31066335196E+03  0.17219933695E+03 0.  0.
         24    2    3    3    0    0  0.85777050954E+02  0.45903121342E+01 -0.66718066238E+02  0.13477316102E+03  0.79584741827E+02 0.  0.
         -6    2    1    2    0  502 -0.10091624454E+03  0.53536874383E+02  0.15057033797E+03  0.25509312616E+03  0.17132072556E+03 0.  0.
        -24    2    5    5    0    0 -0.10892250811E+02 -0.21770263709E+02  0.94200212871E+02  0.12480434883E+03  0.78165592633E+02 0.  0.
          5    1    3    3  501    0  0.15139193585E+02 -0.58127186517E+02 -0.16524921868E+03  0.17589019094E+03  0.47000000000E+01 0. -1.
        -13    1    4    4    0    0  0.46304145704E+02 -0.36757081735E+02 -0.25969143949E+02  0.64572079140E+02  0.00000000000E+00 0.  1.
         14    1    4    4    0    0  0.39472905250E+02  0.41347393870E+02 -0.40748922290E+02  0.70201081876E+02  0.00000000000E+00 0. -1.
         -5    1    5    5    0  502 -0.90023993728E+02  0.75307138092E+02  0.56370125101E+02  0.13028877733E+03  0.47000000000E+01 0.  1.
         11    1    6    6    0    0 -0.15076125572E+02 -0.39626823089E+02  0.97362675137E+02  0.10619352702E+03  0.00000000000E+00 0. -1.
        -12    1    6    6    0    0  0.41838747615E+01  0.17856559380E+02 -0.31624622659E+01  0.18610821811E+02  0.00000000000E+00 0.  1.
</event>
<event>
12    1  0.9962621E-001  0.2817493E+03  0.7818608E-02  0.1094738E+00
         21   -1    0    0  501  502  0.00000000000E+00  0.00000000000E+00  0.95278915587E+03  0.95278915587E+03  0.00000000000E+00 0. -1.
         21   -1    0    0  502  503 -0.00000000000E+00 -0.00000000000E+00 -0.83452447801E+02  0.83452447801E+02  0.00000000000E+00 0. -1.
         -6    2    1    2    0  503  0.18013681852E+03  0.13049969968E+03  0.45564846853E+03  0.53572212701E+03  0.17292549115E+03 0.  0.
        -24    2    3    3    0    0  0.10114388087E+03  0.44131153557E+01  0.27552023846E+03  0.30204290198E+03  0.71196577202E+02 0.  0.
          6    2    1    2  501    0 -0.18013681852E+03 -0.13049969968E+03  0.41368823954E+03  0.50051947667E+03  0.17292293655E+03 0.  0.
         24    2    5    5    0    0 -0.40465018132E+02 -0.93062808799E+02  0.13649755509E+03  0.18784312935E+03  0.79720478083E+02 0.  0.
          5    1    5    5  501    0 -0.13967180038E+03 -0.37436890886E+02  0.27719068445E+03  0.31267634731E+03  0.47000000000E+01 0. -1.
        -13    1    6    6    0    0 -0.33911794531E+02 -0.77991673156E+02  0.14592355971E+03  0.16889759077E+03  0.00000000000E+00 0.  1.
         14    1    6    6    0    0 -0.65532236011E+01 -0.15071135643E+02 -0.94260046188E+01  0.18945538583E+02  0.00000000000E+00 0. -1.
         -5    1    3    3    0  503  0.78992937643E+02  0.12608658433E+03  0.18012823007E+03  0.23367922503E+03  0.47000000000E+01 0.  1.
         11    1    4    4    0    0  0.75845137917E+02 -0.20599053934E+02  0.12724625226E+03  0.14956073911E+03  0.00000000000E+00 0. -1.
        -12    1    4    4    0    0  0.25298742956E+02  0.25012169290E+02  0.14827398620E+03  0.15248216286E+03  0.00000000000E+00 0.  1.
</event>
<event>
12    1  0.9962621E-001  0.4774394E+03  0.7818608E-02  0.1019853E+00
         21   -1    0    0  503  502  0.00000000000E+00  0.00000000000E+00  0.15624344972E+03  0.15624344972E+03  0.00000000000E+00 0. -1.
         21   -1    0    0  501  503 -0.00000000000E+00 -0.00000000000E+00 -0.15284108751E+04  0.15284108751E+04  0.00000000000E+00 0. -1.
          6    2    1    2  501    0 -0.20888099452E+03 -0.39291676907E+03 -0.50594298918E+03  0.69564841048E+03  0.17301313653E+03 0.  0.
         24    2    3    3    0    0 -0.22639750493E+03 -0.38058963542E+03 -0.45398017009E+03  0.63924795898E+03  0.80222549217E+02 0.  0.
         -6    2    1    2    0  502  0.20888099452E+03  0.39291676907E+03 -0.86622443619E+03  0.98900591432E+03  0.17254873929E+03 0.  0.
        -24    2    5    5    0    0  0.39219098144E+02  0.19495607939E+03 -0.43575542270E+03  0.48571747286E+03  0.80577071649E+02 0.  0.
          5    1    3    3  501    0  0.17516510408E+02 -0.12327133646E+02 -0.51962819090E+02  0.56400451493E+02  0.47000000000E+01 0. -1.
        -11    1    4    4    0    0 -0.13944483009E+02 -0.70564410840E+02 -0.50783227328E+02  0.88049536407E+02  0.00000000000E+00 0.  1.
         12    1    4    4    0    0 -0.21245302192E+03 -0.31002522458E+03 -0.40319694276E+03  0.55119842258E+03  0.00000000000E+00 0. -1.
         -5    1    5    5    0  502  0.16966189638E+03  0.19796068968E+03 -0.43046901349E+03  0.50328844147E+03  0.47000000000E+01 0.  1.
         13    1    6    6    0    0  0.30986113258E+02  0.15063241035E+02 -0.73088162053E+02  0.80801731898E+02  0.00000000000E+00 0. -1.
        -14    1    6    6    0    0  0.82329848863E+01  0.17989283835E+03 -0.36266726065E+03  0.40491574096E+03  0.00000000000E+00 0.  1.
</event>
<event>
12    1  0.9962621E-001  0.1762168E+03  0.7818608E-02  0.1171580E+00
         21   -1    0    0  501  502  0.00000000000E+00  0.00000000000E+00  0.78519629981E+02  0.78519629981E+02  0.00000000000E+00 0. -1.
         21   -1    0    0  502  503 -0.00000000000E+00 -0.00000000000E+00 -0.42263424966E+03  0.42263424966E+03  0.00000000000E+00 0. -1.
         -6    2    1    2    0  503 -0.17474865685E+02 -0.25632991283E+02 -0.23637981411E+03  0.29483518244E+03  0.17346454136E+03 0.  0.
        -24    2    3    3    0    0  0.20656832416E+02  0.11279016974E+02 -0.22525205726E+03  0.24040688349E+03  0.80641548725E+02 0.  0.
          6    2    1    2  501    0  0.17474865685E+02  0.25632991283E+02 -0.10773480557E+03  0.20631869720E+03  0.17319987099E+03 0.  0.
         24    2    5    5    0    0 -0.53387604197E+02 -0.72468685913E+01 -0.67063431607E+02  0.11812104711E+03  0.80946429965E+02 0.  0.
          5    1    5    5  501    0  0.70862469881E+02  0.32879859874E+02 -0.40671373959E+02  0.88197650098E+02  0.47000000000E+01 0. -1.
        -11    1    6    6    0    0 -0.12942164415E+02 -0.36985072138E+02 -0.53139607228E+02  0.66024336704E+02  0.00000000000E+00 0.  1.
         12    1    6    6    0    0 -0.40445439782E+02  0.29738203547E+02 -0.13923824379E+02  0.52096710402E+02  0.00000000000E+00 0. -1.
         -5    1    3    3    0  503 -0.38131698101E+02 -0.36912008257E+02 -0.11127756854E+02  0.54428298947E+02  0.47000000000E+01 0.  1.
         13    1    4    4    0    0  0.80354338120E+00  0.28662806131E+02 -0.23886996771E+02  0.37320111897E+02  0.00000000000E+00 0. -1.
        -14    1    4    4    0    0  0.19853289035E+02 -0.17383789157E+02 -0.20136506049E+03  0.20308677159E+03  0.00000000000E+00 0.  1.
</event>
<event>
12    1  0.9962621E-001  0.1815667E+03  0.7818608E-02  0.1166560E+00
         21   -1    0    0  501  502  0.00000000000E+00  0.00000000000E+00  0.72918690004E+03  0.72918690004E+03  0.00000000000E+00 0. -1.
         21   -1    0    0  502  503 -0.00000000000E+00 -0.00000000000E+00 -0.14419366748E+03  0.14419366748E+03  0.00000000000E+00 0. -1.
         -6    2    1    2    0  503 -0.42831820674E+02 -0.34397061682E+02  0.65453048373E+03  0.67895342697E+03  0.17190078288E+03 0.  0.
        -24    2    3    3    0    0 -0.24150918026E+02  0.47915347317E+02  0.33128263749E+03  0.34483433309E+03  0.79267799433E+02 0.  0.
          6    2    1    2  501    0  0.42831820674E+02  0.34397061682E+02 -0.69537251171E+02  0.19442714054E+03  0.17305710319E+03 0.  0.
         24    2    5    5    0    0 -0.31425163847E+02 -0.20712772558E+02 -0.43138129840E+02  0.98145277312E+02  0.79718488085E+02 0.  0.
          5    1    5    5  501    0  0.74256984522E+02  0.55109834240E+02 -0.26399121330E+02  0.96281863231E+02  0.47000000000E+01 0. -1.
        -13    1    6    6    0    0  0.18169519818E+02  0.10524335928E+02  0.58053985544E+01  0.21785218602E+02  0.00000000000E+00 0.  1.
         14    1    6    6    0    0 -0.49594683666E+02 -0.31237108486E+02 -0.48943528395E+02  0.76360058710E+02  0.00000000000E+00 0. -1.
         -5    1    3    3    0  503 -0.18680902648E+02 -0.82312408999E+02  0.32324784624E+03  0.33411909388E+03  0.47000000000E+01 0.  1.
         11    1    4    4    0    0  0.14549553799E+02  0.13405657399E+02  0.16361379911E+02  0.25672863468E+02  0.00000000000E+00 0. -1.
        -12    1    4    4    0    0 -0.38700471825E+02  0.34509689918E+02  0.31492125758E+03  0.31916146963E+03  0.00000000000E+00 0.  1.
</event>
<event>
12    1  0.9962621E-001  0.2274942E+03  0.7818608E-02  0.1128451E+00
         21   -1    0    0  501  502  0.00000000000E+00  0.00000000000E+00  0.43818128826E+02  0.43818128826E+02  0.00000000000E+00 0.  1.
         21   -1    0    0  502  503 -0.00000000000E+00 -0.00000000000E+00 -0.11844688126E+04  0.11844688126E+04  0.00000000000E+00 0.  1.
         -6    2    1    2    0  503 -0.64574844348E+02  0.13284404176E+03 -0.60798915527E+03  0.64915668862E+03  0.17302064472E+03 0.  0.
        -24    2    3    3    0    0 -0.43549652412E+02 -0.12325913353E+01 -0.25821346080E+03  0.27394511006E+03  0.80458936631E+02 0.  0.
          6    2    1    2  501    0  0.64574844348E+02 -0.13284404176E+03 -0.53266152849E+03  0.57913025280E+03  0.17276022637E+03 0.  0.
         24    2    5    5    0    0  0.92141137017E+02 -0.14847128950E+03 -0.43785715714E+03  0.47905992657E+03  0.85122325220E+02 0.  0.
          5    1    5    5  501    0 -0.27566292669E+02  0.15627247740E+02 -0.94804371351E+02  0.10007032622E+03  0.47000000000E+01 0. -1.
        -13    1    6    6    0    0  0.11894203070E+02  0.91591615635E+01 -0.17830608008E+02  0.23308644087E+02  0.00000000000E+00 0.  1.
         14    1    6    6    0    0  0.80246933946E+02 -0.15763045106E+03 -0.42002654914E+03  0.45575128249E+03  0.00000000000E+00 0. -1.
         -5    1    3    3    0  503 -0.21025191936E+02  0.13407663310E+03 -0.34977569448E+03  0.37521157856E+03  0.47000000000E+01 0.  1.
         13    1    4    4    0    0 -0.58146148085E+02  0.22720094133E+02 -0.15817299003E+03  0.17004667591E+03  0.00000000000E+00 0. -1.
        -14    1    4    4    0    0  0.14596495673E+02 -0.23952685469E+02 -0.10004047077E+03  0.10389843415E+03  0.00000000000E+00 0.  1.
</event>
<event>
12    1  0.9962621E-001  0.1915879E+03  0.7818608E-02  0.1157117E+00
         21   -1    0    0  503  502  0.00000000000E+00  0.00000000000E+00  0.20435202484E+03  0.20435202484E+03  0.00000000000E+00 0. -1.
         21   -1    0    0  501  503 -0.00000000000E+00 -0.00000000000E+00 -0.18876601291E+03  0.18876601291E+03  0.00000000000E+00 0. -1.
          6    2    1    2  501    0  0.65160622203E+02 -0.53872181259E+02 -0.36267446043E+02  0.19463702260E+03  0.17152295567E+03 0.  0.
         24    2    3    3    0    0  0.67392129622E+02 -0.45309775265E+02 -0.86783801849E+02  0.14313666701E+03  0.79762160888E+02 0.  0.
         -6    2    1    2    0  502 -0.65160622203E+02  0.53872181259E+02  0.51853457976E+02  0.19848101515E+03  0.17192386010E+03 0.  0.
        -24    2    5    5    0    0 -0.30270893687E+02  0.78407718787E+02 -0.17733724314E+02  0.11672679999E+03  0.79035204105E+02 0.  0.
          5    1    3    3  501    0 -0.22315074182E+01 -0.85624059935E+01  0.50516355806E+02  0.51500355587E+02  0.47000000000E+01 0. -1.
        -11    1    4    4    0    0  0.63720584219E+02 -0.66438574527E+02 -0.74474412567E+02  0.11840960757E+03  0.00000000000E+00 0.  1.
         12    1    4    4    0    0  0.36715454030E+01  0.21128799261E+02 -0.12309389281E+02  0.24727059436E+02  0.00000000000E+00 0. -1.
         -5    1    5    5    0  502 -0.34889728516E+02 -0.24535537528E+02  0.69587182290E+02  0.81754215162E+02  0.47000000000E+01 0.  1.
         11    1    6    6    0    0  0.21713949285E+02  0.53438431392E+02 -0.77875252503E+01  0.58204871726E+02  0.00000000000E+00 0. -1.
        -12    1    6    6    0    0 -0.51984842972E+02  0.24969287395E+02 -0.99461990635E+01  0.58521928263E+02  0.00000000000E+00 0.  1.
</event>
<event>
12    1  0.9962621E-001  0.2234234E+03  0.7818608E-02  0.1131389E+00
         21   -1    0    0  503  502  0.00000000000E+00  0.00000000000E+00  0.26382937791E+02  0.26382937791E+02  0.00000000000E+00 0. -1.
         21   -1    0    0  501  503 -0.00000000000E+00 -0.00000000000E+00 -0.20351134930E+04  0.20351134930E+04  0.00000000000E+00 0. -1.
          6    2    1    2  501    0  0.75242057330E+02  0.12079200629E+03 -0.72928622660E+03  0.76269089392E+03  0.17200849800E+03 0.  0.
         24    2    3    3    0    0  0.58992461721E+02  0.15416578969E+03 -0.59007008805E+03  0.61853444415E+03  0.84586928894E+02 0.  0.
         -6    2    1    2    0  502 -0.75242057330E+02 -0.12079200629E+03 -0.12794443286E+04  0.12988055369E+04  0.17223808124E+03 0.  0.
        -24    2    5    5    0    0 -0.34535498143E+02  0.61954852363E+01 -0.40363147715E+03  0.41288619080E+03  0.79533342311E+02 0.  0.
          5    1    3    3  501    0  0.16249595610E+02 -0.33373783408E+02 -0.13921613855E+03  0.14415644977E+03  0.47000000000E+01 0. -1.
        -11    1    4    4    0    0  0.22734312906E+02  0.12626903483E+03 -0.32253352780E+03  0.34711467082E+03  0.00000000000E+00 0.  1.
         12    1    4    4    0    0  0.36258148814E+02  0.27896754860E+02 -0.26753656025E+03  0.27141977333E+03  0.00000000000E+00 0. -1.
         -5    1    5    5    0  502 -0.40706559187E+02 -0.12698749152E+03 -0.87581285149E+03  0.88591934610E+03  0.47000000000E+01 0.  1.
         13    1    6    6    0    0 -0.47888145102E+02 -0.20957978256E+02 -0.18763043885E+03  0.19477600693E+03  0.00000000000E+00 0. -1.
        -14    1    6    6    0    0  0.13352646958E+02  0.27153463492E+02 -0.21600103830E+03  0.21811018387E+03  0.00000000000E+00 0.  1.
</event>
<event>
12    1  0.9962621E-001  0.1929784E+03  0.7818608E-02  0.1156054E+00
         21   -1    0    0  503  502  0.00000000000E+00  0.00000000000E+00  0.23871350312E+03  0.23871350312E+03  0.00000000000E+00 0.  1.
         21   -1    0    0  501  503 -0.00000000000E+00 -0.00000000000E+00 -0.17219017866E+03  0.17219017866E+03  0.00000000000E+00 0.  1.
          6    2    1    2  501    0 -0.61614491622E+02 -0.57560337998E+02  0.98096431133E+02  0.21648000184E+03  0.17358324604E+03 0.  0.
         24    2    3    3    0    0 -0.89366819306E+02 -0.41992921164E+02  0.17948394296E+02  0.13011835545E+03  0.82817919228E+02 0.  0.
         -6    2    1    2    0  502  0.61614491622E+02  0.57560337998E+02 -0.31573106677E+02  0.19442367994E+03  0.17231995871E+03 0.  0.
        -24    2    5    5    0    0  0.96377975472E+02  0.27624435921E+02 -0.57908739037E+02  0.14131705536E+03  0.81026319573E+02 0.  0.
          5    1    3    3  501    0  0.27752327684E+02 -0.15567416834E+02  0.80148036837E+02  0.86361646393E+02  0.47000000000E+01 0. -1.
        -11    1    4    4    0    0 -0.18184401467E+02 -0.52284296922E+02  0.17956473337E+02  0.58195834010E+02  0.00000000000E+00 0.  1.
         12    1    4    4    0    0 -0.71182417839E+02  0.10291375759E+02 -0.80790412848E-02  0.71922521436E+02  0.00000000000E+00 0. -1.
         -5    1    5    5    0  502 -0.34763483850E+02  0.29935902077E+02  0.26335632359E+02  0.53106624580E+02  0.47000000000E+01 0.  1.
         11    1    6    6    0    0  0.18710270889E+02  0.27882031318E+02  0.13136879570E+02  0.36056338028E+02  0.00000000000E+00 0. -1.
        -12    1    6    6    0    0  0.77667704583E+02 -0.25759539674E+00 -0.71045618607E+02  0.10526071733E+03  0.00000000000E+00 0.  1.
</event>
<event>
12    1  0.9962621E-001  0.4641877E+03  0.7818608E-02  0.1023627E+00
         21   -1    0    0  503  502  0.00000000000E+00  0.00000000000E+00  0.82889591686E+03  0.82889591686E+03  0.00000000000E+00 0.  1.
         21   -1    0    0  501  503 -0.00000000000E+00 -0.00000000000E+00 -0.38006179367E+03  0.38006179367E+03  0.00000000000E+00 0.  1.
          6    2    1    2  501    0 -0.61424831914E+02  0.42661670631E+03  0.56494290180E+03  0.73118444656E+03  0.17232349963E+03 0.  0.
         24    2    3    3    0    0  0.41251175677E+01  0.12898345548E+03  0.16071743379E+03  0.22492101034E+03  0.90031211158E+02 0.  0.
         -6    2    1    2    0  502  0.61424831914E+02 -0.42661670631E+03 -0.11610877860E+03  0.47777326397E+03  0.17032680123E+03 0.  0.
        -24    2    5    5    0    0 -0.13673613198E+02 -0.25240547796E+03 -0.21787079763E+02  0.26585818331E+03  0.79438049971E+02 0.  0.
          5    1    3    3  501    0 -0.65549949481E+02  0.29763325082E+03  0.40422546801E+03  0.50626343623E+03  0.47000000000E+01 0. -1.
        -11    1    4    4    0    0 -0.34936960685E+02  0.25395160944E+02  0.25476114010E+02  0.50145167328E+02  0.00000000000E+00 0.  1.
         12    1    4    4    0    0  0.39062078253E+02  0.10358829454E+03  0.13524131978E+03  0.17477584301E+03  0.00000000000E+00 0. -1.
         -5    1    5    5    0  502  0.75098445112E+02 -0.17421122834E+03 -0.94321698839E+02  0.21191508066E+03  0.47000000000E+01 0.  1.
         11    1    6    6    0    0 -0.21017648810E+02 -0.10926077524E+03  0.26922293325E+02  0.11447475025E+03  0.00000000000E+00 0. -1.
        -12    1    6    6    0    0  0.73440356120E+01 -0.14314470273E+03 -0.48709373088E+02  0.15138343306E+03  0.00000000000E+00 0.  1.
</event>
<event>
12    1  0.9962621E-001  0.2516955E+03  0.7818608E-02  0.1112366E+00
         21   -1    0    0  503  502  0.00000000000E+00  0.00000000000E+00  0.14808732255E+04  0.14808732255E+04  0.00000000000E+00 0. -1.
         21   -1    0    0  501  503 -0.00000000000E+00 -0.00000000000E+00 -0.45533158218E+02  0.45533158218E+02  0.00000000000E+00 0.  1.
          6    2    1    2  501    0 -0.16959405740E+03  0.71402276914E+02  0.90893263908E+03  0.94292081944E+03  0.17053064206E+03 0.  0.
         24    2    3    3    0    0 -0.52079561115E+02  0.88853445681E+02  0.43239141016E+03  0.45177131776E+03  0.80794656258E+02 0.  0.
         -6    2    1    2    0  502  0.16959405740E+03 -0.71402276914E+02  0.52640742823E+03  0.58348556432E+03  0.17172709108E+03 0.  0.
        -24    2    5    5    0    0  0.11692950155E+03 -0.18068130076E+02  0.46496553271E+03  0.48645318216E+03  0.80279425543E+02 0.  0.
          5    1    3    3  501    0 -0.11751449629E+03 -0.17451168767E+02  0.47654122893E+03  0.49114950167E+03  0.47000000000E+01 0. -1.
        -11    1    4    4    0    0  0.95771818572E+01  0.29303239985E+01  0.14823614256E+03  0.14857409994E+03  0.00000000000E+00 0.  1.
         12    1    4    4    0    0 -0.61656742972E+02  0.85923121683E+02  0.28415526759E+03  0.30319721782E+03  0.00000000000E+00 0. -1.
         -5    1    5    5    0  502  0.52664555849E+02 -0.53334146837E+02  0.61441895524E+02  0.97032382158E+02  0.47000000000E+01 0.  1.
         13    1    6    6    0    0  0.10447014191E+03 -0.70501693978E+01  0.25266245716E+03  0.27349960273E+03  0.00000000000E+00 0. -1.
        -14    1    6    6    0    0  0.12459359644E+02 -0.11017960678E+02  0.21230307555E+03  0.21295357943E+03  0.00000000000E+00 0.  1.
</event>
<event>
12    1  0.9962621E-001  0.2532948E+03  0.7818608E-02  0.1111385E+00
         21   -1    0    0  503  502  0.00000000000E+00  0.00000000000E+00  0.22429383179E+04  0.22429383179E+04  0.00000000000E+00 0. -1.
         21   -1    0    0  501  503 -0.00000000000E+00 -0.00000000000E+00 -0.29634131543E+02  0.29634131543E+02  0.00000000000E+00 0. -1.
          6    2    1    2  501    0  0.12342319650E+03 -0.13948980661E+03  0.13309857732E+04  0.13548731977E+04  0.17166118247E+03 0.  0.
         24    2    3    3    0    0  0.46126875588E+02  0.14663587908E+01  0.37501908489E+03  0.38547247503E+03  0.76288112524E+02 0.  0.
         -6    2    1    2    0  502 -0.12342319650E+03  0.13948980661E+03  0.88231841313E+03  0.91769925180E+03  0.17028048341E+03 0.  0.
        -24    2    5    5    0    0  0.39327160428E+01  0.44698029411E+02  0.36297384053E+03  0.37461004681E+03  0.81051207136E+02 0.  0.
          5    1    3    3  501    0  0.77296320911E+02 -0.14095616540E+03  0.95596668835E+03  0.96940072262E+03  0.47000000000E+01 0. -1.
        -11    1    4    4    0    0  0.20471445928E+02  0.28455906616E+01  0.34638676522E+03  0.34700283659E+03  0.00000000000E+00 0.  1.
         12    1    4    4    0    0  0.25655429660E+02 -0.13792318708E+01  0.28632319673E+02  0.38469638437E+02  0.00000000000E+00 0. -1.
         -5    1    5    5    0  502 -0.12735591254E+03  0.94791777202E+02  0.51934457260E+03  0.54308920499E+03  0.47000000000E+01 0.  1.
         11    1    6    6    0    0  0.24493709753E+02 -0.86194352677E+00  0.34296837079E+02  0.42153977247E+02  0.00000000000E+00 0. -1.
        -12    1    6    6    0    0 -0.20560993710E+02  0.45559972937E+02  0.32867700345E+03  0.33245606957E+03  0.00000000000E+00 0.  1.
</event>
<event>
12    1  0.9962621E-001  0.2677224E+03  0.7818608E-02  0.1102732E+00
         21   -1    0    0  503  502  0.00000000000E+00  0.00000000000E+00  0.26355480142E+03  0.26355480142E+03  0.00000000000E+00 0.  1.
         21   -1    0    0  501  503 -0.00000000000E+00 -0.00000000000E+00 -0.27415044525E+03  0.27415044525E+03  0.00000000000E+00 0.  1.
          6    2    1    2  501    0  0.67389457688E+02  0.19246948140E+03 -0.34279528555E+02  0.26990804711E+03  0.17346304372E+03 0.  0.
         24    2    3    3    0    0  0.38670282342E+02  0.36839691065E+02  0.25795713816E+02  0.10056653590E+03  0.81213642430E+02 0.  0.
         -6    2    1    2    0  502 -0.67389457688E+02 -0.19246948140E+03  0.23683884734E+02  0.26779719956E+03  0.17195514944E+03 0.  0.
        -24    2    5    5    0    0 -0.48913645978E+02 -0.19599787585E+03 -0.22213790248E+02  0.21797258963E+03  0.78809169860E+02 0.  0.
          5    1    3    3  501    0  0.28719175346E+02  0.15562979034E+03 -0.60075242371E+02  0.16934151121E+03  0.47000000000E+01 0. -1.
        -11    1    4    4    0    0 -0.39672897664E+01 -0.11406014792E+02  0.33604306376E+02  0.35708345922E+02  0.00000000000E+00 0.  1.
         12    1    4    4    0    0  0.42637572108E+02  0.48245705857E+02 -0.78085925597E+01  0.64858189974E+02  0.00000000000E+00 0. -1.
         -5    1    5    5    0  502 -0.18475811710E+02  0.35283944474E+01  0.45897674982E+02  0.49824609928E+02  0.47000000000E+01 0.  1.
         11    1    6    6    0    0 -0.70281785322E+02 -0.15183744070E+03 -0.11173848062E+02  0.16768718683E+03  0.00000000000E+00 0. -1.
        -12    1    6    6    0    0  0.21368139344E+02 -0.44160435145E+02 -0.11039942186E+02  0.50285402800E+02  0.00000000000E+00 0.  1.
</event>
<event>
12    1  0.9962621E-001  0.2357406E+03  0.7818608E-02  0.1122796E+00
         21   -1    0    0  503  502  0.00000000000E+00  0.00000000000E+00  0.40782867891E+03  0.40782867891E+03  0.00000000000E+00 0.  1.
         21   -1    0    0  501  503 -0.00000000000E+00 -0.00000000000E+00 -0.23407962272E+03  0.23407962272E+03  0.00000000000E+00 0. -1.
          6    2    1    2  501    0  0.96403532306E+02 -0.12640824910E+03  0.29473952495E+03  0.37693222170E+03  0.17301394658E+03 0.  0.
         24    2    3    3    0    0  0.42455341887E+02 -0.47875717134E+02  0.43838284150E+02  0.10850851102E+03  0.75879914733E+02 0.  0.
         -6    2    1    2    0  502 -0.96403532306E+02  0.12640824910E+03 -0.12099046875E+03  0.26497607993E+03  0.17407166031E+03 0.  0.
        -24    2    5    5    0    0 -0.13478212763E+03  0.10144409676E+03 -0.11289866327E+03  0.21824608103E+03  0.80175538804E+02 0.  0.
          5    1    3    3  501    0  0.53948190419E+02 -0.78532531961E+02  0.25090124080E+03  0.26842371069E+03  0.47000000000E+01 0. -1.
        -11    1    4    4    0    0 -0.35799392427E+01 -0.51349803214E+02  0.13329692205E+02  0.53172351362E+02  0.00000000000E+00 0.  1.
         12    1    4    4    0    0  0.46035281130E+02  0.34740860798E+01  0.30508591945E+02  0.55336159654E+02  0.00000000000E+00 0. -1.
         -5    1    5    5    0  502  0.38378595322E+02  0.24964152335E+02 -0.80918054777E+01  0.46729998893E+02  0.47000000000E+01 0.  1.
         13    1    6    6    0    0 -0.76972499583E+02  0.82739521506E+02 -0.10955465872E+03  0.15739382884E+03  0.00000000000E+00 0. -1.
        -14    1    6    6    0    0 -0.57809628044E+02  0.18704575255E+02 -0.33440045523E+01  0.60852252189E+02  0.00000000000E+00 0.  1.
</event>
<event>
12    1  0.9962621E-001  0.1867034E+03  0.7818608E-02  0.1161761E+00
         21   -1    0    0  503  502  0.00000000000E+00  0.00000000000E+00  0.25920822276E+03  0.25920822276E+03  0.00000000000E+00 0. -1.
         21   -1    0    0  501  503 -0.00000000000E+00 -0.00000000000E+00 -0.24263067671E+03  0.24263067671E+03  0.00000000000E+00 0. -1.
          6    2    1    2  501    0  0.60901406847E+02  0.35528621162E+02  0.17649828483E+03  0.25600803766E+03  0.17151444990E+03 0.  0.
         24    2    3    3    0    0  0.79637050492E+02 -0.44804882249E+01  0.45981976414E+02  0.11813726506E+03  0.74026594240E+02 0.  0.
         -6    2    1    2    0  502 -0.60901406847E+02 -0.35528621162E+02 -0.15992073878E+03  0.24583086182E+03  0.17287829723E+03 0.  0.
        -24    2    5    5    0    0 -0.21483774584E+02 -0.74881323152E+02 -0.15757609212E+03  0.18988470685E+03  0.71813731012E+02 0.  0.
          5    1    3    3  501    0 -0.18735643645E+02  0.40009109387E+02  0.13051630841E+03  0.13787077260E+03  0.47000000000E+01 0. -1.
        -11    1    4    4    0    0  0.10727327155E+02 -0.27614905552E+02  0.32913036994E+02  0.44282350442E+02  0.00000000000E+00 0.  1.
         12    1    4    4    0    0  0.68909723337E+02  0.23134417327E+02  0.13068939421E+02  0.73854914617E+02  0.00000000000E+00 0. -1.
         -5    1    5    5    0  502 -0.39417632263E+02  0.39352701990E+02 -0.23446466586E+01  0.55946154962E+02  0.47000000000E+01 0.  1.
         11    1    6    6    0    0 -0.14200584596E+02 -0.76284044631E+02 -0.78204785533E+02  0.11016760208E+03  0.00000000000E+00 0. -1.
        -12    1    6    6    0    0 -0.72831899886E+01  0.14027214794E+01 -0.79371306586E+02  0.79717104772E+02  0.00000000000E+00 0.  1.
</event>
<event>
12    1  0.9962621E-001  0.2051820E+03  0.7818608E-02  0.1145957E+00
         21   -1    0    0  501  502  0.00000000000E+00  0.00000000000E+00  0.12646004171E+03  0.12646004171E+03  0.00000000000E+00 0.  1.
         21   -1    0    0  502  503 -0.00000000000E+00 -0.00000000000E+00 -0.12680247011E+04  0.12680247011E+04  0.00000000000E+00 0.  1.
         -6    2    1    2    0  503  0.10391436230E+03 -0.42527574805E+02 -0.11717578264E+04  0.11895865010E+04  0.17173482598E+03 0.  0.
        -24    2    3    3    0    0  0.72663289149E+02  0.45413867432E+02 -0.65670883963E+03  0.66612888518E+03  0.71545920156E+02 0.  0.
          6    2    1    2  501    0 -0.10391436230E+03  0.42527574805E+02  0.30193166925E+02  0.20489824184E+03  0.16871536051E+03 0.  0.
         24    2    5    5    0    0 -0.33025721989E+02  0.69808201664E+02  0.56856406850E+02  0.12426046974E+03  0.79019807694E+02 0.  0.
          5    1    5    5  501    0 -0.70888640306E+02 -0.27280626858E+02 -0.26663239925E+02  0.80637772102E+02  0.47000000000E+01 0. -1.
        -11    1    6    6    0    0 -0.45480926539E+01 -0.17765986002E+02  0.79030654507E+01  0.19969322696E+02  0.00000000000E+00 0.  1.
         12    1    6    6    0    0 -0.28477629335E+02  0.87574187666E+02  0.48953341399E+02  0.10429114705E+03  0.00000000000E+00 0. -1.
         -5    1    3    3    0  503  0.31251073146E+02 -0.87941442237E+02 -0.51504898673E+03  0.52345761583E+03  0.47000000000E+01 0.  1.
         11    1    4    4    0    0  0.52398164452E+02  0.22516707824E+02 -0.58995539921E+03  0.59270561228E+03  0.00000000000E+00 0. -1.
        -12    1    4    4    0    0  0.20265124697E+02  0.22897159608E+02 -0.66753440416E+02  0.73423272908E+02  0.00000000000E+00 0.  1.
</event>
<event>
12    1  0.9962621E-001  0.2786927E+03  0.7818608E-02  0.1096469E+00
         21   -1    0    0  503  502  0.00000000000E+00  0.00000000000E+00  0.30344146295E+03  0.30344146295E+03  0.00000000000E+00 0. -1.
         21   -1    0    0  501  503 -0.00000000000E+00 -0.00000000000E+00 -0.35206647503E+03  0.35206647503E+03  0.00000000000E+00 0. -1.
          6    2    1    2  501    0 -0.13478529900E+03  0.17230150450E+03  0.14729340417E+03  0.31522207292E+03  0.17266940397E+03 0.  0.
         24    2    3    3    0    0 -0.79740182357E+02  0.28317633209E+02  0.10135717464E+03  0.15430735252E+03  0.79856728958E+02 0.  0.
         -6    2    1    2    0  502  0.13478529900E+03 -0.17230150450E+03 -0.19591841625E+03  0.34028586505E+03  0.17191730235E+03 0.  0.
        -24    2    5    5    0    0  0.51995161339E+02 -0.78742973756E+02 -0.21399036315E+02  0.12560817748E+03  0.80097083437E+02 0.  0.
          5    1    3    3  501    0 -0.55045116644E+02  0.14398387129E+03  0.45936229533E+02  0.16091472040E+03  0.47000000000E+01 0. -1.
        -11    1    4    4    0    0 -0.53727036524E+01  0.40292340374E+02  0.29704955925E+02  0.50346033050E+02  0.00000000000E+00 0.  1.
         12    1    4    4    0    0 -0.74367478705E+02 -0.11974707165E+02  0.71652218711E+02  0.10396131947E+03  0.00000000000E+00 0. -1.
         -5    1    5    5    0  502  0.82790137663E+02 -0.93558530740E+02 -0.17451937994E+03  0.21467768757E+03  0.47000000000E+01 0.  1.
         13    1    6    6    0    0 -0.56896434047E+01 -0.97621981886E+01  0.22773752334E+02  0.25422752623E+02  0.00000000000E+00 0. -1.
        -14    1    6    6    0    0  0.57684804744E+02 -0.68980775568E+02 -0.44172788648E+02  0.10018542485E+03  0.00000000000E+00 0.  1.
</event>
<event>
12    1  0.9962621E-001  0.2518667E+03  0.7818608E-02  0.1112277E+00
         21   -1    0    0  501  502  0.00000000000E+00  0.00000000000E+00  0.73454314209E+02  0.73454314209E+02  0.00000000000E+00 0. -1.
         21   -1    0    0  502  503 -0.00000000000E+00 -0.00000000000E+00 -0.11643993077E+04  0.11643993077E+04  0.00000000000E+00 0. -1.
         -6    2    1    2    0  503  0.50251784625E+02  0.17690323043E+03 -0.86095346278E+03  0.89677746082E+03  0.17073064858E+03 0.  0.
        -24    2    3    3    0    0  0.32980982733E+02  0.30403961941E+02 -0.21346357796E+03  0.23267990985E+03  0.81000587688E+02 0.  0.
          6    2    1    2  501    0 -0.50251784625E+02 -0.17690323043E+03 -0.22999153073E+03  0.34107616111E+03  0.17209546384E+03 0.  0.
         24    2    5    5    0    0 -0.91939317733E+02 -0.13359419557E+03 -0.12865767326E+03  0.22316024366E+03  0.83351366084E+02 0.  0.
          5    1    5    5  501    0  0.41687533108E+02 -0.43309034867E+02 -0.10133385747E+03  0.11791591745E+03  0.47000000000E+01 0. -1.
        -13    1    6    6    0    0 -0.23929144642E+02 -0.10143849663E+03 -0.93924460620E+02  0.14030030957E+03  0.00000000000E+00 0.  1.
         14    1    6    6    0    0 -0.68010173091E+02 -0.32155698939E+02 -0.34733212641E+02  0.82859934097E+02  0.00000000000E+00 0. -1.
         -5    1    3    3    0  503  0.17270801892E+02  0.14649926849E+03 -0.64748988482E+03  0.66409755097E+03  0.47000000000E+01 0.  1.
         13    1    4    4    0    0  0.39535980192E+02  0.77538498863E+01 -0.20286654136E+03  0.20682855103E+03  0.00000000000E+00 0. -1.
        -14    1    4    4    0    0 -0.65549974593E+01  0.22650112055E+02 -0.10597036598E+02  0.25851358812E+02  0.00000000000E+00 0.  1.
</event>
<event>
12    1  0.9962621E-001  0.3505744E+03  0.7818608E-02  0.1062996E+00
         21   -1    0    0  501  502  0.00000000000E+00  0.00000000000E+00  0.14049345832E+03  0.14049345832E+03  0.00000000000E+00 0. -1.
         21   -1    0    0  502  503 -0.00000000000E+00 -0.00000000000E+00 -0.87361468183E+03  0.87361468183E+03  0.00000000000E+00 0. -1.
         -6    2    1    2    0  503 -0.40040489489E+02  0.30272881740E+03 -0.30631111479E+03  0.46554149335E+03  0.17220454495E+03 0.  0.
        -24    2    3    3    0    0  0.19980549833E+02  0.15686716946E+03 -0.91696896212E+02  0.19915925235E+03  0.79054132064E+02 0.  0.
          6    2    1    2  501    0  0.40040489489E+02 -0.30272881740E+03 -0.42681010872E+03  0.54856664680E+03  0.15972012835E+03 0.  0.
         24    2    5    5    0    0  0.53478715289E+02 -0.19880115894E+03 -0.19628553899E+03  0.29529759747E+03  0.79314465687E+02 0.  0.
          5    1    5    5  501    0 -0.13438225801E+02 -0.10392765846E+03 -0.23052456972E+03  0.25326904933E+03  0.47000000000E+01 0. -1.
        -11    1    6    6    0    0  0.42196653758E+02 -0.12361891643E+03 -0.17099391397E+03  0.21517693348E+03  0.00000000000E+00 0.  1.
         12    1    6    6    0    0  0.11282061532E+02 -0.75182242513E+02 -0.25291625026E+02  0.80120663989E+02  0.00000000000E+00 0. -1.
         -5    1    3    3    0  503 -0.60021039321E+02  0.14586164793E+03 -0.21461421858E+03  0.26638224099E+03  0.47000000000E+01 0.  1.
         11    1    4    4    0    0 -0.14806305355E+02  0.12053657951E+03 -0.42134153403E+02  0.12854408022E+03  0.00000000000E+00 0. -1.
        -12    1    4    4    0    0  0.34786855187E+02  0.36330589957E+02 -0.49562742809E+02  0.70615172132E+02  0.00000000000E+00 0.  1.
</event>
<event>
12    1  0.9962621E-001  0.2114014E+03  0.7818608E-02  0.1143980E+00
         21   -1    0    0  501  502  0.00000000000E+00  0.00000000000E+00  0.88759360560E+02  0.88759360560E+02  0.00000000000E+00 0. -1.
         21   -1    0    0  502  503 -0.00000000000E+00 -0.00000000000E+00 -0.46464299084E+03  0.46464299084E+03  0.00000000000E+00 0. -1.
         -6    2    1    2    0  503 -0.71250146622E+02 -0.53856915644E+02 -0.18224094570E+03  0.27910984003E+03  0.19160738439E+03 0.  0.
        -24    2    3    3    0    0 -0.70946470499E+02 -0.37386094325E+01 -0.19858993941E+03  0.22618237615E+03  0.81689193710E+02 0.  0.
          6    2    1    2  501    0  0.71250146622E+02  0.53856915644E+02 -0.19364268458E+03  0.27429251137E+03  0.17251591737E+03 0.  0.
         24    2    5    5    0    0 -0.17734614188E+02  0.25667586031E+01 -0.35922319656E+02  0.86019381645E+02  0.76077698303E+02 0.  0.
          5    1    5    5  501    0  0.88984760810E+02  0.51290157041E+02 -0.15772036492E+03  0.18827312972E+03  0.47000000000E+01 0. -1.
        -13    1    6    6    0    0  0.11659924746E+02 -0.31247969147E+02 -0.15007912087E+02  0.36573581259E+02  0.00000000000E+00 0.  1.
         14    1    6    6    0    0 -0.29394538933E+02  0.33814727750E+02 -0.20914407570E+02  0.49445800387E+02  0.00000000000E+00 0. -1.
         -5    1    3    3    0  503 -0.30367612302E+00 -0.50118306212E+02  0.16348993713E+02  0.52927463874E+02  0.47000000000E+01 0.  1.
         13    1    4    4    0    0 -0.64999369500E+02 -0.14406972593E+02 -0.68511247026E+02  0.95531512412E+02  0.00000000000E+00 0. -1.
        -14    1    4    4    0    0 -0.59471009991E+01  0.10668363161E+02 -0.13007869239E+03  0.13065086374E+03  0.00000000000E+00 0.  1.
</event>
<event>
12    1  0.9962621E-001  0.2308999E+03  0.7818608E-02  0.1126236E+00
         21   -1    0    0  501  502  0.00000000000E+00  0.00000000000E+00  0.10530410905E+03  0.10530410905E+03  0.00000000000E+00 0.  1.
         21   -1    0    0  502  503 -0.00000000000E+00 -0.00000000000E+00 -0.54860134662E+03  0.54860134662E+03  0.00000000000E+00 0.  1.
         -6    2    1    2    0  503  0.13226671750E+03 -0.76742359513E+02 -0.12842902272E+03  0.26421348399E+03  0.17300542461E+03 0.  0.
        -24    2    3    3    0    0  0.68861886169E+02 -0.11104458770E+03 -0.66918791165E+02  0.16933243171E+03  0.84394833932E+02 0.  0.
          6    2    1    2  501    0 -0.13226671750E+03  0.76742359513E+02 -0.31486821486E+03  0.38969197168E+03  0.17127161398E+03 0.  0.
         24    2    5    5    0    0 -0.17878613544E+02 -0.13734139784E+02 -0.12218045989E+03  0.14798699413E+03  0.80397849700E+02 0.  0.
          5    1    5    5  501    0 -0.11438810396E+03  0.90476499297E+02 -0.19268775497E+03  0.24170497754E+03  0.47000000000E+01 0. -1.
        -11    1    6    6    0    0 -0.25417042912E+02 -0.47917344518E+01 -0.62724685207E+00  0.25872383501E+02  0.00000000000E+00 0.  1.
         12    1    6    6    0    0  0.75384293680E+01 -0.89424053326E+01 -0.12155321304E+03  0.12211461063E+03  0.00000000000E+00 0. -1.
         -5    1    3    3    0  503  0.63404831336E+02  0.34302228190E+02 -0.61510231551E+02  0.94881052276E+02  0.47000000000E+01 0.  1.
         13    1    4    4    0    0 -0.18723474114E+02 -0.27295249482E+02 -0.57799701667E+01  0.33600702110E+02  0.00000000000E+00 0. -1.
        -14    1    4    4    0    0  0.87585360283E+02 -0.83749338220E+02 -0.61138820998E+02  0.13573172960E+03  0.00000000000E+00 0.  1.
</event>
<event>
12    1  0.9962621E-001  0.2078810E+03  0.7818608E-02  0.1143495E+00
         21   -1    0    0  503  502  0.00000000000E+00  0.00000000000E+00  0.14332525834E+03  0.14332525834E+03  0.00000000000E+00 0. -1.
         21   -1    0    0  501  503 -0.00000000000E+00 -0.00000000000E+00 -0.36502684231E+03  0.36502684231E+03  0.00000000000E+00 0. -1.
          6    2    1    2  501    0  0.11662606339E+03  0.19294563366E+02 -0.21857032094E+03  0.30164130730E+03  0.17099875508E+03 0.  0.
         24    2    3    3    0    0  0.25187258197E+02  0.23274565147E+02 -0.29927856065E+02  0.91915378854E+02  0.79853972618E+02 0.  0.
         -6    2    1    2    0  502 -0.11662606339E+03 -0.19294563366E+02 -0.31312630301E+01  0.20671079334E+03  0.16954535806E+03 0.  0.
        -24    2    5    5    0    0 -0.12392818707E+03  0.23716525657E+02  0.29926086357E+02  0.15177307281E+03  0.78859532364E+02 0.  0.
          5    1    3    3  501    0  0.91438805190E+02 -0.39800017817E+01 -0.18864246487E+03  0.20972592845E+03  0.47000000000E+01 0. -1.
        -13    1    4    4    0    0  0.51151948419E+02  0.22628260769E+02 -0.34248135764E+02  0.65585782116E+02  0.00000000000E+00 0.  1.
         14    1    4    4    0    0 -0.25964690223E+02  0.64630437829E+00  0.43202796985E+01  0.26329596738E+02  0.00000000000E+00 0. -1.
         -5    1    5    5    0  502  0.73021236860E+01 -0.43011089023E+02 -0.33057349387E+02  0.54937720536E+02  0.47000000000E+01 0.  1.
         13    1    6    6    0    0 -0.14132664508E+02  0.35632040081E+02  0.66015003912E+01  0.38896713150E+02  0.00000000000E+00 0. -1.
        -14    1    6    6    0    0 -0.10979552256E+03 -0.11915514424E+02  0.23324585965E+02  0.11287635966E+03  0.00000000000E+00 0.  1.
</event>
<event>
12    1  0.9962621E-001  0.2783177E+03  0.7818608E-02  0.1096700E+00
         21   -1    0    0  503  502  0.00000000000E+00  0.00000000000E+00  0.33170964498E+03  0.33170964498E+03  0.00000000000E+00 0. -1.
         21   -1    0    0  501  503 -0.00000000000E+00 -0.00000000000E+00 -0.24039597007E+03  0.24039597007E+03  0.00000000000E+00 0. -1.
          6    2    1    2  501    0 -0.54793309203E+02 -0.21184284100E+03 -0.45262029379E+01  0.27835452993E+03  0.17199145851E+03 0.  0.
         24    2    3    3    0    0 -0.59999404498E+02 -0.45750059926E+02  0.73153378887E+01  0.11169251433E+03  0.82028696600E+02 0.  0.
         -6    2    1    2    0  502  0.54793309203E+02  0.21184284100E+03  0.95839877846E+02  0.29375108513E+03  0.17095239634E+03 0.  0.
        -24    2    5    5    0    0 -0.26261644849E+02  0.97862417924E+02  0.53992768059E+02  0.14768701351E+03  0.92895145865E+02 0.  0.
          5    1    3    3  501    0  0.52060952958E+01 -0.16609278107E+03 -0.11841540827E+02  0.16666201559E+03  0.47000000000E+01 0. -1.
        -13    1    4    4    0    0 -0.48876215863E+02 -0.60630547882E+02 -0.18348331253E+02  0.80010056076E+02  0.00000000000E+00 0.  1.
         14    1    4    4    0    0 -0.11123188635E+02  0.14880487957E+02  0.25663669142E+02  0.31682458255E+02  0.00000000000E+00 0. -1.
         -5    1    5    5    0  502  0.81054954051E+02  0.11398042307E+03  0.41847109787E+02  0.14606407162E+03  0.47000000000E+01 0.  1.
         11    1    6    6    0    0 -0.37309031558E+02  0.96404178855E+01  0.43572374098E+02  0.58167458921E+02  0.00000000000E+00 0. -1.
        -12    1    6    6    0    0  0.11047386709E+02  0.88222000039E+02  0.10420393962E+02  0.89519554591E+02  0.00000000000E+00 0.  1.
</event>
<event>
12    1  0.9962621E-001  0.1999574E+03  0.7818608E-02  0.1149822E+00
         21   -1    0    0  503  502  0.00000000000E+00  0.00000000000E+00  0.96880679601E+02  0.96880679601E+02  0.00000000000E+00 0.  1.
         21   -1    0    0  501  503 -0.00000000000E+00 -0.00000000000E+00 -0.45099406198E+03  0.45099406198E+03  0.00000000000E+00 0.  1.
          6    2    1    2  501    0 -0.43785697273E+02 -0.91868541234E+02 -0.25744364715E+03  0.32597577696E+03  0.17212193222E+03 0.  0.
         24    2    3    3    0    0  0.33270430247E+02 -0.32835530049E+02 -0.71531389432E+02  0.11619493711E+03  0.78736460258E+02 0.  0.
         -6    2    1    2    0  502  0.43785697273E+02  0.91868541234E+02 -0.96669735232E+02  0.22189896462E+03  0.17186359893E+03 0.  0.
        -24    2    5    5    0    0  0.44581924371E+02  0.32752856648E+01  0.58312126248E+00  0.90256999406E+02  0.78407336612E+02 0.  0.
          5    1    3    3  501    0 -0.77056127520E+02 -0.59033011185E+02 -0.18591225771E+03  0.20978083985E+03  0.47000000000E+01 0. -1.
        -11    1    4    4    0    0  0.65805340690E+01  0.16238621681E+02 -0.55318859609E+02  0.58027342617E+02  0.00000000000E+00 0.  1.
         12    1    4    4    0    0  0.26689896178E+02 -0.49074151730E+02 -0.16212529823E+02  0.58167594495E+02  0.00000000000E+00 0. -1.
         -5    1    5    5    0  502 -0.79622709796E+00  0.88593255569E+02 -0.97252856494E+02  0.13164196522E+03  0.47000000000E+01 0.  1.
         13    1    6    6    0    0  0.34569676946E+02 -0.95799232022E+01 -0.35621772018E+02  0.50554407665E+02  0.00000000000E+00 0. -1.
        -14    1    6    6    0    0  0.10012247425E+02  0.12855208867E+02  0.36204893280E+02  0.39702591741E+02  0.00000000000E+00 0.  1.
</event>
<event>
12    1  0.9962621E-001  0.2013192E+03  0.7818608E-02  0.1148686E+00
         21   -1    0    0  503  502  0.00000000000E+00  0.00000000000E+00  0.10155403194E+03  0.10155403194E+03  0.00000000000E+00 0. -1.
         21   -1    0    0  501  503 -0.00000000000E+00 -0.00000000000E+00 -0.50377723746E+03  0.50377723746E+03  0.00000000000E+00 0. -1.
          6    2    1    2  501    0  0.10360134868E+03 -0.17002453776E+01 -0.62900939845E+02  0.21091690251E+03  0.17260730358E+03 0.  0.
         24    2    3    3    0    0  0.80270118403E+02 -0.44221983328E+02  0.11750380545E+02  0.12176896849E+03  0.79314150850E+02 0.  0.
         -6    2    1    2    0  502 -0.10360134868E+03  0.17002453776E+01 -0.33932226568E+03  0.39441436690E+03  0.17229904977E+03 0.  0.
        -24    2    5    5    0    0 -0.10290031076E+03 -0.56826573083E+02 -0.23021208508E+03  0.27050713772E+03  0.79741921700E+02 0.  0.
          5    1    3    3  501    0  0.23331230274E+02  0.42521737950E+02 -0.74651320390E+02  0.89147934022E+02  0.47000000000E+01 0. -1.
        -13    1    4    4    0    0  0.75048522611E+02 -0.15747786621E+02 -0.19547939958E+02  0.79135298610E+02  0.00000000000E+00 0.  1.
         14    1    4    4    0    0  0.52215957925E+01 -0.28474196707E+02  0.31298320503E+02  0.42633669875E+02  0.00000000000E+00 0. -1.
         -5    1    5    5    0  502 -0.70103791261E+00  0.58526818460E+02 -0.10911018060E+03  0.12390722918E+03  0.47000000000E+01 0.  1.
         11    1    6    6    0    0  0.77268180082E+01 -0.21890254455E+02 -0.21103671582E+02  0.31372789338E+02  0.00000000000E+00 0. -1.
        -12    1    6    6    0    0 -0.11062712877E+03 -0.34936318628E+02 -0.20910841349E+03  0.23913434838E+03  0.00000000000E+00 0.  1.
</event>
<event>
12    1  0.9962621E-001  0.5137613E+03  0.7818608E-02  0.1010402E+00
         21   -1    0    0  501  502  0.00000000000E+00  0.00000000000E+00  0.36537036259E+03  0.36537036259E+03  0.00000000000E+00 0. -1.
         21   -1    0    0  502  503 -0.00000000000E+00 -0.00000000000E+00 -0.77714566465E+03  0.77714566465E+03  0.00000000000E+00 0.  1.
         -6    2    1    2    0  503 -0.41403083636E+03 -0.24951792814E+03 -0.49165641879E+02  0.51367864783E+03  0.16663661954E+03 0.  0.
        -24    2    3    3    0    0 -0.40508786190E+03 -0.20588852970E+03 -0.65385719153E+02  0.46604796332E+03  0.80244310202E+02 0.  0.
          6    2    1    2  501    0  0.41403083636E+03  0.24951792814E+03 -0.36260966018E+03  0.62883737941E+03  0.17398262605E+03 0.  0.
         24    2    5    5    0    0  0.37363428165E+03  0.16083167310E+03 -0.31286435694E+03  0.51932108538E+03  0.79629645070E+02 0.  0.
          5    1    5    5  501    0  0.40396554713E+02  0.88686255039E+02 -0.49745303238E+02  0.10951629404E+03  0.47000000000E+01 0. -1.
        -13    1    6    6    0    0  0.10450287860E+03  0.75685775558E+01 -0.80796730540E+02  0.13231117363E+03  0.00000000000E+00 0.  1.
         14    1    6    6    0    0  0.26913140305E+03  0.15326309555E+03 -0.23206762640E+03  0.38700991175E+03  0.00000000000E+00 0. -1.
         -5    1    3    3    0  503 -0.89429744596E+01 -0.43629398439E+02  0.16220077274E+02  0.47630684512E+02  0.47000000000E+01 0.  1.
         11    1    4    4    0    0 -0.26844576068E+03 -0.10091095582E+03 -0.63470765414E+02  0.29372552748E+03  0.00000000000E+00 0. -1.
        -12    1    4    4    0    0 -0.13664210122E+03 -0.10497757389E+03 -0.19149537390E+01  0.17232243584E+03  0.00000000000E+00 0.  1.
</event>
<event>
12    1  0.9962621E-001  0.2265506E+03  0.7818608E-02  0.1129662E+00
         21   -1    0    0  501  502  0.00000000000E+00  0.00000000000E+00  0.29164442250E+02  0.29164442250E+02  0.00000000000E+00 0. -1.
         21   -1    0    0  502  503 -0.00000000000E+00 -0.00000000000E+00 -0.17713192422E+04  0.17713192422E+04  0.00000000000E+00 0. -1.
         -6    2    1    2    0  503 -0.28229252485E+02  0.13906855325E+03 -0.10051937395E+04  0.10304074998E+04  0.17660183615E+03 0.  0.
        -24    2    3    3    0    0 -0.67982435377E+02  0.15096223405E+03 -0.85676432426E+03  0.87621555287E+03  0.79356034008E+02 0.  0.
          6    2    1    2  501    0  0.28229252485E+02 -0.13906855325E+03 -0.73696106046E+03  0.77007618465E+03  0.17253629280E+03 0.  0.
         24    2    5    5    0    0  0.34873922019E+02 -0.43878926151E+02 -0.56606381675E+03  0.57428758782E+03  0.78971123163E+02 0.  0.
          5    1    5    5  501    0 -0.66446695339E+01 -0.95189627102E+02 -0.17089724371E+03  0.19578859683E+03  0.47000000000E+01 0. -1.
        -11    1    6    6    0    0  0.45913399359E+01 -0.45953161113E+02 -0.14603157713E+03  0.15316003049E+03  0.00000000000E+00 0.  1.
         12    1    6    6    0    0  0.30282582083E+02  0.20742349612E+01 -0.42003223962E+03  0.42112755734E+03  0.00000000000E+00 0. -1.
         -5    1    3    3    0  503  0.39753182892E+02 -0.11893680796E+02 -0.14842941522E+03  0.15419194692E+03  0.47000000000E+01 0.  1.
         13    1    4    4    0    0 -0.36928400711E+02  0.37439509749E+02 -0.13432065112E+03  0.14424791502E+03  0.00000000000E+00 0. -1.
        -14    1    4    4    0    0 -0.31054034666E+02  0.11352272430E+03 -0.72244367314E+03  0.73196763785E+03  0.00000000000E+00 0.  1.
</event>
<event>
12    1  0.9962621E-001  0.2468487E+03  0.7818608E-02  0.1115468E+00
         21   -1    0    0  503  502  0.00000000000E+00  0.00000000000E+00  0.18737970935E+04  0.18737970935E+04  0.00000000000E+00 0.  1.
         21   -1    0    0  501  503 -0.00000000000E+00 -0.00000000000E+00 -0.34556828097E+02  0.34556828097E+02  0.00000000000E+00 0.  1.
          6    2    1    2  501    0  0.88210005954E+02 -0.15327003420E+03  0.67914357933E+03  0.72228537038E+03  0.17084333875E+03 0.  0.
         24    2    3    3    0    0 -0.37957054728E+01 -0.12627340643E+03  0.39294084048E+03  0.42041127980E+03  0.79898432460E+02 0.  0.
         -6    2    1    2    0  502 -0.88210005954E+02  0.15327003420E+03  0.11600966861E+04  0.11860685512E+04  0.17222537153E+03 0.  0.
        -24    2    5    5    0    0 -0.11233750088E+02  0.74840959866E+01  0.38870757301E+03  0.39724528996E+03  0.80796251408E+02 0.  0.
          5    1    3    3  501    0  0.92005711427E+02 -0.26996627770E+02  0.28620273884E+03  0.30187409059E+03  0.47000000000E+01 0. -1.
        -13    1    4    4    0    0  0.26527964009E+02 -0.69551534356E+02  0.28680444986E+03  0.29630717384E+03  0.00000000000E+00 0.  1.
         14    1    4    4    0    0 -0.30323669482E+02 -0.56721872074E+02  0.10613639062E+03  0.12410410596E+03  0.00000000000E+00 0. -1.
         -5    1    5    5    0  502 -0.76976255866E+02  0.14578593821E+03  0.77138911309E+03  0.78882326128E+03  0.47000000000E+01 0.  1.
         11    1    6    6    0    0 -0.28301428051E+02  0.32333155982E+02  0.30996742920E+03  0.31293163945E+03  0.00000000000E+00 0. -1.
        -12    1    6    6    0    0  0.17067677963E+02 -0.24849059995E+02  0.78740143813E+02  0.84313650504E+02  0.00000000000E+00 0.  1.
</event>
<event>
12    1  0.9962621E-001  0.3123877E+03  0.7818608E-02  0.1079629E+00
         21   -1    0    0  503  502  0.00000000000E+00  0.00000000000E+00  0.13926234520E+03  0.13926234520E+03  0.00000000000E+00 0.  1.
         21   -1    0    0  501  503 -0.00000000000E+00 -0.00000000000E+00 -0.72917834648E+03  0.72917834648E+03  0.00000000000E+00 0.  1.
          6    2    1    2  501    0  0.51561386583E+02 -0.25499920952E+03 -0.19959900900E+03  0.37070994097E+03  0.17292461506E+03 0.  0.
         24    2    3    3    0    0  0.45352085558E+02 -0.95817554449E+02 -0.38881395710E+02  0.14437038200E+03  0.89962374701E+02 0.  0.
         -6    2    1    2    0  502 -0.51561386583E+02  0.25499920952E+03 -0.39031699229E+03  0.49773075071E+03  0.16644930848E+03 0.  0.
        -24    2    5    5    0    0  0.66679648810E+01  0.60219936785E+02 -0.82425113190E+02  0.12874684636E+03  0.78172556696E+02 0.  0.
          5    1    3    3  501    0  0.62093010249E+01 -0.15918165508E+03 -0.16071761329E+03  0.22633955896E+03  0.47000000000E+01 0. -1.
        -11    1    4    4    0    0 -0.90369427996E+01  0.12036239072E+02 -0.14982902832E+02  0.21237343606E+02  0.00000000000E+00 0.  1.
         12    1    4    4    0    0  0.54389028358E+02 -0.10785379352E+03 -0.23898492878E+02  0.12313303840E+03  0.00000000000E+00 0. -1.
         -5    1    5    5    0  502 -0.58229351464E+02  0.19477927274E+03 -0.30789187910E+03  0.36898390436E+03  0.47000000000E+01 0.  1.
         11    1    6    6    0    0  0.42223924490E+02  0.32262657201E+02 -0.51145616766E+02  0.73753731861E+02  0.00000000000E+00 0. -1.
        -12    1    6    6    0    0 -0.35555959609E+02  0.27957279584E+02 -0.31279496424E+02  0.54993114496E+02  0.00000000000E+00 0.  1.
</event>
<event>
12    1  0.9962621E-001  0.2134070E+03  0.7818608E-02  0.1138962E+00
         21   -1    0    0  503  502  0.00000000000E+00  0.00000000000E+00  0.25653208569E+03  0.25653208569E+03  0.00000000000E+00 0. -1.
         21   -1    0    0  501  503 -0.00000000000E+00 -0.00000000000E+00 -0.23678812501E+03  0.23678812501E+03  0.00000000000E+00 0. -1.
          6    2    1    2  501    0  0.12622510638E+03 -0.89543402333E+00 -0.11382069076E+03  0.24156227739E+03  0.17164965752E+03 0.  0.
         24    2    3    3    0    0  0.15659750404E+03  0.14038334646E+02 -0.10954378291E+03  0.20712564098E+03  0.78621483504E+02 0.  0.
         -6    2    1    2    0  502 -0.12622510638E+03  0.89543402333E+00  0.13356465144E+03  0.25175793332E+03  0.17207254746E+03 0.  0.
        -24    2    5    5    0    0 -0.12333368453E+00 -0.14119959447E+02  0.77184365022E+02  0.11273295061E+03  0.80943829186E+02 0.  0.
          5    1    3    3  501    0 -0.30372397654E+02 -0.14933768669E+02 -0.42769078513E+01  0.34436636402E+02  0.47000000000E+01 0. -1.
        -13    1    4    4    0    0  0.10696450573E+03  0.19398140812E+02 -0.11335667929E+03  0.15705868360E+03  0.00000000000E+00 0.  1.
         14    1    4    4    0    0  0.49632998310E+02 -0.53598061669E+01  0.38128963816E+01  0.50066957389E+02  0.00000000000E+00 0. -1.
         -5    1    5    5    0  502 -0.12610177270E+03  0.15015393470E+02  0.56380286422E+02  0.13902498271E+03  0.47000000000E+01 0.  1.
         11    1    6    6    0    0 -0.20525387285E+02  0.24080875841E+02  0.56460553923E+02  0.64722285604E+02  0.00000000000E+00 0. -1.
        -12    1    6    6    0    0  0.20402053601E+02 -0.38200835288E+02  0.20723811099E+02  0.48010665006E+02  0.00000000000E+00 0.  1.
</event>
<event>
12    1  0.9962621E-001  0.2471448E+03  0.7818608E-02  0.1115800E+00
         21   -1    0    0  503  502  0.00000000000E+00  0.00000000000E+00  0.56316437268E+02  0.56316437268E+02  0.00000000000E+00 0.  1.
         21   -1    0    0  501  503 -0.00000000000E+00 -0.00000000000E+00 -0.10663374839E+04  0.10663374839E+04  0.00000000000E+00 0.  1.
          6    2    1    2  501    0 -0.16287939871E+03  0.70514089639E+02 -0.51210964117E+03  0.56862715544E+03  0.17198436547E+03 0.  0.
         24    2    3    3    0    0 -0.96695004183E+02  0.63483292164E+02 -0.46755054443E+03  0.48839368802E+03  0.80900127830E+02 0.  0.
         -6    2    1    2    0  502  0.16287939871E+03 -0.70514089639E+02 -0.49791140546E+03  0.55402676572E+03  0.16591550285E+03 0.  0.
        -24    2    5    5    0    0  0.98824725771E+02 -0.86587763310E+02 -0.22248374749E+03  0.27075331323E+03  0.80898526249E+02 0.  0.
          5    1    3    3  501    0 -0.66184394530E+02  0.70307974745E+01 -0.44559096733E+02  0.80233467419E+02  0.47000000000E+01 0. -1.
        -11    1    4    4    0    0 -0.45344231654E+02 -0.14312699030E+02 -0.17553266163E+03  0.18185892333E+03  0.00000000000E+00 0.  1.
         12    1    4    4    0    0 -0.51350772529E+02  0.77795991194E+02 -0.29201788281E+03  0.30653476469E+03  0.00000000000E+00 0. -1.
         -5    1    5    5    0  502  0.64054672942E+02  0.16073673672E+02 -0.27542765797E+03  0.28327345249E+03  0.47000000000E+01 0.  1.
         13    1    6    6    0    0  0.92300800409E+02 -0.30094593554E+02 -0.14893975120E+03  0.17778687186E+03  0.00000000000E+00 0. -1.
        -14    1    6    6    0    0  0.65239253618E+01 -0.56493169757E+02 -0.73543996291E+02  0.92966441374E+02  0.00000000000E+00 0.  1.
</event>
<event>
12    1  0.9962621E-001  0.3624643E+03  0.7818608E-02  0.1057657E+00
         21   -1    0    0  503  502  0.00000000000E+00  0.00000000000E+00  0.88659719522E+03  0.88659719522E+03  0.00000000000E+00 0. -1.
         21   -1    0    0  501  503 -0.00000000000E+00 -0.00000000000E+00 -0.21460513829E+03  0.21460513829E+03  0.00000000000E+00 0. -1.
          6    2    1    2  501    0 -0.19012315462E+03 -0.25608881801E+03  0.64259499318E+03  0.73754791333E+03  0.17123172185E+03 0.  0.
         24    2    3    3    0    0 -0.12737702250E+03 -0.13814427742E+03  0.50959473921E+03  0.54897657588E+03  0.79873245792E+02 0.  0.
         -6    2    1    2    0  502  0.19012315462E+03  0.25608881801E+03  0.29397063753E+02  0.36365442018E+03  0.17219771581E+03 0.  0.
        -24    2    5    5    0    0  0.11356272103E+03  0.92507440017E+02 -0.37085445154E+02  0.17113849563E+03  0.80367508217E+02 0.  0.
          5    1    3    3  501    0 -0.62746132119E+02 -0.11794454059E+03  0.13300025397E+03  0.18857133745E+03  0.47000000000E+01 0. -1.
        -11    1    4    4    0    0 -0.68541349004E+02 -0.11399379800E+03  0.40782677341E+03  0.42896990526E+03  0.00000000000E+00 0.  1.
         12    1    4    4    0    0 -0.58835673494E+02 -0.24150479420E+02  0.10176796579E+03  0.12000667062E+03  0.00000000000E+00 0. -1.
         -5    1    5    5    0  502  0.76560433588E+02  0.16358137799E+03  0.66482508907E+02  0.19251592456E+03  0.47000000000E+01 0.  1.
         13    1    6    6    0    0  0.88423428575E+02  0.81139784146E+02 -0.61003259226E+02  0.13462453316E+03  0.00000000000E+00 0. -1.
        -14    1    6    6    0    0  0.25139292455E+02  0.11367655871E+02  0.23917814072E+02  0.36513962468E+02  0.00000000000E+00 0.  1.
</event>
<event>
12    1  0.9962621E-001  0.1882622E+03  0.7818608E-02  0.1160520E+00
         21   -1    0    0  503  502  0.00000000000E+00  0.00000000000E+00  0.57622162833E+02  0.57622162833E+02  0.00000000000E+00 0.  1.
         21   -1    0    0  501  503 -0.00000000000E+00 -0.00000000000E+00 -0.60850992104E+03  0.60850992104E+03  0.00000000000E+00 0.  1.
          6    2    1    2  501    0  0.21123409007E+02 -0.69160328802E+02 -0.26702361171E+03  0.32551277132E+03  0.17154476266E+03 0.  0.
         24    2    3    3    0    0 -0.18395543046E+02 -0.92224030256E+02 -0.12288116854E+03  0.17420905088E+03  0.80033393451E+02 0.  0.
         -6    2    1    2    0  502 -0.21123409007E+02  0.69160328802E+02 -0.28386414650E+03  0.34061931255E+03  0.17381977139E+03 0.  0.
        -24    2    5    5    0    0 -0.77166692061E+02  0.69519442852E+02 -0.22063440767E+03  0.25599621635E+03  0.77890112588E+02 0.  0.
          5    1    3    3  501    0  0.39518952054E+02  0.23063701453E+02 -0.14414244317E+03  0.15130372044E+03  0.47000000000E+01 0. -1.
        -11    1    4    4    0    0  0.16143152857E+02  0.14892110510E+01 -0.44152756095E+02  0.47034933874E+02  0.00000000000E+00 0.  1.
         12    1    4    4    0    0 -0.34538695903E+02 -0.93713241307E+02 -0.78728412442E+02  0.12717411701E+03  0.00000000000E+00 0. -1.
         -5    1    5    5    0  502  0.56043283054E+02 -0.35911404980E+00 -0.63229738828E+02  0.84623096201E+02  0.47000000000E+01 0.  1.
         13    1    6    6    0    0 -0.19631715366E+02  0.66323348543E+02 -0.92498728566E+02  0.11549980778E+03  0.00000000000E+00 0. -1.
        -14    1    6    6    0    0 -0.57534976695E+02  0.31960943089E+01 -0.12813567911E+03  0.14049640857E+03  0.00000000000E+00 0.  1.
</event>
<event>
12    1  0.9962621E-001  0.2293903E+03  0.7818608E-02  0.1127305E+00
         21   -1    0    0  501  502  0.00000000000E+00  0.00000000000E+00  0.25536342582E+03  0.25536342582E+03  0.00000000000E+00 0. -1.
         21   -1    0    0  502  503 -0.00000000000E+00 -0.00000000000E+00 -0.27139873265E+03  0.27139873265E+03  0.00000000000E+00 0.  1.
         -6    2    1    2    0  503 -0.13009114681E+03  0.73954109695E+02  0.12240312169E+03  0.25883469995E+03  0.17210450569E+03 0.  0.
        -24    2    3    3    0    0 -0.12559417611E+03  0.10831665342E+03  0.71650226591E+02  0.19719904859E+03  0.79039960226E+02 0.  0.
          6    2    1    2  501    0  0.13009114681E+03 -0.73954109695E+02 -0.13843842852E+03  0.26792745852E+03  0.17385916059E+03 0.  0.
         24    2    5    5    0    0  0.62989619951E+02 -0.94172624622E+02 -0.14070993066E+03  0.19765190819E+03  0.80192373545E+02 0.  0.
          5    1    5    5  501    0  0.67101526855E+02  0.20218514927E+02  0.22715021418E+01  0.70275550329E+02  0.47000000000E+01 0. -1.
        -13    1    6    6    0    0 -0.64649045333E+01 -0.58256153585E+02 -0.44025090276E+02  0.73306091118E+02  0.00000000000E+00 0.  1.
         14    1    6    6    0    0  0.69454524484E+02 -0.35916471037E+02 -0.96684840389E+02  0.12434581707E+03  0.00000000000E+00 0. -1.
         -5    1    3    3    0  503 -0.44969706928E+01 -0.34362543726E+02  0.50752895104E+02  0.61635651357E+02  0.47000000000E+01 0.  1.
         13    1    4    4    0    0  0.94634285800E+01  0.45003394241E+01  0.13733535322E+02  0.17274823526E+02  0.00000000000E+00 0. -1.
        -14    1    4    4    0    0 -0.13505760469E+03  0.10381631400E+03  0.57916691269E+02  0.17992422506E+03  0.00000000000E+00 0.  1.
</event>
<event>
12    1  0.9962621E-001  0.2155375E+03  0.7818608E-02  0.1137258E+00
         21   -1    0    0  501  502  0.00000000000E+00  0.00000000000E+00  0.17222740661E+03  0.17222740661E+03  0.00000000000E+00 0. -1.
         21   -1    0    0  502  503 -0.00000000000E+00 -0.00000000000E+00 -0.87554973735E+03  0.87554973735E+03  0.00000000000E+00 0. -1.
         -6    2    1    2    0  503 -0.12495518083E+03  0.35067098296E+02  0.84133570804E+02  0.23135615514E+03  0.17205729914E+03 0.  0.
        -24    2    3    3    0    0 -0.32965671075E+01  0.67793463040E+02  0.25078114465E+02  0.92138806489E+02  0.57042325079E+02 0.  0.
          6    2    1    2  501    0  0.12495518083E+03 -0.35067098296E+02 -0.78745590154E+03  0.81642098882E+03  0.17208409432E+03 0.  0.
         24    2    5    5    0    0  0.89425490610E+02  0.34869636482E+02 -0.59133008257E+03  0.60513697943E+03  0.85479163538E+02 0.  0.
          5    1    5    5  501    0  0.35529690219E+02 -0.69936734778E+02 -0.19612581897E+03  0.21128400939E+03  0.47000000000E+01 0. -1.
        -11    1    6    6    0    0  0.66535120129E+02  0.28930149242E+02 -0.56542607276E+03  0.57006185585E+03  0.00000000000E+00 0.  1.
         12    1    6    6    0    0  0.22890370481E+02  0.59394872398E+01 -0.25904009819E+02  0.35075123580E+02  0.00000000000E+00 0. -1.
         -5    1    3    3    0  503 -0.12165861372E+03 -0.32726364745E+02  0.59055456338E+02  0.13921734865E+03  0.47000000000E+01 0.  1.
         11    1    4    4    0    0  0.13606314107E+02  0.63515993905E+02  0.44214605758E+01  0.65107315863E+02  0.00000000000E+00 0. -1.
        -12    1    4    4    0    0 -0.16902881214E+02  0.42774691357E+01  0.20656653890E+02  0.27031490626E+02  0.00000000000E+00 0.  1.
</event>
<event>
12    1  0.9962621E-001  0.1857750E+03  0.7818608E-02  0.1162738E+00
         21   -1    0    0  503  502  0.00000000000E+00  0.00000000000E+00  0.16271277753E+04  0.16271277753E+04  0.00000000000E+00 0.  1.
         21   -1    0    0  501  503 -0.00000000000E+00 -0.00000000000E+00 -0.23232405780E+02  0.23232405780E+02  0.00000000000E+00 0.  1.
          6    2    1    2  501    0 -0.38827911908E+02  0.52841901864E+02  0.54331508054E+03  0.57363231654E+03  0.17193860677E+03 0.  0.
         24    2    3    3    0    0 -0.64586025620E+02 -0.23820805449E+01  0.45276318600E+03  0.46438532912E+03  0.80512125123E+02 0.  0.
         -6    2    1    2    0  502  0.38827911908E+02 -0.52841901864E+02  0.10605802890E+04  0.10767278645E+04  0.17381735119E+03 0.  0.
        -24    2    5    5    0    0  0.81623928654E+01  0.37446004935E+02  0.37558889727E+03  0.38511556210E+03  0.76014133403E+02 0.  0.
          5    1    3    3  501    0  0.25758113712E+02  0.55223982409E+02  0.90551894543E+02  0.10924698742E+03  0.47000000000E+01 0. -1.
        -13    1    4    4    0    0 -0.55564484808E+02  0.33539452578E+02  0.32213415022E+03  0.32860723910E+03  0.00000000000E+00 0.  1.
         14    1    4    4    0    0 -0.90215408119E+01 -0.35921533123E+02  0.13062903578E+03  0.13577809002E+03  0.00000000000E+00 0. -1.
         -5    1    5    5    0  502  0.30665519043E+02 -0.90287906799E+02  0.68499139168E+03  0.69161230241E+03  0.47000000000E+01 0.  1.
         13    1    6    6    0    0  0.38775638534E+01 -0.17122217807E+02  0.20961534329E+03  0.21034922864E+03  0.00000000000E+00 0. -1.
        -14    1    6    6    0    0  0.42848290120E+01  0.54568222742E+02  0.16597355397E+03  0.17476633346E+03  0.00000000000E+00 0.  1.
</event>
<event>
12    1  0.1108214E+000  0.2087244E+03  0.7818608E-02  0.1142620E+00
         21   -1    0    0  501  502  0.00000000000E+00  0.00000000000E+00  0.37450919369E+03  0.37450919369E+03  0.00000000000E+00 0.  1.
         21   -1    0    0  502  503 -0.00000000000E+00 -0.00000000000E+00 -0.27954384408E+03  0.27954384408E+03  0.00000000000E+00 0.  1.
         -6    2    1    2    0  503  0.84402353037E+02 -0.81477764090E+02  0.29744291009E+03  0.36325580217E+03  0.17239521399E+03 0.  0.
        -24    2    3    3    0    0  0.35963576269E+02 -0.11610878788E+03  0.23848957174E+03  0.27933197357E+03  0.79840128955E+02 0.  0.
          6    2    1    2  501    0 -0.84402353037E+02  0.81477764090E+02 -0.20247756047E+03  0.29079723560E+03  0.17263686310E+03 0.  0.
         24    2    5    5    0    0 -0.49845711349E+02  0.31906109958E+02 -0.23510101260E+02  0.10184498810E+03  0.79480072647E+02 0.  0.
          5    1    5    5  501    0 -0.34556641689E+02  0.49571654132E+02 -0.17896745921E+03  0.18895224750E+03  0.47000000000E+01 0. -1.
        -11    1    6    6    0    0  0.17499296927E+02 -0.95235230235E+01 -0.28815659098E+01  0.20130233625E+02  0.00000000000E+00 0.  1.
         12    1    6    6    0    0 -0.67345008276E+02  0.41429632982E+02 -0.20628535350E+02  0.81714754478E+02  0.00000000000E+00 0. -1.
         -5    1    3    3    0  503  0.48438776768E+02  0.34631023788E+02  0.58953338349E+02  0.83923828595E+02  0.47000000000E+01 0.  1.
         13    1    4    4    0    0  0.24592976746E+02 -0.51900896420E+02  0.38915216161E+02  0.69375151194E+02  0.00000000000E+00 0. -1.
        -14    1    4    4    0    0  0.11370599524E+02 -0.64207891459E+02  0.19957435558E+03  0.20995682238E+03  0.00000000000E+00 0.  1.
</event>
<event>
12    1  0.9962621E-001  0.2492348E+03  0.7818608E-02  0.1114132E+00
         21   -1    0    0  503  502  0.00000000000E+00  0.00000000000E+00  0.19762993251E+03  0.19762993251E+03  0.00000000000E+00 0. -1.
         21   -1    0    0  501  503 -0.00000000000E+00 -0.00000000000E+00 -0.73050446817E+03  0.73050446817E+03  0.00000000000E+00 0. -1.
          6    2    1    2  501    0  0.15824291284E+03 -0.84022775106E+02  0.84485606844E+02  0.26316497571E+03  0.17325513116E+03 0.  0.
         24    2    3    3    0    0  0.70827858281E+02 -0.32668926260E+02  0.11050460372E+03  0.15839051435E+03  0.82416280790E+02 0.  0.
         -6    2    1    2    0  502 -0.15824291284E+03  0.84022775106E+02 -0.61736014250E+03  0.66496942497E+03  0.17014741961E+03 0.  0.
        -24    2    5    5    0    0 -0.87026827360E+02  0.49817529592E+02 -0.18856102080E+03  0.22892756182E+03  0.82444618140E+02 0.  0.
          5    1    3    3  501    0  0.87415054561E+02 -0.51353848846E+02 -0.26018996879E+02  0.10477446136E+03  0.47000000000E+01 0. -1.
        -13    1    4    4    0    0  0.79187902740E+02 -0.40622580777E+02  0.61835674028E+02  0.10837236083E+03  0.00000000000E+00 0.  1.
         14    1    4    4    0    0 -0.83600444594E+01  0.79536545165E+01  0.48668929695E+02  0.50018153517E+02  0.00000000000E+00 0. -1.
         -5    1    5    5    0  502 -0.71216085482E+02  0.34205245514E+02 -0.42879912169E+03  0.43604186315E+03  0.47000000000E+01 0.  1.
         13    1    6    6    0    0 -0.92161060335E+02  0.57168262535E+02 -0.19099373558E+03  0.21963715149E+03  0.00000000000E+00 0. -1.
        -14    1    6    6    0    0  0.51342329750E+01 -0.73507329425E+01  0.24327147735E+01  0.92904103356E+01  0.00000000000E+00 0.  1.
</event>
<event>
12    1  0.9962621E-001  0.1866453E+03  0.7818608E-02  0.1162108E+00
         21   -1    0    0  503  502  0.00000000000E+00  0.00000000000E+00  0.60595796430E+03  0.60595796430E+03  0.00000000000E+00 0.  1.
         21   -1    0    0  501  503 -0.00000000000E+00 -0.00000000000E+00 -0.57062152145E+02  0.57062152145E+02  0.00000000000E+00 0.  1.
          6    2    1    2  501    0 -0.10913462076E+02  0.65084893858E+02  0.24679335178E+03  0.30791117005E+03  0.17189294080E+03 0.  0.
         24    2    3    3    0    0  0.42336288645E+02 -0.12120088186E+02  0.13698090035E+03  0.16342238262E+03  0.77484515918E+02 0.  0.
         -6    2    1    2    0  502  0.10913462076E+02 -0.65084893858E+02  0.30210246037E+03  0.35510894639E+03  0.17458900360E+03 0.  0.
        -24    2    5    5    0    0 -0.61377622760E+02 -0.65121683216E+02  0.18530909982E+03  0.21767248336E+03  0.70949287076E+02 0.  0.
          5    1    3    3  501    0 -0.53249750721E+02  0.77204982044E+02  0.10981245143E+03  0.14448878743E+03  0.47000000000E+01 0. -1.
        -11    1    4    4    0    0  0.24786975410E+02 -0.19923490888E+02  0.76971310634E+01  0.32719802349E+02  0.00000000000E+00 0.  1.
         12    1    4    4    0    0  0.17549313235E+02  0.78034027017E+01  0.12928376929E+03  0.13070258027E+03  0.00000000000E+00 0. -1.
         -5    1    5    5    0  502  0.72291084836E+02  0.36789358265E-01  0.11679336055E+03  0.13743646303E+03  0.47000000000E+01 0.  1.
         11    1    6    6    0    0 -0.68643171021E+02 -0.24423551277E+02  0.11856379341E+03  0.13916094241E+03  0.00000000000E+00 0. -1.
        -12    1    6    6    0    0  0.72655482614E+01 -0.40698131939E+02  0.66745306412E+02  0.78511540953E+02  0.00000000000E+00 0.  1.
</event>
<event>
12    1  0.9962621E-001  0.3671119E+03  0.7818608E-02  0.1055821E+00
         21   -1    0    0  501  502  0.00000000000E+00  0.00000000000E+00  0.29908790781E+03  0.29908790781E+03  0.00000000000E+00 0. -1.
         21   -1    0    0  502  503 -0.00000000000E+00 -0.00000000000E+00 -0.47996947628E+03  0.47996947628E+03  0.00000000000E+00 0. -1.
         -6    2    1    2    0  503  0.22018762166E+03  0.23756158300E+03  0.62529243986E+01  0.36716511784E+03  0.17278029472E+03 0.  0.
        -24    2    3    3    0    0  0.88582975412E+02  0.18315613509E+03 -0.29416260349E+02  0.22028381741E+03  0.79161420421E+02 0.  0.
          6    2    1    2  501    0 -0.22018762166E+03 -0.23756158300E+03 -0.18713449287E+03  0.41189226625E+03  0.17238859047E+03 0.  0.
         24    2    5    5    0    0 -0.21910486389E+03 -0.14660743407E+03 -0.14591494071E+03  0.31191741415E+03  0.80626436253E+02 0.  0.
          5    1    5    5  501    0 -0.10827577694E+01 -0.90954148928E+02 -0.41219552162E+02  0.99974852098E+02  0.47000000000E+01 0. -1.
        -11    1    6    6    0    0 -0.86865513954E+02 -0.25499490705E+02 -0.19738832643E+02  0.92657773849E+02  0.00000000000E+00 0.  1.
         12    1    6    6    0    0 -0.13223934994E+03 -0.12110794337E+03 -0.12617610807E+03  0.21925964030E+03  0.00000000000E+00 0. -1.
         -5    1    3    3    0  503  0.13160464625E+03  0.54405447909E+02  0.35669184748E+02  0.14688130043E+03  0.47000000000E+01 0.  1.
         11    1    4    4    0    0 -0.14574155955E+02  0.30035682190E+02 -0.86858175579E+01  0.34496255638E+02  0.00000000000E+00 0. -1.
        -12    1    4    4    0    0  0.10315713137E+03  0.15312045290E+03 -0.20730442791E+02  0.18578756177E+03  0.00000000000E+00 0.  1.
</event>
<event>
12    1  0.9962621E-001  0.4697660E+03  0.7818608E-02  0.1022025E+00
         21   -1    0    0  501  502  0.00000000000E+00  0.00000000000E+00  0.30146637173E+03  0.30146637173E+03  0.00000000000E+00 0. -1.
         21   -1    0    0  502  503 -0.00000000000E+00 -0.00000000000E+00 -0.73755673683E+03  0.73755673683E+03  0.00000000000E+00 0. -1.
         -6    2    1    2    0  503  0.22692695199E+03  0.37519827872E+03 -0.26648321510E+03  0.54008646560E+03  0.16855413523E+03 0.  0.
        -24    2    3    3    0    0  0.49829227052E+02  0.18394349619E+03 -0.12654690815E+03  0.24420429983E+03  0.85460274015E+02 0.  0.
          6    2    1    2  501    0 -0.22692695199E+03 -0.37519827872E+03 -0.16960715000E+03  0.49893664296E+03  0.16703771568E+03 0.  0.
         24    2    5    5    0    0 -0.33413787391E+02 -0.13179499236E+03 -0.40267375460E+02  0.16212308628E+03  0.78587736824E+02 0.  0.
          5    1    5    5  501    0 -0.19351316460E+03 -0.24340328637E+03 -0.12933977454E+03  0.33681355668E+03  0.47000000000E+01 0. -1.
        -11    1    6    6    0    0 -0.52832016922E+02 -0.98925138753E+02 -0.85232184476E+01  0.11247244259E+03  0.00000000000E+00 0.  1.
         12    1    6    6    0    0  0.19418229531E+02 -0.32869853604E+02 -0.31744157013E+02  0.49650643687E+02  0.00000000000E+00 0. -1.
         -5    1    3    3    0  503  0.17709772494E+03  0.19125478254E+03 -0.13993630694E+03  0.29588216577E+03  0.47000000000E+01 0.  1.
         13    1    4    4    0    0  0.27250660925E+02  0.12123071878E+03 -0.12682510747E+03  0.17755025649E+03  0.00000000000E+00 0. -1.
        -14    1    4    4    0    0  0.22578566127E+02  0.62712777412E+02  0.27819931176E+00  0.66654043342E+02  0.00000000000E+00 0.  1.
</event>
<event>
12    1  0.9962621E-001  0.2031721E+03  0.7818608E-02  0.1147271E+00
         21   -1    0    0  503  502  0.00000000000E+00  0.00000000000E+00  0.42016726158E+02  0.42016726158E+02  0.00000000000E+00 0. -1.
         21   -1    0    0  501  503 -0.00000000000E+00 -0.00000000000E+00 -0.11788461515E+04  0.11788461515E+04  0.00000000000E+00 0. -1.
          6    2    1    2  501    0 -0.96842103051E+02  0.45448180003E+02 -0.82126621034E+03  0.84602428300E+03  0.17272802087E+03 0.  0.
         24    2    3    3    0    0 -0.85495949667E+02  0.34589932457E+02 -0.82068025701E+03  0.82962092732E+03  0.79049212262E+02 0.  0.
         -6    2    1    2    0  502  0.96842103051E+02 -0.45448180003E+02 -0.31556321502E+03  0.37483859468E+03  0.17169711528E+03 0.  0.
        -24    2    5    5    0    0  0.16090667931E+02 -0.87983447014E+01 -0.48168259248E+02  0.93083103026E+02  0.77511046994E+02 0.  0.
          5    1    3    3  501    0 -0.11346153384E+02  0.10858247547E+02 -0.58595332929E+00  0.16403355684E+02  0.47000000000E+01 0. -1.
        -11    1    4    4    0    0 -0.46934767660E+02  0.41821397556E+02 -0.25699544200E+03  0.26457240770E+03  0.00000000000E+00 0.  1.
         12    1    4    4    0    0 -0.38561182008E+02 -0.72314650997E+01 -0.56368481501E+03  0.56504851962E+03  0.00000000000E+00 0. -1.
         -5    1    5    5    0  502  0.80751435120E+02 -0.36649835302E+02 -0.26739495578E+03  0.28175549165E+03  0.47000000000E+01 0.  1.
         11    1    6    6    0    0 -0.23938816964E+01  0.31161638585E+02 -0.54270552858E+01  0.31721149380E+02  0.00000000000E+00 0. -1.
        -12    1    6    6    0    0  0.18484549627E+02 -0.39959983287E+02 -0.42741203962E+02  0.61361953646E+02  0.00000000000E+00 0.  1.
</event>
<event>
12    1  0.9962621E-001  0.3346531E+03  0.7818608E-02  0.1069163E+00
         21   -1    0    0  501  502  0.00000000000E+00  0.00000000000E+00  0.62965374198E+03  0.62965374198E+03  0.00000000000E+00 0.  1.
         21   -1    0    0  502  503 -0.00000000000E+00 -0.00000000000E+00 -0.22058581451E+03  0.22058581451E+03  0.00000000000E+00 0.  1.
         -6    2    1    2    0  503  0.28435070467E+03  0.37354514596E+02  0.16885497790E+02  0.33507879130E+03  0.17245867139E+03 0.  0.
        -24    2    3    3    0    0  0.20833447028E+03  0.91757036064E+02  0.11956270325E+02  0.24135318372E+03  0.79283048112E+02 0.  0.
          6    2    1    2  501    0 -0.28435070467E+03 -0.37354514596E+02  0.39218242967E+03  0.51516076519E+03  0.17126842336E+03 0.  0.
         24    2    5    5    0    0 -0.45904898409E+02 -0.45976960220E+01  0.15050428605E+03  0.17404520297E+03  0.74241457759E+02 0.  0.
          5    1    5    5  501    0 -0.23844580626E+03 -0.32756818574E+02  0.24167814362E+03  0.34111556222E+03  0.47000000000E+01 0. -1.
        -13    1    6    6    0    0 -0.27297639047E+02  0.33974149534E+02  0.62766867263E+02  0.76413896381E+02  0.00000000000E+00 0.  1.
         14    1    6    6    0    0 -0.18607259362E+02 -0.38571845556E+02  0.87737418786E+02  0.97631306587E+02  0.00000000000E+00 0. -1.
         -5    1    3    3    0  503  0.76016234386E+02 -0.54402521468E+02  0.49292274650E+01  0.93725607578E+02  0.47000000000E+01 0.  1.
         11    1    4    4    0    0  0.13029650440E+03  0.22423361922E+02  0.29596555320E+02  0.13548410351E+03  0.00000000000E+00 0. -1.
        -12    1    4    4    0    0  0.78037965882E+02  0.69333674142E+02 -0.17640284995E+02  0.10586908021E+03  0.00000000000E+00 0.  1.
</event>
<event>
12    1  0.9962621E-001  0.1942298E+03  0.7818608E-02  0.1156819E+00
         21   -1    0    0  503  502  0.00000000000E+00  0.00000000000E+00  0.26467903790E+02  0.26467903790E+02  0.00000000000E+00 0.  1.
         21   -1    0    0  501  503 -0.00000000000E+00 -0.00000000000E+00 -0.13840701663E+04  0.13840701663E+04  0.00000000000E+00 0.  1.
          6    2    1    2  501    0  0.75989058966E+02  0.48991858142E+02 -0.59686514959E+03  0.62767285674E+03  0.17190308038E+03 0.  0.
         24    2    3    3    0    0  0.17061390507E+02  0.19540857532E+02 -0.12051901354E+03  0.14676999454E+03  0.79647112389E+02 0.  0.
         -6    2    1    2    0  502 -0.75989058966E+02 -0.48991858142E+02 -0.76073711291E+03  0.78286521334E+03  0.16119071950E+03 0.  0.
        -24    2    5    5    0    0 -0.58515644600E+02 -0.71711958477E+02 -0.35006963616E+03  0.37117189347E+03  0.81566774404E+02 0.  0.
          5    1    3    3  501    0  0.58927668459E+02  0.29451000610E+02 -0.47634613605E+03  0.48090286220E+03  0.47000000000E+01 0. -1.
        -13    1    4    4    0    0 -0.11700847841E+02 -0.85515668583E+01 -0.10107716719E+03  0.10211088514E+03  0.00000000000E+00 0.  1.
         14    1    4    4    0    0  0.28762238347E+02  0.28092424391E+02 -0.19441846352E+02  0.44659109401E+02  0.00000000000E+00 0. -1.
         -5    1    5    5    0  502 -0.17473414366E+02  0.22720100335E+02 -0.41066747675E+03  0.41169331987E+03  0.47000000000E+01 0.  1.
         11    1    6    6    0    0 -0.25342875220E+02  0.26717113953E+01 -0.18870774765E+03  0.19042062228E+03  0.00000000000E+00 0. -1.
        -12    1    6    6    0    0 -0.33172769380E+02 -0.74383669872E+02 -0.16136188851E+03  0.18075127118E+03  0.00000000000E+00 0.  1.
</event>
<event>
12    1  0.9962621E-001  0.1894522E+03  0.7818608E-02  0.1159016E+00
         21   -1    0    0  503  502  0.00000000000E+00  0.00000000000E+00  0.22119623170E+03  0.22119623170E+03  0.00000000000E+00 0.  1.
         21   -1    0    0  501  503 -0.00000000000E+00 -0.00000000000E+00 -0.28037678294E+03  0.28037678294E+03  0.00000000000E+00 0.  1.
          6    2    1    2  501    0 -0.35354212702E+02  0.70960147456E+02  0.13332711384E+03  0.23166407390E+03  0.17206644347E+03 0.  0.
         24    2    3    3    0    0 -0.51584285406E+02 -0.17406405914E+02  0.10189986431E+03  0.13636546412E+03  0.72443329500E+02 0.  0.
         -6    2    1    2    0  502  0.35354212702E+02 -0.70960147456E+02 -0.19250766509E+03  0.26990894074E+03  0.17177418982E+03 0.  0.
        -24    2    5    5    0    0  0.13606455855E+02  0.12917020670E+02 -0.33973031591E+02  0.89178023957E+02  0.80290522588E+02 0.  0.
          5    1    3    3  501    0  0.16230072704E+02  0.88366553369E+02  0.31427249532E+02  0.95298609788E+02  0.47000000000E+01 0. -1.
        -13    1    4    4    0    0  0.89443543120E+01  0.17868830516E+02  0.16557296488E+02  0.25950734962E+02  0.00000000000E+00 0.  1.
         14    1    4    4    0    0 -0.60528639718E+02 -0.35275236430E+02  0.85342567824E+02  0.11041472915E+03  0.00000000000E+00 0. -1.
         -5    1    5    5    0  502  0.21747756847E+02 -0.83877168126E+02 -0.15853463350E+03  0.18073091678E+03  0.47000000000E+01 0.  1.
         11    1    6    6    0    0  0.98662942495E+01  0.45029620764E+02 -0.33253793925E+02  0.56840349390E+02  0.00000000000E+00 0. -1.
        -12    1    6    6    0    0  0.37401616057E+01 -0.32112600094E+02 -0.71923766627E+00  0.32337674568E+02  0.00000000000E+00 0.  1.
</event>
<event>
12    1  0.9962621E-001  0.1834403E+03  0.7818608E-02  0.1164619E+00
         21   -1    0    0  503  502  0.00000000000E+00  0.00000000000E+00  0.20092915819E+03  0.20092915819E+03  0.00000000000E+00 0.  1.
         21   -1    0    0  501  503 -0.00000000000E+00 -0.00000000000E+00 -0.41193037990E+03  0.41193037990E+03  0.00000000000E+00 0.  1.
          6    2    1    2  501    0  0.60474915241E+02 -0.20201737995E+02 -0.34170293600E+03  0.38761905011E+03  0.17152931512E+03 0.  0.
         24    2    3    3    0    0 -0.21999480086E+02  0.26351596906E+02 -0.13662081614E+03  0.16167656901E+03  0.79345332458E+02 0.  0.
         -6    2    1    2    0  502 -0.60474915241E+02  0.20201737995E+02  0.13070171429E+03  0.22524048798E+03  0.17200294683E+03 0.  0.
        -24    2    5    5    0    0  0.17151664832E+02 -0.28756750089E+02  0.31846263327E+02  0.90268973675E+02  0.77544650610E+02 0.  0.
          5    1    3    3  501    0  0.82474395328E+02 -0.46553334901E+02 -0.20508211986E+03  0.22594248109E+03  0.47000000000E+01 0. -1.
        -11    1    4    4    0    0 -0.24244625356E+02 -0.57449500613E+01 -0.12501292509E+03  0.12747171352E+03  0.00000000000E+00 0.  1.
         12    1    4    4    0    0  0.22451452696E+01  0.32096546967E+02 -0.11607891049E+02  0.34204855491E+02  0.00000000000E+00 0. -1.
         -5    1    5    5    0  502 -0.77626580073E+02  0.48958488084E+02  0.98855450966E+02  0.13497151431E+03  0.47000000000E+01 0.  1.
         11    1    6    6    0    0 -0.26918763336E+02  0.20978248847E+01 -0.13836233070E+01  0.27035811478E+02  0.00000000000E+00 0. -1.
        -12    1    6    6    0    0  0.44070428168E+02 -0.30854574974E+02  0.33229886634E+02  0.63233162197E+02  0.00000000000E+00 0.  1.
</event>
<event>
12    1  0.9962621E-001  0.2246085E+03  0.7818608E-02  0.1130567E+00
         21   -1    0    0  503  502  0.00000000000E+00  0.00000000000E+00  0.10305406182E+04  0.10305406182E+04  0.00000000000E+00 0.  1.
         21   -1    0    0  501  503 -0.00000000000E+00 -0.00000000000E+00 -0.48976360960E+02  0.48976360960E+02  0.00000000000E+00 0.  1.
          6    2    1    2  501    0 -0.12027131478E+03  0.79927218601E+02  0.46459746565E+03  0.51586491127E+03  0.17150000629E+03 0.  0.
         24    2    3    3    0    0 -0.67105453483E+02  0.19423443822E+02  0.10732932257E+03  0.14960007317E+03  0.77331664606E+02 0.  0.
         -6    2    1    2    0  502  0.12027131478E+03 -0.79927218601E+02  0.51696679163E+03  0.56365206793E+03  0.17203325435E+03 0.  0.
        -24    2    5    5    0    0  0.58978034652E+02 -0.48569316894E+01  0.39909939617E+03  0.41098502146E+03  0.78271076927E+02 0.  0.
          5    1    3    3  501    0 -0.53165861299E+02  0.60503774780E+02  0.35726814308E+03  0.36626483810E+03  0.47000000000E+01 0. -1.
        -11    1    4    4    0    0  0.16156287001E+02  0.72230009772E+01  0.80135740121E+01  0.19427164518E+02  0.00000000000E+00 0.  1.
         12    1    4    4    0    0 -0.83261740484E+02  0.12200442844E+02  0.99315748557E+02  0.13017290865E+03  0.00000000000E+00 0. -1.
         -5    1    5    5    0  502  0.61293280130E+02 -0.75070286912E+02  0.11786739546E+03  0.15266704647E+03  0.47000000000E+01 0.  1.
         11    1    6    6    0    0  0.77749650828E+02 -0.87143991168E+01  0.29890275862E+03  0.30897218009E+03  0.00000000000E+00 0. -1.
        -12    1    6    6    0    0 -0.18771616176E+02  0.38574674274E+01  0.10019663754E+03  0.10201284137E+03  0.00000000000E+00 0.  1.
</event>
<event>
12    1  0.9962621E-001  0.2247064E+03  0.7818608E-02  0.1130437E+00
         21   -1    0    0  501  502  0.00000000000E+00  0.00000000000E+00  0.30823420973E+03  0.30823420973E+03  0.00000000000E+00 0. -1.
         21   -1    0    0  502  503 -0.00000000000E+00 -0.00000000000E+00 -0.16643690579E+03  0.16643690579E+03  0.00000000000E+00 0. -1.
         -6    2    1    2    0  503 -0.76103293221E+02 -0.12256637649E+03  0.40771737779E+02  0.22837532033E+03  0.17227514171E+03 0.  0.
        -24    2    3    3    0    0 -0.60814450824E+02  0.57563148652E+00  0.25226355209E+02  0.10322959827E+03  0.79506302778E+02 0.  0.
          6    2    1    2  501    0  0.76103293221E+02  0.12256637649E+03  0.10102556617E+03  0.24629579519E+03  0.17216627377E+03 0.  0.
         24    2    5    5    0    0  0.51143537674E+02  0.13097899964E+03  0.12927585453E+03  0.20738653642E+03  0.80782232770E+02 0.  0.
          5    1    5    5  501    0  0.24959755547E+02 -0.84126231445E+01 -0.28250288366E+02  0.38909258768E+02  0.47000000000E+01 0. -1.
        -11    1    6    6    0    0  0.52575450906E+02  0.10331213329E+03  0.55383388251E+02  0.12847137665E+03  0.00000000000E+00 0.  1.
         12    1    6    6    0    0 -0.14319132317E+01  0.27666866343E+02  0.73892466280E+02  0.78915159771E+02  0.00000000000E+00 0. -1.
         -5    1    3    3    0  503 -0.15288842398E+02 -0.12314200798E+03  0.15545382570E+02  0.12514572206E+03  0.47000000000E+01 0.  1.
         11    1    4    4    0    0 -0.54216580894E+02 -0.66188613248E+01 -0.19083678067E+02  0.57857011136E+02  0.00000000000E+00 0. -1.
        -12    1    4    4    0    0 -0.65978699300E+01  0.71944928113E+01  0.44310033276E+02  0.45372587135E+02  0.00000000000E+00 0.  1.
</event>
<event>
12    1  0.9962621E-001  0.1766603E+03  0.7818608E-02  0.1171453E+00
         21   -1    0    0  501  502  0.00000000000E+00  0.00000000000E+00  0.23305747447E+03  0.23305747447E+03  0.00000000000E+00 0.  1.
         21   -1    0    0  502  503 -0.00000000000E+00 -0.00000000000E+00 -0.22287608528E+03  0.22287608528E+03  0.00000000000E+00 0.  1.
         -6    2    1    2    0  503 -0.20407481203E+02  0.31840361197E+02  0.15003167902E+03  0.23061832086E+03  0.17101178707E+03 0.  0.
        -24    2    3    3    0    0 -0.18599228646E+01  0.73647850050E+02  0.14346017999E+03  0.18417316348E+03  0.88946420810E+02 0.  0.
          6    2    1    2  501    0  0.20407481203E+02 -0.31840361197E+02 -0.13985028982E+03  0.22531523889E+03  0.17256471082E+03 0.  0.
         24    2    5    5    0    0  0.15864738771E+02 -0.49928055890E+02 -0.10922741219E+02  0.94961090517E+02  0.78446170940E+02 0.  0.
          5    1    5    5  501    0  0.45427424323E+01  0.18087694693E+02 -0.12892754860E+03  0.13035414837E+03  0.47000000000E+01 0. -1.
        -11    1    6    6    0    0  0.44119369998E+00 -0.66512778505E+02  0.58608417847E+01  0.66771953864E+02  0.00000000000E+00 0.  1.
         12    1    6    6    0    0  0.15423545071E+02  0.16584722615E+02 -0.16783583004E+02  0.28189136653E+02  0.00000000000E+00 0. -1.
         -5    1    3    3    0  503 -0.18547558339E+02 -0.41807488853E+02  0.65714990290E+01  0.46445157380E+02  0.47000000000E+01 0.  1.
         11    1    4    4    0    0 -0.26635405227E+02 -0.98476060170E+01  0.34701765859E+02  0.44840079277E+02  0.00000000000E+00 0. -1.
        -12    1    4    4    0    0  0.24775482363E+02  0.83495456067E+02  0.10875841413E+03  0.13933308420E+03  0.00000000000E+00 0.  1.
</event>
<event>
12    1  0.9962621E-001  0.3259398E+03  0.7818608E-02  0.1073098E+00
         21   -1    0    0  503  502  0.00000000000E+00  0.00000000000E+00  0.33899850467E+03  0.33899850467E+03  0.00000000000E+00 0. -1.
         21   -1    0    0  501  503 -0.00000000000E+00 -0.00000000000E+00 -0.31560407862E+03  0.31560407862E+03  0.00000000000E+00 0. -1.
          6    2    1    2  501    0 -0.36653649211E+02 -0.27416612651E+03 -0.22805530375E+02  0.32540476723E+03  0.16987529366E+03 0.  0.
         24    2    3    3    0    0 -0.49894706187E+02 -0.19191522700E+03 -0.75826241621E+02  0.22654212575E+03  0.79061872994E+02 0.  0.
         -6    2    1    2    0  502  0.36653649211E+02  0.27416612651E+03  0.46199956430E+02  0.32919781606E+03  0.17241290903E+03 0.  0.
        -24    2    5    5    0    0 -0.36999581675E+02  0.18997431834E+03  0.23612931382E+01  0.20896064468E+03  0.78738584226E+02 0.  0.
          5    1    3    3  501    0  0.13241056976E+02 -0.82250899502E+02  0.53020711247E+02  0.98862641477E+02  0.47000000000E+01 0. -1.
        -11    1    4    4    0    0 -0.19729038395E+02 -0.17920835493E+03 -0.58742965862E+02  0.18961963367E+03  0.00000000000E+00 0.  1.
         12    1    4    4    0    0 -0.30165667792E+02 -0.12706872069E+02 -0.17083275759E+02  0.36922492086E+02  0.00000000000E+00 0. -1.
         -5    1    5    5    0  502  0.73653230886E+02  0.84191808165E+02  0.43838663292E+02  0.12023717138E+03  0.47000000000E+01 0.  1.
         11    1    6    6    0    0  0.18151018513E+02  0.29001938375E+02  0.16943239031E+02  0.38179120622E+02  0.00000000000E+00 0. -1.
        -12    1    6    6    0    0 -0.55150600188E+02  0.16097237997E+03 -0.14581945893E+02  0.17078152406E+03  0.00000000000E+00 0.  1.
</event>
<event>
12    1  0.1317684E+000  0.2060716E+03  0.7818608E-02  0.1145187E+00
         21   -1    0    0  503  502  0.00000000000E+00  0.00000000000E+00  0.25873621868E+03  0.25873621868E+03  0.00000000000E+00 0.  1.
         21   -1    0    0  501  503 -0.00000000000E+00 -0.00000000000E+00 -0.42940489647E+03  0.42940489647E+03  0.00000000000E+00 0. -1.
          6    2    1    2  501    0  0.27722520895E+01  0.10839618234E+03  0.18585222686E+03  0.27750052834E+03  0.17523719717E+03 0.  0.
         24    2    3    3    0    0 -0.15456793890E+02  0.36786446456E+02  0.12973374659E+02  0.89432881125E+02  0.78979596454E+02 0.  0.
         -6    2    1    2    0  502 -0.27722520895E+01 -0.10839618234E+03 -0.35652090465E+03  0.41064058682E+03  0.17251411063E+03 0.  0.
        -24    2    5    5    0    0 -0.41082632808E+02 -0.40213760668E+02 -0.94364393102E+02  0.13702652570E+03  0.81035182451E+02 0.  0.
          5    1    3    3  501    0  0.18229045980E+02  0.71609735882E+02  0.17287885220E+03  0.18806764721E+03  0.47000000000E+01 0. -1.
        -11    1    4    4    0    0 -0.13096863861E+02 -0.15420306334E+02  0.28467454777E+02  0.34924342112E+02  0.00000000000E+00 0.  1.
         12    1    4    4    0    0 -0.23599300294E+01  0.52206752791E+02 -0.15494080118E+02  0.54508539014E+02  0.00000000000E+00 0. -1.
         -5    1    5    5    0  502  0.38310380718E+02 -0.68182421671E+02 -0.26215651155E+03  0.27361406112E+03  0.47000000000E+01 0.  1.
         13    1    6    6    0    0 -0.34194875756E+02 -0.65021759699E+02 -0.73050540181E+02  0.10360260703E+03  0.00000000000E+00 0. -1.
        -14    1    6    6    0    0 -0.68877570520E+01  0.24807999031E+02 -0.21313852921E+02  0.33423918673E+02  0.00000000000E+00 0.  1.
</event>
<event>
12    1  0.9962621E-001  0.1884364E+03  0.7818608E-02  0.1160175E+00
         21   -1    0    0  503  502  0.00000000000E+00  0.00000000000E+00  0.21351303383E+03  0.21351303383E+03  0.00000000000E+00 0. -1.
         21   -1    0    0  501  503 -0.00000000000E+00 -0.00000000000E+00 -0.21260477751E+03  0.21260477751E+03  0.00000000000E+00 0. -1.
          6    2    1    2  501    0  0.10922211961E+02  0.75554664147E+02 -0.10018918678E+03  0.21227447888E+03  0.17086479816E+03 0.  0.
         24    2    3    3    0    0  0.37234207290E+02  0.63115286719E+02 -0.13067064895E+03  0.16986847995E+03  0.80065950148E+02 0.  0.
         -6    2    1    2    0  502 -0.10922211961E+02 -0.75554664147E+02  0.10109744310E+03  0.21384333246E+03  0.17228022477E+03 0.  0.
        -24    2    5    5    0    0  0.57592898750E+02 -0.17292027199E+02  0.25805032210E+02  0.96455546050E+02  0.70864776056E+02 0.  0.
          5    1    3    3  501    0 -0.26311995330E+02  0.12439377429E+02  0.30481462175E+02  0.42405998931E+02  0.47000000000E+01 0. -1.
        -13    1    4    4    0    0 -0.23978342029E+02  0.28004305961E+02 -0.56737296654E+02  0.67663305199E+02  0.00000000000E+00 0.  1.
         14    1    4    4    0    0  0.61212549320E+02  0.35110980758E+02 -0.73933352297E+02  0.10220517475E+03  0.00000000000E+00 0. -1.
         -5    1    5    5    0  502 -0.68515110710E+02 -0.58262636948E+02  0.75292410892E+02  0.11738778641E+03  0.47000000000E+01 0.  1.
         11    1    6    6    0    0 -0.14448695261E+02  0.80799198468E+01  0.41671825416E+01  0.17070890715E+02  0.00000000000E+00 0. -1.
        -12    1    6    6    0    0  0.72041594010E+02 -0.25371947046E+02  0.21637849669E+02  0.79384655336E+02  0.00000000000E+00 0.  1.
</event>
<event>
12    1  0.9962621E-001  0.2107583E+03  0.7818608E-02  0.1141226E+00
         21   -1    0    0  503  502  0.00000000000E+00  0.00000000000E+00  0.35081173870E+02  0.35081173870E+02  0.00000000000E+00 0. -1.
         21   -1    0    0  501  503 -0.00000000000E+00 -0.00000000000E+00 -0.12584314600E+04  0.12584314600E+04  0.00000000000E+00 0. -1.
          6    2    1    2  501    0  0.10560451628E+03 -0.58918586941E+02 -0.60400678210E+03  0.63929140384E+03  0.17101342769E+03 0.  0.
         24    2    3    3    0    0  0.77893786134E+02 -0.10282908566E+03 -0.49816695574E+03  0.52130761128E+03  0.83366941932E+02 0.  0.
         -6    2    1    2    0  502 -0.10560451628E+03  0.58918586941E+02 -0.61934350401E+03  0.65422123001E+03  0.17261323268E+03 0.  0.
        -24    2    5    5    0    0 -0.68015986196E+02  0.67213540055E+02 -0.22148804533E+03  0.25448036415E+03  0.80990537527E+02 0.  0.
          5    1    3    3  501    0  0.27710730145E+02  0.43910498718E+02 -0.10583982636E+03  0.11798379256E+03  0.47000000000E+01 0. -1.
        -13    1    4    4    0    0  0.67728956359E+02 -0.22210148726E+02 -0.20250948633E+03  0.21468720104E+03  0.00000000000E+00 0.  1.
         14    1    4    4    0    0  0.10164829776E+02 -0.80618936933E+02 -0.29565746941E+03  0.30662041024E+03  0.00000000000E+00 0. -1.
         -5    1    5    5    0  502 -0.37588530083E+02 -0.82949531147E+01 -0.39785545867E+03  0.39974086586E+03  0.47000000000E+01 0.  1.
         13    1    6    6    0    0  0.16989753718E+02  0.25421670116E+02 -0.52486398649E+02  0.60743189627E+02  0.00000000000E+00 0. -1.
        -14    1    6    6    0    0 -0.85005739915E+02  0.41791869939E+02 -0.16900164668E+03  0.19373717453E+03  0.00000000000E+00 0.  1.
</event>
<event>
12    1  0.9962621E-001  0.1993259E+03  0.7818608E-02  0.1150391E+00
         21   -1    0    0  501  502  0.00000000000E+00  0.00000000000E+00  0.89325716909E+03  0.89325716909E+03  0.00000000000E+00 0.  1.
         21   -1    0    0  502  503 -0.00000000000E+00 -0.00000000000E+00 -0.46326332407E+02  0.46326332407E+02  0.00000000000E+00 0.  1.
         -6    2    1    2    0  503  0.98050109787E+02 -0.19058517417E+02  0.51985553548E+03  0.55675902406E+03  0.17249284620E+03 0.  0.
        -24    2    3    3    0    0  0.82739977667E+02 -0.72967597455E+02  0.42636744710E+03  0.44765952028E+03  0.80247566748E+02 0.  0.
          6    2    1    2  501    0 -0.98050109787E+02  0.19058517417E+02  0.32707530120E+03  0.38282447744E+03  0.17204440343E+03 0.  0.
         24    2    5    5    0    0 -0.94956824191E+02 -0.46879374922E+02  0.22516732525E+03  0.26131439709E+03  0.79814882794E+02 0.  0.
          5    1    5    5  501    0 -0.30932855958E+01  0.65937892339E+02  0.10190797596E+03  0.12151008035E+03  0.47000000000E+01 0. -1.
        -11    1    6    6    0    0  0.10373579466E+02 -0.21908880045E+02  0.45579292008E+02  0.51624432546E+02  0.00000000000E+00 0.  1.
         12    1    6    6    0    0 -0.10533040366E+03 -0.24970494877E+02  0.17958803324E+03  0.20968996455E+03  0.00000000000E+00 0. -1.
         -5    1    3    3    0  503  0.15310132120E+02  0.53909080038E+02  0.93488088379E+02  0.10909950378E+03  0.47000000000E+01 0.  1.
         11    1    4    4    0    0  0.49150206165E+02 -0.15165120403E+02  0.30306945431E+03  0.30740334705E+03  0.00000000000E+00 0. -1.
        -12    1    4    4    0    0  0.33589771502E+02 -0.57802477053E+02  0.12329799279E+03  0.14025617323E+03  0.00000000000E+00 0.  1.
</event>
<event>
12    1  0.9962621E-001  0.2659232E+03  0.7818608E-02  0.1103765E+00
         21   -1    0    0  503  502  0.00000000000E+00  0.00000000000E+00  0.31870342539E+03  0.31870342539E+03  0.00000000000E+00 0.  1.
         21   -1    0    0  501  503 -0.00000000000E+00 -0.00000000000E+00 -0.22115004917E+03  0.22115004917E+03  0.00000000000E+00 0. -1.
          6    2    1    2  501    0 -0.54644085515E+02  0.19339595582E+03  0.48319348509E+02  0.26941095611E+03  0.17279910886E+03 0.  0.
         24    2    3    3    0    0 -0.12640212360E+02  0.13197204863E+03 -0.33613931072E+02  0.15863020851E+03  0.80357016518E+02 0.  0.
         -6    2    1    2    0  502  0.54644085515E+02 -0.19339595582E+03  0.49234027711E+02  0.27044251845E+03  0.17414704846E+03 0.  0.
        -24    2    5    5    0    0  0.94446319444E+02 -0.18669269632E+03  0.51333531729E+02  0.22975284616E+03  0.79855924780E+02 0.  0.
          5    1    3    3  501    0 -0.42003873155E+02  0.61423907193E+02  0.81933279581E+02  0.11078074760E+03  0.47000000000E+01 0. -1.
        -11    1    4    4    0    0  0.17141632510E+02  0.40515606763E+02  0.20208168221E+02  0.48411982187E+02  0.00000000000E+00 0.  1.
         12    1    4    4    0    0 -0.29781844869E+02  0.91456441865E+02 -0.53822099293E+02  0.11021822633E+03  0.00000000000E+00 0. -1.
         -5    1    5    5    0  502 -0.39802233929E+02 -0.67032595003E+01 -0.20995040181E+01  0.40689672286E+02  0.47000000000E+01 0.  1.
         13    1    6    6    0    0  0.51286447034E+02 -0.10732639866E+03 -0.11803095982E+02  0.11953480068E+03  0.00000000000E+00 0. -1.
        -14    1    6    6    0    0  0.43159872409E+02 -0.79366297665E+02  0.63136627711E+02  0.11021804548E+03  0.00000000000E+00 0.  1.
</event>
<event>
12    1  0.9962621E-001  0.1840912E+03  0.7818608E-02  0.1163966E+00
         21   -1    0    0  503  502  0.00000000000E+00  0.00000000000E+00  0.28681338835E+03  0.28681338835E+03  0.00000000000E+00 0.  1.
         21   -1    0    0  501  503 -0.00000000000E+00 -0.00000000000E+00 -0.12367129032E+03  0.12367129032E+03  0.00000000000E+00 0.  1.
          6    2    1    2  501    0  0.63579255611E+02 -0.18447965755E+02  0.37612914177E+02  0.18789443530E+03  0.17177583742E+03 0.  0.
         24    2    3    3    0    0 -0.31074387411E+02 -0.31688723190E+01  0.26501485033E+02  0.91259469111E+02  0.81549388034E+02 0.  0.
         -6    2    1    2    0  502 -0.63579255611E+02  0.18447965755E+02  0.12552918385E+03  0.22259024336E+03  0.17148233512E+03 0.  0.
        -24    2    5    5    0    0 -0.13169601898E+02 -0.48063536758E+02  0.38003754241E+02  0.10156254413E+03  0.79919478562E+02 0.  0.
          5    1    3    3  501    0  0.94653643022E+02 -0.15279093436E+02  0.11111429144E+02  0.96634966193E+02  0.47000000000E+01 0. -1.
        -11    1    4    4    0    0  0.77936493594E+01  0.24906456777E+02  0.33860671728E+02  0.42750645017E+02  0.00000000000E+00 0.  1.
         12    1    4    4    0    0 -0.38868036770E+02 -0.28075329096E+02 -0.73591866942E+01  0.48508824094E+02  0.00000000000E+00 0. -1.
         -5    1    5    5    0  502 -0.50409653713E+02  0.66511502514E+02  0.87525429608E+02  0.12102769924E+03  0.47000000000E+01 0.  1.
         13    1    6    6    0    0 -0.44119525957E+02 -0.17980793395E+02  0.33341188927E+02  0.58150463290E+02  0.00000000000E+00 0. -1.
        -14    1    6    6    0    0  0.30949924059E+02 -0.30082743363E+02  0.46625653146E+01  0.43412080839E+02  0.00000000000E+00 0.  1.
</event>
<event>
12    1  0.9962621E-001  0.2008473E+03  0.7818608E-02  0.1149262E+00
         21   -1    0    0  503  502  0.00000000000E+00  0.00000000000E+00  0.80569174040E+02  0.80569174040E+02  0.00000000000E+00 0. -1.
         21   -1    0    0  501  503 -0.00000000000E+00 -0.00000000000E+00 -0.63429981544E+03  0.63429981544E+03  0.00000000000E+00 0. -1.
          6    2    1    2  501    0  0.52811130094E+02 -0.88053836691E+02 -0.44323336550E+03  0.48661635101E+03  0.17261854812E+03 0.  0.
         24    2    3    3    0    0 -0.15893410489E+02 -0.93922992192E+02 -0.21297307410E+03  0.24620700701E+03  0.78652597236E+02 0.  0.
         -6    2    1    2    0  502 -0.52811130094E+02  0.88053836691E+02 -0.11049727590E+03  0.22825263847E+03  0.17131002706E+03 0.  0.
        -24    2    5    5    0    0  0.30197956167E+02  0.26064678844E+02 -0.81524465059E+02  0.12057405258E+03  0.79376191091E+02 0.  0.
          5    1    3    3  501    0  0.68704540582E+02  0.58691555009E+01 -0.23026029140E+03  0.24040934400E+03  0.47000000000E+01 0. -1.
        -13    1    4    4    0    0  0.20060667079E+02 -0.67048782065E+02 -0.17093868740E+03  0.18471059632E+03  0.00000000000E+00 0.  1.
         14    1    4    4    0    0 -0.35954077568E+02 -0.26874210127E+02 -0.42034386693E+02  0.61496410695E+02  0.00000000000E+00 0. -1.
         -5    1    5    5    0  502 -0.83009086261E+02  0.61989157846E+02 -0.28972810841E+02  0.10767858590E+03  0.47000000000E+01 0.  1.
         13    1    6    6    0    0 -0.21781597816E+02  0.21985720969E+02 -0.10949884326E+02  0.32828492148E+02  0.00000000000E+00 0. -1.
        -14    1    6    6    0    0  0.51979553983E+02  0.40789578750E+01 -0.70574580733E+02  0.87745560431E+02  0.00000000000E+00 0.  1.
</event>
<event>
12    1  0.9962621E-001  0.4243182E+03  0.7818608E-02  0.1035799E+00
         21   -1    0    0  501  502  0.00000000000E+00  0.00000000000E+00  0.21521757390E+04  0.21521757390E+04  0.00000000000E+00 0. -1.
         21   -1    0    0  502  503 -0.00000000000E+00 -0.00000000000E+00 -0.83341472818E+02  0.83341472818E+02  0.00000000000E+00 0. -1.
         -6    2    1    2    0  503 -0.38400737459E+03  0.54687653550E+02  0.10362353741E+04  0.11197453664E+04  0.17202770661E+03 0.  0.
        -24    2    3    3    0    0 -0.15946451106E+03  0.87168768085E+02  0.56177233107E+03  0.59380640647E+03  0.63170974341E+02 0.  0.
          6    2    1    2  501    0  0.38400737459E+03 -0.54687653550E+02  0.10325988920E+04  0.11157718454E+04  0.16802956854E+03 0.  0.
         24    2    5    5    0    0  0.94501746330E+02 -0.43495340410E+02  0.27249938227E+03  0.30231494338E+03  0.79473183853E+02 0.  0.
          5    1    5    5  501    0  0.28950562826E+03 -0.11192313140E+02  0.76009950974E+03  0.81345690198E+03  0.47000000000E+01 0. -1.
        -11    1    6    6    0    0 -0.68337905173E+00 -0.17898322221E+02  0.11591296258E+03  0.11728866885E+03  0.00000000000E+00 0.  1.
         12    1    6    6    0    0  0.95185125382E+02 -0.25597018189E+02  0.15658641969E+03  0.18502627453E+03  0.00000000000E+00 0. -1.
         -5    1    3    3    0  503 -0.22454286353E+03 -0.32481114534E+02  0.47446304306E+03  0.52593895995E+03  0.47000000000E+01 0.  1.
         13    1    4    4    0    0 -0.39701724867E+02  0.19961510101E+02  0.23799572695E+03  0.24210876666E+03  0.00000000000E+00 0. -1.
        -14    1    4    4    0    0 -0.11976278620E+03  0.67207257984E+02  0.32377660411E+03  0.35169763982E+03  0.00000000000E+00 0.  1.
</event>
<event>
12    1  0.9962621E-001  0.2544543E+03  0.7818608E-02  0.1110777E+00
         21   -1    0    0  503  502  0.00000000000E+00  0.00000000000E+00  0.24989872194E+03  0.24989872194E+03  0.00000000000E+00 0. -1.
         21   -1    0    0  501  503 -0.00000000000E+00 -0.00000000000E+00 -0.29063355312E+03  0.29063355312E+03  0.00000000000E+00 0. -1.
          6    2    1    2  501    0 -0.60065151465E+01  0.18622457697E+03  0.70937763042E+02  0.26415749227E+03  0.17329553718E+03 0.  0.
         24    2    3    3    0    0 -0.11754338759E+02  0.14617120238E+02  0.37602500846E+02  0.89184676133E+02  0.78664691592E+02 0.  0.
         -6    2    1    2    0  502  0.60065151465E+01 -0.18622457697E+03 -0.11167259422E+03  0.27637478279E+03  0.17087007044E+03 0.  0.
        -24    2    5    5    0    0  0.25215039394E+02 -0.25112003905E+02 -0.71340847655E+02  0.10911759047E+03  0.74503161369E+02 0.  0.
          5    1    3    3  501    0  0.57478236121E+01  0.17160745673E+03  0.33335262197E+02  0.17497281614E+03  0.47000000000E+01 0. -1.
        -13    1    4    4    0    0 -0.21264442338E+02  0.14256428628E+02  0.59790946945E+02  0.65041368388E+02  0.00000000000E+00 0.  1.
         14    1    4    4    0    0  0.95101035791E+01  0.36069161022E+00 -0.22188446100E+02  0.24143307745E+02  0.00000000000E+00 0. -1.
         -5    1    5    5    0  502 -0.19208524247E+02 -0.16111257306E+03 -0.40331746564E+02  0.16725719232E+03  0.47000000000E+01 0.  1.
         11    1    6    6    0    0  0.72479229296E+01  0.16493985078E+02  0.64101708588E+01  0.19122610203E+02  0.00000000000E+00 0. -1.
        -12    1    6    6    0    0  0.17967116464E+02 -0.41605988982E+02 -0.77751018513E+02  0.89994980266E+02  0.00000000000E+00 0.  1.
</event>
<event>
12    1  0.9962621E-001  0.2013889E+03  0.7818608E-02  0.1148719E+00
         21   -1    0    0  503  502  0.00000000000E+00  0.00000000000E+00  0.81725275328E+02  0.81725275328E+02  0.00000000000E+00 0. -1.
         21   -1    0    0  501  503 -0.00000000000E+00 -0.00000000000E+00 -0.52620868817E+03  0.52620868817E+03  0.00000000000E+00 0. -1.
          6    2    1    2  501    0 -0.65452316924E+02 -0.81156205913E+02 -0.14731698714E+03  0.24895570124E+03  0.17148268406E+03 0.  0.
         24    2    3    3    0    0 -0.37595174434E+02 -0.11850646160E+03 -0.81457666388E+02  0.16814356033E+03  0.78611238929E+02 0.  0.
         -6    2    1    2    0  502  0.65452316924E+02  0.81156205913E+02 -0.29716642570E+03  0.35897826226E+03  0.17229965949E+03 0.  0.
        -24    2    5    5    0    0  0.18742069456E+01  0.87958673003E+02 -0.12134224087E+03  0.17182943485E+03  0.84030794679E+02 0.  0.
          5    1    3    3  501    0 -0.27857142490E+02  0.37350255691E+02 -0.65859320753E+02  0.80812140907E+02  0.47000000000E+01 0. -1.
        -11    1    4    4    0    0 -0.37604262611E+02 -0.63005892412E+02 -0.85292584881E+02  0.11251065763E+03  0.00000000000E+00 0.  1.
         12    1    4    4    0    0  0.90881773774E-02 -0.55500569191E+02  0.38349184931E+01  0.55632902702E+02  0.00000000000E+00 0. -1.
         -5    1    5    5    0  502  0.63578109978E+02 -0.68024670902E+01 -0.17582418483E+03  0.18714882741E+03  0.47000000000E+01 0.  1.
         11    1    6    6    0    0  0.13939448741E+02 -0.12357401674E+02 -0.88521885096E+01  0.20624617541E+02  0.00000000000E+00 0. -1.
        -12    1    6    6    0    0 -0.12065241795E+02  0.10031607468E+03 -0.11249005236E+03  0.15120481731E+03  0.00000000000E+00 0.  1.
</event>
<event>
12    1  0.9962621E-001  0.2238211E+03  0.7818608E-02  0.1131395E+00
         21   -1    0    0  501  502  0.00000000000E+00  0.00000000000E+00  0.46691284754E+02  0.46691284754E+02  0.00000000000E+00 0.  1.
         21   -1    0    0  502  503 -0.00000000000E+00 -0.00000000000E+00 -0.10668902736E+04  0.10668902736E+04  0.00000000000E+00 0.  1.
         -6    2    1    2    0  503  0.12189778126E+03  0.69423759939E+02 -0.53945568354E+03  0.58404479327E+03  0.17440515626E+03 0.  0.
        -24    2    3    3    0    0  0.11174524439E+03  0.10756737046E+03 -0.49247370770E+03  0.52250289631E+03  0.80132297124E+02 0.  0.
          6    2    1    2  501    0 -0.12189778126E+03 -0.69423759939E+02 -0.48074330526E+03  0.52953676503E+03  0.17209396400E+03 0.  0.
         24    2    5    5    0    0 -0.66632700350E+02  0.12295651879E+02 -0.14060520889E+03  0.17534994140E+03  0.79916690175E+02 0.  0.
          5    1    5    5  501    0 -0.55265080912E+02 -0.81719411818E+02 -0.34013809637E+03  0.35418682364E+03  0.47000000000E+01 0. -1.
        -11    1    6    6    0    0 -0.53212263518E+02 -0.12527487791E+02 -0.32446957857E+02  0.63571125625E+02  0.00000000000E+00 0.  1.
         12    1    6    6    0    0 -0.13420436832E+02  0.24823139670E+02 -0.10815825104E+03  0.11177881577E+03  0.00000000000E+00 0. -1.
         -5    1    3    3    0  503  0.10152536876E+02 -0.38143610523E+02 -0.46981975836E+02  0.61541896966E+02  0.47000000000E+01 0.  1.
         11    1    4    4    0    0  0.91993047771E+02  0.43615764584E+02 -0.22812209228E+03  0.24980941684E+03  0.00000000000E+00 0. -1.
        -12    1    4    4    0    0  0.19752196615E+02  0.63951605879E+02 -0.26435161542E+03  0.27269347946E+03  0.00000000000E+00 0.  1.
</event>
<event>
12    1  0.9962621E-001  0.3145365E+03  0.7818608E-02  0.1078208E+00
         21   -1    0    0  501  502  0.00000000000E+00  0.00000000000E+00  0.80279624143E+02  0.80279624143E+02  0.00000000000E+00 0. -1.
         21   -1    0    0  502  503 -0.00000000000E+00 -0.00000000000E+00 -0.13035049050E+04  0.13035049050E+04  0.00000000000E+00 0. -1.
         -6    2    1    2    0  503  0.17698871868E+03  0.19520954080E+03 -0.44949135339E+03  0.54861249941E+03  0.17175979266E+03 0.  0.
        -24    2    3    3    0    0  0.29433083925E+02  0.11160570155E+03 -0.23807549772E+03  0.27753866940E+03  0.83819039319E+02 0.  0.
          6    2    1    2  501    0 -0.17698871868E+03 -0.19520954080E+03 -0.77373392743E+03  0.83517202970E+03  0.17151197443E+03 0.  0.
         24    2    5    5    0    0 -0.43918619197E+02 -0.11684528832E+03 -0.49569717209E+03  0.51709163929E+03  0.78015450323E+02 0.  0.
          5    1    5    5  501    0 -0.13307009948E+03 -0.78364252479E+02 -0.27803675534E+03  0.31808039041E+03  0.47000000000E+01 0. -1.
        -11    1    6    6    0    0 -0.56377482260E+02 -0.42419138303E+02 -0.27237991773E+03  0.28136919409E+03  0.00000000000E+00 0.  1.
         12    1    6    6    0    0  0.12458863064E+02 -0.74426150019E+02 -0.22331725436E+03  0.23572244520E+03  0.00000000000E+00 0. -1.
         -5    1    3    3    0  503  0.14755563475E+03  0.83603839250E+02 -0.21141585568E+03  0.27107383001E+03  0.47000000000E+01 0.  1.
         13    1    4    4    0    0  0.21946770801E+02 -0.22808214844E+01 -0.14171982892E+02  0.26224187200E+02  0.00000000000E+00 0. -1.
        -14    1    4    4    0    0  0.74863131241E+01  0.11388652304E+03 -0.22390351482E+03  0.25131448220E+03  0.00000000000E+00 0.  1.
</event>
<event>
12    1  0.9962621E-001  0.2429851E+03  0.7818608E-02  0.1117863E+00
         21   -1    0    0  501  502  0.00000000000E+00  0.00000000000E+00  0.10706975042E+03  0.10706975042E+03  0.00000000000E+00 0. -1.
         21   -1    0    0  502  503 -0.00000000000E+00 -0.00000000000E+00 -0.56052502773E+03  0.56052502773E+03  0.00000000000E+00 0. -1.
         -6    2    1    2    0  503  0.16313325381E+03 -0.52924904889E+02 -0.18295874964E+03  0.30416387888E+03  0.17212860624E+03 0.  0.
        -24    2    3    3    0    0  0.10513224177E+03 -0.29879974466E+02 -0.19843732127E+03  0.23969014473E+03  0.78284058854E+02 0.  0.
          6    2    1    2  501    0 -0.16313325381E+03  0.52924904889E+02 -0.27049652767E+03  0.36343089927E+03  0.17175605669E+03 0.  0.
         24    2    5    5    0    0 -0.27021384681E+02  0.32876009907E+02 -0.16895991585E+03  0.19237484808E+03  0.81545335576E+02 0.  0.
          5    1    5    5  501    0 -0.13611186913E+03  0.20048894982E+02 -0.10153661182E+03  0.17105605119E+03  0.47000000000E+01 0. -1.
        -11    1    6    6    0    0 -0.39917405230E+02  0.40891554752E+02 -0.16766489621E+03  0.17713564269E+03  0.00000000000E+00 0.  1.
         12    1    6    6    0    0  0.12896020549E+02 -0.80155448445E+01 -0.12950196386E+01  0.15239205393E+02  0.00000000000E+00 0. -1.
         -5    1    3    3    0  503  0.58001012038E+02 -0.23044930423E+02  0.15478571629E+02  0.64473734151E+02  0.47000000000E+01 0.  1.
         11    1    4    4    0    0 -0.67777082568E+01  0.10044178214E+02 -0.59864702154E+01  0.13515201473E+02  0.00000000000E+00 0. -1.
        -12    1    4    4    0    0  0.11190995003E+03 -0.39924152680E+02 -0.19245085106E+03  0.22617494325E+03  0.00000000000E+00 0.  1.
</event>
<event>
12    1  0.9962621E-001  0.2092628E+03  0.7818608E-02  0.1143011E+00
         21   -1    0    0  501  502  0.00000000000E+00  0.00000000000E+00  0.30410866645E+03  0.30410866645E+03  0.00000000000E+00 0. -1.
         21   -1    0    0  502  503 -0.00000000000E+00 -0.00000000000E+00 -0.20755334802E+03  0.20755334802E+03  0.00000000000E+00 0. -1.
         -6    2    1    2    0  503  0.23977823169E+02  0.11486541096E+03  0.19272467094E+03  0.28135907045E+03  0.16808072196E+03 0.  0.
        -24    2    3    3    0    0  0.12992315793E+02  0.13913321800E+03  0.85802048287E+02  0.17106788737E+03  0.48737849555E+02 0.  0.
          6    2    1    2  501    0 -0.23977823169E+02 -0.11486541096E+03 -0.96169352504E+02  0.23030294402E+03  0.17326829780E+03 0.  0.
         24    2    5    5    0    0  0.41159852650E+02 -0.10796715373E+03 -0.47361969324E+02  0.14848147118E+03  0.80327774723E+02 0.  0.
          5    1    5    5  501    0 -0.65137675819E+02 -0.68982572344E+01 -0.48807383180E+02  0.81821472835E+02  0.47000000000E+01 0. -1.
        -11    1    6    6    0    0  0.12001048902E+02 -0.16188730200E+01 -0.35575531713E+02  0.37580106190E+02  0.00000000000E+00 0.  1.
         12    1    6    6    0    0  0.29158803748E+02 -0.10634828071E+03 -0.11786437611E+02  0.11090136499E+03  0.00000000000E+00 0. -1.
         -5    1    3    3    0  503  0.10985507375E+02 -0.24267807033E+02  0.10692262265E+03  0.11029118308E+03  0.47000000000E+01 0.  1.
         13    1    4    4    0    0 -0.32347138318E+01  0.73477764176E+02  0.18902754374E+02  0.75939181750E+02  0.00000000000E+00 0. -1.
        -14    1    4    4    0    0  0.16227029625E+02  0.65655453819E+02  0.66899293914E+02  0.95128705619E+02  0.00000000000E+00 0.  1.
</event>
<event>
12    1  0.9962621E-001  0.2259897E+03  0.7818608E-02  0.1130735E+00
         21   -1    0    0  501  502  0.00000000000E+00  0.00000000000E+00  0.13442899534E+03  0.13442899534E+03  0.00000000000E+00 0. -1.
         21   -1    0    0  502  503 -0.00000000000E+00 -0.00000000000E+00 -0.37028306858E+03  0.37028306858E+03  0.00000000000E+00 0.  1.
         -6    2    1    2    0  503 -0.48541180864E+02  0.13911709307E+03 -0.10271020627E+03  0.24823522611E+03  0.17135206210E+03 0.  0.
        -24    2    3    3    0    0  0.86645074872E+00  0.32972692703E+00 -0.22157811813E+02  0.80265510636E+02  0.77140936710E+02 0.  0.
          6    2    1    2  501    0  0.48541180864E+02 -0.13911709307E+03 -0.13314386696E+03  0.25647683780E+03  0.16230609106E+03 0.  0.
         24    2    5    5    0    0  0.15595414973E+02 -0.87863139371E+02 -0.15221459309E+03  0.19245985681E+03  0.76865895588E+02 0.  0.
          5    1    5    5  501    0  0.32945765890E+02 -0.51253953703E+02  0.19070726129E+02  0.64016980993E+02  0.47000000000E+01 0. -1.
        -11    1    6    6    0    0  0.78929477211E+01  0.30054294132E+01 -0.67380219341E+02  0.67907475200E+02  0.00000000000E+00 0.  1.
         12    1    6    6    0    0  0.77024672523E+01 -0.90868568785E+02 -0.84834373753E+02  0.12455238161E+03  0.00000000000E+00 0. -1.
         -5    1    3    3    0  503 -0.49407631612E+02  0.13878736615E+03 -0.80552394461E+02  0.16796971548E+03  0.47000000000E+01 0.  1.
         13    1    4    4    0    0  0.13942811502E+02 -0.71986978685E+01  0.25685485246E+02  0.30099292282E+02  0.00000000000E+00 0. -1.
        -14    1    4    4    0    0 -0.13076360753E+02  0.75284247955E+01 -0.47843297059E+02  0.50166218353E+02  0.00000000000E+00 0.  1.
</event>
<event>
12    1  0.9962621E-001  0.1935996E+03  0.7818608E-02  0.1156636E+00
         21   -1    0    0  501  502  0.00000000000E+00  0.00000000000E+00  0.16068690996E+04  0.16068690996E+04  0.00000000000E+00 0.  1.
         21   -1    0    0  502  503 -0.00000000000E+00 -0.00000000000E+00 -0.34421217364E+02  0.34421217364E+02  0.00000000000E+00 0.  1.
         -6    2    1    2    0  503 -0.73084903760E+02 -0.11373679619E+02  0.29673617532E+03  0.35097207950E+03  0.17221579225E+03 0.  0.
        -24    2    3    3    0    0  0.16688896623E+02  0.26176765088E+02  0.12287922925E+03  0.15167908205E+03  0.83327646384E+02 0.  0.
          6    2    1    2  501    0  0.73084903760E+02  0.11373679619E+02  0.12757117069E+04  0.12903182374E+04  0.17891347356E+03 0.  0.
         24    2    5    5    0    0 -0.13681457236E+02  0.40970376350E+02  0.42475477415E+03  0.43442446060E+03  0.80263564528E+02 0.  0.
          5    1    5    5  501    0  0.86766360996E+02 -0.29596696731E+02  0.85095693273E+03  0.85589377683E+03  0.47000000000E+01 0. -1.
        -11    1    6    6    0    0 -0.34784620214E+02  0.45173229103E+02  0.38519298853E+03  0.38938955924E+03  0.00000000000E+00 0.  1.
         12    1    6    6    0    0  0.21103162978E+02 -0.42028527527E+01  0.39561785625E+02  0.45034901363E+02  0.00000000000E+00 0. -1.
         -5    1    3    3    0  503 -0.89773800383E+02 -0.37550444707E+02  0.17385694608E+03  0.19929299745E+03  0.47000000000E+01 0.  1.
         11    1    4    4    0    0 -0.48356472027E+01 -0.26104068959E+02  0.67517236297E+02  0.72549177096E+02  0.00000000000E+00 0. -1.
        -12    1    4    4    0    0  0.21524543826E+02  0.52280834047E+02  0.55361992948E+02  0.79129904958E+02  0.00000000000E+00 0.  1.
</event>
<event>
12    1  0.9962621E-001  0.4757123E+03  0.7818608E-02  0.1020338E+00
         21   -1    0    0  503  502  0.00000000000E+00  0.00000000000E+00  0.60582151937E+03  0.60582151937E+03  0.00000000000E+00 0. -1.
         21   -1    0    0  501  503 -0.00000000000E+00 -0.00000000000E+00 -0.39221425315E+03  0.39221425315E+03  0.00000000000E+00 0. -1.
          6    2    1    2  501    0  0.28168154956E+03 -0.34239497914E+03 -0.26289301587E+01  0.47571954947E+03  0.17240464428E+03 0.  0.
         24    2    3    3    0    0  0.98911300628E+02 -0.17550373212E+03  0.53734271600E+02  0.22183659860E+03  0.75756842298E+02 0.  0.
         -6    2    1    2    0  502 -0.28168154956E+03  0.34239497914E+03  0.21623619637E+03  0.52231622305E+03  0.17168962444E+03 0.  0.
        -24    2    5    5    0    0 -0.11316395293E+03  0.19207398116E+03  0.17105965192E+03  0.29197388440E+03  0.79302270926E+02 0.  0.
          5    1    3    3  501    0  0.18277024894E+03 -0.16689124701E+03 -0.56363201759E+02  0.25388295086E+03  0.47000000000E+01 0. -1.
        -11    1    4    4    0    0  0.11053715740E+03 -0.16696253406E+03  0.54061290047E+02  0.20740678395E+03  0.00000000000E+00 0.  1.
         12    1    4    4    0    0 -0.11625856770E+02 -0.85411980595E+01 -0.32701844700E+00  0.14429814655E+02  0.00000000000E+00 0. -1.
         -5    1    5    5    0  502 -0.16851759663E+03  0.15032099798E+03  0.45176544447E+02  0.23034233865E+03  0.47000000000E+01 0.  1.
         11    1    6    6    0    0 -0.50710987303E+02  0.22141556150E+02  0.34598691193E+02  0.65260418128E+02  0.00000000000E+00 0. -1.
        -12    1    6    6    0    0 -0.62452965627E+02  0.16993242501E+03  0.13646096073E+03  0.22671346627E+03  0.00000000000E+00 0.  1.
</event>
<event>
12    1  0.9962621E-001  0.1894059E+03  0.7818608E-02  0.1159307E+00
         21   -1    0    0  501  502  0.00000000000E+00  0.00000000000E+00  0.32542047991E+03  0.32542047991E+03  0.00000000000E+00 0. -1.
         21   -1    0    0  502  503 -0.00000000000E+00 -0.00000000000E+00 -0.10976461872E+03  0.10976461872E+03  0.00000000000E+00 0. -1.
         -6    2    1    2    0  503 -0.72125795340E+02  0.26143179623E+02  0.11904748741E+03  0.22256394458E+03  0.17168811541E+03 0.  0.
        -24    2    3    3    0    0  0.15919417554E+02 -0.29876087208E+01  0.17795307331E+02  0.85178878745E+02  0.81709330924E+02 0.  0.
          6    2    1    2  501    0  0.72125795340E+02 -0.26143179623E+02  0.96608373788E+02  0.21262115405E+03  0.17317326892E+03 0.  0.
         24    2    5    5    0    0 -0.13606022743E+02 -0.50513317909E+02  0.38978623902E+02  0.10638026576E+03  0.84028023194E+02 0.  0.
          5    1    5    5  501    0  0.85731818083E+02  0.24370138287E+02  0.57629749886E+02  0.10624088829E+03  0.47000000000E+01 0. -1.
        -13    1    6    6    0    0 -0.28823413974E+00 -0.26939016162E+02 -0.25096757236E+02  0.36819028973E+02  0.00000000000E+00 0.  1.
         14    1    6    6    0    0 -0.13317788603E+02 -0.23574301747E+02  0.64075381138E+02  0.69561236792E+02  0.00000000000E+00 0. -1.
         -5    1    3    3    0  503 -0.88045212894E+02  0.29130788344E+02  0.10125218008E+03  0.13738506583E+03  0.47000000000E+01 0.  1.
         13    1    4    4    0    0  0.13657927720E+02  0.38950803479E+02  0.98421711445E+01  0.42433152300E+02  0.00000000000E+00 0. -1.
        -14    1    4    4    0    0  0.22614898333E+01 -0.41938412200E+02  0.79531361866E+01  0.42745726445E+02  0.00000000000E+00 0.  1.
</event>
<event>
12    1  0.9962621E-001  0.1777431E+03  0.7818608E-02  0.1171014E+00
         21   -1    0    0  501  502  0.00000000000E+00  0.00000000000E+00  0.21045605789E+03  0.21045605789E+03  0.00000000000E+00 0.  1.
         21   -1    0    0  502  503 -0.00000000000E+00 -0.00000000000E+00 -0.18047901403E+03  0.18047901403E+03  0.00000000000E+00 0.  1.
         -6    2    1    2    0  503 -0.30824633086E+02  0.30740095550E+02  0.99391820321E+02  0.20011839338E+03  0.16814733403E+03 0.  0.
        -24    2    3    3    0    0  0.38372776240E+02 -0.14097461708E+02  0.66753149224E+02  0.11131489767E+03  0.79144267826E+02 0.  0.
          6    2    1    2  501    0  0.30824633086E+02 -0.30740095550E+02 -0.69414776454E+02  0.19081667854E+03  0.17232957419E+03 0.  0.
         24    2    5    5    0    0  0.84454000336E+02 -0.80777820242E+01 -0.27920617999E+02  0.11916791950E+03  0.78890451855E+02 0.  0.
          5    1    5    5  501    0 -0.53629367250E+02 -0.22662313526E+02 -0.41494158455E+02  0.71648759039E+02  0.47000000000E+01 0. -1.
        -13    1    6    6    0    0  0.28227318609E+02  0.33942854595E+02 -0.20208004990E+02  0.48551646312E+02  0.00000000000E+00 0.  1.
         14    1    6    6    0    0  0.56226681727E+02 -0.42020636619E+02 -0.77126130094E+01  0.70616273191E+02  0.00000000000E+00 0. -1.
         -5    1    3    3    0  503 -0.69197409326E+02  0.44837557259E+02  0.32638671097E+02  0.88803495704E+02  0.47000000000E+01 0.  1.
         11    1    4    4    0    0 -0.79640623970E+01  0.10201305614E+02 -0.11411952389E+02  0.17254726408E+02  0.00000000000E+00 0. -1.
        -12    1    4    4    0    0  0.46336838637E+02 -0.24298767322E+02  0.78165101613E+02  0.94060171265E+02  0.00000000000E+00 0.  1.
</event>
<event>
12    1  0.9962621E-001  0.2016189E+03  0.7818608E-02  0.1148578E+00
         21   -1    0    0  503  502  0.00000000000E+00  0.00000000000E+00  0.70526845783E+02  0.70526845783E+02  0.00000000000E+00 0.  1.
         21   -1    0    0  501  503 -0.00000000000E+00 -0.00000000000E+00 -0.60416583178E+03  0.60416583178E+03  0.00000000000E+00 0.  1.
          6    2    1    2  501    0 -0.58277997008E+02  0.86360059248E+02 -0.34319811270E+03  0.39803909238E+03  0.17261456986E+03 0.  0.
         24    2    3    3    0    0  0.35983557276E+00  0.10998654082E+03 -0.20689645900E+03  0.24771664946E+03  0.80375525079E+02 0.  0.
         -6    2    1    2    0  502  0.58277997008E+02 -0.86360059248E+02 -0.19044087330E+03  0.27665358519E+03  0.17150829487E+03 0.  0.
        -24    2    5    5    0    0 -0.30523156177E+02 -0.50337965962E+02 -0.71263634017E+02  0.12365508724E+03  0.82137087774E+02 0.  0.
          5    1    3    3  501    0 -0.58637832581E+02 -0.23626481568E+02 -0.13630165371E+03  0.15032244292E+03  0.47000000000E+01 0. -1.
        -13    1    4    4    0    0 -0.24870448018E+02  0.97128035791E+02 -0.18975577531E+03  0.21461511779E+03  0.00000000000E+00 0.  1.
         14    1    4    4    0    0  0.25230283591E+02  0.12858505025E+02 -0.17140683689E+02  0.33101531670E+02  0.00000000000E+00 0. -1.
         -5    1    5    5    0  502  0.88801153185E+02 -0.36022093286E+02 -0.11917723928E+03  0.15299849795E+03  0.47000000000E+01 0.  1.
         13    1    6    6    0    0 -0.12608612538E+02  0.17534330226E+02 -0.42735768750E+02  0.47882938269E+02  0.00000000000E+00 0. -1.
        -14    1    6    6    0    0 -0.17914543639E+02 -0.67872296188E+02 -0.28527865267E+02  0.75772148976E+02  0.00000000000E+00 0.  1.
</event>
<event>
12    1  0.1632250E+000  0.1139625E+04  0.7818608E-02  0.9167531E-01
         21   -1    0    0  501  502  0.00000000000E+00  0.00000000000E+00  0.74147751706E+03  0.74147751706E+03  0.00000000000E+00 0. -1.
         21   -1    0    0  502  503 -0.00000000000E+00 -0.00000000000E+00 -0.23521941627E+04  0.23521941627E+04  0.00000000000E+00 0.  1.
         -6    2    1    2    0  503  0.11104238602E+04  0.18901120641E+03 -0.23323662059E+02  0.11398637572E+04  0.17314446701E+03 0.  0.
        -24    2    3    3    0    0  0.58623121473E+03  0.11074330415E+03 -0.77618265759E+02  0.60706568287E+03  0.81074235093E+02 0.  0.
          6    2    1    2  501    0 -0.11104238602E+04 -0.18901120641E+03 -0.15873929835E+04  0.19538079225E+04  0.16965414325E+03 0.  0.
         24    2    5    5    0    0 -0.75031963086E+03 -0.64165452047E+02 -0.10245152235E+04  0.12740175275E+04  0.79952882962E+02 0.  0.
          5    1    5    5  501    0 -0.36010422933E+03 -0.12484575436E+03 -0.56287776001E+03  0.67979039495E+03  0.47000000000E+01 0. -1.
        -13    1    6    6    0    0 -0.11386186110E+03 -0.18974719776E+02 -0.11439219140E+03  0.16251195913E+03  0.00000000000E+00 0.  1.
         14    1    6    6    0    0 -0.63645776975E+03 -0.45190732271E+02 -0.91012303213E+03  0.11115055684E+04  0.00000000000E+00 0. -1.
         -5    1    3    3    0  503  0.52419264545E+03  0.78267902260E+02  0.54294603700E+02  0.53279807438E+03  0.47000000000E+01 0.  1.
         11    1    4    4    0    0  0.36097782490E+03  0.45324629047E+02 -0.14227840393E+02  0.36409029582E+03  0.00000000000E+00 0. -1.
        -12    1    4    4    0    0  0.22525338983E+03  0.65418675105E+02 -0.63390425367E+02  0.24297538705E+03  0.00000000000E+00 0.  1.
</event>
<event>
12    1  0.9962621E-001  0.3257822E+03  0.7818608E-02  0.1073470E+00
         21   -1    0    0  503  502  0.00000000000E+00  0.00000000000E+00  0.53775632050E+03  0.53775632050E+03  0.00000000000E+00 0.  1.
         21   -1    0    0  501  503 -0.00000000000E+00 -0.00000000000E+00 -0.22531490226E+03  0.22531490226E+03  0.00000000000E+00 0.  1.
          6    2    1    2  501    0 -0.27326016846E+03  0.23145015760E+01  0.29543842879E+03  0.43684561187E+03  0.16992276723E+03 0.  0.
         24    2    3    3    0    0 -0.17254150243E+03 -0.29482409532E+02  0.26294534631E+03  0.32624188837E+03  0.81570411616E+02 0.  0.
         -6    2    1    2    0  502  0.27326016846E+03 -0.23145015760E+01  0.17002989452E+02  0.32622561088E+03  0.17736282293E+03 0.  0.
        -24    2    5    5    0    0  0.23012909463E+03 -0.63235241202E+02  0.62948598020E+01  0.25067178843E+03  0.76410891437E+02 0.  0.
          5    1    3    3  501    0 -0.10071866603E+03  0.31796911108E+02  0.32493082480E+02  0.11060372350E+03  0.47000000000E+01 0. -1.
        -11    1    4    4    0    0  0.79308134981E+01 -0.80077346676E+01  0.13014298038E+02  0.17216084650E+02  0.00000000000E+00 0.  1.
         12    1    4    4    0    0 -0.18047231593E+03 -0.21474674864E+02  0.24993104827E+03  0.30902580372E+03  0.00000000000E+00 0. -1.
         -5    1    5    5    0  502  0.43131073838E+02  0.60920739626E+02  0.10708129650E+02  0.75553822455E+02  0.47000000000E+01 0.  1.
         11    1    6    6    0    0  0.12759234015E+03 -0.34331209925E+02 -0.34557452806E+02  0.13657472235E+03  0.00000000000E+00 0. -1.
        -12    1    6    6    0    0  0.10253675447E+03 -0.28904031276E+02  0.40852312608E+02  0.11409706608E+03  0.00000000000E+00 0.  1.
</event>
<event>
12    1  0.1084194E+000  0.4917855E+03  0.7818608E-02  0.1016058E+00
         21   -1    0    0  503  502  0.00000000000E+00  0.00000000000E+00  0.40698776088E+03  0.40698776088E+03  0.00000000000E+00 0. -1.
         21   -1    0    0  501  503 -0.00000000000E+00 -0.00000000000E+00 -0.63726070737E+03  0.63726070737E+03  0.00000000000E+00 0.  1.
          6    2    1    2  501    0  0.42198556797E+03 -0.18052686257E+03  0.23504321336E+02  0.49234690201E+03  0.17661045019E+03 0.  0.
         24    2    3    3    0    0  0.32003987516E+03 -0.20211929529E+03  0.28042281639E+02  0.38793502282E+03  0.80184045458E+02 0.  0.
         -6    2    1    2    0  502 -0.42198556797E+03  0.18052686257E+03 -0.25377726783E+03  0.55190156623E+03  0.17184489942E+03 0.  0.
        -24    2    5    5    0    0 -0.14891580487E+03  0.84628468395E+02 -0.16097155269E+03  0.24793020526E+03  0.78864765930E+02 0.  0.
          5    1    3    3  501    0  0.10194569281E+03  0.21592432724E+02 -0.45379603025E+01  0.10441187919E+03  0.47000000000E+01 0. -1.
        -13    1    4    4    0    0  0.26004640105E+03 -0.13968946972E+03 -0.50757274568E+01  0.29523387621E+03  0.00000000000E+00 0.  1.
         14    1    4    4    0    0  0.59993474111E+02 -0.62429825568E+02  0.33118009096E+02  0.92701146610E+02  0.00000000000E+00 0. -1.
         -5    1    5    5    0  502 -0.27306976310E+03  0.95898394173E+02 -0.92805715139E+02  0.30397136097E+03  0.47000000000E+01 0.  1.
         13    1    6    6    0    0  0.17205771932E+01  0.16195863842E+02  0.10995967388E+01  0.16324077446E+02  0.00000000000E+00 0. -1.
        -14    1    6    6    0    0 -0.15063638206E+03  0.68432604553E+02 -0.16207114942E+03  0.23160612782E+03  0.00000000000E+00 0.  1.
</event>
<event>
12    1  0.9962621E-001  0.2079104E+03  0.7818608E-02  0.1144241E+00
         21   -1    0    0  503  502  0.00000000000E+00  0.00000000000E+00  0.59793810555E+03  0.59793810555E+03  0.00000000000E+00 0.  1.
         21   -1    0    0  501  503 -0.00000000000E+00 -0.00000000000E+00 -0.70642188376E+02  0.70642188376E+02  0.00000000000E+00 0.  1.
          6    2    1    2  501    0  0.93922340745E+02 -0.58563358200E+02  0.27708150342E+03  0.34641148179E+03  0.17599909706E+03 0.  0.
         24    2    3    3    0    0  0.11434484545E+03 -0.51471177887E+01  0.14085449121E+03  0.19859313958E+03  0.80610240619E+02 0.  0.
         -6    2    1    2    0  502 -0.93922340745E+02  0.58563358200E+02  0.25021441376E+03  0.32216881213E+03  0.17010119824E+03 0.  0.
        -24    2    5    5    0    0 -0.50162044953E+02  0.37762752403E+02  0.25369875751E+03  0.27336451580E+03  0.80142639778E+02 0.  0.
          5    1    3    3  501    0 -0.20422504709E+02 -0.53416240411E+02  0.13622701221E+03  0.14781834221E+03  0.47000000000E+01 0. -1.
        -11    1    4    4    0    0  0.43848013167E+02 -0.27312392951E+02  0.17030169151E+02  0.54393397841E+02  0.00000000000E+00 0.  1.
         12    1    4    4    0    0  0.70496832287E+02  0.22165275162E+02  0.12382432206E+03  0.14419974174E+03  0.00000000000E+00 0. -1.
         -5    1    5    5    0  502 -0.43760295793E+02  0.20800605797E+02 -0.34843437557E+01  0.48804296335E+02  0.47000000000E+01 0.  1.
         11    1    6    6    0    0 -0.37466254209E-01  0.25010777763E+02  0.15081120081E+02  0.29205831454E+02  0.00000000000E+00 0. -1.
        -12    1    6    6    0    0 -0.50124578698E+02  0.12751974641E+02  0.23861763743E+03  0.24415868434E+03  0.00000000000E+00 0.  1.
</event>
<event>
12    1  0.9962621E-001  0.2340902E+03  0.7818608E-02  0.1123936E+00
         21   -1    0    0  503  502  0.00000000000E+00  0.00000000000E+00  0.18267931467E+04  0.18267931467E+04  0.00000000000E+00 0. -1.
         21   -1    0    0  501  503 -0.00000000000E+00 -0.00000000000E+00 -0.36073170419E+02  0.36073170419E+02  0.00000000000E+00 0. -1.
          6    2    1    2  501    0  0.13436174959E+03  0.82986416321E+02  0.12822459412E+04  0.13034388687E+04  0.17279585007E+03 0.  0.
         24    2    3    3    0    0  0.26722287265E+02  0.49714022563E+02  0.32354433408E+03  0.33812846918E+03  0.80401249217E+02 0.  0.
         -6    2    1    2    0  502 -0.13436174959E+03 -0.82986416321E+02  0.50847403517E+03  0.55942744845E+03  0.17167818905E+03 0.  0.
        -24    2    5    5    0    0 -0.41495022224E+02 -0.22226266790E+02  0.37443353365E+03  0.38534421874E+03  0.77934921461E+02 0.  0.
          5    1    3    3  501    0  0.10763946233E+03  0.33272393758E+02  0.95870160708E+03  0.96531039954E+03  0.47000000000E+01 0. -1.
        -13    1    4    4    0    0 -0.26827950666E+01 -0.68752556317E+01 -0.93717311377E+00  0.74394101121E+01  0.00000000000E+00 0.  1.
         14    1    4    4    0    0  0.29405082332E+02  0.56589278194E+02  0.32448150719E+03  0.33068905906E+03  0.00000000000E+00 0. -1.
         -5    1    5    5    0  502 -0.92866727369E+02 -0.60760149530E+02  0.13404050151E+03  0.17408322972E+03  0.47000000000E+01 0.  1.
         13    1    6    6    0    0 -0.55931919678E+02  0.84866023685E+01  0.21321033840E+03  0.22058796536E+03  0.00000000000E+00 0. -1.
        -14    1    6    6    0    0  0.14436897454E+02 -0.30712869159E+02  0.16122319525E+03  0.16475625338E+03  0.00000000000E+00 0.  1.
</event>
<event>
12    1  0.9962621E-001  0.4252739E+03  0.7818608E-02  0.1035364E+00
         21   -1    0    0  501  502  0.00000000000E+00  0.00000000000E+00  0.44602980686E+03  0.44602980686E+03  0.00000000000E+00 0.  1.
         21   -1    0    0  502  503 -0.00000000000E+00 -0.00000000000E+00 -0.44089055312E+03  0.44089055312E+03  0.00000000000E+00 0.  1.
         -6    2    1    2    0  503  0.38730972328E+03  0.30895216717E+02 -0.12311603914E+03  0.44272749603E+03  0.17287781952E+03 0.  0.
        -24    2    3    3    0    0  0.39327784056E+03  0.43753135935E+02 -0.10132641393E+03  0.41631117007E+03  0.80412383260E+02 0.  0.
          6    2    1    2  501    0 -0.38730972328E+03 -0.30895216717E+02  0.12825529288E+03  0.44419286394E+03  0.17290038768E+03 0.  0.
         24    2    5    5    0    0 -0.34446423284E+03  0.24377387637E+02  0.11858003124E+03  0.37343625626E+03  0.78380794485E+02 0.  0.
          5    1    5    5  501    0 -0.42845490440E+02 -0.55272604354E+02  0.96752616457E+01  0.70756607685E+02  0.47000000000E+01 0. -1.
        -11    1    6    6    0    0 -0.22710597239E+03  0.12096504587E+02  0.11624502176E+03  0.25541408184E+03  0.00000000000E+00 0.  1.
         12    1    6    6    0    0 -0.11735826045E+03  0.12280883050E+02  0.23350094751E+01  0.11802217441E+03  0.00000000000E+00 0. -1.
         -5    1    3    3    0  503 -0.59681172798E+01 -0.12857919219E+02 -0.21789625214E+02  0.26416325964E+02  0.47000000000E+01 0.  1.
         11    1    4    4    0    0  0.28382241196E+03  0.51419800373E+02 -0.10382368563E+03  0.30655915432E+03  0.00000000000E+00 0. -1.
        -12    1    4    4    0    0  0.10945542860E+03 -0.76666644375E+01  0.24972717002E+01  0.10975201575E+03  0.00000000000E+00 0.  1.
</event>
<event>
12    1  0.9962621E-001  0.4050430E+03  0.7818608E-02  0.1042102E+00
         21   -1    0    0  501  502  0.00000000000E+00  0.00000000000E+00  0.59497879826E+02  0.59497879826E+02  0.00000000000E+00 0.  1.
         21   -1    0    0  502  503 -0.00000000000E+00 -0.00000000000E+00 -0.28445187680E+04  0.28445187680E+04  0.00000000000E+00 0. -1.
         -6    2    1    2    0  503  0.68250654140E+02  0.35990828286E+03 -0.11310390817E+04  0.12011615129E+04  0.17131098036E+03 0.  0.
        -24    2    3    3    0    0  0.80214127259E+02  0.34137224825E+03 -0.11191167842E+04  0.11756479784E+04  0.82197775169E+02 0.  0.
          6    2    1    2  501    0 -0.68250654140E+02 -0.35990828286E+03 -0.16539818065E+04  0.17028551349E+04  0.17282265583E+03 0.  0.
         24    2    5    5    0    0 -0.91840790008E+02 -0.35686123527E+03 -0.14850042699E+04  0.15321469720E+04  0.80324281597E+02 0.  0.
          5    1    5    5  501    0  0.23590135868E+02 -0.30470475925E+01 -0.16897753655E+03  0.17070816286E+03  0.47000000000E+01 0. -1.
        -11    1    6    6    0    0 -0.62071875465E+02 -0.32451643363E+03 -0.12418267539E+04  0.12850282177E+04  0.00000000000E+00 0.  1.
         12    1    6    6    0    0 -0.29768914543E+02 -0.32344801639E+02 -0.24317751600E+03  0.24711875436E+03  0.00000000000E+00 0. -1.
         -5    1    3    3    0  503 -0.11963473120E+02  0.18536034614E+02 -0.11922297437E+02  0.25513534535E+02  0.47000000000E+01 0.  1.
         13    1    4    4    0    0  0.61694734058E+02  0.17791015479E+03 -0.71376471822E+03  0.73818584135E+03  0.00000000000E+00 0. -1.
        -14    1    4    4    0    0  0.18519393201E+02  0.16346209345E+03 -0.40535206602E+03  0.43746213705E+03  0.00000000000E+00 0.  1.
</event>
<event>
12    1  0.9962621E-001  0.1852710E+03  0.7818608E-02  0.1163475E+00
         21   -1    0    0  501  502  0.00000000000E+00  0.00000000000E+00  0.38450301318E+02  0.38450301318E+02  0.00000000000E+00 0. -1.
         21   -1    0    0  502  503 -0.00000000000E+00 -0.00000000000E+00 -0.92414334702E+03  0.92414334702E+03  0.00000000000E+00 0. -1.
         -6    2    1    2    0  503  0.56654815040E+02  0.31793658473E+02 -0.54606061775E+03  0.57571442845E+03  0.17042388355E+03 0.  0.
        -24    2    3    3    0    0 -0.21278085272E+02 -0.31409342359E+01 -0.38027766983E+03  0.38916674409E+03  0.79856284377E+02 0.  0.
          6    2    1    2  501    0 -0.56654815040E+02 -0.31793658473E+02 -0.33963242795E+03  0.38687921989E+03  0.17350717529E+03 0.  0.
         24    2    5    5    0    0 -0.69459871856E+01 -0.99168190867E+01 -0.56779028691E+02  0.98820720374E+02  0.79969285587E+02 0.  0.
          5    1    5    5  501    0 -0.49708827854E+02 -0.21876839387E+02 -0.28285339926E+03  0.28805849951E+03  0.47000000000E+01 0. -1.
        -13    1    6    6    0    0 -0.16711131023E+02 -0.43085485422E+02 -0.34795595852E+02  0.57847683141E+02  0.00000000000E+00 0.  1.
         14    1    6    6    0    0  0.97651438373E+01  0.33168666336E+02 -0.21983432840E+02  0.40973037233E+02  0.00000000000E+00 0. -1.
         -5    1    3    3    0  503  0.77932900312E+02  0.34934592709E+02 -0.16578294792E+03  0.18654768436E+03  0.47000000000E+01 0.  1.
         13    1    4    4    0    0  0.23435854561E+01 -0.27943780743E+02 -0.51757151517E+02  0.58865524785E+02  0.00000000000E+00 0. -1.
        -14    1    4    4    0    0 -0.23621670729E+02  0.24802846507E+02 -0.32852051832E+03  0.33030121931E+03  0.00000000000E+00 0.  1.
</event>
<event>
12    1  0.9962621E-001  0.2169218E+03  0.7818608E-02  0.1136274E+00
         21   -1    0    0  501  502  0.00000000000E+00  0.00000000000E+00  0.15783572588E+03  0.15783572588E+03  0.00000000000E+00 0. -1.
         21   -1    0    0  502  503 -0.00000000000E+00 -0.00000000000E+00 -0.38547914319E+03  0.38547914319E+03  0.00000000000E+00 0. -1.
         -6    2    1    2    0  503 -0.11354483924E+03  0.65723388171E+02  0.15979911703E+02  0.21711337745E+03  0.17225233472E+03 0.  0.
        -24    2    3    3    0    0 -0.74971648585E+02 -0.23169277537E+02 -0.19207859714E+02  0.11391421897E+03  0.80311542724E+02 0.  0.
          6    2    1    2  501    0  0.11354483924E+03 -0.65723388171E+02 -0.24362332902E+03  0.32620149162E+03  0.17275153378E+03 0.  0.
         24    2    5    5    0    0  0.96323707798E+02  0.14350401754E+02 -0.10297679814E+03  0.16337669053E+03  0.81262115033E+02 0.  0.
          5    1    5    5  501    0  0.17221131442E+02 -0.80073789924E+02 -0.14064653088E+03  0.16282480109E+03  0.47000000000E+01 0. -1.
        -13    1    6    6    0    0  0.43324000829E+02 -0.44336670600E+01  0.27395112012E+01  0.43636353801E+02  0.00000000000E+00 0.  1.
         14    1    6    6    0    0  0.52999706970E+02  0.18784068814E+02 -0.10571630934E+03  0.11974033673E+03  0.00000000000E+00 0. -1.
         -5    1    3    3    0  503 -0.38573190655E+02  0.88892665708E+02  0.35187771417E+02  0.10319915848E+03  0.47000000000E+01 0.  1.
         13    1    4    4    0    0 -0.36615264373E+02  0.12787913899E+01 -0.47771979918E+02  0.60203612498E+02  0.00000000000E+00 0. -1.
        -14    1    4    4    0    0 -0.38356384212E+02 -0.24448068927E+02  0.28564120204E+02  0.53710606468E+02  0.00000000000E+00 0.  1.
</event>
<event>
12    1  0.9962621E-001  0.2726846E+03  0.7818608E-02  0.1099786E+00
         21   -1    0    0  503  502  0.00000000000E+00  0.00000000000E+00  0.20110790976E+03  0.20110790976E+03  0.00000000000E+00 0. -1.
         21   -1    0    0  501  503 -0.00000000000E+00 -0.00000000000E+00 -0.41884221395E+03  0.41884221395E+03  0.00000000000E+00 0. -1.
          6    2    1    2  501    0 -0.15810207358E+03 -0.14011991048E+03 -0.21530633312E+03  0.34725471169E+03  0.17204407205E+03 0.  0.
         24    2    3    3    0    0 -0.10715454949E+03 -0.15981530106E+03 -0.12957485282E+03  0.24549256089E+03  0.80336336991E+02 0.  0.
         -6    2    1    2    0  502  0.15810207358E+03  0.14011991048E+03 -0.24279710728E+01  0.27269541203E+03  0.17241530591E+03 0.  0.
        -24    2    5    5    0    0  0.52469969394E+02  0.73237686108E+02 -0.61715486621E+02  0.13424515788E+03  0.78077556127E+02 0.  0.
          5    1    3    3  501    0 -0.50947524099E+02  0.19695390578E+02 -0.85731480296E+02  0.10176215080E+03  0.47000000000E+01 0. -1.
        -13    1    4    4    0    0  0.39269797799E+01 -0.51024370229E+02 -0.18523246730E+02  0.54424426473E+02  0.00000000000E+00 0.  1.
         14    1    4    4    0    0 -0.11108152927E+03 -0.10879093083E+03 -0.11105160609E+03  0.19106813442E+03  0.00000000000E+00 0. -1.
         -5    1    5    5    0  502  0.10563210419E+03  0.66882224376E+02  0.59287515548E+02  0.13845025415E+03  0.47000000000E+01 0.  1.
         13    1    6    6    0    0  0.12496877749E+02  0.49229528552E+02 -0.70405165027E+02  0.86813626219E+02  0.00000000000E+00 0. -1.
        -14    1    6    6    0    0  0.39973091645E+02  0.24008157556E+02  0.86896784060E+01  0.47431531661E+02  0.00000000000E+00 0.  1.
</event>
<event>
12    1  0.9962621E-001  0.1813056E+03  0.7818608E-02  0.1166732E+00
         21   -1    0    0  503  502  0.00000000000E+00  0.00000000000E+00  0.58933883840E+02  0.58933883840E+02  0.00000000000E+00 0. -1.
         21   -1    0    0  501  503 -0.00000000000E+00 -0.00000000000E+00 -0.72308716629E+03  0.72308716629E+03  0.00000000000E+00 0. -1.
          6    2    1    2  501    0 -0.52552732389E+02 -0.20901949961E+02 -0.14322906003E+03  0.23044715360E+03  0.17144283529E+03 0.  0.
         24    2    3    3    0    0 -0.97393352364E+02  0.11290939329E+02 -0.10486764452E+03  0.16306205495E+03  0.77324384906E+02 0.  0.
         -6    2    1    2    0  502  0.52552732389E+02  0.20901949961E+02 -0.52092422242E+03  0.55157389653E+03  0.17225863297E+03 0.  0.
        -24    2    5    5    0    0  0.14887007789E+02  0.16650245431E+02 -0.10267044588E+03  0.13157973539E+03  0.79203236257E+02 0.  0.
          5    1    3    3  501    0  0.44840619976E+02 -0.32192889291E+02 -0.38361415504E+02  0.67385098651E+02  0.47000000000E+01 0. -1.
        -11    1    4    4    0    0 -0.28960648433E+02  0.22640015071E+02  0.67307858291E+00  0.36766050575E+02  0.00000000000E+00 0.  1.
         12    1    4    4    0    0 -0.68432703932E+02 -0.11349075742E+02 -0.10554072310E+03  0.12629600437E+03  0.00000000000E+00 0. -1.
         -5    1    5    5    0  502  0.37665724599E+02  0.42517045305E+01 -0.41825377654E+03  0.41999416114E+03  0.47000000000E+01 0.  1.
         11    1    6    6    0    0  0.10208483030E+02  0.30519725067E+02 -0.11042240207E+03  0.11501640589E+03  0.00000000000E+00 0. -1.
        -12    1    6    6    0    0  0.46785247592E+01 -0.13869479636E+02  0.77519561924E+01  0.16563329500E+02  0.00000000000E+00 0.  1.
</event>
<event>
12    1  0.9962621E-001  0.2251374E+03  0.7818608E-02  0.1130237E+00
         21   -1    0    0  503  502  0.00000000000E+00  0.00000000000E+00  0.24089361965E+03  0.24089361965E+03  0.00000000000E+00 0. -1.
         21   -1    0    0  501  503 -0.00000000000E+00 -0.00000000000E+00 -0.39263507538E+03  0.39263507538E+03  0.00000000000E+00 0. -1.
          6    2    1    2  501    0  0.90601936663E+02  0.11273670433E+03  0.14024916659E+03  0.26524832503E+03  0.17253570580E+03 0.  0.
         24    2    3    3    0    0 -0.21298071453E+02  0.47039419671E+02  0.47144262030E+02  0.10547236226E+03  0.78965327251E+02 0.  0.
         -6    2    1    2    0  502 -0.90601936663E+02 -0.11273670433E+03 -0.29199062232E+03  0.36828037000E+03  0.17162060475E+03 0.  0.
        -24    2    5    5    0    0 -0.30592373408E+02 -0.13244980419E+03 -0.23520302174E+03  0.28321171791E+03  0.80059801318E+02 0.  0.
          5    1    3    3  501    0  0.11190000812E+03  0.65697284655E+02  0.93104904558E+02  0.15977596277E+03  0.47000000000E+01 0. -1.
        -11    1    4    4    0    0  0.10098026173E+02  0.26254520493E+02  0.59524598665E+02  0.65836523489E+02  0.00000000000E+00 0.  1.
         12    1    4    4    0    0 -0.31396097626E+02  0.20784899179E+02 -0.12380336635E+02  0.39635838772E+02  0.00000000000E+00 0. -1.
         -5    1    5    5    0  502 -0.60009563255E+02  0.19713099859E+02 -0.56787600577E+02  0.85068652085E+02  0.47000000000E+01 0.  1.
         13    1    6    6    0    0  0.10034700546E+02 -0.32514447916E+02 -0.13409951094E+02  0.36574736180E+02  0.00000000000E+00 0. -1.
        -14    1    6    6    0    0 -0.40627073954E+02 -0.99935356270E+02 -0.22179307065E+03  0.24663698173E+03  0.00000000000E+00 0.  1.
</event>
<event>
12    1  0.9962621E-001  0.3450074E+03  0.7818608E-02  0.1064741E+00
         21   -1    0    0  501  502  0.00000000000E+00  0.00000000000E+00  0.10784711008E+04  0.10784711008E+04  0.00000000000E+00 0.  1.
         21   -1    0    0  502  503 -0.00000000000E+00 -0.00000000000E+00 -0.21153153160E+03  0.21153153160E+03  0.00000000000E+00 0.  1.
         -6    2    1    2    0  503  0.20077190374E+03  0.22131703100E+03  0.88009059096E+03  0.94529865347E+03  0.17245147264E+03 0.  0.
        -24    2    3    3    0    0  0.50077920707E+02  0.43098612876E+02  0.37049219189E+03  0.38477827078E+03  0.80153383186E+02 0.  0.
          6    2    1    2  501    0 -0.20077190374E+03 -0.22131703100E+03 -0.13151021714E+02  0.34470397898E+03  0.17133971580E+03 0.  0.
         24    2    5    5    0    0 -0.98781111716E+02 -0.35793899998E+02 -0.58388386325E+01  0.13281600902E+03  0.81037577119E+02 0.  0.
          5    1    5    5  501    0 -0.10199079203E+03 -0.18552313100E+03 -0.73121830819E+01  0.21188796997E+03  0.47000000000E+01 0. -1.
        -11    1    6    6    0    0 -0.12931137348E+02 -0.34333099078E+02  0.21725383271E+02  0.42637639284E+02  0.00000000000E+00 0.  1.
         12    1    6    6    0    0 -0.85849974368E+02 -0.14608009195E+01 -0.27564221903E+02  0.90178369731E+02  0.00000000000E+00 0. -1.
         -5    1    3    3    0  503  0.15069398303E+03  0.17821841812E+03  0.50959839907E+03  0.56052038269E+03  0.47000000000E+01 0.  1.
         11    1    4    4    0    0 -0.19076810360E+02 -0.40012459911E+00  0.39710035188E+02  0.44056460229E+02  0.00000000000E+00 0. -1.
        -12    1    4    4    0    0  0.69154731067E+02  0.43498737475E+02  0.33078215670E+03  0.34072181055E+03  0.00000000000E+00 0.  1.
</event>
<event>
12    1  0.9962621E-001  0.2079469E+03  0.7818608E-02  0.1143285E+00
         21   -1    0    0  501  502  0.00000000000E+00  0.00000000000E+00  0.17526902763E+03  0.17526902763E+03  0.00000000000E+00 0.  1.
         21   -1    0    0  502  503 -0.00000000000E+00 -0.00000000000E+00 -0.26719974740E+03  0.26719974740E+03  0.00000000000E+00 0.  1.
         -6    2    1    2    0  503 -0.11235520281E+03  0.29929338949E+02 -0.10799106700E+03  0.23431601946E+03  0.17240205768E+03 0.  0.
        -24    2    3    3    0    0 -0.75250208426E+02 -0.44580679745E+02 -0.10544670960E+02  0.10607244809E+03  0.59077434646E+02 0.  0.
          6    2    1    2  501    0  0.11235520281E+03 -0.29929338949E+02  0.16060347231E+02  0.20815275558E+03  0.17190165204E+03 0.  0.
         24    2    5    5    0    0  0.93733062899E+02  0.32591530943E+01  0.59519049268E+02  0.15019579843E+03  0.10109278649E+03 0.  0.
          5    1    5    5  501    0  0.18622139908E+02 -0.33188492044E+02 -0.43458702038E+02  0.57956957147E+02  0.47000000000E+01 0. -1.
        -13    1    6    6    0    0  0.14444957085E+02 -0.26503012717E+02  0.58124378979E+02  0.65494350138E+02  0.00000000000E+00 0.  1.
         14    1    6    6    0    0  0.79288105814E+02  0.29762165811E+02  0.13946702891E+01  0.84701448291E+02  0.00000000000E+00 0. -1.
         -5    1    3    3    0  503 -0.37104994382E+02  0.74510018695E+02 -0.97446396045E+02  0.12824357136E+03  0.47000000000E+01 0.  1.
         11    1    4    4    0    0 -0.77815269339E+01  0.12273748668E+02  0.69758190638E+01  0.16120146383E+02  0.00000000000E+00 0. -1.
        -12    1    4    4    0    0 -0.67468681492E+02 -0.56854428414E+02 -0.17520490024E+02  0.89952301711E+02  0.00000000000E+00 0.  1.
</event>
<event>
12    1  0.9962621E-001  0.3354312E+03  0.7818608E-02  0.1068761E+00
         21   -1    0    0  503  502  0.00000000000E+00  0.00000000000E+00  0.12355375959E+04  0.12355375959E+04  0.00000000000E+00 0.  1.
         21   -1    0    0  501  503 -0.00000000000E+00 -0.00000000000E+00 -0.96148775872E+02  0.96148775872E+02  0.00000000000E+00 0.  1.
          6    2    1    2  501    0  0.14866464981E+03  0.24652045008E+03  0.72289077345E+03  0.79692230864E+03  0.17216441345E+03 0.  0.
         24    2    3    3    0    0  0.14445766992E+03  0.23344741778E+03  0.51913397740E+03  0.59264914646E+03  0.79794793276E+02 0.  0.
         -6    2    1    2    0  502 -0.14866464981E+03 -0.24652045008E+03  0.41649804656E+03  0.53476406311E+03  0.17212922470E+03 0.  0.
        -24    2    5    5    0    0 -0.17779768388E+03 -0.21355327444E+03  0.38311238066E+03  0.47933608254E+03  0.75966876909E+02 0.  0.
          5    1    3    3  501    0  0.42069798922E+01  0.13073032295E+02  0.20375679604E+03  0.20427316218E+03  0.47000000000E+01 0. -1.
        -11    1    4    4    0    0  0.16938776997E+02  0.53049326878E+02  0.53295810194E+02  0.77081752916E+02  0.00000000000E+00 0.  1.
         12    1    4    4    0    0  0.12751889293E+03  0.18039809091E+03  0.46583816721E+03  0.51556739354E+03  0.00000000000E+00 0. -1.
         -5    1    5    5    0  502  0.29133034065E+02 -0.32967175636E+02  0.33385665900E+02  0.55427980577E+02  0.47000000000E+01 0.  1.
         11    1    6    6    0    0 -0.15252548156E+03 -0.15691979224E+03  0.24846494051E+03  0.33109314457E+03  0.00000000000E+00 0. -1.
        -12    1    6    6    0    0 -0.25272202323E+02 -0.56633482202E+02  0.13464744015E+03  0.14824293796E+03  0.00000000000E+00 0.  1.
</event>
<event>
12    1  0.9962621E-001  0.2843042E+03  0.7818608E-02  0.1093368E+00
         21   -1    0    0  501  502  0.00000000000E+00  0.00000000000E+00  0.26552988066E+03  0.26552988066E+03  0.00000000000E+00 0. -1.
         21   -1    0    0  502  503 -0.00000000000E+00 -0.00000000000E+00 -0.30467832689E+03  0.30467832689E+03  0.00000000000E+00 0.  1.
         -6    2    1    2    0  503 -0.21472884508E+03  0.70823792324E+02 -0.10181192381E+02  0.28443208756E+03  0.17225988879E+03 0.  0.
        -24    2    3    3    0    0 -0.23432609610E+03  0.47202424722E+02 -0.88368916729E+00  0.25201982413E+03  0.79852505482E+02 0.  0.
          6    2    1    2  501    0  0.21472884508E+03 -0.70823792324E+02 -0.28967253854E+02  0.28577611999E+03  0.17234965185E+03 0.  0.
         24    2    5    5    0    0  0.13787942455E+03 -0.94872838497E+02 -0.67225625016E+02  0.19650135860E+03  0.77986589061E+02 0.  0.
          5    1    5    5  501    0  0.76849420534E+02  0.24049046173E+02  0.38258371162E+02  0.89274761396E+02  0.47000000000E+01 0. -1.
        -13    1    6    6    0    0  0.10101321753E+02  0.13062454089E+02 -0.80551354253E+00  0.16532188604E+02  0.00000000000E+00 0.  1.
         14    1    6    6    0    0  0.12777810279E+03 -0.10793529259E+03 -0.66420111473E+02  0.17996916999E+03  0.00000000000E+00 0. -1.
         -5    1    3    3    0  503  0.19597251020E+02  0.23621367603E+02 -0.92975032137E+01  0.32412263435E+02  0.47000000000E+01 0.  1.
         13    1    4    4    0    0 -0.15609481817E+03  0.56392947450E+02 -0.28801168083E+02  0.16844958909E+03  0.00000000000E+00 0. -1.
        -14    1    4    4    0    0 -0.78231277936E+02 -0.91905227285E+01  0.27917478916E+02  0.83570235040E+02  0.00000000000E+00 0.  1.
</event>
<event>
12    1  0.9962621E-001  0.2490348E+03  0.7818608E-02  0.1114016E+00
         21   -1    0    0  503  502  0.00000000000E+00  0.00000000000E+00  0.36627060422E+02  0.36627060422E+02  0.00000000000E+00 0. -1.
         21   -1    0    0  501  503 -0.00000000000E+00 -0.00000000000E+00 -0.16905782840E+04  0.16905782840E+04  0.00000000000E+00 0. -1.
          6    2    1    2  501    0  0.64503288200E+02  0.16912188326E+03 -0.85472410082E+03  0.89026490471E+03  0.17104217741E+03 0.  0.
         24    2    3    3    0    0  0.96584348960E+01  0.79495480112E+02 -0.22793217947E+03  0.25470920082E+03  0.80690035464E+02 0.  0.
         -6    2    1    2    0  502 -0.64503288200E+02 -0.16912188326E+03 -0.79922712280E+03  0.83694043975E+03  0.17012471979E+03 0.  0.
        -24    2    5    5    0    0 -0.63663156731E+02 -0.32119325735E+02 -0.30163512183E+03  0.32081032435E+03  0.82769975717E+02 0.  0.
          5    1    3    3  501    0  0.54844853304E+02  0.89626403153E+02 -0.62679192135E+03  0.63555570388E+03  0.47000000000E+01 0. -1.
        -13    1    4    4    0    0  0.35803901090E+02  0.20050321183E+02 -0.13668518259E+03  0.14271220639E+03  0.00000000000E+00 0.  1.
         14    1    4    4    0    0 -0.26145466194E+02  0.59445158929E+02 -0.91246996878E+02  0.11199699443E+03  0.00000000000E+00 0. -1.
         -5    1    5    5    0  502 -0.84013146890E+00 -0.13700255753E+03 -0.49759200097E+03  0.51613011540E+03  0.47000000000E+01 0.  1.
         11    1    6    6    0    0 -0.68658494235E+02 -0.45860984751E+02 -0.29163140929E+03  0.30309420587E+03  0.00000000000E+00 0. -1.
        -12    1    6    6    0    0  0.49953375045E+01  0.13741659016E+02 -0.10003712544E+02  0.17716118479E+02  0.00000000000E+00 0.  1.
</event>
<event>
12    1  0.9962621E-001  0.3102262E+03  0.7818608E-02  0.1080523E+00
         21   -1    0    0  501  502  0.00000000000E+00  0.00000000000E+00  0.15003750013E+04  0.15003750013E+04  0.00000000000E+00 0.  1.
         21   -1    0    0  502  503 -0.00000000000E+00 -0.00000000000E+00 -0.11995972969E+03  0.11995972969E+03  0.00000000000E+00 0.  1.
         -6    2    1    2    0  503  0.15239668551E+03  0.20834710873E+03  0.13375302000E+03  0.33565302878E+03  0.16774927095E+03 0.  0.
        -24    2    3    3    0    0  0.38688267056E+02  0.14972305023E+03  0.10912130999E+03  0.20528740525E+03  0.79509022641E+02 0.  0.
          6    2    1    2  501    0 -0.15239668551E+03 -0.20834710873E+03  0.12466622516E+04  0.12846817022E+04  0.17206696062E+03 0.  0.
         24    2    5    5    0    0 -0.76727929066E+02 -0.49620047418E+02  0.70325037764E+03  0.71350870261E+03  0.78640007975E+02 0.  0.
          5    1    5    5  501    0 -0.75668756440E+02 -0.15872706131E+03  0.54341187398E+03  0.57117299960E+03  0.47000000000E+01 0. -1.
        -13    1    6    6    0    0 -0.80256631299E+02 -0.29559734206E+02  0.66201783937E+03  0.66751968091E+03  0.00000000000E+00 0.  1.
         14    1    6    6    0    0  0.35287022327E+01 -0.20060313212E+02  0.41232538266E+02  0.45989021705E+02  0.00000000000E+00 0. -1.
         -5    1    3    3    0  503  0.11370841845E+03  0.58624058499E+02  0.24631710005E+02  0.13036562353E+03  0.47000000000E+01 0.  1.
         11    1    4    4    0    0  0.55898123382E+02  0.90904284609E+02  0.42778965412E+02  0.11497055727E+03  0.00000000000E+00 0. -1.
        -12    1    4    4    0    0 -0.17209856325E+02  0.58818765624E+02  0.66342344580E+02  0.90316847978E+02  0.00000000000E+00 0.  1.
</event>
<event>
12    1  0.9962621E-001  0.3795403E+03  0.7818608E-02  0.1051296E+00
         21   -1    0    0  501  502  0.00000000000E+00  0.00000000000E+00  0.20150056487E+04  0.20150056487E+04  0.00000000000E+00 0.  1.
         21   -1    0    0  502  503 -0.00000000000E+00 -0.00000000000E+00 -0.77432505666E+02  0.77432505666E+02  0.00000000000E+00 0.  1.
         -6    2    1    2    0  503 -0.32183721137E+03 -0.97036479453E+02  0.67202734798E+03  0.77179762209E+03  0.17622583257E+03 0.  0.
        -24    2    3    3    0    0 -0.24649372397E+03 -0.11825830386E+03  0.60033974568E+03  0.66555163747E+03  0.88357170074E+02 0.  0.
          6    2    1    2  501    0  0.32183721137E+03  0.97036479453E+02  0.12655457951E+04  0.13206405323E+04  0.17172648932E+03 0.  0.
         24    2    5    5    0    0  0.24824155794E+03  0.69814572020E+02  0.70688685678E+03  0.75647809843E+03  0.77923934445E+02 0.  0.
          5    1    5    5  501    0  0.73595653436E+02  0.27221907433E+02  0.55865893827E+03  0.56416243385E+03  0.47000000000E+01 0. -1.
        -11    1    6    6    0    0  0.68633406078E+02 -0.11816504400E+02  0.14261613648E+03  0.15871211860E+03  0.00000000000E+00 0.  1.
         12    1    6    6    0    0  0.17960815186E+03  0.81631076420E+02  0.56427072030E+03  0.59776597983E+03  0.00000000000E+00 0. -1.
         -5    1    3    3    0  503 -0.75343487403E+02  0.21221824407E+02  0.71687602298E+02  0.10624598462E+03  0.47000000000E+01 0.  1.
         13    1    4    4    0    0 -0.13665583158E+03 -0.29224011976E+02  0.22983846191E+03  0.26898806248E+03  0.00000000000E+00 0. -1.
        -14    1    4    4    0    0 -0.10983789239E+03 -0.89034291884E+02  0.37050128377E+03  0.39656357499E+03  0.00000000000E+00 0.  1.
</event>
<event>
12    1  0.9962621E-001  0.1806432E+03  0.7818608E-02  0.1167224E+00
         21   -1    0    0  501  502  0.00000000000E+00  0.00000000000E+00  0.16316943628E+04  0.16316943628E+04  0.00000000000E+00 0.  1.
         21   -1    0    0  502  503 -0.00000000000E+00 -0.00000000000E+00 -0.24977868298E+02  0.24977868298E+02  0.00000000000E+00 0.  1.
         -6    2    1    2    0  503 -0.52467154614E+02 -0.58802765996E+00  0.43312305733E+03  0.46928406602E+03  0.17285486322E+03 0.  0.
        -24    2    3    3    0    0 -0.74348562824E+02  0.53329575313E+02  0.31196711878E+03  0.33479705780E+03  0.79961455153E+02 0.  0.
          6    2    1    2  501    0  0.52467154614E+02  0.58802765996E+00  0.11735934371E+04  0.11873881650E+04  0.17267295881E+03 0.  0.
         24    2    5    5    0    0  0.98235027979E+01 -0.38532943407E+02  0.32559714227E+03  0.33740655493E+03  0.79046791982E+02 0.  0.
          5    1    5    5  501    0  0.42643651816E+02  0.39120971067E+02  0.84799629485E+03  0.84998161009E+03  0.47000000000E+01 0. -1.
        -13    1    6    6    0    0 -0.45010132770E+01  0.21687455636E+02  0.14044888907E+03  0.14218472243E+03  0.00000000000E+00 0.  1.
         14    1    6    6    0    0  0.14324516075E+02 -0.60220399043E+02  0.18514825321E+03  0.19522183250E+03  0.00000000000E+00 0. -1.
         -5    1    3    3    0  503  0.21881408211E+02 -0.53917602973E+02  0.12115593855E+03  0.13448700822E+03  0.47000000000E+01 0.  1.
         11    1    4    4    0    0 -0.35328913811E+02  0.54702678484E+02  0.26887236038E+03  0.27664573259E+03  0.00000000000E+00 0. -1.
        -12    1    4    4    0    0 -0.39019649013E+02 -0.13731031712E+01  0.43094758405E+02  0.58151325208E+02  0.00000000000E+00 0.  1.
</event>
<event>
12    1  0.9962621E-001  0.2770841E+03  0.7818608E-02  0.1097419E+00
         21   -1    0    0  501  502  0.00000000000E+00  0.00000000000E+00  0.33002615961E+03  0.33002615961E+03  0.00000000000E+00 0. -1.
         21   -1    0    0  502  503 -0.00000000000E+00 -0.00000000000E+00 -0.24676467893E+03  0.24676467893E+03  0.00000000000E+00 0. -1.
         -6    2    1    2    0  503 -0.21621520548E+03  0.20689288376E+02  0.11255746977E+03  0.29907318182E+03  0.17204221096E+03 0.  0.
        -24    2    3    3    0    0 -0.14410864034E+03  0.82426712972E+02  0.65681062114E+02  0.19309981759E+03  0.73566802307E+02 0.  0.
          6    2    1    2  501    0  0.21621520548E+03 -0.20689288376E+02 -0.29295989095E+02  0.27771765672E+03  0.17056312656E+03 0.  0.
         24    2    5    5    0    0  0.17853535465E+03  0.34082655677E+02  0.11026854872E+02  0.19982183681E+03  0.82284109395E+02 0.  0.
          5    1    5    5  501    0  0.37679850827E+02 -0.54771944053E+02 -0.40322843967E+02  0.77895819909E+02  0.47000000000E+01 0. -1.
        -13    1    6    6    0    0  0.10592559880E+03 -0.13323893227E+02 -0.18226755549E+02  0.10830500095E+03  0.00000000000E+00 0.  1.
         14    1    6    6    0    0  0.72609755849E+02  0.47406548904E+02  0.29253610421E+02  0.91516835862E+02  0.00000000000E+00 0. -1.
         -5    1    3    3    0  503 -0.72106565141E+02 -0.61737424596E+02  0.46876407657E+02  0.10597336423E+03  0.47000000000E+01 0.  1.
         11    1    4    4    0    0 -0.11506458357E+02 -0.13226855017E+02  0.10998853174E+02  0.20695966967E+02  0.00000000000E+00 0. -1.
        -12    1    4    4    0    0 -0.13260218198E+03  0.95653567989E+02  0.54682208940E+02  0.17240385062E+03  0.00000000000E+00 0.  1.
</event>
<event>
12    1  0.9962621E-001  0.2038291E+03  0.7818608E-02  0.1147217E+00
         21   -1    0    0  503  502  0.00000000000E+00  0.00000000000E+00  0.19284519500E+02  0.19284519500E+02  0.00000000000E+00 0.  1.
         21   -1    0    0  501  503 -0.00000000000E+00 -0.00000000000E+00 -0.22770506061E+04  0.22770506061E+04  0.00000000000E+00 0.  1.
          6    2    1    2  501    0 -0.30703488050E+02  0.99723443348E+02 -0.14383317331E+04  0.14527024750E+04  0.17509665059E+03 0.  0.
         24    2    3    3    0    0 -0.74361077146E+01  0.55557048044E+02 -0.30790474471E+03  0.32116400567E+03  0.72104822556E+02 0.  0.
         -6    2    1    2    0  502  0.30703488050E+02 -0.99723443348E+02 -0.81943435346E+03  0.84363265057E+03  0.17133569435E+03 0.  0.
        -24    2    5    5    0    0 -0.21437147183E+02 -0.11038441959E+03 -0.44515735167E+03  0.46556167004E+03  0.77060557332E+02 0.  0.
          5    1    3    3  501    0 -0.23267380336E+02  0.44166395304E+02 -0.11304269884E+04  0.11315384693E+04  0.47000000000E+01 0. -1.
        -11    1    4    4    0    0  0.14558302425E+02  0.71115757792E+01 -0.20197266665E+03  0.20262151108E+03  0.00000000000E+00 0.  1.
         12    1    4    4    0    0 -0.21994410140E+02  0.48445472265E+02 -0.10593207806E+03  0.11854249459E+03  0.00000000000E+00 0. -1.
         -5    1    5    5    0  502  0.52140635233E+02  0.10660976239E+02 -0.37427700179E+03  0.37807098054E+03  0.47000000000E+01 0.  1.
         11    1    6    6    0    0  0.77395084460E+01 -0.10077520620E+03 -0.38459626633E+03  0.39765541648E+03  0.00000000000E+00 0. -1.
        -12    1    6    6    0    0 -0.29176655629E+02 -0.96092133821E+01 -0.60561085337E+02  0.67906253561E+02  0.00000000000E+00 0.  1.
</event>
<event>
12    1  0.9962621E-001  0.3159343E+03  0.7818608E-02  0.1077552E+00
         21   -1    0    0  503  502  0.00000000000E+00  0.00000000000E+00  0.82039103310E+02  0.82039103310E+02  0.00000000000E+00 0. -1.
         21   -1    0    0  501  503 -0.00000000000E+00 -0.00000000000E+00 -0.12595320583E+04  0.12595320583E+04  0.00000000000E+00 0. -1.
          6    2    1    2  501    0  0.97128033490E+02 -0.24622585904E+03 -0.46436835527E+03  0.56165156384E+03  0.17249197443E+03 0.  0.
         24    2    3    3    0    0  0.84791059563E+02 -0.25302232258E+03 -0.46933884447E+03  0.54599306438E+03  0.81361267904E+02 0.  0.
         -6    2    1    2    0  502 -0.97128033490E+02  0.24622585904E+03 -0.71312459974E+03  0.77991959779E+03  0.17224069121E+03 0.  0.
        -24    2    5    5    0    0 -0.33447207226E+02  0.16788634291E+03 -0.59452301414E+03  0.62409677043E+03  0.82064759210E+02 0.  0.
          5    1    3    3  501    0  0.12336973928E+02  0.67964635467E+01  0.49704892030E+01  0.15658499460E+02  0.47000000000E+01 0. -1.
        -11    1    4    4    0    0  0.55182773744E+02 -0.10371203150E+03 -0.27571303887E+03  0.29969818785E+03  0.00000000000E+00 0.  1.
         12    1    4    4    0    0  0.29608285819E+02 -0.14931029108E+03 -0.19362580560E+03  0.24629487653E+03  0.00000000000E+00 0. -1.
         -5    1    5    5    0  502 -0.63680826265E+02  0.78339516124E+02 -0.11860158560E+03  0.15582282736E+03  0.47000000000E+01 0.  1.
         13    1    6    6    0    0 -0.55047222700E+02  0.10442013160E+03 -0.30825094532E+03  0.33007939334E+03  0.00000000000E+00 0. -1.
        -14    1    6    6    0    0  0.21600015474E+02  0.63466211309E+02 -0.28627206882E+03  0.29401737709E+03  0.00000000000E+00 0.  1.
</event>
<event>
12    1  0.9962621E-001  0.1909804E+03  0.7818608E-02  0.1158085E+00
         21   -1    0    0  503  502  0.00000000000E+00  0.00000000000E+00  0.19841573923E+02  0.19841573923E+02  0.00000000000E+00 0.  1.
         21   -1    0    0  501  503 -0.00000000000E+00 -0.00000000000E+00 -0.18185003464E+04  0.18185003464E+04  0.00000000000E+00 0.  1.
          6    2    1    2  501    0 -0.73353830720E+01 -0.73558596822E+02 -0.86538722600E+03  0.88573008701E+03  0.17366076443E+03 0.  0.
         24    2    3    3    0    0  0.12764306217E+02 -0.11342128679E+03 -0.55991309612E+03  0.57697522375E+03  0.79814897136E+02 0.  0.
         -6    2    1    2    0  502  0.73353830720E+01  0.73558596822E+02 -0.93327154650E+03  0.95261183333E+03  0.17609330054E+03 0.  0.
        -24    2    5    5    0    0  0.36373244908E+02  0.10996697658E+03 -0.61958785114E+03  0.63545521860E+03  0.80613154515E+02 0.  0.
          5    1    3    3  501    0 -0.20099689289E+02  0.39862689968E+02 -0.30547412989E+03  0.30875486327E+03  0.47000000000E+01 0. -1.
        -13    1    4    4    0    0  0.30186490085E+02 -0.48761521484E+02 -0.39246763224E+03  0.39663554117E+03  0.00000000000E+00 0.  1.
         14    1    4    4    0    0 -0.17422183868E+02 -0.64659765306E+02 -0.16744546388E+03  0.18033968258E+03  0.00000000000E+00 0. -1.
         -5    1    5    5    0  502 -0.29037861836E+02 -0.36408379759E+02 -0.31368369536E+03  0.31715661473E+03  0.47000000000E+01 0.  1.
         11    1    6    6    0    0 -0.15883127573E+02  0.78256098459E+02 -0.33680049442E+03  0.34613705917E+03  0.00000000000E+00 0. -1.
        -12    1    6    6    0    0  0.52256372482E+02  0.31710878122E+02 -0.28278735672E+03  0.28931815943E+03  0.00000000000E+00 0.  1.
</event>
<event>
12    1  0.9962621E-001  0.2120619E+03  0.7818608E-02  0.1140324E+00
         21   -1    0    0  501  502  0.00000000000E+00  0.00000000000E+00  0.67695891762E+03  0.67695891762E+03  0.00000000000E+00 0. -1.
         21   -1    0    0  502  503 -0.00000000000E+00 -0.00000000000E+00 -0.79328584572E+02  0.79328584572E+02  0.00000000000E+00 0. -1.
         -6    2    1    2    0  503 -0.71459663661E+02  0.99316386855E+02  0.14166033192E+03  0.25341683937E+03  0.17082803228E+03 0.  0.
        -24    2    3    3    0    0 -0.54238789085E+02  0.72519388633E+02  0.17114504505E+03  0.20975820972E+03  0.80665805220E+02 0.  0.
          6    2    1    2  501    0  0.71459663661E+02 -0.99316386855E+02  0.45597000113E+03  0.50287066282E+03  0.17320517707E+03 0.  0.
         24    2    5    5    0    0 -0.17940103334E+02 -0.61234888045E+02  0.32186249144E+03  0.33719195855E+03  0.77662054427E+02 0.  0.
          5    1    5    5  501    0  0.89399766996E+02 -0.38081498810E+02  0.13410750970E+03  0.16567870427E+03  0.47000000000E+01 0. -1.
        -11    1    6    6    0    0  0.16849429856E+02 -0.33940719528E+02  0.55612598266E+02  0.67295147035E+02  0.00000000000E+00 0.  1.
         12    1    6    6    0    0 -0.34789533190E+02 -0.27294168517E+02  0.26624989317E+03  0.26989681152E+03  0.00000000000E+00 0. -1.
         -5    1    3    3    0  503 -0.17220874576E+02  0.26796998222E+02 -0.29484713130E+02  0.43658629654E+02  0.47000000000E+01 0.  1.
         11    1    4    4    0    0  0.10305870495E+02 -0.69837315466E+01  0.28747164687E+01  0.12776833244E+02  0.00000000000E+00 0. -1.
        -12    1    4    4    0    0 -0.64544659580E+02  0.79503120179E+02  0.16827032858E+03  0.19698137648E+03  0.00000000000E+00 0.  1.
</event>
<event>
12    1  0.9962621E-001  0.2123928E+03  0.7818608E-02  0.1139755E+00
         21   -1    0    0  503  502  0.00000000000E+00  0.00000000000E+00  0.30389986888E+02  0.30389986888E+02  0.00000000000E+00 0.  1.
         21   -1    0    0  501  503 -0.00000000000E+00 -0.00000000000E+00 -0.14844349135E+04  0.14844349135E+04  0.00000000000E+00 0.  1.
          6    2    1    2  501    0  0.92940695650E+02  0.82943828829E+02 -0.69632874637E+03  0.72800029603E+03  0.17202632460E+03 0.  0.
         24    2    3    3    0    0  0.94529026769E+02  0.40944001695E+01 -0.52584147256E+03  0.54009671510E+03  0.79010799162E+02 0.  0.
         -6    2    1    2    0  502 -0.92940695650E+02 -0.82943828829E+02 -0.75771618024E+03  0.78682460435E+03  0.17158524578E+03 0.  0.
        -24    2    5    5    0    0 -0.12071868917E+03 -0.24638105271E+02 -0.54191837191E+03  0.56152045791E+03  0.80309804468E+02 0.  0.
          5    1    3    3  501    0 -0.15883311187E+01  0.78849428660E+02 -0.17048727380E+03  0.18790358093E+03  0.47000000000E+01 0. -1.
        -13    1    4    4    0    0 -0.12255479591E+02  0.84280330162E+01 -0.97283964310E+02  0.98414420856E+02  0.00000000000E+00 0.  1.
         14    1    4    4    0    0  0.10678450636E+03 -0.43336328467E+01 -0.42855750825E+03  0.44168229425E+03  0.00000000000E+00 0. -1.
         -5    1    5    5    0  502  0.27777993519E+02 -0.58305723558E+02 -0.21579780833E+03  0.22530414644E+03  0.47000000000E+01 0.  1.
         13    1    6    6    0    0 -0.47799099214E+02 -0.44462576706E+02 -0.17220695193E+03  0.18416543895E+03  0.00000000000E+00 0. -1.
        -14    1    6    6    0    0 -0.72919589955E+02  0.19824471435E+02 -0.36971141998E+03  0.37735501896E+03  0.00000000000E+00 0.  1.
</event>
<event>
12    1  0.9962621E-001  0.7291576E+03  0.7818608E-02  0.9668727E-01
         21   -1    0    0  503  502  0.00000000000E+00  0.00000000000E+00  0.25495316425E+03  0.25495316425E+03  0.00000000000E+00 0.  1.
         21   -1    0    0  501  503 -0.00000000000E+00 -0.00000000000E+00 -0.21784766761E+04  0.21784766761E+04  0.00000000000E+00 0.  1.
          6    2    1    2  501    0 -0.31300109591E+03  0.63522885754E+03 -0.12140831207E+04  0.14160919245E+04  0.17272268826E+03 0.  0.
         24    2    3    3    0    0 -0.67676007706E+02  0.19938581578E+03 -0.31273574490E+03  0.38527053458E+03  0.79340992722E+02 0.  0.
         -6    2    1    2    0  502  0.31300109591E+03 -0.63522885754E+03 -0.70944039112E+03  0.10173379159E+04  0.17373939977E+03 0.  0.
        -24    2    5    5    0    0  0.21003668727E+03 -0.55317942792E+03 -0.59183324802E+03  0.84073862806E+03  0.80324079732E+02 0.  0.
          5    1    3    3  501    0 -0.24532508821E+03  0.43584304176E+03 -0.90134737583E+03  0.10308213899E+04  0.47000000000E+01 0. -1.
        -11    1    4    4    0    0 -0.76328094549E+02  0.20035776615E+03 -0.30823252703E+03  0.37546837841E+03  0.00000000000E+00 0.  1.
         12    1    4    4    0    0  0.86520868425E+01 -0.97195037080E+00 -0.45032178714E+01  0.98021561633E+01  0.00000000000E+00 0. -1.
         -5    1    5    5    0  502  0.10296440864E+03 -0.82049429619E+02 -0.11760714311E+03  0.17659928782E+03  0.47000000000E+01 0.  1.
         13    1    6    6    0    0  0.10680845764E+03 -0.38489680861E+03 -0.38395429778E+03  0.55405279774E+03  0.00000000000E+00 0. -1.
        -14    1    6    6    0    0  0.10322822964E+03 -0.16828261930E+03 -0.20787895023E+03  0.28668583032E+03  0.00000000000E+00 0.  1.
</event>
<event>
12    1  0.9962621E-001  0.2878757E+03  0.7818608E-02  0.1091675E+00
         21   -1    0    0  501  502  0.00000000000E+00  0.00000000000E+00  0.28422720746E+03  0.28422720746E+03  0.00000000000E+00 0.  1.
         21   -1    0    0  502  503 -0.00000000000E+00 -0.00000000000E+00 -0.29064229914E+03  0.29064229914E+03  0.00000000000E+00 0.  1.
         -6    2    1    2    0  503 -0.13413677202E+03 -0.18733472645E+03 -0.17230844997E+02  0.28679074793E+03  0.16989719756E+03 0.  0.
        -24    2    3    3    0    0 -0.24447543205E+02 -0.14870321284E+03 -0.99645700536E+01  0.17017595679E+03  0.78423438688E+02 0.  0.
          6    2    1    2  501    0  0.13413677202E+03  0.18733472645E+03  0.10815753314E+02  0.28807875866E+03  0.17258452228E+03 0.  0.
         24    2    5    5    0    0  0.64116243635E+02  0.23004543617E+02 -0.89865987556E+01  0.10829692829E+03  0.83709999373E+02 0.  0.
          5    1    5    5  501    0  0.70020528384E+02  0.16433018283E+03  0.19802352070E+02  0.17978183037E+03  0.47000000000E+01 0. -1.
        -13    1    6    6    0    0 -0.75347533021E+01 -0.12635643154E+02  0.18541554173E+02  0.23668992720E+02  0.00000000000E+00 0.  1.
         14    1    6    6    0    0  0.71650996937E+02  0.35640186771E+02 -0.27528152929E+02  0.84627935570E+02  0.00000000000E+00 0. -1.
         -5    1    3    3    0  503 -0.10968922881E+03 -0.38631513616E+02 -0.72662749438E+01  0.11661479114E+03  0.47000000000E+01 0.  1.
         11    1    4    4    0    0 -0.52299386660E+02 -0.94462048862E+02 -0.14926087668E+02  0.10900042483E+03  0.00000000000E+00 0. -1.
        -12    1    4    4    0    0  0.27851843456E+02 -0.54241163974E+02  0.49615176145E+01  0.61175531956E+02  0.00000000000E+00 0.  1.
</event>
<event>
12    1  0.9962621E-001  0.3527982E+03  0.7818608E-02  0.1061571E+00
         21   -1    0    0  501  502  0.00000000000E+00  0.00000000000E+00  0.91317348421E+03  0.91317348421E+03  0.00000000000E+00 0. -1.
         21   -1    0    0  502  503 -0.00000000000E+00 -0.00000000000E+00 -0.14133139678E+03  0.14133139678E+03  0.00000000000E+00 0. -1.
         -6    2    1    2    0  503  0.27729654702E+02 -0.30561914212E+03  0.28230863194E+03  0.45108997672E+03  0.17208140414E+03 0.  0.
        -24    2    3    3    0    0 -0.40981482267E+01 -0.80267231969E+02  0.44039605700E+02  0.12155892915E+03  0.79859019773E+02 0.  0.
          6    2    1    2  501    0 -0.27729654702E+02  0.30561914212E+03  0.48953345549E+03  0.60341490426E+03  0.17405329316E+03 0.  0.
         24    2    5    5    0    0 -0.62232725602E+01  0.18305394781E+03  0.40927882895E+03  0.45526752355E+03  0.78815488616E+02 0.  0.
          5    1    5    5  501    0 -0.21506382141E+02  0.12256519431E+03  0.80254626541E+02  0.14814738071E+03  0.47000000000E+01 0. -1.
        -11    1    6    6    0    0 -0.32465499967E+02  0.34164737040E+02  0.78216167043E+02  0.91318162115E+02  0.00000000000E+00 0.  1.
         12    1    6    6    0    0  0.26242227406E+02  0.14888921077E+03  0.33106266191E+03  0.36394936144E+03  0.00000000000E+00 0. -1.
         -5    1    3    3    0  503  0.31827802928E+02 -0.22535191015E+03  0.23826902624E+03  0.32953104757E+03  0.47000000000E+01 0.  1.
         13    1    4    4    0    0  0.33391846085E+01  0.12049850664E+02  0.23609409824E+02  0.26716161534E+02  0.00000000000E+00 0. -1.
        -14    1    4    4    0    0 -0.74373328352E+01 -0.92317082633E+02  0.20430195876E+02  0.94842767616E+02  0.00000000000E+00 0.  1.
</event>
<event>
12    1  0.9962621E-001  0.2897460E+03  0.7818608E-02  0.1090486E+00
         21   -1    0    0  503  502  0.00000000000E+00  0.00000000000E+00  0.23677144736E+03  0.23677144736E+03  0.00000000000E+00 0.  1.
         21   -1    0    0  501  503 -0.00000000000E+00 -0.00000000000E+00 -0.38715503232E+03  0.38715503232E+03  0.00000000000E+00 0.  1.
          6    2    1    2  501    0  0.11531714554E+03 -0.20257670960E+03  0.15364931565E+02  0.29012216739E+03  0.17204483009E+03 0.  0.
         24    2    3    3    0    0  0.72914458064E+02 -0.11638594971E+03 -0.55652871502E+02  0.17057111826E+03  0.84469265375E+02 0.  0.
         -6    2    1    2    0  502 -0.11531714554E+03  0.20257670960E+03 -0.16574851653E+03  0.33380431229E+03  0.17209700998E+03 0.  0.
        -24    2    5    5    0    0 -0.58524602162E+02  0.96772744152E+02 -0.16290497032E+03  0.21359596048E+03  0.79341741304E+02 0.  0.
          5    1    3    3  501    0  0.42402687479E+02 -0.86190759888E+02  0.71017803066E+02  0.11955104913E+03  0.47000000000E+01 0. -1.
        -11    1    4    4    0    0  0.18758995238E+02 -0.10336295944E+03 -0.42616907557E+02  0.11336667101E+03  0.00000000000E+00 0.  1.
         12    1    4    4    0    0  0.54155462826E+02 -0.13022990279E+02 -0.13035963944E+02  0.57204447254E+02  0.00000000000E+00 0. -1.
         -5    1    5    5    0  502 -0.56792543382E+02  0.10580396545E+03 -0.28435462144E+01  0.12020835181E+03  0.47000000000E+01 0.  1.
         13    1    6    6    0    0 -0.73516604006E+02  0.60397480416E+02 -0.13582260576E+03  0.16583222528E+03  0.00000000000E+00 0. -1.
        -14    1    6    6    0    0  0.14992001843E+02  0.36375263735E+02 -0.27082364557E+02  0.47763735209E+02  0.00000000000E+00 0.  1.
</event>
<event>
12    1  0.9962621E-001  0.3571240E+03  0.7818608E-02  0.1059730E+00
         21   -1    0    0  503  502  0.00000000000E+00  0.00000000000E+00  0.29405255516E+03  0.29405255516E+03  0.00000000000E+00 0.  1.
         21   -1    0    0  501  503 -0.00000000000E+00 -0.00000000000E+00 -0.49317922812E+03  0.49317922812E+03  0.00000000000E+00 0.  1.
          6    2    1    2  501    0 -0.17162253156E+03  0.26168236478E+03  0.37122398590E+02  0.35903657064E+03  0.17203846431E+03 0.  0.
         24    2    3    3    0    0 -0.11908969566E+03  0.26149713719E+03  0.53723106117E+02  0.30374274958E+03  0.82525010875E+02 0.  0.
         -6    2    1    2    0  502  0.17162253156E+03 -0.26168236478E+03 -0.23624907155E+03  0.42819521264E+03  0.17206267156E+03 0.  0.
        -24    2    5    5    0    0  0.34805300763E+02 -0.10847519794E+03 -0.15082580617E+03  0.20568540413E+03  0.81115868579E+02 0.  0.
          5    1    3    3  501    0 -0.52532835903E+02  0.18522759098E+00 -0.16600707527E+02  0.55293821062E+02  0.47000000000E+01 0. -1.
        -13    1    4    4    0    0 -0.87876865310E+02  0.12597897383E+03 -0.28069579729E+01  0.15362592332E+03  0.00000000000E+00 0.  1.
         14    1    4    4    0    0 -0.31212830351E+02  0.13551816337E+03  0.56530064090E+02  0.15011682626E+03  0.00000000000E+00 0. -1.
         -5    1    5    5    0  502  0.13681723080E+03 -0.15320716685E+03 -0.85423265375E+02  0.22250980851E+03  0.47000000000E+01 0.  1.
         13    1    6    6    0    0  0.26952818906E+02 -0.81729447593E+02 -0.15520621302E+03  0.17746866093E+03  0.00000000000E+00 0. -1.
        -14    1    6    6    0    0  0.78524818566E+01 -0.26745750344E+02  0.43804068482E+01  0.28216743202E+02  0.00000000000E+00 0.  1.
</event>
<event>
12    1  0.9962621E-001  0.3081251E+03  0.7818608E-02  0.1081415E+00
         21   -1    0    0  503  502  0.00000000000E+00  0.00000000000E+00  0.58573412820E+03  0.58573412820E+03  0.00000000000E+00 0.  1.
         21   -1    0    0  501  503 -0.00000000000E+00 -0.00000000000E+00 -0.17747029705E+03  0.17747029705E+03  0.00000000000E+00 0.  1.
          6    2    1    2  501    0 -0.20324131429E+03  0.15212290765E+03  0.31950722521E+03  0.44387605120E+03  0.17462150783E+03 0.  0.
         24    2    3    3    0    0 -0.12849972863E+03  0.14660309354E+03  0.29963644549E+03  0.36619908639E+03  0.79467755169E+02 0.  0.
         -6    2    1    2    0  502  0.20324131429E+03 -0.15212290765E+03  0.88756605938E+02  0.31932837405E+03  0.17217567921E+03 0.  0.
        -24    2    5    5    0    0  0.21921597019E+03 -0.13692013339E+03  0.45792256441E+02  0.27080683962E+03  0.66608176077E+02 0.  0.
          5    1    3    3  501    0 -0.74741585662E+02  0.55198141085E+01  0.19870779717E+02  0.77676964807E+02  0.47000000000E+01 0. -1.
        -11    1    4    4    0    0 -0.13888476159E+02  0.53693689311E+01 -0.89057687416E+00  0.14916870312E+02  0.00000000000E+00 0.  1.
         12    1    4    4    0    0 -0.11461125247E+03  0.14123372461E+03  0.30052702237E+03  0.35128221608E+03  0.00000000000E+00 0. -1.
         -5    1    5    5    0  502 -0.15974655901E+02 -0.15202774258E+02  0.42964349497E+02  0.48521534436E+02  0.47000000000E+01 0.  1.
         11    1    6    6    0    0  0.24808527370E+02 -0.43307159660E+02 -0.14200610995E+01  0.49929847603E+02  0.00000000000E+00 0. -1.
        -12    1    6    6    0    0  0.19440744282E+03 -0.93612973728E+02  0.47212317540E+02  0.22087699202E+03  0.00000000000E+00 0.  1.
</event>
<event>
12    1  0.9962621E-001  0.2037809E+03  0.7818608E-02  0.1147066E+00
         21   -1    0    0  501  502  0.00000000000E+00  0.00000000000E+00  0.59621754078E+02  0.59621754078E+02  0.00000000000E+00 0. -1.
         21   -1    0    0  502  503 -0.00000000000E+00 -0.00000000000E+00 -0.76137056002E+03  0.76137056002E+03  0.00000000000E+00 0. -1.
         -6    2    1    2    0  503 -0.52169961336E+01  0.11030112966E+03 -0.22580383660E+03  0.30416119259E+03  0.17126909294E+03 0.  0.
        -24    2    3    3    0    0 -0.43156378617E+02  0.15051605826E+02 -0.63755702972E+02  0.11234472784E+03  0.80420919908E+02 0.  0.
          6    2    1    2  501    0  0.52169961336E+01 -0.11030112966E+03 -0.47594496933E+03  0.51683112151E+03  0.16851480075E+03 0.  0.
         24    2    5    5    0    0 -0.24875403519E+02 -0.13602947078E+03 -0.33544472204E+03  0.37078349386E+03  0.76383474326E+02 0.  0.
          5    1    5    5  501    0  0.30092399653E+02  0.25728341120E+02 -0.14050024729E+03  0.14604762765E+03  0.47000000000E+01 0. -1.
        -13    1    6    6    0    0  0.21396344805E+02 -0.29000912185E+02 -0.12617781419E+03  0.13122384415E+03  0.00000000000E+00 0.  1.
         14    1    6    6    0    0 -0.46271748324E+02 -0.10702855860E+03 -0.20926690785E+03  0.23955964971E+03  0.00000000000E+00 0. -1.
         -5    1    3    3    0  503  0.37939382483E+02  0.95249523834E+02 -0.16204813363E+03  0.19181646475E+03  0.47000000000E+01 0.  1.
         11    1    4    4    0    0 -0.58994329788E+02  0.20062876895E+02 -0.70786944801E+02  0.94306105479E+02  0.00000000000E+00 0. -1.
        -12    1    4    4    0    0  0.15837951171E+02 -0.50112710692E+01  0.70312418290E+01  0.18038622361E+02  0.00000000000E+00 0.  1.
</event>
<event>
12    1  0.9962621E-001  0.5110073E+03  0.7818608E-02  0.1010960E+00
         21   -1    0    0  503  502  0.00000000000E+00  0.00000000000E+00  0.23525317179E+03  0.23525317179E+03  0.00000000000E+00 0.  1.
         21   -1    0    0  501  503 -0.00000000000E+00 -0.00000000000E+00 -0.13689821362E+04  0.13689821362E+04  0.00000000000E+00 0.  1.
          6    2    1    2  501    0  0.28064408319E+02 -0.48016455940E+03 -0.91599301402E+03  0.10487738515E+04  0.17186557146E+03 0.  0.
         24    2    3    3    0    0 -0.19203035700E+02 -0.17654314308E+03 -0.26431000416E+03  0.32826499582E+03  0.79761464590E+02 0.  0.
         -6    2    1    2    0  502 -0.28064408319E+02  0.48016455940E+03 -0.21773595043E+03  0.55546145658E+03  0.17257714365E+03 0.  0.
        -24    2    5    5    0    0 -0.32241282388E+02  0.12611808800E+03 -0.36207652326E+02  0.15754065641E+03  0.81011060512E+02 0.  0.
          5    1    3    3  501    0  0.47267444019E+02 -0.30362141632E+03 -0.65168300986E+03  0.72050885564E+03  0.47000000000E+01 0. -1.
        -11    1    4    4    0    0  0.74165781561E+01 -0.48997347384E+02 -0.24353758509E+02  0.55216403684E+02  0.00000000000E+00 0.  1.
         12    1    4    4    0    0 -0.26619613856E+02 -0.12754579569E+03 -0.23995624565E+03  0.27304859213E+03  0.00000000000E+00 0. -1.
         -5    1    5    5    0  502  0.41768740693E+01  0.35404647141E+03 -0.18152829810E+03  0.39792080017E+03  0.47000000000E+01 0.  1.
         13    1    6    6    0    0  0.10889737533E+02  0.95202831319E+02 -0.49471557711E+01  0.95951236704E+02  0.00000000000E+00 0. -1.
        -14    1    6    6    0    0 -0.43131019921E+02  0.30915256676E+02 -0.31260496555E+02  0.61589419705E+02  0.00000000000E+00 0.  1.
</event>
<event>
12    1  0.9962621E-001  0.1815171E+03  0.7818608E-02  0.1166418E+00
         21   -1    0    0  503  502  0.00000000000E+00  0.00000000000E+00  0.33895957047E+03  0.33895957047E+03  0.00000000000E+00 0. -1.
         21   -1    0    0  501  503 -0.00000000000E+00 -0.00000000000E+00 -0.97807421121E+02  0.97807421121E+02  0.00000000000E+00 0. -1.
          6    2    1    2  501    0  0.49469196893E+02  0.25158274538E+02  0.13986861017E+03  0.22890447814E+03  0.17249316444E+03 0.  0.
         24    2    3    3    0    0  0.33657907135E+02  0.68530634894E+02  0.14502202287E+03  0.18221608355E+03  0.79636746264E+02 0.  0.
         -6    2    1    2    0  502 -0.49469196893E+02 -0.25158274538E+02  0.10128353918E+03  0.20786251346E+03  0.17282456126E+03 0.  0.
        -24    2    5    5    0    0 -0.67102195731E+02 -0.19935636725E+02  0.97034131633E+00  0.10576929008E+03  0.79284720335E+02 0.  0.
          5    1    3    3  501    0  0.15811289758E+02 -0.43372360357E+02 -0.51534126939E+01  0.46688394587E+02  0.47000000000E+01 0. -1.
        -11    1    4    4    0    0  0.43213556983E+02  0.22697776485E+01  0.60833303376E+02  0.74654230940E+02  0.00000000000E+00 0.  1.
         12    1    4    4    0    0 -0.95556498474E+01  0.66260857246E+02  0.84188719491E+02  0.10756185261E+03  0.00000000000E+00 0. -1.
         -5    1    5    5    0  502  0.17632998838E+02 -0.52226378121E+01  0.10031319786E+03  0.10209322337E+03  0.47000000000E+01 0.  1.
         13    1    6    6    0    0 -0.37414851185E+02  0.15435413805E+02  0.30742473187E+02  0.50825414373E+02  0.00000000000E+00 0. -1.
        -14    1    6    6    0    0 -0.29687344546E+02 -0.35371050530E+02 -0.29772131871E+02  0.54943875709E+02  0.00000000000E+00 0.  1.
</event>
<event>
12    1  0.9962621E-001  0.1813385E+03  0.7818608E-02  0.1167983E+00
         21   -1    0    0  501  502  0.00000000000E+00  0.00000000000E+00  0.56050815199E+03  0.56050815199E+03  0.00000000000E+00 0.  1.
         21   -1    0    0  502  503 -0.00000000000E+00 -0.00000000000E+00 -0.67620760011E+02  0.67620760011E+02  0.00000000000E+00 0.  1.
         -6    2    1    2    0  503  0.23937661738E+02 -0.25596168641E+02  0.37592955706E+03  0.41738073218E+03  0.17791983652E+03 0.  0.
        -24    2    3    3    0    0 -0.45677181267E+02 -0.40884393104E+02  0.28255878876E+03  0.29982161281E+03  0.79344766165E+02 0.  0.
          6    2    1    2  501    0 -0.23937661738E+02  0.25596168641E+02  0.11695783492E+03  0.21074817982E+03  0.17177742765E+03 0.  0.
         24    2    5    5    0    0 -0.15998672797E+02 -0.51996572126E+02  0.73395004747E+02  0.12128605857E+03  0.79773932071E+02 0.  0.
          5    1    5    5  501    0 -0.79389889409E+01  0.77592740766E+02  0.43562830173E+02  0.89462121246E+02  0.47000000000E+01 0. -1.
        -13    1    6    6    0    0 -0.29915878480E+02 -0.63400625032E+02  0.75666469705E+02  0.10315044196E+03  0.00000000000E+00 0.  1.
         14    1    6    6    0    0  0.13917205683E+02  0.11404052906E+02 -0.22714649581E+01  0.18135616609E+02  0.00000000000E+00 0. -1.
         -5    1    3    3    0  503  0.69614843005E+02  0.15288224464E+02  0.93370768305E+02  0.11755911937E+03  0.47000000000E+01 0.  1.
         13    1    4    4    0    0 -0.34666736828E+02 -0.10176036798E+02  0.25372029458E+03  0.25627977339E+03  0.00000000000E+00 0. -1.
        -14    1    4    4    0    0 -0.11010444440E+02 -0.30708356306E+02  0.28838494173E+02  0.43541839419E+02  0.00000000000E+00 0.  1.
</event>
<event>
12    1  0.9962621E-001  0.2032298E+03  0.7818608E-02  0.1147053E+00
         21   -1    0    0  501  502  0.00000000000E+00  0.00000000000E+00  0.48656333104E+02  0.48656333104E+02  0.00000000000E+00 0.  1.
         21   -1    0    0  502  503 -0.00000000000E+00 -0.00000000000E+00 -0.17007255032E+04  0.17007255032E+04  0.00000000000E+00 0.  1.
         -6    2    1    2    0  503 -0.10319423124E+03 -0.32363340335E+02 -0.14452081621E+04  0.14594276240E+04  0.17206371769E+03 0.  0.
        -24    2    3    3    0    0 -0.45569653931E+02 -0.84612795334E+02 -0.84152202222E+03  0.85073259128E+03  0.79691338906E+02 0.  0.
          6    2    1    2  501    0  0.10319423124E+03  0.32363340335E+02 -0.20686100805E+03  0.28995421228E+03  0.17200445753E+03 0.  0.
         24    2    5    5    0    0  0.26595873806E+01  0.68818775949E+00 -0.15081492894E+03  0.17048127438E+03  0.79442904754E+02 0.  0.
          5    1    5    5  501    0  0.10053464386E+03  0.31675152575E+02 -0.56046079105E+02  0.11947293790E+03  0.47000000000E+01 0. -1.
        -11    1    6    6    0    0  0.91278199129E+01  0.26862620635E+02 -0.13752691763E+03  0.14042282777E+03  0.00000000000E+00 0.  1.
         12    1    6    6    0    0 -0.64682325323E+01 -0.26174432875E+02 -0.13288011307E+02  0.30058446615E+02  0.00000000000E+00 0. -1.
         -5    1    3    3    0  503 -0.57624577314E+02  0.52249454999E+02 -0.60368613985E+03  0.60869503276E+03  0.47000000000E+01 0.  1.
         11    1    4    4    0    0 -0.24057247207E+02  0.11007797307E+02 -0.20750567090E+03  0.20918538716E+03  0.00000000000E+00 0. -1.
        -12    1    4    4    0    0 -0.21512406724E+02 -0.95620592641E+02 -0.63401635132E+03  0.64154720412E+03  0.00000000000E+00 0.  1.
</event>
<event>
12    1  0.9962621E-001  0.2651437E+03  0.7818608E-02  0.1104608E+00
         21   -1    0    0  503  502  0.00000000000E+00  0.00000000000E+00  0.72549291695E+03  0.72549291695E+03  0.00000000000E+00 0.  1.
         21   -1    0    0  501  503 -0.00000000000E+00 -0.00000000000E+00 -0.95943657989E+02  0.95943657989E+02  0.00000000000E+00 0.  1.
          6    2    1    2  501    0  0.13718883244E+03  0.14209388636E+03  0.28907809689E+03  0.38990232843E+03  0.17159904233E+03 0.  0.
         24    2    3    3    0    0  0.34822579002E+02  0.68822799174E+01  0.84615017175E+02  0.12421779873E+03  0.83728027586E+02 0.  0.
         -6    2    1    2    0  502 -0.13718883244E+03 -0.14209388636E+03  0.34047116207E+03  0.43153424650E+03  0.17688907658E+03 0.  0.
        -24    2    5    5    0    0 -0.35920855408E+02 -0.64643640223E+01  0.71483582696E+02  0.11368683286E+03  0.80515200520E+02 0.  0.
          5    1    3    3  501    0  0.10236625344E+03  0.13521160645E+03  0.20446307971E+03  0.26568452971E+03  0.47000000000E+01 0. -1.
        -11    1    4    4    0    0  0.49460695405E+01 -0.13198590586E+02 -0.13616666417E+02  0.19597959120E+02  0.00000000000E+00 0.  1.
         12    1    4    4    0    0  0.29876509461E+02  0.20080870503E+02  0.98231683592E+02  0.10461983961E+03  0.00000000000E+00 0. -1.
         -5    1    5    5    0  502 -0.10126797703E+03 -0.13562952234E+03  0.26898757937E+03  0.31784741364E+03  0.47000000000E+01 0.  1.
         13    1    6    6    0    0 -0.41175922767E+02 -0.11885457339E+02  0.86692301362E+02  0.96707165336E+02  0.00000000000E+00 0. -1.
        -14    1    6    6    0    0  0.52550673590E+01  0.54210933171E+01 -0.15208718666E+02  0.16979667522E+02  0.00000000000E+00 0.  1.
</event>
<event>
12    1  0.9962621E-001  0.2295892E+03  0.7818608E-02  0.1130025E+00
         21   -1    0    0  503  502  0.00000000000E+00  0.00000000000E+00  0.55020887673E+02  0.55020887673E+02  0.00000000000E+00 0. -1.
         21   -1    0    0  501  503 -0.00000000000E+00 -0.00000000000E+00 -0.90484587293E+03  0.90484587293E+03  0.00000000000E+00 0. -1.
          6    2    1    2  501    0  0.99313684286E+02 -0.76051535534E+02 -0.37733550051E+03  0.44169363504E+03  0.19252050111E+03 0.  0.
         24    2    3    3    0    0  0.11209527854E+03 -0.10939814020E+03 -0.36151405174E+03  0.40235188323E+03  0.81616933189E+02 0.  0.
         -6    2    1    2    0  502 -0.99313684286E+02  0.76051535534E+02 -0.47248948475E+03  0.51817312556E+03  0.17207565462E+03 0.  0.
        -24    2    5    5    0    0  0.11872407013E+02  0.13496522442E+02 -0.22506318806E+03  0.23975376766E+03  0.80655565962E+02 0.  0.
          5    1    3    3  501    0 -0.12781594254E+02  0.33346604665E+02 -0.15821448764E+02  0.39341751809E+02  0.47000000000E+01 0. -1.
        -13    1    4    4    0    0  0.10670673866E+03 -0.94698469467E+02 -0.23531869657E+03  0.27518905711E+03  0.00000000000E+00 0.  1.
         14    1    4    4    0    0  0.53885398793E+01 -0.14699670733E+02 -0.12619535517E+03  0.12716282612E+03  0.00000000000E+00 0. -1.
         -5    1    5    5    0  502 -0.11118609130E+03  0.62555013092E+02 -0.24742629670E+03  0.27841935791E+03  0.47000000000E+01 0.  1.
         13    1    6    6    0    0  0.28624258452E+02 -0.24309020014E+02 -0.72022412243E+02  0.81225023799E+02  0.00000000000E+00 0. -1.
        -14    1    6    6    0    0 -0.16751851439E+02  0.37805542456E+02 -0.15304077581E+03  0.15852874386E+03  0.00000000000E+00 0.  1.
</event>
<event>
12    1  0.9962621E-001  0.2223164E+03  0.7818608E-02  0.1132354E+00
         21   -1    0    0  503  502  0.00000000000E+00  0.00000000000E+00  0.24249958013E+03  0.24249958013E+03  0.00000000000E+00 0.  1.
         21   -1    0    0  501  503 -0.00000000000E+00 -0.00000000000E+00 -0.25837714217E+03  0.25837714217E+03  0.00000000000E+00 0.  1.
          6    2    1    2  501    0  0.45135405706E+02 -0.13266071905E+03  0.10810360025E+03  0.24720631782E+03  0.17259346441E+03 0.  0.
         24    2    3    3    0    0  0.48649271940E+02 -0.15577234605E+03  0.57255756330E+02  0.19104505190E+03  0.81167818557E+02 0.  0.
         -6    2    1    2    0  502 -0.45135405706E+02  0.13266071905E+03 -0.12398116229E+03  0.25367040447E+03  0.17129294870E+03 0.  0.
        -24    2    5    5    0    0 -0.22280852905E+02 -0.34102216808E+01 -0.31327826549E+02  0.87404466529E+02  0.78422203711E+02 0.  0.
          5    1    3    3  501    0 -0.35138662335E+01  0.23111626998E+02  0.50847843922E+02  0.56161265921E+02  0.47000000000E+01 0. -1.
        -13    1    4    4    0    0  0.13659162068E+02  0.94936853863E+00 -0.99940716943E+01  0.16951562703E+02  0.00000000000E+00 0.  1.
         14    1    4    4    0    0  0.34990109871E+02 -0.15672171459E+03  0.67249828024E+02  0.17409348920E+03  0.00000000000E+00 0. -1.
         -5    1    5    5    0  502 -0.22854552802E+02  0.13607094073E+03 -0.92653335740E+02  0.16626593794E+03  0.47000000000E+01 0.  1.
         11    1    6    6    0    0 -0.43855513741E+02  0.19033919198E+02 -0.29589370664E+02  0.56223900805E+02  0.00000000000E+00 0. -1.
        -12    1    6    6    0    0  0.21574660836E+02 -0.22444140879E+02 -0.17384558850E+01  0.31180565724E+02  0.00000000000E+00 0.  1.
</event>
<event>
12    1  0.9962621E-001  0.2143492E+03  0.7818608E-02  0.1138298E+00
         21   -1    0    0  503  502  0.00000000000E+00  0.00000000000E+00  0.13776441504E+04  0.13776441504E+04  0.00000000000E+00 0.  1.
         21   -1    0    0  501  503 -0.00000000000E+00 -0.00000000000E+00 -0.34526853500E+02  0.34526853500E+02  0.00000000000E+00 0.  1.
          6    2    1    2  501    0  0.12127334477E+03  0.37809514682E+02  0.53452702905E+03  0.57565215594E+03  0.17181232874E+03 0.  0.
         24    2    3    3    0    0  0.18472106889E+02  0.54449702676E+02  0.17451147974E+03  0.20084783885E+03  0.81114788761E+02 0.  0.
         -6    2    1    2    0  502 -0.12127334477E+03 -0.37809514682E+02  0.80859026786E+03  0.83651884797E+03  0.17265218843E+03 0.  0.
        -24    2    5    5    0    0 -0.47517872492E+02 -0.77441705214E+02  0.34808816475E+03  0.36844315197E+03  0.79560165147E+02 0.  0.
          5    1    3    3  501    0  0.10280123788E+03 -0.16640187994E+02  0.36001554930E+03  0.37480431709E+03  0.47000000000E+01 0. -1.
        -13    1    4    4    0    0  0.86350773063E+01 -0.16987009099E+02  0.10670543811E+02  0.21839952918E+02  0.00000000000E+00 0.  1.
         14    1    4    4    0    0  0.98370295832E+01  0.71436711776E+02  0.16384093593E+03  0.17900788593E+03  0.00000000000E+00 0. -1.
         -5    1    5    5    0  502 -0.73755472279E+02  0.39632190532E+02  0.46050210311E+03  0.46807569600E+03  0.47000000000E+01 0.  1.
         11    1    6    6    0    0 -0.50294959964E+02 -0.10099743182E+02  0.11757927218E+03  0.12828278551E+03  0.00000000000E+00 0. -1.
        -12    1    6    6    0    0  0.27770874722E+01 -0.67341962032E+02  0.23050889257E+03  0.24016036646E+03  0.00000000000E+00 0.  1.
</event>
<event>
12    1  0.9962621E-001  0.2506721E+03  0.7818608E-02  0.1112957E+00
         21   -1    0    0  501  502  0.00000000000E+00  0.00000000000E+00  0.93338043061E+03  0.93338043061E+03  0.00000000000E+00 0. -1.
         21   -1    0    0  502  503 -0.00000000000E+00 -0.00000000000E+00 -0.74673929083E+02  0.74673929083E+02  0.00000000000E+00 0. -1.
         -6    2    1    2    0  503  0.70318238709E+02 -0.16910816087E+03  0.26943026464E+03  0.36767712246E+03  0.17044522318E+03 0.  0.
        -24    2    3    3    0    0  0.81522138072E+02 -0.16309657441E+03  0.15404777379E+03  0.25150106758E+03  0.79219434509E+02 0.  0.
          6    2    1    2  501    0 -0.70318238709E+02  0.16910816087E+03  0.58927623689E+03  0.64037723724E+03  0.17115577070E+03 0.  0.
         24    2    5    5    0    0 -0.74217740493E+02  0.12695099660E+03  0.56936809774E+03  0.59335749013E+03  0.79172292036E+02 0.  0.
          5    1    5    5  501    0  0.38995017833E+01  0.42157164277E+02  0.19908139150E+02  0.47019747112E+02  0.47000000000E+01 0. -1.
        -11    1    6    6    0    0 -0.14661140416E+02  0.10093334731E+03  0.35304455565E+03  0.36748190147E+03  0.00000000000E+00 0.  1.
         12    1    6    6    0    0 -0.59556600077E+02  0.26017649287E+02  0.21632354210E+03  0.22587558866E+03  0.00000000000E+00 0. -1.
         -5    1    3    3    0  503 -0.11203899362E+02 -0.60115864652E+01  0.11538249085E+03  0.11617605488E+03  0.47000000000E+01 0.  1.
         13    1    4    4    0    0 -0.85186983189E+01 -0.65262841729E+02  0.52832273027E+02  0.84398197877E+02  0.00000000000E+00 0. -1.
        -14    1    4    4    0    0  0.90040836391E+02 -0.97833732678E+02  0.10121550077E+03  0.16710286970E+03  0.00000000000E+00 0.  1.
</event>
<event>
12    1  0.9962621E-001  0.2462784E+03  0.7818608E-02  0.1115689E+00
         21   -1    0    0  503  502  0.00000000000E+00  0.00000000000E+00  0.58701754901E+02  0.58701754901E+02  0.00000000000E+00 0.  1.
         21   -1    0    0  501  503 -0.00000000000E+00 -0.00000000000E+00 -0.11524573917E+04  0.11524573917E+04  0.00000000000E+00 0.  1.
          6    2    1    2  501    0 -0.13762269273E+03 -0.11139845069E+03 -0.35184125861E+03  0.42943667826E+03  0.17109637343E+03 0.  0.
         24    2    3    3    0    0 -0.43728076225E+02 -0.11769328188E+03 -0.17793466379E+03  0.23164532954E+03  0.78961768398E+02 0.  0.
         -6    2    1    2    0  502  0.13762269273E+03  0.11139845069E+03 -0.74191437824E+03  0.78172246839E+03  0.17118251249E+03 0.  0.
        -24    2    5    5    0    0  0.15696311176E+03  0.83282818916E+02 -0.70413593474E+03  0.73059672779E+03  0.79941964480E+02 0.  0.
          5    1    3    3  501    0 -0.93894616503E+02  0.62948311813E+01 -0.17390659482E+03  0.19779134872E+03  0.47000000000E+01 0. -1.
        -11    1    4    4    0    0  0.12294775394E+02 -0.20684128225E+02 -0.77644663757E+02  0.81287689550E+02  0.00000000000E+00 0.  1.
         12    1    4    4    0    0 -0.56022851619E+02 -0.97009153650E+02 -0.10029000003E+03  0.15035763999E+03  0.00000000000E+00 0. -1.
         -5    1    5    5    0  502 -0.19340419036E+02  0.28115631778E+02 -0.37778443494E+02  0.51125740597E+02  0.47000000000E+01 0.  1.
         13    1    6    6    0    0  0.84968419831E+02  0.15727480714E+02 -0.44455159037E+03  0.45287205977E+03  0.00000000000E+00 0. -1.
        -14    1    6    6    0    0  0.71994691933E+02  0.67555338202E+02 -0.25958434437E+03  0.27772466802E+03  0.00000000000E+00 0.  1.
</event>
<event>
12    1  0.9962621E-001  0.2420580E+03  0.7818608E-02  0.1118535E+00
         21   -1    0    0  501  502  0.00000000000E+00  0.00000000000E+00  0.13116979281E+04  0.13116979281E+04  0.00000000000E+00 0. -1.
         21   -1    0    0  502  503 -0.00000000000E+00 -0.00000000000E+00 -0.81980284234E+02  0.81980284234E+02  0.00000000000E+00 0. -1.
         -6    2    1    2    0  503 -0.82961926176E+02  0.14883408670E+03  0.10852691390E+04  0.11117962560E+04  0.17101913439E+03 0.  0.
        -24    2    3    3    0    0  0.14578528697E+02  0.10019121415E+03  0.48993725148E+03  0.50655050787E+03  0.79398323292E+02 0.  0.
          6    2    1    2  501    0  0.82961926176E+02 -0.14883408670E+03  0.14444850491E+03  0.28188195633E+03  0.17192382085E+03 0.  0.
         24    2    5    5    0    0  0.11340612766E+02 -0.12309492579E+03  0.14418940389E+03  0.20563056899E+03  0.78818630105E+02 0.  0.
          5    1    5    5  501    0  0.71621313409E+02 -0.25739160906E+02  0.25910101151E+00  0.76251387345E+02  0.47000000000E+01 0. -1.
        -11    1    6    6    0    0 -0.18953811116E+02 -0.11280640907E+03  0.10784475597E+03  0.15721012777E+03  0.00000000000E+00 0.  1.
         12    1    6    6    0    0  0.30294423882E+02 -0.10288516723E+02  0.36344647928E+02  0.48420441217E+02  0.00000000000E+00 0. -1.
         -5    1    3    3    0  503 -0.97540454873E+02  0.48642872553E+02  0.59533188748E+03  0.60524574814E+03  0.47000000000E+01 0.  1.
         13    1    4    4    0    0 -0.16830092238E+02  0.29580444446E+02  0.54098906343E+02  0.63913585143E+02  0.00000000000E+00 0. -1.
        -14    1    4    4    0    0  0.31408620935E+02  0.70610769701E+02  0.43583834514E+03  0.44263692273E+03  0.00000000000E+00 0.  1.
</event>
<event>
12    1  0.9962621E-001  0.2519005E+03  0.7818608E-02  0.1112434E+00
         21   -1    0    0  501  502  0.00000000000E+00  0.00000000000E+00  0.27239169063E+03  0.27239169063E+03  0.00000000000E+00 0.  1.
         21   -1    0    0  502  503 -0.00000000000E+00 -0.00000000000E+00 -0.78033116697E+03  0.78033116697E+03  0.00000000000E+00 0.  1.
         -6    2    1    2    0  503  0.40693956776E+02  0.17648219244E+03 -0.69527435820E+03  0.73879895522E+03  0.17209154744E+03 0.  0.
        -24    2    3    3    0    0  0.41327751920E+02  0.17185547870E+03 -0.70210545408E+03  0.72928254584E+03  0.87513852508E+02 0.  0.
          6    2    1    2  501    0 -0.40693956776E+02 -0.17648219244E+03  0.18733488186E+03  0.31392390238E+03  0.17507682930E+03 0.  0.
         24    2    5    5    0    0 -0.14234791752E+02 -0.16894387189E+03  0.20740208869E+03  0.27954808995E+03  0.79917751828E+02 0.  0.
          5    1    5    5  501    0 -0.26459165024E+02 -0.75383205565E+01 -0.20067206830E+02  0.34375812435E+02  0.47000000000E+01 0. -1.
        -13    1    6    6    0    0 -0.77678631552E+01  0.91266513139E+00  0.40778773306E+02  0.41522054477E+02  0.00000000000E+00 0.  1.
         14    1    6    6    0    0 -0.64669285966E+01 -0.16985653702E+03  0.16662331538E+03  0.23802603547E+03  0.00000000000E+00 0. -1.
         -5    1    3    3    0  503 -0.63379514424E+00  0.46267137458E+01  0.68310958885E+01  0.95164093758E+01  0.47000000000E+01 0.  1.
         13    1    4    4    0    0  0.23231605364E+02  0.14332382201E+03 -0.65741612923E+03  0.67325878562E+03  0.00000000000E+00 0. -1.
        -14    1    4    4    0    0  0.18096146556E+02  0.28531656689E+02 -0.44689324850E+02  0.56023760220E+02  0.00000000000E+00 0.  1.
</event>
<event>
12    1  0.9962621E-001  0.2154809E+03  0.7818608E-02  0.1137818E+00
         21   -1    0    0  501  502  0.00000000000E+00  0.00000000000E+00  0.44744930304E+03  0.44744930304E+03  0.00000000000E+00 0. -1.
         21   -1    0    0  502  503 -0.00000000000E+00 -0.00000000000E+00 -0.12165885276E+03  0.12165885276E+03  0.00000000000E+00 0. -1.
         -6    2    1    2    0  503 -0.67243049257E+01 -0.12456072359E+03  0.27675510560E+03  0.35074977460E+03  0.17570266296E+03 0.  0.
        -24    2    3    3    0    0  0.52653044297E+02 -0.89329943637E+02  0.23769561188E+03  0.27128524474E+03  0.79651102951E+02 0.  0.
          6    2    1    2  501    0  0.67243049257E+01  0.12456072359E+03  0.49035344681E+02  0.21835838119E+03  0.17238134317E+03 0.  0.
         24    2    5    5    0    0  0.61270393727E+02  0.37058860056E+02  0.19074266504E+02  0.11087997345E+03  0.82481031842E+02 0.  0.
          5    1    5    5  501    0 -0.54546088802E+02  0.87501863534E+02  0.29961078177E+02  0.10747840774E+03  0.47000000000E+01 0. -1.
        -13    1    6    6    0    0  0.39211464301E+02  0.20493905732E+02  0.51770629513E+02  0.68100933804E+02  0.00000000000E+00 0.  1.
         14    1    6    6    0    0  0.22058929427E+02  0.16564954324E+02 -0.32696363009E+02  0.42779039648E+02  0.00000000000E+00 0. -1.
         -5    1    3    3    0  503 -0.59377349222E+02 -0.35230779953E+02  0.39059493715E+02  0.79464529861E+02  0.47000000000E+01 0.  1.
         13    1    4    4    0    0  0.16717386630E+02  0.11230261453E+02  0.66786935450E+02  0.69757326030E+02  0.00000000000E+00 0. -1.
        -14    1    4    4    0    0  0.35935657667E+02 -0.10056020509E+03  0.17090867643E+03  0.20152791871E+03  0.00000000000E+00 0.  1.
</event>
<event>
12    1  0.9962621E-001  0.2045302E+03  0.7818608E-02  0.1146056E+00
         21   -1    0    0  501  502  0.00000000000E+00  0.00000000000E+00  0.48248658365E+03  0.48248658365E+03  0.00000000000E+00 0. -1.
         21   -1    0    0  502  503 -0.00000000000E+00 -0.00000000000E+00 -0.89977126886E+02  0.89977126886E+02  0.00000000000E+00 0. -1.
         -6    2    1    2    0  503 -0.53988685264E+02 -0.96968693783E+02  0.14041425725E+03  0.24809023112E+03  0.17179899134E+03 0.  0.
        -24    2    3    3    0    0  0.27786823587E+01 -0.37063671510E+02  0.13999547625E+03  0.16542578230E+03  0.79909444107E+02 0.  0.
          6    2    1    2  501    0  0.53988685264E+02  0.96968693783E+02  0.25209519951E+03  0.32437347942E+03  0.17131391893E+03 0.  0.
         24    2    5    5    0    0  0.18827122546E+02  0.85150767467E+02  0.66570386879E+02  0.13511824177E+03  0.78868302283E+02 0.  0.
          5    1    5    5  501    0  0.35161562719E+02  0.11817926316E+02  0.18552481264E+03  0.18925523765E+03  0.47000000000E+01 0. -1.
        -11    1    6    6    0    0  0.25787101329E+02  0.38299468767E+02  0.73950938199E+02  0.87181220244E+02  0.00000000000E+00 0.  1.
         12    1    6    6    0    0 -0.69599787832E+01  0.46851298700E+02 -0.73805513200E+01  0.47937021521E+02  0.00000000000E+00 0. -1.
         -5    1    3    3    0  503 -0.56767367623E+02 -0.59905022273E+02  0.41878099491E+00  0.82664448815E+02  0.47000000000E+01 0.  1.
         11    1    4    4    0    0  0.24571941085E+01  0.15806136704E+02  0.93989783003E+02  0.95341234885E+02  0.00000000000E+00 0. -1.
        -12    1    4    4    0    0  0.32148825016E+00 -0.52869808214E+02  0.46005693250E+02  0.70084547418E+02  0.00000000000E+00 0.  1.
</event>
<event>
12    1  0.9962621E-001  0.1837249E+03  0.7818608E-02  0.1164602E+00
         21   -1    0    0  501  502  0.00000000000E+00  0.00000000000E+00  0.10655716628E+04  0.10655716628E+04  0.00000000000E+00 0. -1.
         21   -1    0    0  502  503 -0.00000000000E+00 -0.00000000000E+00 -0.36991080021E+02  0.36991080021E+02  0.00000000000E+00 0. -1.
         -6    2    1    2    0  503 -0.15400369922E+02 -0.57073990750E+02  0.73005189275E+03  0.75281511549E+03  0.17395464981E+03 0.  0.
        -24    2    3    3    0    0 -0.47999661191E+02 -0.41754333341E+01  0.61222366969E+03  0.61952388803E+03  0.81673890546E+02 0.  0.
          6    2    1    2  501    0  0.15400369922E+02  0.57073990750E+02  0.29852869004E+03  0.34974762734E+03  0.17236418491E+03 0.  0.
         24    2    5    5    0    0  0.29243669455E+02 -0.24016872972E+02  0.94374581553E+02  0.12959232958E+03  0.80346797394E+02 0.  0.
          5    1    5    5  501    0 -0.13843299533E+02  0.81090863721E+02  0.20415410848E+03  0.22015529776E+03  0.47000000000E+01 0. -1.
        -11    1    6    6    0    0  0.18396593090E+02  0.98458638065E+01  0.91577897958E+02  0.93924901202E+02  0.00000000000E+00 0.  1.
         12    1    6    6    0    0  0.10847076365E+02 -0.33862736778E+02  0.27966835951E+01  0.35667428375E+02  0.00000000000E+00 0. -1.
         -5    1    3    3    0  503  0.32599291269E+02 -0.52898557416E+02  0.11782822306E+03  0.13329122745E+03  0.47000000000E+01 0.  1.
         13    1    4    4    0    0  0.16246375034E+02 -0.14192010340E+02  0.65818558359E+02  0.69263558122E+02  0.00000000000E+00 0. -1.
        -14    1    4    4    0    0 -0.64246036225E+02  0.10016577006E+02  0.54640511133E+03  0.55026032991E+03  0.00000000000E+00 0.  1.
</event>
<event>
12    1  0.9962621E-001  0.1924631E+03  0.7818608E-02  0.1156298E+00
         21   -1    0    0  503  502  0.00000000000E+00  0.00000000000E+00  0.64540413412E+03  0.64540413412E+03  0.00000000000E+00 0.  1.
         21   -1    0    0  501  503 -0.00000000000E+00 -0.00000000000E+00 -0.66454177836E+02  0.66454177836E+02  0.00000000000E+00 0.  1.
          6    2    1    2  501    0 -0.86257812370E+02 -0.69614027617E+01  0.42117084844E+03  0.46298829079E+03  0.17171022831E+03 0.  0.
         24    2    3    3    0    0 -0.10650777087E+03 -0.40189534473E+02  0.23882371506E+03  0.27647626273E+03  0.80269876304E+02 0.  0.
         -6    2    1    2    0  502  0.86257812370E+02  0.69614027617E+01  0.15777910784E+03  0.24887002117E+03  0.17191035234E+03 0.  0.
        -24    2    5    5    0    0  0.24840630961E+01  0.52927421083E+02  0.90080369022E+02  0.13166880469E+03  0.80091939495E+02 0.  0.
          5    1    3    3  501    0  0.20249958502E+02  0.33228131712E+02  0.18234713338E+03  0.18651202805E+03  0.47000000000E+01 0. -1.
        -13    1    4    4    0    0 -0.10577551112E+03 -0.23377784807E+02  0.23564335844E+03  0.25935067371E+03  0.00000000000E+00 0.  1.
         14    1    4    4    0    0 -0.73225975142E+00 -0.16811749666E+02  0.31803566183E+01  0.17125589024E+02  0.00000000000E+00 0. -1.
         -5    1    5    5    0  502  0.83773749274E+02 -0.45966018322E+02  0.67698738822E+02  0.11720121649E+03  0.47000000000E+01 0.  1.
         13    1    6    6    0    0 -0.68490921292E+01 -0.86940829503E+01  0.62572695232E+02  0.63543995231E+02  0.00000000000E+00 0. -1.
        -14    1    6    6    0    0  0.93331552253E+01  0.61621504034E+02  0.27507673790E+02  0.68124809454E+02  0.00000000000E+00 0.  1.
</event>
<event>
12    1  0.9962621E-001  0.2165395E+03  0.7818608E-02  0.1137472E+00
         21   -1    0    0  503  502  0.00000000000E+00  0.00000000000E+00  0.26067868969E+03  0.26067868969E+03  0.00000000000E+00 0.  1.
         21   -1    0    0  501  503 -0.00000000000E+00 -0.00000000000E+00 -0.17617773148E+03  0.17617773148E+03  0.00000000000E+00 0.  1.
          6    2    1    2  501    0  0.12501924548E+03 -0.64477642020E+01  0.53560625063E+02  0.21811761327E+03  0.17039708701E+03 0.  0.
         24    2    3    3    0    0  0.10736882769E+03 -0.54296828110E+02  0.73530455342E+02  0.16314530855E+03  0.82057620842E+02 0.  0.
         -6    2    1    2    0  502 -0.12501924548E+03  0.64477642020E+01  0.30940333149E+02  0.21873880789E+03  0.17668609583E+03 0.  0.
        -24    2    5    5    0    0 -0.16005362987E+03 -0.59199440064E+01  0.27643157207E+02  0.18114453086E+03  0.79981164945E+02 0.  0.
          5    1    3    3  501    0  0.17650417787E+02  0.47849063908E+02 -0.19969830279E+02  0.54972304721E+02  0.47000000000E+01 0. -1.
        -13    1    4    4    0    0  0.47315778264E+02 -0.12675013644E+02 -0.12221720438E+02  0.50485733569E+02  0.00000000000E+00 0.  1.
         14    1    4    4    0    0  0.60053049424E+02 -0.41621814466E+02  0.85752175780E+02  0.11265957498E+03  0.00000000000E+00 0. -1.
         -5    1    5    5    0  502  0.35034384398E+02  0.12367708208E+02  0.32971759418E+01  0.37594277033E+02  0.47000000000E+01 0.  1.
         13    1    6    6    0    0 -0.47209295786E+02 -0.74086582413E+01  0.46556306212E+02  0.66716530738E+02  0.00000000000E+00 0. -1.
        -14    1    6    6    0    0 -0.11284433409E+03  0.14887142349E+01 -0.18913149005E+02  0.11442800012E+03  0.00000000000E+00 0.  1.
</event>
<event>
12    1  0.9962621E-001  0.2160998E+03  0.7818608E-02  0.1136832E+00
         21   -1    0    0  503  502  0.00000000000E+00  0.00000000000E+00  0.81879179525E+02  0.81879179525E+02  0.00000000000E+00 0. -1.
         21   -1    0    0  501  503 -0.00000000000E+00 -0.00000000000E+00 -0.57023596508E+03  0.57023596508E+03  0.00000000000E+00 0.  1.
          6    2    1    2  501    0 -0.16942729264E+02 -0.12731671591E+03 -0.24380610344E+03  0.32579218332E+03  0.17378874651E+03 0.  0.
         24    2    3    3    0    0  0.54587097979E+02 -0.96228402465E+02 -0.16797473997E+03  0.21690928704E+03  0.81206334896E+02 0.  0.
         -6    2    1    2    0  502  0.16942729264E+02  0.12731671591E+03 -0.24455068212E+03  0.32632296128E+03  0.17373841461E+03 0.  0.
        -24    2    5    5    0    0  0.72426287372E+02  0.61745137677E+02 -0.11096124059E+03  0.16743216236E+03  0.81627831968E+02 0.  0.
          5    1    3    3  501    0 -0.71529827243E+02 -0.31088313450E+02 -0.75831363465E+02  0.10888289629E+03  0.47000000000E+01 0. -1.
        -11    1    4    4    0    0  0.64263463062E+02 -0.67753513960E+02 -0.76814906481E+02  0.12091675317E+03  0.00000000000E+00 0.  1.
         12    1    4    4    0    0 -0.96763650836E+01 -0.28474888504E+02 -0.91159833490E+02  0.95992533869E+02  0.00000000000E+00 0. -1.
         -5    1    5    5    0  502 -0.55483558108E+02  0.65571578238E+02 -0.13358944153E+03  0.15889079892E+03  0.47000000000E+01 0.  1.
         11    1    6    6    0    0 -0.11752792452E+02  0.35090420989E+02 -0.30081917887E+02  0.47690539516E+02  0.00000000000E+00 0. -1.
        -12    1    6    6    0    0  0.84179079824E+02  0.26654716688E+02 -0.80879322698E+02  0.11974162285E+03  0.00000000000E+00 0.  1.
</event>
<event>
12    1  0.9962621E-001  0.4097948E+03  0.7818608E-02  0.1040457E+00
         21   -1    0    0  503  502  0.00000000000E+00  0.00000000000E+00  0.12862225359E+03  0.12862225359E+03  0.00000000000E+00 0. -1.
         21   -1    0    0  501  503 -0.00000000000E+00 -0.00000000000E+00 -0.19896810500E+04  0.19896810500E+04  0.00000000000E+00 0.  1.
          6    2    1    2  501    0  0.17193944928E+03  0.32995273969E+03 -0.30935830677E+03  0.51345333620E+03  0.17175500526E+03 0.  0.
         24    2    3    3    0    0  0.10830021108E+03  0.90964731846E+02 -0.15464030049E+03  0.22169149496E+03  0.72318588503E+02 0.  0.
         -6    2    1    2    0  502 -0.17193944928E+03 -0.32995273969E+03 -0.15517004896E+04  0.16048499673E+04  0.17128054077E+03 0.  0.
        -24    2    5    5    0    0 -0.14644188566E+03 -0.19655378141E+03 -0.78608110524E+03  0.82726361232E+03  0.79768197914E+02 0.  0.
          5    1    3    3  501    0  0.63639238202E+02  0.23898800784E+03 -0.15471800628E+03  0.29176184123E+03  0.47000000000E+01 0. -1.
        -13    1    4    4    0    0  0.13893029665E+02  0.43028634911E+02 -0.80850544617E+02  0.92635253875E+02  0.00000000000E+00 0.  1.
         14    1    4    4    0    0  0.94407181412E+02  0.47936096935E+02 -0.73789755877E+02  0.12905624109E+03  0.00000000000E+00 0. -1.
         -5    1    5    5    0  502 -0.25497563617E+02 -0.13339895828E+03 -0.76561938436E+03  0.77758635503E+03  0.47000000000E+01 0.  1.
         13    1    6    6    0    0 -0.34438481334E+02 -0.11270531431E+03 -0.35808163011E+03  0.37697606117E+03  0.00000000000E+00 0. -1.
        -14    1    6    6    0    0 -0.11200340433E+03 -0.83848467094E+02 -0.42799947513E+03  0.45028755116E+03  0.00000000000E+00 0.  1.
</event>
<event>
12    1  0.9962621E-001  0.1823551E+03  0.7818608E-02  0.1165589E+00
         21   -1    0    0  501  502  0.00000000000E+00  0.00000000000E+00  0.64432244809E+03  0.64432244809E+03  0.00000000000E+00 0. -1.
         21   -1    0    0  502  503 -0.00000000000E+00 -0.00000000000E+00 -0.51684970650E+02  0.51684970650E+02  0.00000000000E+00 0. -1.
         -6    2    1    2    0  503  0.50898133809E+02 -0.35477797814E+02  0.31390783739E+03  0.36303103189E+03  0.17147625369E+03 0.  0.
        -24    2    3    3    0    0  0.34277368873E+02  0.37962000613E+02  0.11119335726E+03  0.14673284819E+03  0.80935248999E+02 0.  0.
          6    2    1    2  501    0 -0.50898133809E+02  0.35477797814E+02  0.27872964005E+03  0.33297638685E+03  0.17127103606E+03 0.  0.
         24    2    5    5    0    0 -0.23374066295E+02  0.69776900622E+02  0.99123899088E+02  0.14800526766E+03  0.81638526753E+02 0.  0.
          5    1    5    5  501    0 -0.27524067515E+02 -0.34299102808E+02  0.17960574096E+03  0.18497111919E+03  0.47000000000E+01 0. -1.
        -13    1    6    6    0    0 -0.42749436299E+02  0.44897157801E+02  0.23904369295E+02  0.66443118183E+02  0.00000000000E+00 0.  1.
         14    1    6    6    0    0  0.19375370005E+02  0.24879742821E+02  0.75219529794E+02  0.81562149481E+02  0.00000000000E+00 0. -1.
         -5    1    3    3    0  503  0.16620764936E+02 -0.73439798427E+02  0.20271448013E+03  0.21629818370E+03  0.47000000000E+01 0.  1.
         11    1    4    4    0    0  0.56471257786E+02  0.87365446872E+01  0.81448133523E+02  0.99494364782E+02  0.00000000000E+00 0. -1.
        -12    1    4    4    0    0 -0.22193888913E+02  0.29225455926E+02  0.29745223738E+02  0.47238483404E+02  0.00000000000E+00 0.  1.
</event>
<event>
12    1  0.9962621E-001  0.2898383E+03  0.7818608E-02  0.1090447E+00
         21   -1    0    0  501  502  0.00000000000E+00  0.00000000000E+00  0.45025828048E+03  0.45025828048E+03  0.00000000000E+00 0.  1.
         21   -1    0    0  502  503 -0.00000000000E+00 -0.00000000000E+00 -0.19446562153E+03  0.19446562153E+03  0.00000000000E+00 0.  1.
         -6    2    1    2    0  503 -0.22142578598E+03  0.72849540001E+02  0.62670445200E+02  0.29643891246E+03  0.17208140500E+03 0.  0.
        -24    2    3    3    0    0 -0.13457245927E+03  0.10422684846E+03  0.52340298307E+01  0.18758548965E+03  0.78663448479E+02 0.  0.
          6    2    1    2  501    0  0.22142578598E+03 -0.72849540001E+02  0.19312221375E+03  0.34828498956E+03  0.17224926802E+03 0.  0.
         24    2    5    5    0    0  0.19949769270E+03 -0.20260299526E+02  0.19491420127E+03  0.29108559526E+03  0.80805128444E+02 0.  0.
          5    1    5    5  501    0  0.21928093281E+02 -0.52589240475E+02 -0.17919875183E+01  0.57199394297E+02  0.47000000000E+01 0. -1.
        -13    1    6    6    0    0  0.22346374015E+02  0.20135657972E+02  0.96466028168E+01  0.31588955340E+02  0.00000000000E+00 0.  1.
         14    1    6    6    0    0  0.17715131868E+03 -0.40395957498E+02  0.18526759845E+03  0.25949663992E+03  0.00000000000E+00 0. -1.
         -5    1    3    3    0  503 -0.86853326706E+02 -0.31377308460E+02  0.57436415370E+02  0.10885342281E+03  0.47000000000E+01 0.  1.
         13    1    4    4    0    0 -0.48211529724E+02  0.49682009813E+01  0.25008215094E+02  0.54538476707E+02  0.00000000000E+00 0. -1.
        -14    1    4    4    0    0 -0.86360929546E+02  0.99258647480E+02 -0.19774185263E+02  0.13304701295E+03  0.00000000000E+00 0.  1.
</event>
<event>
12    1  0.9962621E-001  0.3420260E+03  0.7818608E-02  0.1066165E+00
         21   -1    0    0  501  502  0.00000000000E+00  0.00000000000E+00  0.13748014856E+04  0.13748014856E+04  0.00000000000E+00 0. -1.
         21   -1    0    0  502  503 -0.00000000000E+00 -0.00000000000E+00 -0.85771276479E+02  0.85771276479E+02  0.00000000000E+00 0. -1.
         -6    2    1    2    0  503  0.26456852473E+03  0.12634392207E+03  0.72950157192E+03  0.80478766707E+03  0.17190507473E+03 0.  0.
        -24    2    3    3    0    0  0.15891735020E+03  0.10907225770E+03  0.60814492706E+03  0.64289261983E+03  0.79493312519E+02 0.  0.
          6    2    1    2  501    0 -0.26456852473E+03 -0.12634392207E+03  0.55952863721E+03  0.65578509502E+03  0.17613206427E+03 0.  0.
         24    2    5    5    0    0 -0.21123426555E+03 -0.12970160680E+03  0.53809167469E+03  0.59801442243E+03  0.81462735748E+02 0.  0.
          5    1    5    5  501    0 -0.53334259183E+02  0.33576847280E+01  0.21436962524E+02  0.57770672591E+02  0.47000000000E+01 0. -1.
        -11    1    6    6    0    0 -0.58179480959E+02 -0.11372787153E+00  0.15589760094E+03  0.16639990059E+03  0.00000000000E+00 0.  1.
         12    1    6    6    0    0 -0.15305478459E+03 -0.12958787893E+03  0.38219407375E+03  0.43161452183E+03  0.00000000000E+00 0. -1.
         -5    1    3    3    0  503  0.10565117452E+03  0.17271664370E+02  0.12135664487E+03  0.16189504724E+03  0.47000000000E+01 0.  1.
         13    1    4    4    0    0 -0.18710946972E-01 -0.94262602129E+01  0.17691052574E+02  0.20045649725E+02  0.00000000000E+00 0. -1.
        -14    1    4    4    0    0  0.15893606115E+03  0.11849851791E+03  0.59045387448E+03  0.62284697011E+03  0.00000000000E+00 0.  1.
</event>
<event>
12    1  0.9962621E-001  0.2591762E+03  0.7818608E-02  0.1108758E+00
         21   -1    0    0  501  502  0.00000000000E+00  0.00000000000E+00  0.10346172985E+03  0.10346172985E+03  0.00000000000E+00 0. -1.
         21   -1    0    0  502  503 -0.00000000000E+00 -0.00000000000E+00 -0.67829276611E+03  0.67829276611E+03  0.00000000000E+00 0. -1.
         -6    2    1    2    0  503  0.18690243393E+03 -0.18762063978E+02 -0.39436303747E+03  0.47190517389E+03  0.17857142259E+03 0.  0.
        -24    2    3    3    0    0  0.19999674948E+03  0.62028810991E+01 -0.27579054523E+03  0.34993699976E+03  0.79738970595E+02 0.  0.
          6    2    1    2  501    0 -0.18690243393E+03  0.18762063978E+02 -0.18046799879E+03  0.30984932207E+03  0.16778965686E+03 0.  0.
         24    2    5    5    0    0 -0.17576598692E+03  0.25719879325E+02 -0.20441270470E+03  0.28213884413E+03  0.79136459208E+02 0.  0.
          5    1    5    5  501    0 -0.11136447014E+02 -0.69578153466E+01  0.23944705912E+02  0.27710477941E+02  0.47000000000E+01 0. -1.
        -13    1    6    6    0    0 -0.29415708874E+02 -0.13740680714E+02 -0.78980902046E+02  0.85393636315E+02  0.00000000000E+00 0.  1.
         14    1    6    6    0    0 -0.14635027805E+03  0.39460560039E+02 -0.12543180265E+03  0.19674520782E+03  0.00000000000E+00 0. -1.
         -5    1    3    3    0  503 -0.13094315547E+02 -0.24964945078E+02 -0.11857249225E+03  0.12196817413E+03  0.47000000000E+01 0.  1.
         13    1    4    4    0    0  0.13972060350E+03  0.27196491686E+02 -0.23318085926E+03  0.27319372124E+03  0.00000000000E+00 0. -1.
        -14    1    4    4    0    0  0.60276145983E+02 -0.20993610586E+02 -0.42609685966E+02  0.76743278521E+02  0.00000000000E+00 0.  1.
</event>
<event>
12    1  0.9962621E-001  0.2092294E+03  0.7818608E-02  0.1142791E+00
         21   -1    0    0  501  502  0.00000000000E+00  0.00000000000E+00  0.64163101378E+02  0.64163101378E+02  0.00000000000E+00 0.  1.
         21   -1    0    0  502  503 -0.00000000000E+00 -0.00000000000E+00 -0.11861975084E+04  0.11861975084E+04  0.00000000000E+00 0.  1.
         -6    2    1    2    0  503 -0.72590057752E+02 -0.94370514927E+02 -0.15188571613E+03  0.25854632324E+03  0.17205179431E+03 0.  0.
        -24    2    3    3    0    0 -0.25282100480E+02 -0.93806684623E+02 -0.16636095139E+03  0.20884739808E+03  0.80637403555E+02 0.  0.
          6    2    1    2  501    0  0.72590057752E+02  0.94370514927E+02 -0.97014869093E+03  0.99181428657E+03  0.16832107997E+03 0.  0.
         24    2    5    5    0    0  0.17432429332E+02  0.10880074876E+03 -0.81183256091E+03  0.82347925562E+03  0.83093230523E+02 0.  0.
          5    1    5    5  501    0  0.55157628420E+02 -0.14430233831E+02 -0.15831613002E+03  0.16833503096E+03  0.47000000000E+01 0. -1.
        -13    1    6    6    0    0  0.48077605037E+02  0.65443258148E+02 -0.39356450695E+03  0.40185482114E+03  0.00000000000E+00 0.  1.
         14    1    6    6    0    0 -0.30645175705E+02  0.43357490610E+02 -0.41826805395E+03  0.42162443447E+03  0.00000000000E+00 0. -1.
         -5    1    3    3    0  503 -0.47307957272E+02 -0.56383030328E+00  0.14475235268E+02  0.49698925159E+02  0.47000000000E+01 0.  1.
         11    1    4    4    0    0 -0.49815990999E+02 -0.43668238741E+02 -0.11641970377E+03  0.13394810734E+03  0.00000000000E+00 0. -1.
        -12    1    4    4    0    0  0.24533890519E+02 -0.50138445882E+02 -0.49941247626E+02  0.74899290744E+02  0.00000000000E+00 0.  1.
</event>
<event>
12    1  0.9962621E-001  0.1929694E+03  0.7818608E-02  0.1155934E+00
         21   -1    0    0  503  502  0.00000000000E+00  0.00000000000E+00  0.13522192606E+03  0.13522192606E+03  0.00000000000E+00 0.  1.
         21   -1    0    0  501  503 -0.00000000000E+00 -0.00000000000E+00 -0.28445739690E+03  0.28445739690E+03  0.00000000000E+00 0.  1.
          6    2    1    2  501    0 -0.71310542461E+02  0.52151092344E+02 -0.35406542285E+02  0.19563870421E+03  0.17092673708E+03 0.  0.
         24    2    3    3    0    0 -0.88742115814E+01 -0.13453911463E+02  0.26100849324E+02  0.86059686322E+02  0.80406815069E+02 0.  0.
         -6    2    1    2    0  502  0.71310542461E+02 -0.52151092344E+02 -0.11382892856E+03  0.22404061874E+03  0.17155828156E+03 0.  0.
        -24    2    5    5    0    0  0.98842812896E+02 -0.47993424268E+02 -0.13189225054E+03  0.19051919693E+03  0.82636119298E+02 0.  0.
          5    1    3    3  501    0 -0.62436330879E+02  0.65605003807E+02 -0.61507391609E+02  0.10957901789E+03  0.47000000000E+01 0. -1.
        -13    1    4    4    0    0  0.19695294106E+02 -0.38751313658E+02  0.18004936315E+02  0.47050469199E+02  0.00000000000E+00 0.  1.
         14    1    4    4    0    0 -0.28569505688E+02  0.25297402196E+02  0.80959130096E+01  0.39009217123E+02  0.00000000000E+00 0. -1.
         -5    1    5    5    0  502 -0.27532270435E+02 -0.41576680762E+01  0.18063321985E+02  0.33521421812E+02  0.47000000000E+01 0.  1.
         11    1    6    6    0    0  0.22385010194E+02  0.12503306224E+02 -0.71197402513E+02  0.75673585038E+02  0.00000000000E+00 0. -1.
        -12    1    6    6    0    0  0.76457802702E+02 -0.60496730492E+02 -0.60694848029E+02  0.11484561189E+03  0.00000000000E+00 0.  1.
</event>
<event>
12    1  0.9962621E-001  0.3746302E+03  0.7818608E-02  0.1053000E+00
         21   -1    0    0  503  502  0.00000000000E+00  0.00000000000E+00  0.53906345925E+03  0.53906345925E+03  0.00000000000E+00 0. -1.
         21   -1    0    0  501  503 -0.00000000000E+00 -0.00000000000E+00 -0.38331077709E+03  0.38331077709E+03  0.00000000000E+00 0. -1.
          6    2    1    2  501    0 -0.33035617551E+03 -0.36665706744E+02  0.33962470240E+03  0.50566069005E+03  0.17282424088E+03 0.  0.
         24    2    3    3    0    0 -0.10554606975E+03  0.41246563086E+02  0.12732916926E+03  0.18675413817E+03  0.76309494645E+02 0.  0.
         -6    2    1    2    0  502  0.33035617551E+03  0.36665706744E+02 -0.18387202024E+03  0.41671354629E+03  0.17135251117E+03 0.  0.
        -24    2    5    5    0    0  0.14449391386E+03  0.55765311229E+02 -0.32811166890E+02  0.17639907188E+03  0.77793308243E+02 0.  0.
          5    1    3    3  501    0 -0.22481010576E+03 -0.77912269830E+02  0.21229553314E+03  0.31890655188E+03  0.47000000000E+01 0. -1.
        -11    1    4    4    0    0 -0.82172503286E+02  0.23020838461E+02  0.39454760006E+02  0.94015729465E+02  0.00000000000E+00 0.  1.
         12    1    4    4    0    0 -0.23373566467E+02  0.18225724625E+02  0.87874409258E+02  0.92738408709E+02  0.00000000000E+00 0. -1.
         -5    1    5    5    0  502  0.18586226165E+03 -0.19099604485E+02 -0.15106085334E+03  0.24031447441E+03  0.47000000000E+01 0.  1.
         11    1    6    6    0    0  0.15878088312E+01  0.26292381572E+02 -0.12229876835E+02  0.29041011570E+02  0.00000000000E+00 0. -1.
        -12    1    6    6    0    0  0.14290610503E+03  0.29472929657E+02 -0.20581290055E+02  0.14735806031E+03  0.00000000000E+00 0.  1.
</event>
<event>
12    1  0.9962621E-001  0.2063504E+03  0.7818608E-02  0.1144728E+00
         21   -1    0    0  503  502  0.00000000000E+00  0.00000000000E+00  0.13110426474E+03  0.13110426474E+03  0.00000000000E+00 0.  1.
         21   -1    0    0  501  503 -0.00000000000E+00 -0.00000000000E+00 -0.33643711713E+03  0.33643711713E+03  0.00000000000E+00 0.  1.
          6    2    1    2  501    0 -0.62077517815E+02  0.92458462296E+02 -0.56118036969E+02  0.21384504119E+03  0.17371897450E+03 0.  0.
         24    2    3    3    0    0 -0.33647221916E+02  0.39249653973E+01 -0.79488932356E+02  0.11785154897E+03  0.80143348642E+02 0.  0.
         -6    2    1    2    0  502  0.62077517815E+02 -0.92458462296E+02 -0.14921481542E+03  0.25369634068E+03  0.17232117300E+03 0.  0.
        -24    2    5    5    0    0  0.26293226405E+02 -0.34077166223E+01 -0.13125948194E+03  0.15594648228E+03  0.79920632175E+02 0.  0.
          5    1    3    3  501    0 -0.28430295898E+02  0.88533496899E+02  0.23370895387E+02  0.95993492223E+02  0.47000000000E+01 0. -1.
        -11    1    4    4    0    0  0.24353715125E+02 -0.11035028568E+02 -0.19627099444E+02  0.33167730228E+02  0.00000000000E+00 0.  1.
         12    1    4    4    0    0 -0.58000937042E+02  0.14959993965E+02 -0.59861832913E+02  0.84683818743E+02  0.00000000000E+00 0. -1.
         -5    1    5    5    0  502  0.35784291410E+02 -0.89050745674E+02 -0.17955333479E+02  0.97749858399E+02  0.47000000000E+01 0.  1.
         13    1    6    6    0    0  0.45987075433E+02  0.17608311992E+02 -0.51999192130E+02  0.71615499302E+02  0.00000000000E+00 0. -1.
        -14    1    6    6    0    0 -0.19693849028E+02 -0.21016028615E+02 -0.79260289814E+02  0.84330982976E+02  0.00000000000E+00 0.  1.
</event>
<event>
12    1  0.9962621E-001  0.1758712E+03  0.7818608E-02  0.1172422E+00
         21   -1    0    0  503  502  0.00000000000E+00  0.00000000000E+00  0.19369965657E+02  0.19369965657E+02  0.00000000000E+00 0.  1.
         21   -1    0    0  501  503 -0.00000000000E+00 -0.00000000000E+00 -0.16848197946E+04  0.16848197946E+04  0.00000000000E+00 0.  1.
          6    2    1    2  501    0 -0.33433895080E+02 -0.15455516224E+02 -0.10436987524E+04  0.10580434210E+04  0.16968234010E+03 0.  0.
         24    2    3    3    0    0  0.32717921736E+02  0.29848777969E+02 -0.65742262277E+03  0.66350586855E+03  0.77936645516E+02 0.  0.
         -6    2    1    2    0  502  0.33433895080E+02  0.15455516224E+02 -0.62175107646E+03  0.64614633922E+03  0.17197090535E+03 0.  0.
        -24    2    5    5    0    0  0.90834160710E+01  0.10467602538E+02 -0.12980882000E+03  0.15355411557E+03  0.80848361195E+02 0.  0.
          5    1    3    3  501    0 -0.66151816816E+02 -0.45304294193E+02 -0.38627612966E+03  0.39453755244E+03  0.47000000000E+01 0. -1.
        -13    1    4    4    0    0 -0.28910817904E+01  0.48018178938E+02 -0.29664271101E+03  0.30051788942E+03  0.00000000000E+00 0.  1.
         14    1    4    4    0    0  0.35609003527E+02 -0.18169400969E+02 -0.36077991176E+03  0.36298797913E+03  0.00000000000E+00 0. -1.
         -5    1    5    5    0  502  0.24350479009E+02  0.49879136866E+01 -0.49194225646E+03  0.49259222366E+03  0.47000000000E+01 0.  1.
         13    1    6    6    0    0 -0.67718169950E+01  0.29544742167E+02 -0.12456546508E+03  0.12820025111E+03  0.00000000000E+00 0. -1.
        -14    1    6    6    0    0  0.15855233066E+02 -0.19077139630E+02 -0.52433549218E+01  0.25353864456E+02  0.00000000000E+00 0.  1.
</event>
<event>
12    1  0.9962621E-001  0.2554919E+03  0.7818608E-02  0.1110380E+00
         21   -1    0    0  501  502  0.00000000000E+00  0.00000000000E+00  0.12154910168E+03  0.12154910168E+03  0.00000000000E+00 0. -1.
         21   -1    0    0  502  503 -0.00000000000E+00 -0.00000000000E+00 -0.13291459063E+04  0.13291459063E+04  0.00000000000E+00 0. -1.
         -6    2    1    2    0  503 -0.75946767182E+02 -0.17162884534E+03 -0.42996515429E+02  0.25908460834E+03  0.17335444020E+03 0.  0.
        -24    2    3    3    0    0 -0.72544261778E+02 -0.52311217060E+02  0.21525259526E+02  0.12331486610E+03  0.82122384632E+02 0.  0.
          6    2    1    2  501    0  0.75946767182E+02  0.17162884534E+03 -0.11646002891E+04  0.11916103996E+04  0.16857383834E+03 0.  0.
         24    2    5    5    0    0  0.81632893962E+02  0.46313670787E+02 -0.49074246228E+03  0.50615968231E+03  0.80997371775E+02 0.  0.
          5    1    5    5  501    0 -0.56861267796E+01  0.12531517456E+03 -0.67385782687E+03  0.68545071730E+03  0.47000000000E+01 0. -1.
        -11    1    6    6    0    0  0.13858409650E+02  0.10385583436E+01 -0.69291294333E+01  0.15528907114E+02  0.00000000000E+00 0.  1.
         12    1    6    6    0    0  0.67774484312E+02  0.45275112444E+02 -0.48381333284E+03  0.49063077520E+03  0.00000000000E+00 0. -1.
         -5    1    3    3    0  503 -0.34025054038E+01 -0.11931762828E+03 -0.64521774954E+02  0.13576974223E+03  0.47000000000E+01 0.  1.
         13    1    4    4    0    0 -0.75843827029E+02 -0.41587443510E+02 -0.12583680961E+02  0.87407954917E+02  0.00000000000E+00 0. -1.
        -14    1    4    4    0    0  0.32995652512E+01 -0.10723773549E+02  0.34108940486E+02  0.35906911188E+02  0.00000000000E+00 0.  1.
</event>
<event>
12    1  0.9962621E-001  0.1945183E+03  0.7818608E-02  0.1155574E+00
         21   -1    0    0  501  502  0.00000000000E+00  0.00000000000E+00  0.11087770183E+03  0.11087770183E+03  0.00000000000E+00 0.  1.
         21   -1    0    0  502  503 -0.00000000000E+00 -0.00000000000E+00 -0.33831685291E+03  0.33831685291E+03  0.00000000000E+00 0.  1.
         -6    2    1    2    0  503 -0.25430004732E+02 -0.86525710664E+02 -0.85518615352E+02  0.21248722770E+03  0.17234849757E+03 0.  0.
        -24    2    3    3    0    0 -0.44997911909E+00 -0.11433139210E+03 -0.10175292705E+03  0.17146527654E+03  0.77296915824E+02 0.  0.
          6    2    1    2  501    0  0.25430004732E+02  0.86525710664E+02 -0.14192053573E+03  0.23670732704E+03  0.16659992937E+03 0.  0.
         24    2    5    5    0    0  0.78286531105E+02  0.76564977681E+02 -0.10998358034E+03  0.17397704965E+03  0.78617104382E+02 0.  0.
          5    1    5    5  501    0 -0.52856526374E+02  0.99607329825E+01 -0.31936955396E+02  0.62730277393E+02  0.47000000000E+01 0. -1.
        -11    1    6    6    0    0  0.14881241261E+02  0.35190089717E+02 -0.86734768382E+02  0.94777179754E+02  0.00000000000E+00 0.  1.
         12    1    6    6    0    0  0.63405289844E+02  0.41374887964E+02 -0.23248811954E+02  0.79199869896E+02  0.00000000000E+00 0. -1.
         -5    1    3    3    0  503 -0.24980025613E+02  0.27805681441E+02  0.16234311696E+02  0.41021951151E+02  0.47000000000E+01 0.  1.
         13    1    4    4    0    0 -0.33267162728E+02 -0.30799938911E+02 -0.18222515835E+02  0.48861031879E+02  0.00000000000E+00 0. -1.
        -14    1    4    4    0    0  0.32817183609E+02 -0.83531453194E+02 -0.83530411213E+02  0.12260424467E+03  0.00000000000E+00 0.  1.
</event>
<event>
12    1  0.9962621E-001  0.1944122E+03  0.7818608E-02  0.1154600E+00
         21   -1    0    0  503  502  0.00000000000E+00  0.00000000000E+00  0.81969204896E+02  0.81969204896E+02  0.00000000000E+00 0. -1.
         21   -1    0    0  501  503 -0.00000000000E+00 -0.00000000000E+00 -0.46065260926E+03  0.46065260926E+03  0.00000000000E+00 0. -1.
          6    2    1    2  501    0  0.87620421489E+02 -0.16298812415E+02 -0.18373204596E+03  0.26729993110E+03  0.17247840126E+03 0.  0.
         24    2    3    3    0    0  0.37635921897E+02  0.54676144335E+02 -0.75765498007E+02  0.12868261557E+03  0.80080343944E+02 0.  0.
         -6    2    1    2    0  502 -0.87620421489E+02  0.16298812415E+02 -0.19495135840E+03  0.27532188306E+03  0.17278054752E+03 0.  0.
        -24    2    5    5    0    0 -0.12100522258E+03  0.33094301243E+02 -0.18268807597E+03  0.23570987119E+03  0.80291429232E+02 0.  0.
          5    1    3    3  501    0  0.49984499592E+02 -0.70974956750E+02 -0.10796654796E+03  0.13861731552E+03  0.47000000000E+01 0. -1.
        -11    1    4    4    0    0  0.40767156146E+02  0.37214775155E+02 -0.46571870542E+01  0.55394854466E+02  0.00000000000E+00 0.  1.
         12    1    4    4    0    0 -0.31312342492E+01  0.17461369180E+02 -0.71108310953E+02  0.73287761108E+02  0.00000000000E+00 0. -1.
         -5    1    5    5    0  502  0.33384801090E+02 -0.16795488828E+02 -0.12263282436E+02  0.39612011876E+02  0.47000000000E+01 0.  1.
         11    1    6    6    0    0 -0.42125516517E+02  0.42936477857E+02 -0.12087256018E+03  0.13501213308E+03  0.00000000000E+00 0. -1.
        -12    1    6    6    0    0 -0.78879706062E+02 -0.98421766136E+01 -0.61815515783E+02  0.10069773811E+03  0.00000000000E+00 0.  1.
</event>
<event>
12    1  0.9962621E-001  0.2547056E+03  0.7818608E-02  0.1110442E+00
         21   -1    0    0  501  502  0.00000000000E+00  0.00000000000E+00  0.12396044885E+04  0.12396044885E+04  0.00000000000E+00 0. -1.
         21   -1    0    0  502  503 -0.00000000000E+00 -0.00000000000E+00 -0.54656860275E+02  0.54656860275E+02  0.00000000000E+00 0. -1.
         -6    2    1    2    0  503 -0.10372473603E+02 -0.18753700969E+03  0.72922292727E+03  0.77242542265E+03  0.17203847735E+03 0.  0.
        -24    2    3    3    0    0  0.49654935627E+02 -0.15389057075E+03  0.59167880324E+03  0.61855583901E+03  0.79872394369E+02 0.  0.
          6    2    1    2  501    0  0.10372473603E+02  0.18753700969E+03  0.45572470101E+03  0.52183592617E+03  0.17131845354E+03 0.  0.
         24    2    5    5    0    0  0.39861147941E+02  0.19870726906E+03  0.35891015545E+03  0.41990701546E+03  0.80199202327E+02 0.  0.
          5    1    5    5  501    0 -0.29488674339E+02 -0.11170259363E+02  0.96814545557E+02  0.10192891072E+03  0.47000000000E+01 0. -1.
        -11    1    6    6    0    0  0.34853750389E+02  0.39304474611E+02  0.13623117218E+03  0.14600875972E+03  0.00000000000E+00 0.  1.
         12    1    6    6    0    0  0.50073975520E+01  0.15940279445E+03  0.22267898327E+03  0.27389825574E+03  0.00000000000E+00 0. -1.
         -5    1    3    3    0  503 -0.60027409230E+02 -0.33646438947E+02  0.13754412403E+03  0.15386958363E+03  0.47000000000E+01 0.  1.
         13    1    4    4    0    0 -0.12717640477E+02 -0.90569172562E+02  0.29613447616E+03  0.30993570522E+03  0.00000000000E+00 0. -1.
        -14    1    4    4    0    0  0.62372576104E+02 -0.63321398185E+02  0.29554432707E+03  0.30862013379E+03  0.00000000000E+00 0.  1.
</event>
<event>
12    1  0.9962621E-001  0.2323498E+03  0.7818608E-02  0.1125262E+00
         21   -1    0    0  503  502  0.00000000000E+00  0.00000000000E+00  0.79148656759E+02  0.79148656759E+02  0.00000000000E+00 0.  1.
         21   -1    0    0  501  503 -0.00000000000E+00 -0.00000000000E+00 -0.11440062791E+04  0.11440062791E+04  0.00000000000E+00 0.  1.
          6    2    1    2  501    0  0.14494228457E+03 -0.52032436387E+02 -0.92187870363E+03  0.95033743216E+03  0.17194548685E+03 0.  0.
         24    2    3    3    0    0  0.54572876994E+02 -0.35188017596E+01 -0.21076847464E+03  0.23185288093E+03  0.79635592695E+02 0.  0.
         -6    2    1    2    0  502 -0.14494228457E+03  0.52032436387E+02 -0.14297891867E+03  0.27281750366E+03  0.17398499598E+03 0.  0.
        -24    2    5    5    0    0 -0.60344879158E+02 -0.38643709846E+02 -0.67290689444E+02  0.12745697758E+03  0.81132012780E+02 0.  0.
          5    1    3    3  501    0  0.90369407580E+02 -0.48513634628E+02 -0.71111022899E+03  0.71848455122E+03  0.47000000000E+01 0. -1.
        -11    1    4    4    0    0 -0.11066955671E+02  0.11825075967E+02 -0.10628114782E+03  0.10750810347E+03  0.00000000000E+00 0.  1.
         12    1    4    4    0    0  0.65639832665E+02 -0.15343877727E+02 -0.10448732683E+03  0.12434477747E+03  0.00000000000E+00 0. -1.
         -5    1    5    5    0  502 -0.84597405417E+02  0.90676146233E+02 -0.75688229223E+02  0.14536052608E+03  0.47000000000E+01 0.  1.
         13    1    6    6    0    0 -0.56788332366E+02  0.14920257528E+01 -0.66085364654E+02  0.87145948014E+02  0.00000000000E+00 0. -1.
        -14    1    6    6    0    0 -0.35565467912E+01 -0.40135735599E+02 -0.12053247900E+01  0.40311029570E+02  0.00000000000E+00 0.  1.
</event>
<event>
12    1  0.9962621E-001  0.2253912E+03  0.7818608E-02  0.1130481E+00
         21   -1    0    0  501  502  0.00000000000E+00  0.00000000000E+00  0.30418086117E+03  0.30418086117E+03  0.00000000000E+00 0.  1.
         21   -1    0    0  502  503 -0.00000000000E+00 -0.00000000000E+00 -0.33534642542E+03  0.33534642542E+03  0.00000000000E+00 0.  1.
         -6    2    1    2    0  503 -0.14133230357E+03  0.31621071965E+02 -0.24369667345E+03  0.33194765750E+03  0.17270340600E+03 0.  0.
        -24    2    3    3    0    0 -0.82168235666E+02 -0.39775543889E+02 -0.18590064637E+03  0.22258434357E+03  0.81553827868E+02 0.  0.
          6    2    1    2  501    0  0.14133230357E+03 -0.31621071965E+02  0.21253110920E+03  0.30757962909E+03  0.16870401189E+03 0.  0.
         24    2    5    5    0    0  0.12422690636E+03 -0.79898195386E+02  0.16526095506E+03  0.23772382953E+03  0.85938291640E+02 0.  0.
          5    1    5    5  501    0  0.17105397209E+02  0.48277123421E+02  0.47270154143E+02  0.69855799560E+02  0.47000000000E+01 0. -1.
        -11    1    6    6    0    0 -0.27611842214E+01  0.11027833229E+02  0.26370166234E+02  0.28716248210E+02  0.00000000000E+00 0.  1.
         12    1    6    6    0    0  0.12698809058E+03 -0.90926028615E+02  0.13889078882E+03  0.20900758132E+03  0.00000000000E+00 0. -1.
         -5    1    3    3    0  503 -0.59164067905E+02  0.71396615853E+02 -0.57796027077E+02  0.10936331392E+03  0.47000000000E+01 0.  1.
         11    1    4    4    0    0 -0.41342244749E+02 -0.13748340166E+02 -0.16810401530E+02  0.46698904246E+02  0.00000000000E+00 0. -1.
        -12    1    4    4    0    0 -0.40825990917E+02 -0.26027203723E+02 -0.16909024484E+03  0.17588543933E+03  0.00000000000E+00 0.  1.
</event>
<event>
12    1  0.9962621E-001  0.2170413E+03  0.7818608E-02  0.1137018E+00
         21   -1    0    0  501  502  0.00000000000E+00  0.00000000000E+00  0.11803980613E+04  0.11803980613E+04  0.00000000000E+00 0. -1.
         21   -1    0    0  502  503 -0.00000000000E+00 -0.00000000000E+00 -0.45887879650E+02  0.45887879650E+02  0.00000000000E+00 0. -1.
         -6    2    1    2    0  503 -0.12162408892E+03  0.49368599672E+02  0.79876291375E+03  0.82649453459E+03  0.16685726141E+03 0.  0.
        -24    2    3    3    0    0 -0.14285825388E+03  0.70645144591E+02  0.63004824435E+03  0.65505850922E+03  0.82107509605E+02 0.  0.
          6    2    1    2  501    0  0.12162408892E+03 -0.49368599672E+02  0.33574726787E+03  0.39979140633E+03  0.17285040658E+03 0.  0.
         24    2    5    5    0    0  0.10103479306E+03 -0.88764895502E+02  0.31222698337E+03  0.34928119932E+03  0.80152548144E+02 0.  0.
          5    1    5    5  501    0  0.20589295858E+02  0.39396295830E+02  0.23520284504E+02  0.50510207011E+02  0.47000000000E+01 0. -1.
        -11    1    6    6    0    0  0.10273540627E+03 -0.84763789979E+02  0.22157166353E+03  0.25852169324E+03  0.00000000000E+00 0.  1.
         12    1    6    6    0    0 -0.17006132063E+01 -0.40011055234E+01  0.90655319831E+02  0.90759506083E+02  0.00000000000E+00 0. -1.
         -5    1    3    3    0  503  0.21234164958E+02 -0.21276544919E+02  0.16871466940E+03  0.17143602537E+03  0.47000000000E+01 0.  1.
         11    1    4    4    0    0 -0.36224901765E+02  0.58014543078E+01  0.29943742607E+03  0.30167643679E+03  0.00000000000E+00 0. -1.
        -12    1    4    4    0    0 -0.10663335211E+03  0.64843690283E+02  0.33061081828E+03  0.35338207243E+03  0.00000000000E+00 0.  1.
</event>
<event>
12    1  0.9962621E-001  0.2370600E+03  0.7818608E-02  0.1121860E+00
         21   -1    0    0  503  502  0.00000000000E+00  0.00000000000E+00  0.39881051838E+03  0.39881051838E+03  0.00000000000E+00 0.  1.
         21   -1    0    0  501  503 -0.00000000000E+00 -0.00000000000E+00 -0.22323902963E+03  0.22323902963E+03  0.00000000000E+00 0.  1.
          6    2    1    2  501    0  0.66625167223E+02  0.14923293963E+03  0.27697297709E+03  0.36421293866E+03  0.17096096476E+03 0.  0.
         24    2    3    3    0    0  0.21648183990E+02  0.12242088941E+03  0.98776765349E+02  0.17842328627E+03  0.81378754455E+02 0.  0.
         -6    2    1    2    0  502 -0.66625167223E+02 -0.14923293963E+03 -0.10140148833E+03  0.25783660934E+03  0.17172091341E+03 0.  0.
        -24    2    5    5    0    0 -0.89432572379E+02 -0.85470961056E+02 -0.11299982164E+03  0.18897167649E+03  0.87394877636E+02 0.  0.
          5    1    3    3  501    0  0.44976983233E+02  0.26812050222E+02  0.17819621174E+03  0.18578965239E+03  0.47000000000E+01 0. -1.
        -13    1    4    4    0    0  0.25450856880E+02  0.13493710648E+02  0.52763839970E+02  0.60115298813E+02  0.00000000000E+00 0.  1.
         14    1    4    4    0    0 -0.38026728903E+01  0.10892717876E+03  0.46012925379E+02  0.11830798746E+03  0.00000000000E+00 0. -1.
         -5    1    5    5    0  502  0.22807405156E+02 -0.63761978576E+02  0.11598333311E+02  0.68864932858E+02  0.47000000000E+01 0.  1.
         11    1    6    6    0    0 -0.61024507870E+01 -0.35095263023E+02  0.50129562553E+01  0.35972866479E+02  0.00000000000E+00 0. -1.
        -12    1    6    6    0    0 -0.83330121592E+02 -0.50375698033E+02 -0.11801277790E+03  0.15299881001E+03  0.00000000000E+00 0.  1.
</event>
<event>
12    1  0.9962621E-001  0.2285198E+03  0.7818608E-02  0.1127704E+00
         21   -1    0    0  501  502  0.00000000000E+00  0.00000000000E+00  0.14908314513E+03  0.14908314513E+03  0.00000000000E+00 0.  1.
         21   -1    0    0  502  503 -0.00000000000E+00 -0.00000000000E+00 -0.35013959143E+03  0.35013959143E+03  0.00000000000E+00 0.  1.
         -6    2    1    2    0  503  0.10036804409E+03 -0.11229892934E+03 -0.10191769697E+03  0.25012481877E+03  0.17172773278E+03 0.  0.
        -24    2    3    3    0    0  0.13559478500E+03 -0.10012308828E+03 -0.65612114333E+02  0.19788154446E+03  0.80259439102E+02 0.  0.
          6    2    1    2  501    0 -0.10036804409E+03  0.11229892934E+03 -0.99138749328E+02  0.24909791779E+03  0.17186182596E+03 0.  0.
         24    2    5    5    0    0 -0.61565854759E+02  0.92461882424E+02 -0.13556246833E+03  0.19210760604E+03  0.78667625507E+02 0.  0.
          5    1    5    5  501    0 -0.38802189333E+02  0.19837046920E+02  0.36423719006E+02  0.56990311753E+02  0.47000000000E+01 0. -1.
        -13    1    6    6    0    0 -0.66744175788E+02  0.29553022910E+02 -0.72148818525E+02  0.10263341648E+03  0.00000000000E+00 0.  1.
         14    1    6    6    0    0  0.51783210283E+01  0.62908859514E+02 -0.63413649809E+02  0.89474189553E+02  0.00000000000E+00 0. -1.
         -5    1    3    3    0  503 -0.35226740907E+02 -0.12175841065E+02 -0.36305582632E+02  0.52243274312E+02  0.47000000000E+01 0.  1.
         13    1    4    4    0    0  0.33990763960E+02 -0.74493296336E+02 -0.27387696781E+02  0.86340657680E+02  0.00000000000E+00 0. -1.
        -14    1    4    4    0    0  0.10160402104E+03 -0.25629791942E+02 -0.38224417551E+02  0.11154088678E+03  0.00000000000E+00 0.  1.
</event>
<event>
12    1  0.9962621E-001  0.2852343E+03  0.7818608E-02  0.1092885E+00
         21   -1    0    0  503  502  0.00000000000E+00  0.00000000000E+00  0.29144077383E+03  0.29144077383E+03  0.00000000000E+00 0.  1.
         21   -1    0    0  501  503 -0.00000000000E+00 -0.00000000000E+00 -0.29092682974E+03  0.29092682974E+03  0.00000000000E+00 0. -1.
          6    2    1    2  501    0 -0.29066092935E+02 -0.22519923079E+03 -0.58685642984E+02  0.29120888304E+03  0.17262409323E+03 0.  0.
         24    2    3    3    0    0  0.24661279804E+02 -0.12708023467E+03  0.21976007500E+02  0.15321482578E+03  0.78957413631E+02 0.  0.
         -6    2    1    2    0  502  0.29066092935E+02  0.22519923079E+03  0.59199587080E+02  0.29115872053E+03  0.17236379586E+03 0.  0.
        -24    2    5    5    0    0  0.10227944452E+02  0.12672155379E+03 -0.34590347309E+02  0.15378561363E+03  0.79313049311E+02 0.  0.
          5    1    3    3  501    0 -0.53727372739E+02 -0.98118996119E+02 -0.80661650484E+02  0.13799405726E+03  0.47000000000E+01 0. -1.
        -13    1    4    4    0    0  0.22323640553E+01 -0.40740973825E+02  0.45344843150E+02  0.60999714735E+02  0.00000000000E+00 0.  1.
         14    1    4    4    0    0  0.22428915749E+02 -0.86339260847E+02 -0.23368835650E+02  0.92215111044E+02  0.00000000000E+00 0. -1.
         -5    1    5    5    0  502  0.18838148483E+02  0.98477677004E+02  0.93789934389E+02  0.13737310690E+03  0.47000000000E+01 0.  1.
         13    1    6    6    0    0 -0.13352409601E+02  0.12323699169E+03 -0.38124635825E+02  0.12968859171E+03  0.00000000000E+00 0. -1.
        -14    1    6    6    0    0  0.23580354053E+02  0.34845621001E+01  0.35342885152E+01  0.24097021924E+02  0.00000000000E+00 0.  1.
</event>
<event>
12    1  0.9962621E-001  0.4420762E+03  0.7818608E-02  0.1030137E+00
         21   -1    0    0  501  502  0.00000000000E+00  0.00000000000E+00  0.12814645766E+04  0.12814645766E+04  0.00000000000E+00 0.  1.
         21   -1    0    0  502  503 -0.00000000000E+00 -0.00000000000E+00 -0.20694856109E+03  0.20694856109E+03  0.00000000000E+00 0.  1.
         -6    2    1    2    0  503 -0.32709157405E+03  0.24256685317E+03  0.91951162871E+03  0.10202612519E+04  0.17205757990E+03 0.  0.
        -24    2    3    3    0    0 -0.33450196472E+03  0.23475465416E+03  0.91841684021E+03  0.10084615526E+04  0.80646751801E+02 0.  0.
          6    2    1    2  501    0  0.32709157405E+03 -0.24256685317E+03  0.15500438676E+03  0.46815188572E+03  0.17120821276E+03 0.  0.
         24    2    5    5    0    0  0.21019031334E+03 -0.84053448672E+02  0.49584663383E+02  0.24470656302E+03  0.78598429288E+02 0.  0.
          5    1    5    5  501    0  0.11690126071E+03 -0.15851340449E+03  0.10541972338E+03  0.22344532270E+03  0.47000000000E+01 0. -1.
        -13    1    6    6    0    0  0.15998518173E+03 -0.73216845367E+02  0.70107882055E+02  0.18939662073E+03  0.00000000000E+00 0.  1.
         14    1    6    6    0    0  0.50205131607E+02 -0.10836603305E+02 -0.20523218672E+02  0.55309942285E+02  0.00000000000E+00 0. -1.
         -5    1    3    3    0  503  0.74103906682E+01  0.78121990067E+01  0.10947884915E+01  0.11799699361E+02  0.47000000000E+01 0.  1.
         11    1    4    4    0    0 -0.29476336260E+03  0.22587427039E+03  0.77501908715E+03  0.85939467732E+03  0.00000000000E+00 0. -1.
        -12    1    4    4    0    0 -0.39738602113E+02  0.88803837728E+01  0.14339775306E+03  0.14906687525E+03  0.00000000000E+00 0.  1.
</event>
<event>
12    1  0.9962621E-001  0.2961056E+03  0.7818608E-02  0.1087425E+00
         21   -1    0    0  501  502  0.00000000000E+00  0.00000000000E+00  0.14750701838E+04  0.14750701838E+04  0.00000000000E+00 0. -1.
         21   -1    0    0  502  503 -0.00000000000E+00 -0.00000000000E+00 -0.59203981593E+02  0.59203981593E+02  0.00000000000E+00 0. -1.
         -6    2    1    2    0  503  0.19846368885E+03 -0.13580860681E+03  0.74332904314E+03  0.80013535824E+03  0.17276200873E+03 0.  0.
        -24    2    3    3    0    0  0.44413326058E+02 -0.29671559437E+02  0.37356426023E+03  0.38571447100E+03  0.79827637124E+02 0.  0.
          6    2    1    2  501    0 -0.19846368885E+03  0.13580860681E+03  0.67253715907E+03  0.73413880715E+03  0.16976968033E+03 0.  0.
         24    2    5    5    0    0 -0.12691716187E+03  0.96961278638E+02  0.59620117036E+03  0.62243700053E+03  0.80389853582E+02 0.  0.
          5    1    5    5  501    0 -0.71546526987E+02  0.38847328170E+02  0.76335988704E+02  0.11170180662E+03  0.47000000000E+01 0. -1.
        -11    1    6    6    0    0 -0.11628837216E+03  0.43471659664E+02  0.42473002489E+03  0.44250238953E+03  0.00000000000E+00 0.  1.
         12    1    6    6    0    0 -0.10628789712E+02  0.53489618974E+02  0.17147114547E+03  0.17993461101E+03  0.00000000000E+00 0. -1.
         -5    1    3    3    0  503  0.15405036280E+03 -0.10613704737E+03  0.36976478291E+03  0.41442088724E+03  0.47000000000E+01 0.  1.
         11    1    4    4    0    0 -0.21576789115E+01  0.24450938339E+02  0.10351738393E+03  0.10638774713E+03  0.00000000000E+00 0. -1.
        -12    1    4    4    0    0  0.46571004969E+02 -0.54122497776E+02  0.27004687629E+03  0.27932672387E+03  0.00000000000E+00 0.  1.
</event>
<event>
12    1  0.9962621E-001  0.1860437E+03  0.7818608E-02  0.1162840E+00
         21   -1    0    0  503  502  0.00000000000E+00  0.00000000000E+00  0.45113009657E+02  0.45113009657E+02  0.00000000000E+00 0. -1.
         21   -1    0    0  501  503 -0.00000000000E+00 -0.00000000000E+00 -0.75395828817E+03  0.75395828817E+03  0.00000000000E+00 0. -1.
          6    2    1    2  501    0  0.51576386518E+02 -0.47256045467E+02 -0.34720750409E+03  0.39238451209E+03  0.16887657313E+03 0.  0.
         24    2    3    3    0    0  0.55501087219E+02  0.11537547169E+02 -0.30896795694E+03  0.32198250376E+03  0.70696878530E+02 0.  0.
         -6    2    1    2    0  502 -0.51576386518E+02  0.47256045467E+02 -0.36163777442E+03  0.40668678573E+03  0.17239200772E+03 0.  0.
        -24    2    5    5    0    0 -0.99404596645E+01  0.80590019907E+02 -0.15406157159E+03  0.19231637211E+03  0.81590778239E+02 0.  0.
          5    1    3    3  501    0 -0.39247007011E+01 -0.58793592635E+02 -0.38239547151E+02  0.70402008330E+02  0.47000000000E+01 0. -1.
        -13    1    4    4    0    0  0.50171725912E+02  0.37410542457E+02 -0.24280670249E+03  0.25074258821E+03  0.00000000000E+00 0.  1.
         14    1    4    4    0    0  0.53293613071E+01 -0.25872995288E+02 -0.66161254455E+02  0.71239915554E+02  0.00000000000E+00 0. -1.
         -5    1    5    5    0  502 -0.41635926854E+02 -0.33333974441E+02 -0.20757620283E+03  0.21437041362E+03  0.47000000000E+01 0.  1.
         11    1    6    6    0    0  0.33411930080E+02  0.55534543112E+02 -0.92880102590E+02  0.11325703513E+03  0.00000000000E+00 0. -1.
        -12    1    6    6    0    0 -0.43352389744E+02  0.25055476795E+02 -0.61181469000E+02  0.79059336975E+02  0.00000000000E+00 0.  1.
</event>
<event>
12    1  0.9962621E-001  0.2710169E+03  0.7818608E-02  0.1100852E+00
         21   -1    0    0  501  502  0.00000000000E+00  0.00000000000E+00  0.10151043156E+03  0.10151043156E+03  0.00000000000E+00 0.  1.
         21   -1    0    0  502  503 -0.00000000000E+00 -0.00000000000E+00 -0.80972627465E+03  0.80972627465E+03  0.00000000000E+00 0.  1.
         -6    2    1    2    0  503 -0.97767158374E+02 -0.18375080652E+03 -0.20366422659E+03  0.33901219557E+03  0.17357239239E+03 0.  0.
        -24    2    3    3    0    0 -0.33258038225E+02 -0.20369222764E+02 -0.36149918415E+02  0.96240488125E+02  0.80214790473E+02 0.  0.
          6    2    1    2  501    0  0.97767158374E+02  0.18375080652E+03 -0.50455161650E+03  0.57222451064E+03  0.17188886152E+03 0.  0.
         24    2    5    5    0    0 -0.33710934995E+01  0.37589282744E+02 -0.20616486003E+03  0.22487902922E+03  0.81500367027E+02 0.  0.
          5    1    5    5  501    0  0.10113825187E+03  0.14616152377E+03 -0.29838675648E+03  0.34734548142E+03  0.47000000000E+01 0. -1.
        -13    1    6    6    0    0  0.36915055829E+01  0.22056992098E+01  0.72533287027E+01  0.84322653980E+01  0.00000000000E+00 0.  1.
         14    1    6    6    0    0 -0.70625990824E+01  0.35383583534E+02 -0.21341818873E+03  0.21644676382E+03  0.00000000000E+00 0. -1.
         -5    1    3    3    0  503 -0.64509120149E+02 -0.16338158375E+03 -0.16751430817E+03  0.24277170744E+03  0.47000000000E+01 0.  1.
         13    1    4    4    0    0 -0.28703781757E+02 -0.50382726506E+02 -0.17317134426E+02  0.60516190908E+02  0.00000000000E+00 0. -1.
        -14    1    4    4    0    0 -0.45542564684E+01  0.30013503742E+02 -0.18832783989E+02  0.35724297217E+02  0.00000000000E+00 0.  1.
</event>
<event>
12    1  0.9962621E-001  0.1808577E+03  0.7818608E-02  0.1167330E+00
         21   -1    0    0  503  502  0.00000000000E+00  0.00000000000E+00  0.27760918431E+02  0.27760918431E+02  0.00000000000E+00 0. -1.
         21   -1    0    0  501  503 -0.00000000000E+00 -0.00000000000E+00 -0.11961131877E+04  0.11961131877E+04  0.00000000000E+00 0. -1.
          6    2    1    2  501    0  0.51700678104E+02 -0.19196753822E+02 -0.48922899842E+03  0.52108115473E+03  0.17070173240E+03 0.  0.
         24    2    3    3    0    0  0.26472089290E+01  0.43602698781E+02 -0.18007124708E+03  0.20178408412E+03  0.79893426031E+02 0.  0.
         -6    2    1    2    0  502 -0.51700678104E+02  0.19196753822E+02 -0.67912327084E+03  0.70279295139E+03  0.17224412925E+03 0.  0.
        -24    2    5    5    0    0 -0.38935827871E+02 -0.41039239926E+02 -0.23421248686E+03  0.25361702590E+03  0.79157368063E+02 0.  0.
          5    1    3    3  501    0  0.49053469175E+02 -0.62799452604E+02 -0.30915775134E+03  0.31929707061E+03  0.47000000000E+01 0. -1.
        -13    1    4    4    0    0  0.17094322109E+02  0.29563952323E+02 -0.17832318577E+03  0.18156376761E+03  0.00000000000E+00 0.  1.
         14    1    4    4    0    0 -0.14447113180E+02  0.14038746458E+02 -0.17480613078E+01  0.20220316508E+02  0.00000000000E+00 0. -1.
         -5    1    5    5    0  502 -0.12764850233E+02  0.60235993748E+02 -0.44491078398E+03  0.44917592549E+03  0.47000000000E+01 0.  1.
         13    1    6    6    0    0  0.50605715428E+01 -0.19138691346E+01 -0.15410678069E+03  0.15420172546E+03  0.00000000000E+00 0. -1.
        -14    1    6    6    0    0 -0.43996399414E+02 -0.39125370791E+02 -0.80105706176E+02  0.99415300447E+02  0.00000000000E+00 0.  1.
</event>
<event>
12    1  0.9962621E-001  0.1775560E+03  0.7818608E-02  0.1170214E+00
         21   -1    0    0  501  502  0.00000000000E+00  0.00000000000E+00  0.10709572553E+03  0.10709572553E+03  0.00000000000E+00 0.  1.
         21   -1    0    0  502  503 -0.00000000000E+00 -0.00000000000E+00 -0.29499414381E+03  0.29499414381E+03  0.00000000000E+00 0.  1.
         -6    2    1    2    0  503  0.11625435371E+02  0.37909039963E+02 -0.10435568354E+03  0.20595204323E+03  0.17307191963E+03 0.  0.
        -24    2    3    3    0    0  0.52460821587E+02  0.28575868792E+02 -0.28190503318E+01  0.96013811775E+02  0.75113160817E+02 0.  0.
          6    2    1    2  501    0 -0.11625435371E+02 -0.37909039963E+02 -0.83542734735E+02  0.19613782611E+03  0.17296939685E+03 0.  0.
         24    2    5    5    0    0 -0.52502480824E+02  0.26123824384E+02 -0.62478076597E+02  0.11716346075E+03  0.79904954704E+02 0.  0.
          5    1    5    5  501    0  0.40877045453E+02 -0.64032864348E+02 -0.21064658138E+02  0.78974365360E+02  0.47000000000E+01 0. -1.
        -11    1    6    6    0    0 -0.31903733702E+02 -0.60419893833E+01  0.11055529119E+02  0.34301291286E+02  0.00000000000E+00 0.  1.
         12    1    6    6    0    0 -0.20598747122E+02  0.32165813768E+02 -0.73533605717E+02  0.82862169462E+02  0.00000000000E+00 0. -1.
         -5    1    3    3    0  503 -0.40835386217E+02  0.93331711718E+01 -0.10153663321E+03  0.10993823145E+03  0.47000000000E+01 0.  1.
         13    1    4    4    0    0  0.68416273048E+02  0.35393154201E+02 -0.90923098250E+01  0.77563727863E+02  0.00000000000E+00 0. -1.
        -14    1    4    4    0    0 -0.15955451461E+02 -0.68172854091E+01  0.62732594932E+01  0.18450083912E+02  0.00000000000E+00 0.  1.
</event>
<event>
12    1  0.1401452E+000  0.2005509E+03  0.7818608E-02  0.1151202E+00
         21   -1    0    0  503  502  0.00000000000E+00  0.00000000000E+00  0.26311726986E+03  0.26311726986E+03  0.00000000000E+00 0.  1.
         21   -1    0    0  501  503 -0.00000000000E+00 -0.00000000000E+00 -0.28898918244E+03  0.28898918244E+03  0.00000000000E+00 0.  1.
          6    2    1    2  501    0 -0.64388484177E+02 -0.49005037931E+02  0.18098815870E+03  0.27014326630E+03  0.18350286129E+03 0.  0.
         24    2    3    3    0    0  0.19498227346E+02 -0.11277815759E+02  0.14654348715E+03  0.17181296038E+03  0.86817796177E+02 0.  0.
         -6    2    1    2    0  502  0.64388484177E+02  0.49005037931E+02 -0.20686007128E+03  0.28196318600E+03  0.17368010402E+03 0.  0.
        -24    2    5    5    0    0  0.57482479560E+02  0.64882970589E+02 -0.55006771531E+02  0.12905368240E+03  0.78198930292E+02 0.  0.
          5    1    3    3  501    0 -0.83886711523E+02 -0.37727222172E+02  0.34444671551E+02  0.98330305914E+02  0.47000000000E+01 0. -1.
        -13    1    4    4    0    0 -0.24538867799E+02 -0.26306473885E+02  0.98798369800E+02  0.10514420800E+03  0.00000000000E+00 0.  1.
         14    1    4    4    0    0  0.44037095145E+02  0.15028658126E+02  0.47745117348E+02  0.66668752384E+02  0.00000000000E+00 0. -1.
         -5    1    5    5    0  502  0.69060046172E+01 -0.15877932658E+02 -0.15185329975E+03  0.15290950359E+03  0.47000000000E+01 0.  1.
         11    1    6    6    0    0 -0.19518122369E+02  0.11377407787E+02 -0.66335851558E+01  0.23545848058E+02  0.00000000000E+00 0. -1.
        -12    1    6    6    0    0  0.77000601929E+02  0.53505562802E+02 -0.48373186375E+02  0.10550783435E+03  0.00000000000E+00 0.  1.
</event>
<event>
12    1  0.9962621E-001  0.2301073E+03  0.7818608E-02  0.1126635E+00
         21   -1    0    0  503  502  0.00000000000E+00  0.00000000000E+00  0.23261001351E+03  0.23261001351E+03  0.00000000000E+00 0.  1.
         21   -1    0    0  501  503 -0.00000000000E+00 -0.00000000000E+00 -0.27251999160E+03  0.27251999160E+03  0.00000000000E+00 0.  1.
          6    2    1    2  501    0 -0.90916196022E+02  0.12331249842E+03 -0.12289775543E+03  0.26051533940E+03  0.17115097665E+03 0.  0.
         24    2    3    3    0    0 -0.63409294792E+02  0.15459880522E+03 -0.84031451492E+02  0.20334767206E+03  0.79796376168E+02 0.  0.
         -6    2    1    2    0  502  0.90916196022E+02 -0.12331249842E+03  0.82987777338E+02  0.24461466570E+03  0.17169052543E+03 0.  0.
        -24    2    5    5    0    0  0.23330562974E+02  0.75819639266E+01  0.43962294483E+02  0.92147435187E+02  0.77179434630E+02 0.  0.
          5    1    3    3  501    0 -0.27506901230E+02 -0.31286306794E+02 -0.38866303935E+02  0.57167667345E+02  0.47000000000E+01 0. -1.
        -11    1    4    4    0    0  0.17530519074E+02  0.43904812349E+02 -0.29803060086E+02  0.55885365140E+02  0.00000000000E+00 0.  1.
         12    1    4    4    0    0 -0.80939813866E+02  0.11069399287E+03 -0.54228391406E+02  0.14746230691E+03  0.00000000000E+00 0. -1.
         -5    1    5    5    0  502  0.67585633049E+02 -0.13089446235E+03  0.39025482855E+02  0.15246723051E+03  0.47000000000E+01 0.  1.
         13    1    6    6    0    0 -0.28451860854E+02 -0.11270963651E+01  0.15611443357E+02  0.32473002570E+02  0.00000000000E+00 0. -1.
        -14    1    6    6    0    0  0.51782423827E+02  0.87090602917E+01  0.28350851126E+02  0.59674432617E+02  0.00000000000E+00 0.  1.
</event>
<event>
12    1  0.9962621E-001  0.1924957E+03  0.7818608E-02  0.1156418E+00
         21   -1    0    0  503  502  0.00000000000E+00  0.00000000000E+00  0.13717016929E+03  0.13717016929E+03  0.00000000000E+00 0.  1.
         21   -1    0    0  501  503 -0.00000000000E+00 -0.00000000000E+00 -0.27145759215E+03  0.27145759215E+03  0.00000000000E+00 0.  1.
          6    2    1    2  501    0 -0.68525786329E+02  0.50222799448E+02 -0.86644192797E+02  0.21032372971E+03  0.17178690915E+03 0.  0.
         24    2    3    3    0    0  0.12229142045E+02 -0.88936326212E+01 -0.70942563645E+02  0.10891001192E+03  0.81239736236E+02 0.  0.
         -6    2    1    2    0  502  0.68525786329E+02 -0.50222799448E+02 -0.47643230068E+02  0.19830403173E+03  0.17273244818E+03 0.  0.
        -24    2    5    5    0    0  0.82832861776E+02 -0.88558969011E+02 -0.57778820472E+02  0.15588735462E+03  0.79110689867E+02 0.  0.
          5    1    3    3  501    0 -0.80754928374E+02  0.59116432069E+02 -0.15701629152E+02  0.10141371779E+03  0.47000000000E+01 0. -1.
        -11    1    4    4    0    0  0.88708840214E+01  0.35221678394E+02 -0.44213806187E+02  0.57219925461E+02  0.00000000000E+00 0.  1.
         12    1    4    4    0    0  0.33582580238E+01 -0.44115311015E+02 -0.26728757458E+02  0.51690086459E+02  0.00000000000E+00 0. -1.
         -5    1    5    5    0  502 -0.14307075448E+02  0.38336169563E+02  0.10135590404E+02  0.42416677115E+02  0.47000000000E+01 0.  1.
         13    1    6    6    0    0  0.83810518565E+02 -0.71289517176E+02 -0.16666067328E+02  0.11128412322E+03  0.00000000000E+00 0. -1.
        -14    1    6    6    0    0 -0.97765678885E+00 -0.17269451836E+02 -0.41112753145E+02  0.44603231392E+02  0.00000000000E+00 0.  1.
</event>
<event>
12    1  0.9962621E-001  0.2023780E+03  0.7818608E-02  0.1148101E+00
         21   -1    0    0  503  502  0.00000000000E+00  0.00000000000E+00  0.15252898812E+04  0.15252898812E+04  0.00000000000E+00 0. -1.
         21   -1    0    0  501  503 -0.00000000000E+00 -0.00000000000E+00 -0.26682483767E+02  0.26682483767E+02  0.00000000000E+00 0. -1.
          6    2    1    2  501    0  0.78697342061E+02  0.66952070710E+02  0.71112245090E+03  0.73889833004E+03  0.17204578036E+03 0.  0.
         24    2    3    3    0    0  0.60659800574E+02  0.96803967656E+02  0.36003194900E+03  0.38604833475E+03  0.79747682717E+02 0.  0.
         -6    2    1    2    0  502 -0.78697342061E+02 -0.66952070710E+02  0.78748494654E+03  0.81307403493E+03  0.17401434952E+03 0.  0.
        -24    2    5    5    0    0 -0.10465723318E+03 -0.95050717002E+02  0.57581347418E+03  0.59792210703E+03  0.77213429963E+02 0.  0.
          5    1    3    3  501    0  0.18037541487E+02 -0.29851896947E+02  0.35109050190E+03  0.35284999529E+03  0.47000000000E+01 0. -1.
        -13    1    4    4    0    0  0.63466207631E+02  0.38232334135E+02  0.14073900994E+03  0.15905074600E+03  0.00000000000E+00 0.  1.
         14    1    4    4    0    0 -0.28064070572E+01  0.58571633521E+02  0.21929293906E+03  0.22699758875E+03  0.00000000000E+00 0. -1.
         -5    1    5    5    0  502  0.25959891123E+02  0.28098646293E+02  0.21167147235E+03  0.21515192790E+03  0.47000000000E+01 0.  1.
         13    1    6    6    0    0 -0.35156912119E+02 -0.24429148574E+02  0.66705511883E+02  0.79261699990E+02  0.00000000000E+00 0. -1.
        -14    1    6    6    0    0 -0.69500321065E+02 -0.70621568429E+02  0.50910796230E+03  0.51866040704E+03  0.00000000000E+00 0.  1.
</event>
<event>
12    1  0.9962621E-001  0.3254092E+03  0.7818608E-02  0.1073250E+00
         21   -1    0    0  503  502  0.00000000000E+00  0.00000000000E+00  0.13272965788E+04  0.13272965788E+04  0.00000000000E+00 0.  1.
         21   -1    0    0  501  503 -0.00000000000E+00 -0.00000000000E+00 -0.79853902493E+02  0.79853902493E+02  0.00000000000E+00 0.  1.
          6    2    1    2  501    0  0.27619544417E+03 -0.94307729813E+01  0.65954453276E+03  0.73520152384E+03  0.17073203302E+03 0.  0.
         24    2    3    3    0    0  0.14496357404E+03 -0.33977311989E+01  0.51060086843E+03  0.53654476842E+03  0.78364911152E+02 0.  0.
         -6    2    1    2    0  502 -0.27619544417E+03  0.94307729813E+01  0.58789814350E+03  0.67194895741E+03  0.17180893859E+03 0.  0.
        -24    2    5    5    0    0 -0.22609813626E+03  0.44875610353E+02  0.54285174882E+03  0.59567743959E+03  0.83722178814E+02 0.  0.
          5    1    3    3  501    0  0.13123187012E+03 -0.60330417823E+01  0.14894366434E+03  0.19865675542E+03  0.47000000000E+01 0. -1.
        -11    1    4    4    0    0  0.33282143184E+02  0.28774372807E+02  0.20315569557E+03  0.20786510584E+03  0.00000000000E+00 0.  1.
         12    1    4    4    0    0  0.11168143086E+03 -0.32172104006E+02  0.30744517286E+03  0.32867966257E+03  0.00000000000E+00 0. -1.
         -5    1    5    5    0  502 -0.50097307908E+02 -0.35444837372E+02  0.45046394684E+02  0.76271517816E+02  0.47000000000E+01 0.  1.
         13    1    6    6    0    0 -0.16257047581E+03  0.76836093562E+01  0.29253706593E+03  0.33476280020E+03  0.00000000000E+00 0. -1.
        -14    1    6    6    0    0 -0.63527660451E+02  0.37192000997E+02  0.25031468289E+03  0.26091463939E+03  0.00000000000E+00 0.  1.
</event>
<event>
12    1  0.9962621E-001  0.1763972E+03  0.7818608E-02  0.1171557E+00
         21   -1    0    0  501  502  0.00000000000E+00  0.00000000000E+00  0.33835014540E+03  0.33835014540E+03  0.00000000000E+00 0.  1.
         21   -1    0    0  502  503 -0.00000000000E+00 -0.00000000000E+00 -0.10880746409E+03  0.10880746409E+03  0.00000000000E+00 0.  1.
         -6    2    1    2    0  503  0.21847191331E+01 -0.31976117685E+02  0.20369401310E+03  0.26887662694E+03  0.17255765542E+03 0.  0.
        -24    2    3    3    0    0  0.12945092905E+02  0.80591187628E+01  0.21144179251E+03  0.22644168984E+03  0.79597000274E+02 0.  0.
          6    2    1    2  501    0 -0.21847191331E+01  0.31976117685E+02  0.25848668205E+02  0.17828098254E+03  0.17346097541E+03 0.  0.
         24    2    5    5    0    0  0.34244059193E+02  0.74575036860E+02  0.34651913351E+02  0.12134847048E+03  0.82405124083E+02 0.  0.
          5    1    5    5  501    0 -0.36428778326E+02 -0.42598919175E+02 -0.88032451463E+01  0.56932512068E+02  0.47000000000E+01 0. -1.
        -11    1    6    6    0    0 -0.45565846215E+01 -0.16429568029E+02  0.19907412823E+01  0.17165553294E+02  0.00000000000E+00 0.  1.
         12    1    6    6    0    0  0.38800643815E+02  0.91004604889E+02  0.32661172069E+02  0.10418291718E+03  0.00000000000E+00 0. -1.
         -5    1    3    3    0  503 -0.10760373772E+02 -0.40035236447E+02 -0.77477794086E+01  0.42434937102E+02  0.47000000000E+01 0.  1.
         11    1    4    4    0    0  0.14886309166E+02 -0.34909717639E+02  0.94084802961E+02  0.10145068129E+03  0.00000000000E+00 0. -1.
        -12    1    4    4    0    0 -0.19412162606E+01  0.42968836402E+02  0.11735698955E+03  0.12499100855E+03  0.00000000000E+00 0.  1.
</event>
<event>
12    1  0.9962621E-001  0.2864587E+03  0.7818608E-02  0.1092213E+00
         21   -1    0    0  501  502  0.00000000000E+00  0.00000000000E+00  0.24561926011E+03  0.24561926011E+03  0.00000000000E+00 0.  1.
         21   -1    0    0  502  503 -0.00000000000E+00 -0.00000000000E+00 -0.34667691032E+03  0.34667691032E+03  0.00000000000E+00 0. -1.
         -6    2    1    2    0  503  0.76914133471E+02 -0.21537540860E+03 -0.10697746729E+03  0.30578225009E+03  0.17250001567E+03 0.  0.
        -24    2    3    3    0    0  0.44954265643E+02 -0.16900540637E+03 -0.16625845421E+02  0.19921248030E+03  0.93944026899E+02 0.  0.
          6    2    1    2  501    0 -0.76914133471E+02  0.21537540860E+03  0.59198170819E+01  0.28651392033E+03  0.17249009174E+03 0.  0.
         24    2    5    5    0    0 -0.74453984236E+02  0.23816764326E+03  0.13390392951E+02  0.26194894936E+03  0.78553977516E+02 0.  0.
          5    1    5    5  501    0 -0.24601492353E+01 -0.22792234656E+02 -0.74705758686E+01  0.24564970968E+02  0.47000000000E+01 0. -1.
        -11    1    6    6    0    0 -0.81564030271E+01  0.44504605082E+01 -0.14701614656E+02  0.17391692918E+02  0.00000000000E+00 0.  1.
         12    1    6    6    0    0 -0.66297581208E+02  0.23371718275E+03  0.28092007606E+02  0.24455725644E+03  0.00000000000E+00 0. -1.
         -5    1    3    3    0  503  0.31959867828E+02 -0.46370002233E+02 -0.90351621871E+02  0.10656976979E+03  0.47000000000E+01 0.  1.
         11    1    4    4    0    0  0.72791025721E+02 -0.97255946558E+02 -0.74578553742E+01  0.12170814341E+03  0.00000000000E+00 0. -1.
        -12    1    4    4    0    0 -0.27836760077E+02 -0.71749459814E+02 -0.91679900469E+01  0.77504336890E+02  0.00000000000E+00 0.  1.
</event>
<event>
12    1  0.9962621E-001  0.2759560E+03  0.7818608E-02  0.1098051E+00
         21   -1    0    0  501  502  0.00000000000E+00  0.00000000000E+00  0.28487539996E+03  0.28487539996E+03  0.00000000000E+00 0.  1.
         21   -1    0    0  502  503 -0.00000000000E+00 -0.00000000000E+00 -0.31300309135E+03  0.31300309135E+03  0.00000000000E+00 0.  1.
         -6    2    1    2    0  503  0.19239913905E+03  0.96888978597E+02  0.10130810230E+03  0.29307469941E+03  0.17095187908E+03 0.  0.
        -24    2    3    3    0    0  0.16025369595E+03  0.20764723288E+02  0.10772351495E+03  0.21005976534E+03  0.80052036485E+02 0.  0.
          6    2    1    2  501    0 -0.19239913905E+03 -0.96888978597E+02 -0.12943579370E+03  0.30480379190E+03  0.17247267606E+03 0.  0.
         24    2    5    5    0    0 -0.86096877081E+02 -0.60545416162E+02 -0.13923605989E+03  0.19193590166E+03  0.79839152737E+02 0.  0.
          5    1    5    5  501    0 -0.10630226197E+03 -0.36343562436E+02  0.98002661934E+01  0.11286789024E+03  0.47000000000E+01 0. -1.
        -13    1    6    6    0    0  0.10285194064E+02 -0.41127987684E+01  0.26259708628E+01  0.11384026248E+02  0.00000000000E+00 0.  1.
         14    1    6    6    0    0 -0.96382071145E+02 -0.56432617393E+02 -0.14186203076E+03  0.18055187541E+03  0.00000000000E+00 0. -1.
         -5    1    3    3    0  503  0.32145443102E+02  0.76124255309E+02 -0.64154126484E+01  0.83014934066E+02  0.47000000000E+01 0.  1.
         13    1    4    4    0    0  0.12703756349E+03  0.43256758551E+02  0.10398298044E+03  0.16977087477E+03  0.00000000000E+00 0. -1.
        -14    1    4    4    0    0  0.33216132453E+02 -0.22492035263E+02  0.37405345125E+01  0.40288890576E+02  0.00000000000E+00 0.  1.
</event>
<event>
12    1  0.9962621E-001  0.4864544E+03  0.7818608E-02  0.1017406E+00
         21   -1    0    0  503  502  0.00000000000E+00  0.00000000000E+00  0.36856877862E+03  0.36856877862E+03  0.00000000000E+00 0.  1.
         21   -1    0    0  501  503 -0.00000000000E+00 -0.00000000000E+00 -0.70696162013E+03  0.70696162013E+03  0.00000000000E+00 0.  1.
          6    2    1    2  501    0 -0.30687282527E+03 -0.33685634577E+03 -0.33281883613E+03  0.58904404212E+03  0.16900111627E+03 0.  0.
         24    2    3    3    0    0 -0.91178454105E+02 -0.16998339730E+03 -0.10358616557E+03  0.23275714938E+03  0.78980573826E+02 0.  0.
         -6    2    1    2    0  502  0.30687282527E+03  0.33685634577E+03 -0.55740053761E+01  0.48648635663E+03  0.17027852794E+03 0.  0.
        -24    2    5    5    0    0  0.24716738034E+03  0.27992701538E+03 -0.60982015797E+02  0.38699853611E+03  0.81229384212E+02 0.  0.
          5    1    3    3  501    0 -0.21569437116E+03 -0.16687294848E+03 -0.22923267056E+03  0.35628689274E+03  0.47000000000E+01 0. -1.
        -11    1    4    4    0    0 -0.10478688761E+03 -0.13921228006E+03 -0.92865127888E+02  0.19744437878E+03  0.00000000000E+00 0.  1.
         12    1    4    4    0    0  0.13608433508E+02 -0.30771117236E+02 -0.10721037684E+02  0.35312770601E+02  0.00000000000E+00 0. -1.
         -5    1    5    5    0  502  0.59705444925E+02  0.56929330394E+02  0.55408010421E+02  0.99487820519E+02  0.47000000000E+01 0.  1.
         11    1    6    6    0    0  0.53317567426E+02  0.94972597029E+02  0.11274562633E+02  0.10949736501E+03  0.00000000000E+00 0. -1.
        -12    1    6    6    0    0  0.19384981292E+03  0.18495441835E+03 -0.72256578430E+02  0.27750117110E+03  0.00000000000E+00 0.  1.
</event>
<event>
12    1  0.9962621E-001  0.1842434E+03  0.7818608E-02  0.1164346E+00
         21   -1    0    0  501  502  0.00000000000E+00  0.00000000000E+00  0.57629240429E+03  0.57629240429E+03  0.00000000000E+00 0. -1.
         21   -1    0    0  502  503 -0.00000000000E+00 -0.00000000000E+00 -0.63506826770E+02  0.63506826770E+02  0.00000000000E+00 0. -1.
         -6    2    1    2    0  503  0.48425446362E+02  0.31244937699E+02  0.16155819138E+03  0.24318062493E+03  0.17237893477E+03 0.  0.
        -24    2    3    3    0    0 -0.27236971817E+02  0.54683515706E+02  0.70318236566E+02  0.12226334817E+03  0.79193007200E+02 0.  0.
          6    2    1    2  501    0 -0.48425446362E+02 -0.31244937699E+02  0.35122738614E+03  0.39661860613E+03  0.17499820561E+03 0.  0.
         24    2    5    5    0    0 -0.65919990922E+02 -0.19754578920E+02  0.36065507481E+03  0.37318660349E+03  0.66786746057E+02 0.  0.
          5    1    5    5  501    0  0.17494544560E+02 -0.11490358780E+02 -0.94276886642E+01  0.23432002641E+02  0.47000000000E+01 0. -1.
        -11    1    6    6    0    0  0.10248098176E+01  0.11553638264E+02  0.14009084666E+03  0.14057020349E+03  0.00000000000E+00 0.  1.
         12    1    6    6    0    0 -0.66944800739E+02 -0.31308217184E+02  0.22056422815E+03  0.23261640000E+03  0.00000000000E+00 0. -1.
         -5    1    3    3    0  503  0.75662418179E+02 -0.23438578007E+02  0.91239954814E+02  0.12091727676E+03  0.47000000000E+01 0.  1.
         13    1    4    4    0    0  0.14076215235E+02 -0.10445809869E+02 -0.52723487181E+00  0.17536611867E+02  0.00000000000E+00 0. -1.
        -14    1    4    4    0    0 -0.41313187052E+02  0.65129325575E+02  0.70845471438E+02  0.10472673631E+03  0.00000000000E+00 0.  1.
</event>
<event>
12    1  0.9962621E-001  0.2079867E+03  0.7818608E-02  0.1143536E+00
         21   -1    0    0  503  502  0.00000000000E+00  0.00000000000E+00  0.62086135450E+03  0.62086135450E+03  0.00000000000E+00 0. -1.
         21   -1    0    0  501  503 -0.00000000000E+00 -0.00000000000E+00 -0.76909558614E+02  0.76909558614E+02  0.00000000000E+00 0. -1.
          6    2    1    2  501    0 -0.11414088354E+03  0.25525358145E+02  0.15950484481E+03  0.26066917205E+03  0.16978497146E+03 0.  0.
         24    2    3    3    0    0 -0.68830287504E+02 -0.13819784129E+02  0.16930561658E+03  0.19968363720E+03  0.79250036255E+02 0.  0.
         -6    2    1    2    0  502  0.11414088354E+03 -0.25525358145E+02  0.38444695108E+03  0.43710174107E+03  0.17198485005E+03 0.  0.
        -24    2    5    5    0    0  0.11811317169E+02 -0.56509229197E+02  0.21725361189E+03  0.23858966817E+03  0.79956848849E+02 0.  0.
          5    1    3    3  501    0 -0.45310596041E+02  0.39345142273E+02 -0.98007717683E+01  0.60985534853E+02  0.47000000000E+01 0. -1.
        -13    1    4    4    0    0 -0.79055482344E+02 -0.71961759958E+01  0.92390039080E+02  0.12180916862E+03  0.00000000000E+00 0.  1.
         14    1    4    4    0    0  0.10225194841E+02 -0.66236081329E+01  0.76915577501E+02  0.77874468580E+02  0.00000000000E+00 0. -1.
         -5    1    5    5    0  502  0.10232956638E+03  0.30983871052E+02  0.16719333919E+03  0.19851207290E+03  0.47000000000E+01 0.  1.
         11    1    6    6    0    0  0.11309757642E+02 -0.36645770004E+02  0.26062709349E+02  0.46369040272E+02  0.00000000000E+00 0. -1.
        -12    1    6    6    0    0  0.50155952700E+00 -0.19863459193E+02  0.19119090254E+03  0.19222062789E+03  0.00000000000E+00 0.  1.
</event>
<event>
12    1  0.9962621E-001  0.3155542E+03  0.7818608E-02  0.1078040E+00
         21   -1    0    0  501  502  0.00000000000E+00  0.00000000000E+00  0.51349972127E+03  0.51349972127E+03  0.00000000000E+00 0. -1.
         21   -1    0    0  502  503 -0.00000000000E+00 -0.00000000000E+00 -0.19536193100E+03  0.19536193100E+03  0.00000000000E+00 0. -1.
         -6    2    1    2    0  503  0.11604972442E+03  0.23665544054E+03  0.20474970454E+03  0.37616072855E+03  0.17349673229E+03 0.  0.
        -24    2    3    3    0    0  0.59062954960E+02  0.12976839528E+03  0.19387664121E+03  0.25445351494E+03  0.82644843735E+02 0.  0.
          6    2    1    2  501    0 -0.11604972442E+03 -0.23665544054E+03  0.11338808573E+03  0.33270092373E+03  0.16840341621E+03 0.  0.
         24    2    5    5    0    0 -0.14727547697E+03 -0.18938158653E+03  0.11063156265E+03  0.27578384972E+03  0.79132406000E+02 0.  0.
          5    1    5    5  501    0  0.31225752546E+02 -0.47273854006E+02  0.27565230831E+01  0.56917074012E+02  0.47000000000E+01 0. -1.
        -11    1    6    6    0    0 -0.78922235007E+02 -0.64589830867E+02  0.81496888436E+02  0.13054619203E+03  0.00000000000E+00 0.  1.
         12    1    6    6    0    0 -0.68353241959E+02 -0.12479175567E+03  0.29134674210E+02  0.14523765769E+03  0.00000000000E+00 0. -1.
         -5    1    3    3    0  503  0.56986769459E+02  0.10688704526E+03  0.10873063330E+02  0.12170721361E+03  0.47000000000E+01 0.  1.
         13    1    4    4    0    0  0.62346186566E+02  0.40816704890E+02  0.10416416630E+03  0.12807507141E+03  0.00000000000E+00 0. -1.
        -14    1    4    4    0    0 -0.32832316057E+01  0.88951690387E+02  0.89712474913E+02  0.12637844352E+03  0.00000000000E+00 0.  1.
</event>
<event>
12    1  0.9962621E-001  0.2739216E+03  0.7818608E-02  0.1099244E+00
         21   -1    0    0  501  502  0.00000000000E+00  0.00000000000E+00  0.37184236440E+03  0.37184236440E+03  0.00000000000E+00 0. -1.
         21   -1    0    0  502  503 -0.00000000000E+00 -0.00000000000E+00 -0.95164410692E+03  0.95164410692E+03  0.00000000000E+00 0. -1.
         -6    2    1    2    0  503  0.11442887707E+03  0.17921170031E+03 -0.87754544877E+03  0.91890724001E+03  0.17056875342E+03 0.  0.
        -24    2    3    3    0    0  0.56956246125E+02  0.98045041452E+02 -0.71709441522E+03  0.73007463163E+03  0.76991709203E+02 0.  0.
          6    2    1    2  501    0 -0.11442887707E+03 -0.17921170031E+03  0.29774370625E+03  0.40457923131E+03  0.17269116469E+03 0.  0.
         24    2    5    5    0    0 -0.13187848873E+03 -0.15313078264E+03  0.17797040557E+03  0.28067428077E+03  0.79142998707E+02 0.  0.
          5    1    5    5  501    0  0.17449611663E+02 -0.26080917670E+02  0.11977330067E+03  0.12390495054E+03  0.47000000000E+01 0. -1.
        -13    1    6    6    0    0 -0.12342799859E+03 -0.14292526496E+03  0.18609708964E+03  0.26513058853E+03  0.00000000000E+00 0.  1.
         14    1    6    6    0    0 -0.84504901444E+01 -0.10205517678E+02 -0.81266840649E+01  0.15543692246E+02  0.00000000000E+00 0. -1.
         -5    1    3    3    0  503  0.57472630946E+02  0.81166658861E+02 -0.16045103355E+03  0.18883260838E+03  0.47000000000E+01 0.  1.
         11    1    4    4    0    0  0.29907969087E+02  0.26091585471E+02 -0.90995830723E+02  0.99274864172E+02  0.00000000000E+00 0. -1.
        -12    1    4    4    0    0  0.27048277038E+02  0.71953455982E+02 -0.62609858450E+03  0.63079976746E+03  0.00000000000E+00 0.  1.
</event>
<event>
12    1  0.9962621E-001  0.4058650E+03  0.7818608E-02  0.1041805E+00
         21   -1    0    0  503  502  0.00000000000E+00  0.00000000000E+00  0.24049527990E+03  0.24049527990E+03  0.00000000000E+00 0. -1.
         21   -1    0    0  501  503 -0.00000000000E+00 -0.00000000000E+00 -0.69693587851E+03  0.69693587851E+03  0.00000000000E+00 0. -1.
          6    2    1    2  501    0  0.48589527685E+02 -0.36433772953E+03 -0.29167997029E+03  0.49980357855E+03  0.17211475446E+03 0.  0.
         24    2    3    3    0    0  0.30733045210E+02 -0.33448611397E+03 -0.19151074022E+03  0.39366245753E+03  0.73947862317E+02 0.  0.
         -6    2    1    2    0  502 -0.48589527685E+02  0.36433772953E+03 -0.16476062832E+03  0.43762757986E+03  0.17108159062E+03 0.  0.
        -24    2    5    5    0    0 -0.83560843569E+02  0.15735285997E+03 -0.81373316020E+02  0.21170444467E+03  0.80341883308E+02 0.  0.
          5    1    3    3  501    0  0.17856482474E+02 -0.29851615557E+02 -0.10016923008E+03  0.10614112102E+03  0.47000000000E+01 0. -1.
        -11    1    4    4    0    0  0.39689751044E+02 -0.19570871567E+03 -0.78881389662E+02  0.21470782790E+03  0.00000000000E+00 0.  1.
         12    1    4    4    0    0 -0.89567058336E+01 -0.13877739830E+03 -0.11262935055E+03  0.17895462963E+03  0.00000000000E+00 0. -1.
         -5    1    5    5    0  502  0.34971315885E+02  0.20698486956E+03 -0.83387312300E+02  0.22592313519E+03  0.47000000000E+01 0.  1.
         11    1    6    6    0    0 -0.26189667972E+02  0.21782590757E+02  0.13422078427E+02  0.36613278437E+02  0.00000000000E+00 0. -1.
        -12    1    6    6    0    0 -0.57371175597E+02  0.13557026921E+03 -0.94795394447E+02  0.17509116623E+03  0.00000000000E+00 0.  1.
</event>
<event>
12    1  0.9962621E-001  0.1782408E+03  0.7818608E-02  0.1170158E+00
         21   -1    0    0  503  502  0.00000000000E+00  0.00000000000E+00  0.14335991538E+04  0.14335991538E+04  0.00000000000E+00 0.  1.
         21   -1    0    0  501  503 -0.00000000000E+00 -0.00000000000E+00 -0.39123633689E+02  0.39123633689E+02  0.00000000000E+00 0.  1.
          6    2    1    2  501    0  0.40123593897E+02 -0.14101490590E+02  0.11838155722E+04  0.11967746111E+04  0.17041539210E+03 0.  0.
         24    2    3    3    0    0  0.33061032502E+02  0.75828670810E+01  0.28410504882E+03  0.29676282946E+03  0.78752564643E+02 0.  0.
         -6    2    1    2    0  502 -0.40123593897E+02  0.14101490590E+02  0.21065994787E+03  0.27594817639E+03  0.17309254054E+03 0.  0.
        -24    2    5    5    0    0 -0.51734268629E+02  0.15117476424E+02  0.23217257232E+03  0.25103386311E+03  0.78796728663E+02 0.  0.
          5    1    3    3  501    0  0.70625613952E+01 -0.21684357671E+02  0.89971052342E+03  0.90001178164E+03  0.47000000000E+01 0. -1.
        -13    1    4    4    0    0 -0.11375829550E+02 -0.24872071816E+02  0.13698720465E+03  0.13969081463E+03  0.00000000000E+00 0.  1.
         14    1    4    4    0    0  0.44436862052E+02  0.32454938897E+02  0.14711784418E+03  0.15707201483E+03  0.00000000000E+00 0. -1.
         -5    1    5    5    0  502  0.11610674732E+02 -0.10159858334E+01 -0.21512624454E+02  0.24914313273E+02  0.47000000000E+01 0.  1.
         11    1    6    6    0    0 -0.43715911322E+02 -0.22347275532E+01  0.44607386734E+02  0.62497150825E+02  0.00000000000E+00 0. -1.
        -12    1    6    6    0    0 -0.80183573069E+01  0.17352203977E+02  0.18756518559E+03  0.18853671229E+03  0.00000000000E+00 0.  1.
</event>
<event>
12    1  0.9962621E-001  0.2392354E+03  0.7818608E-02  0.1120368E+00
         21   -1    0    0  501  502  0.00000000000E+00  0.00000000000E+00  0.11407574926E+04  0.11407574926E+04  0.00000000000E+00 0. -1.
         21   -1    0    0  502  503 -0.00000000000E+00 -0.00000000000E+00 -0.61999408089E+02  0.61999408089E+02  0.00000000000E+00 0. -1.
         -6    2    1    2    0  503  0.12010116556E+03 -0.11422822493E+03  0.27616835520E+03  0.36538000646E+03  0.17251438017E+03 0.  0.
        -24    2    3    3    0    0  0.98771595332E+01 -0.22215623966E+02  0.50825376340E+02  0.98140042452E+02  0.80356436107E+02 0.  0.
          6    2    1    2  501    0 -0.12010116556E+03  0.11422822493E+03  0.80258972936E+03  0.83737689428E+03  0.17198084793E+03 0.  0.
         24    2    5    5    0    0 -0.82120913617E+02  0.94363700653E+01  0.53194154300E+03  0.54463748258E+03  0.82675829140E+02 0.  0.
          5    1    5    5  501    0 -0.37980251945E+02  0.10479185486E+03  0.27064818636E+03  0.29273941170E+03  0.47000000000E+01 0. -1.
        -13    1    6    6    0    0 -0.96697422396E+02  0.16832817932E+02  0.48756354008E+03  0.49734489127E+03  0.00000000000E+00 0.  1.
         14    1    6    6    0    0  0.14576508779E+02 -0.73964478665E+01  0.44378002926E+02  0.47292591311E+02  0.00000000000E+00 0. -1.
         -5    1    3    3    0  503  0.11022400603E+03 -0.92012600963E+02  0.22534297886E+03  0.26723996400E+03  0.47000000000E+01 0.  1.
         13    1    4    4    0    0  0.43728336556E+00 -0.50578326160E+02  0.17862469944E+02  0.53641645448E+02  0.00000000000E+00 0. -1.
        -14    1    4    4    0    0  0.94398761677E+01  0.28362702194E+02  0.32962906396E+02  0.44498397004E+02  0.00000000000E+00 0.  1.
</event>
<event>
12    1  0.9962621E-001  0.1789961E+03  0.7818608E-02  0.1171312E+00
         21   -1    0    0  501  502  0.00000000000E+00  0.00000000000E+00  0.12647666332E+03  0.12647666332E+03  0.00000000000E+00 0.  1.
         21   -1    0    0  502  503 -0.00000000000E+00 -0.00000000000E+00 -0.68558404802E+03  0.68558404802E+03  0.00000000000E+00 0.  1.
         -6    2    1    2    0  503 -0.37573550240E+02 -0.31408310254E+02  0.45179077160E+02  0.18460973539E+03  0.17216663950E+03 0.  0.
        -24    2    3    3    0    0 -0.10378334777E+02  0.32365491183E+02 -0.20254801082E+02  0.89161529981E+02  0.79901730954E+02 0.  0.
          6    2    1    2  501    0  0.37573550240E+02  0.31408310254E+02 -0.60428646186E+03  0.62745097594E+03  0.16166120621E+03 0.  0.
         24    2    5    5    0    0  0.80699085455E+02  0.25269033966E+02 -0.34349118352E+03  0.36300103795E+03  0.81441352673E+02 0.  0.
          5    1    5    5  501    0 -0.43125535215E+02  0.61392762881E+01 -0.26079527834E+03  0.26444993799E+03  0.47000000000E+01 0. -1.
        -13    1    6    6    0    0  0.75410182699E+01  0.21425620265E+02 -0.16945443233E+02  0.28338528661E+02  0.00000000000E+00 0.  1.
         14    1    6    6    0    0  0.73158067185E+02  0.38434137002E+01 -0.32654574029E+03  0.33466250929E+03  0.00000000000E+00 0. -1.
         -5    1    3    3    0  503 -0.27195215463E+02 -0.63773801437E+02  0.65433878242E+02  0.95448205408E+02  0.47000000000E+01 0.  1.
         11    1    4    4    0    0  0.23032020252E+02 -0.15984162087E+02 -0.55418050137E+01  0.28577596073E+02  0.00000000000E+00 0. -1.
        -12    1    4    4    0    0 -0.33410355029E+02  0.48349653270E+02 -0.14712996068E+02  0.60583933908E+02  0.00000000000E+00 0.  1.
</event>
<event>
12    1  0.9962621E-001  0.1765824E+03  0.7818608E-02  0.1172263E+00
         21   -1    0    0  503  502  0.00000000000E+00  0.00000000000E+00  0.10991750123E+04  0.10991750123E+04  0.00000000000E+00 0. -1.
         21   -1    0    0  501  503 -0.00000000000E+00 -0.00000000000E+00 -0.27925767863E+02  0.27925767863E+02  0.00000000000E+00 0. -1.
          6    2    1    2  501    0  0.29652535323E+02 -0.74232946373E+01  0.48767023322E+03  0.51865557967E+03  0.17391657714E+03 0.  0.
         24    2    3    3    0    0  0.15834115896E+02  0.59832528598E+02  0.19431213413E+03  0.21733289753E+03  0.75138087363E+02 0.  0.
         -6    2    1    2    0  502 -0.29652535323E+02  0.74232946373E+01  0.58357901118E+03  0.60844520045E+03  0.16943058021E+03 0.  0.
        -24    2    5    5    0    0  0.11150870559E+02 -0.19883590940E+02  0.14606076027E+03  0.16815564367E+03  0.80142845626E+02 0.  0.
          5    1    3    3  501    0  0.13818419427E+02 -0.67255823235E+02  0.29335809909E+03  0.30132268214E+03  0.47000000000E+01 0. -1.
        -11    1    4    4    0    0  0.15250497667E+02 -0.10717242016E+02  0.86515985582E+02  0.88501145285E+02  0.00000000000E+00 0.  1.
         12    1    4    4    0    0  0.58361822869E+00  0.70549770614E+02  0.10779614855E+03  0.12883175224E+03  0.00000000000E+00 0. -1.
         -5    1    5    5    0  502 -0.40803405882E+02  0.27306885578E+02  0.43751825091E+03  0.44028955678E+03  0.47000000000E+01 0.  1.
         13    1    6    6    0    0  0.25299883127E+02 -0.41490024705E+02  0.54485427234E+02  0.73007999679E+02  0.00000000000E+00 0. -1.
        -14    1    6    6    0    0 -0.14149012568E+02  0.21606433765E+02  0.91575333037E+02  0.95147643993E+02  0.00000000000E+00 0.  1.
</event>
<event>
12    1  0.9962621E-001  0.1906336E+03  0.7818608E-02  0.1158200E+00
         21   -1    0    0  501  502  0.00000000000E+00  0.00000000000E+00  0.11655122154E+04  0.11655122154E+04  0.00000000000E+00 0.  1.
         21   -1    0    0  502  503 -0.00000000000E+00 -0.00000000000E+00 -0.12377526146E+03  0.12377526146E+03  0.00000000000E+00 0.  1.
         -6    2    1    2    0  503  0.31214544465E+02  0.76699569439E+02  0.10786368675E+04  0.10951154252E+04  0.17018557807E+03 0.  0.
        -24    2    3    3    0    0 -0.31517817422E+02  0.59191383589E+02  0.87744302498E+03  0.88359015947E+03  0.79550707888E+02 0.  0.
          6    2    1    2  501    0 -0.31214544465E+02 -0.76699569439E+02 -0.36899913573E+02  0.19417205159E+03  0.17170908612E+03 0.  0.
         24    2    5    5    0    0 -0.10847754348E+02 -0.44097107418E+02  0.46957028175E+02  0.10180429017E+03  0.78082791611E+02 0.  0.
          5    1    5    5  501    0 -0.20366790117E+02 -0.32602462021E+02 -0.83856941747E+02  0.92367761414E+02  0.47000000000E+01 0. -1.
        -13    1    6    6    0    0  0.21723497394E+02 -0.39714676774E+02  0.96653065556E+00  0.45278030785E+02  0.00000000000E+00 0.  1.
         14    1    6    6    0    0 -0.32571251742E+02 -0.43824306446E+01  0.45990497519E+02  0.56526259389E+02  0.00000000000E+00 0. -1.
         -5    1    3    3    0  503  0.62732361887E+02  0.17508185851E+02  0.20119384248E+03  0.21152526575E+03  0.47000000000E+01 0.  1.
         11    1    4    4    0    0  0.19677287390E+01  0.69036198048E+02  0.56653151825E+03  0.57072570450E+03  0.00000000000E+00 0. -1.
        -12    1    4    4    0    0 -0.33485546161E+02 -0.98448144594E+01  0.31091150672E+03  0.31286445498E+03  0.00000000000E+00 0.  1.
</event>
<event>
12    1  0.9962621E-001  0.2777890E+03  0.7818608E-02  0.1097041E+00
         21   -1    0    0  503  502  0.00000000000E+00  0.00000000000E+00  0.61034738881E+03  0.61034738881E+03  0.00000000000E+00 0.  1.
         21   -1    0    0  501  503 -0.00000000000E+00 -0.00000000000E+00 -0.19933670948E+03  0.19933670948E+03  0.00000000000E+00 0.  1.
          6    2    1    2  501    0 -0.10758086816E+03 -0.18941547744E+03 -0.39858923409E+02  0.28063405799E+03  0.17238002913E+03 0.  0.
         24    2    3    3    0    0 -0.10064326336E+03 -0.48457748387E+02 -0.46252829779E+02  0.13928278004E+03  0.69160311692E+02 0.  0.
         -6    2    1    2    0  502  0.10758086816E+03  0.18941547744E+03  0.45086960274E+03  0.52905004030E+03  0.17075912911E+03 0.  0.
        -24    2    5    5    0    0  0.28798430900E+02  0.14483547958E+03  0.20431488294E+03  0.26636131102E+03  0.86006458217E+02 0.  0.
          5    1    3    3  501    0 -0.69376047936E+01 -0.14095772906E+03  0.63939063701E+01  0.14135127796E+03  0.47000000000E+01 0. -1.
        -11    1    4    4    0    0 -0.72864478860E+01 -0.72696853135E+00 -0.32758597326E+02  0.33567044922E+02  0.00000000000E+00 0.  1.
         12    1    4    4    0    0 -0.93356815477E+02 -0.47730779855E+02 -0.13494232454E+02  0.10571573512E+03  0.00000000000E+00 0. -1.
         -5    1    5    5    0  502  0.78782437257E+02  0.44579997869E+02  0.24655471980E+03  0.26268872927E+03  0.47000000000E+01 0.  1.
         13    1    6    6    0    0  0.48773656381E+02  0.80125538539E+02  0.15986783602E+03  0.18535559467E+03  0.00000000000E+00 0. -1.
        -14    1    6    6    0    0 -0.19975225482E+02  0.64709941036E+02  0.44447046917E+02  0.81005716351E+02  0.00000000000E+00 0.  1.
</event>
<event>
12    1  0.9962621E-001  0.2057008E+03  0.7818608E-02  0.1145150E+00
         21   -1    0    0  503  502  0.00000000000E+00  0.00000000000E+00  0.10513514398E+03  0.10513514398E+03  0.00000000000E+00 0.  1.
         21   -1    0    0  501  503 -0.00000000000E+00 -0.00000000000E+00 -0.49363987530E+03  0.49363987530E+03  0.00000000000E+00 0.  1.
          6    2    1    2  501    0  0.10983838852E+03 -0.83358976365E+01 -0.32407566188E+03  0.38384612456E+03  0.17372062035E+03 0.  0.
         24    2    3    3    0    0  0.30450541906E+02 -0.54185747975E+02 -0.99898864755E+02  0.14160251714E+03  0.78791870747E+02 0.  0.
         -6    2    1    2    0  502 -0.10983838852E+03  0.83358976365E+01 -0.64429069442E+02  0.21492889472E+03  0.17294324507E+03 0.  0.
        -24    2    5    5    0    0  0.32159403374E+00 -0.56699170220E+01 -0.65453865245E+02  0.10377798466E+03  0.80333120464E+02 0.  0.
          5    1    3    3  501    0  0.79387846614E+02  0.45849850339E+02 -0.22417679712E+03  0.24224360742E+03  0.47000000000E+01 0. -1.
        -11    1    4    4    0    0 -0.53727834475E+01 -0.11092951341E+02 -0.81786069632E+02  0.82709621915E+02  0.00000000000E+00 0.  1.
         12    1    4    4    0    0  0.35823325353E+02 -0.43092796635E+02 -0.18112795123E+02  0.58892895228E+02  0.00000000000E+00 0. -1.
         -5    1    5    5    0  502 -0.11015998255E+03  0.14005814658E+02  0.10247958038E+01  0.11115091006E+03  0.47000000000E+01 0.  1.
         11    1    6    6    0    0 -0.12938434834E+02 -0.40018093614E+02 -0.24362326811E+02  0.48604257839E+02  0.00000000000E+00 0. -1.
        -12    1    6    6    0    0  0.13260028867E+02  0.34348176592E+02 -0.41091538434E+02  0.55173726824E+02  0.00000000000E+00 0.  1.
</event>
<event>
12    1  0.9962621E-001  0.2383255E+03  0.7818608E-02  0.1121157E+00
         21   -1    0    0  501  502  0.00000000000E+00  0.00000000000E+00  0.47000392717E+03  0.47000392717E+03  0.00000000000E+00 0. -1.
         21   -1    0    0  502  503 -0.00000000000E+00 -0.00000000000E+00 -0.12101022286E+03  0.12101022286E+03  0.00000000000E+00 0. -1.
         -6    2    1    2    0  503 -0.86188501368E+02 -0.13880660628E+03  0.20041756747E+03  0.31139405351E+03  0.17350309363E+03 0.  0.
        -24    2    3    3    0    0  0.73797740257E+01 -0.88101641410E+02  0.52007883882E+02  0.12870979090E+03  0.77749791029E+02 0.  0.
          6    2    1    2  501    0  0.86188501368E+02  0.13880660628E+03  0.14857613684E+03  0.27962009651E+03  0.17151325960E+03 0.  0.
         24    2    5    5    0    0  0.62883066056E+02  0.15693516977E+03  0.82211556129E+02  0.20683180279E+03  0.86242258658E+02 0.  0.
          5    1    5    5  501    0  0.23305435313E+02 -0.18128563488E+02  0.66364580711E+02  0.72788293717E+02  0.47000000000E+01 0. -1.
        -13    1    6    6    0    0  0.13900343043E+02  0.26416903319E+02  0.58148841340E+02  0.65363292963E+02  0.00000000000E+00 0.  1.
         14    1    6    6    0    0  0.48982723012E+02  0.13051826645E+03  0.24062714789E+02  0.14146850983E+03  0.00000000000E+00 0. -1.
         -5    1    3    3    0  503 -0.93568275394E+02 -0.50704964868E+02  0.14840968359E+03  0.18268426261E+03  0.47000000000E+01 0.  1.
         11    1    4    4    0    0 -0.23761736167E+02 -0.33693473652E+02  0.51560891187E+02  0.66018147297E+02  0.00000000000E+00 0. -1.
        -12    1    4    4    0    0  0.31141510193E+02 -0.54408167757E+02  0.44699269500E+00  0.62691643608E+02  0.00000000000E+00 0.  1.
</event>
<event>
12    1  0.9962621E-001  0.2211412E+03  0.7818608E-02  0.1133178E+00
         21   -1    0    0  503  502  0.00000000000E+00  0.00000000000E+00  0.16448358768E+04  0.16448358768E+04  0.00000000000E+00 0.  1.
         21   -1    0    0  501  503 -0.00000000000E+00 -0.00000000000E+00 -0.31262976016E+02  0.31262976016E+02  0.00000000000E+00 0.  1.
          6    2    1    2  501    0  0.56868156361E+02 -0.12818924327E+03  0.99978153025E+03  0.10239465512E+04  0.17098819293E+03 0.  0.
         24    2    3    3    0    0  0.44236670265E+02 -0.13282401134E+03  0.53262448607E+03  0.55657215152E+03  0.80527111623E+02 0.  0.
         -6    2    1    2    0  502 -0.56868156361E+02  0.12818924327E+03  0.61379137052E+03  0.65215230163E+03  0.16998914290E+03 0.  0.
        -24    2    5    5    0    0 -0.76336022065E+02  0.14352585974E+03  0.41878248020E+03  0.45551871624E+03  0.75443186890E+02 0.  0.
          5    1    3    3  501    0  0.12631486096E+02  0.46347680675E+01  0.46715704418E+03  0.46737439965E+03  0.47000000000E+01 0. -1.
        -11    1    4    4    0    0  0.41513570510E+02 -0.12659817602E+03  0.53334950097E+03  0.54973826945E+03  0.00000000000E+00 0.  1.
         12    1    4    4    0    0  0.27230997549E+01 -0.62258353150E+01 -0.72501489997E+00  0.68338820775E+01  0.00000000000E+00 0. -1.
         -5    1    5    5    0  502  0.19467865705E+02 -0.15336616465E+02  0.19500889032E+03  0.19663358539E+03  0.47000000000E+01 0.  1.
         11    1    6    6    0    0  0.15379131591E+02  0.16867007988E+02  0.51566193175E+02  0.56392250581E+02  0.00000000000E+00 0. -1.
        -12    1    6    6    0    0 -0.91715153657E+02  0.12665885175E+03  0.36721628702E+03  0.39912646566E+03  0.00000000000E+00 0.  1.
</event>
<event>
12    1  0.9962621E-001  0.1869623E+03  0.7818608E-02  0.1162915E+00
         21   -1    0    0  503  502  0.00000000000E+00  0.00000000000E+00  0.38333892729E+03  0.38333892729E+03  0.00000000000E+00 0. -1.
         21   -1    0    0  501  503 -0.00000000000E+00 -0.00000000000E+00 -0.88843241521E+02  0.88843241521E+02  0.00000000000E+00 0. -1.
          6    2    1    2  501    0 -0.17458524658E+02 -0.54887384319E+02  0.17659531663E+03  0.25717854938E+03  0.17786926481E+03 0.  0.
         24    2    3    3    0    0 -0.63849435304E+02 -0.31804555358E+02  0.47554198527E+02  0.11804324205E+03  0.81145086524E+02 0.  0.
         -6    2    1    2    0  502  0.17458524658E+02  0.54887384319E+02  0.11790036914E+03  0.21500361943E+03  0.17031921291E+03 0.  0.
        -24    2    5    5    0    0  0.21365866394E+02  0.24912799444E+02 -0.55792062853E+01  0.87791046920E+02  0.81234183406E+02 0.  0.
          5    1    3    3  501    0  0.46390910645E+02 -0.23082828961E+02  0.12904111811E+03  0.13913530733E+03  0.47000000000E+01 0. -1.
        -13    1    4    4    0    0  0.50937385078E+01 -0.95459916117E+01  0.44214378402E+02  0.45519044205E+02  0.00000000000E+00 0.  1.
         14    1    4    4    0    0 -0.68943173811E+02 -0.22258563746E+02  0.33398201248E+01  0.72524197849E+02  0.00000000000E+00 0. -1.
         -5    1    5    5    0  502 -0.39073417361E+01  0.29974584875E+02  0.12347957543E+03  0.12721257251E+03  0.47000000000E+01 0.  1.
         11    1    6    6    0    0  0.55793778160E+00 -0.26181267742E+02  0.13441699678E+02  0.29435511978E+02  0.00000000000E+00 0. -1.
        -12    1    6    6    0    0  0.20807928613E+02  0.51094067186E+02 -0.19020905963E+02  0.58355534943E+02  0.00000000000E+00 0.  1.
</event>
<event>
12    1  0.9962621E-001  0.2915299E+03  0.7818608E-02  0.1089570E+00
         21   -1    0    0  501  502  0.00000000000E+00  0.00000000000E+00  0.58527257050E+03  0.58527257050E+03  0.00000000000E+00 0.  1.
         21   -1    0    0  502  503 -0.00000000000E+00 -0.00000000000E+00 -0.14584494512E+03  0.14584494512E+03  0.00000000000E+00 0. -1.
         -6    2    1    2    0  503 -0.97959920829E+02  0.21436926796E+03  0.24493286451E+03  0.38066368649E+03  0.17135461755E+03 0.  0.
        -24    2    3    3    0    0 -0.25264076271E+02  0.26703190843E+02  0.58010908283E+02  0.10595447652E+03  0.80683032073E+02 0.  0.
          6    2    1    2  501    0  0.97959920829E+02 -0.21436926796E+03  0.19449476087E+03  0.35045382913E+03  0.17157897661E+03 0.  0.
         24    2    5    5    0    0  0.62451804906E+02 -0.20816089415E+03  0.10612107931E+03  0.25489563852E+03  0.80491721743E+02 0.  0.
          5    1    5    5  501    0  0.35508115923E+02 -0.62083738085E+01  0.88373681561E+02  0.95558190619E+02  0.47000000000E+01 0. -1.
        -13    1    6    6    0    0 -0.11710151817E+02 -0.97715971531E+02  0.38680238345E+02  0.10574355577E+03  0.00000000000E+00 0.  1.
         14    1    6    6    0    0  0.74161956723E+02 -0.11044492262E+03  0.67440840965E+02  0.14915208275E+03  0.00000000000E+00 0. -1.
         -5    1    3    3    0  503 -0.72695844557E+02  0.18766607712E+03  0.18692195623E+03  0.27470920996E+03  0.47000000000E+01 0.  1.
         13    1    4    4    0    0 -0.55072191722E+01  0.14744251218E+02  0.75412826163E+02  0.77037761889E+02  0.00000000000E+00 0. -1.
        -14    1    4    4    0    0 -0.19756857099E+02  0.11958939624E+02 -0.17401917879E+02  0.28916714634E+02  0.00000000000E+00 0.  1.
</event>
<event>
12    1  0.9962621E-001  0.1977644E+03  0.7818608E-02  0.1151725E+00
         21   -1    0    0  503  502  0.00000000000E+00  0.00000000000E+00  0.40660229147E+03  0.40660229147E+03  0.00000000000E+00 0.  1.
         21   -1    0    0  501  503 -0.00000000000E+00 -0.00000000000E+00 -0.14527549560E+03  0.14527549560E+03  0.00000000000E+00 0.  1.
          6    2    1    2  501    0  0.85835581181E+02 -0.39066966900E+02 -0.29964057162E+02  0.20002153390E+03  0.17382978572E+03 0.  0.
         24    2    3    3    0    0  0.10885470555E+03 -0.73367536569E+02 -0.38115661836E+02  0.15765470932E+03  0.78549738074E+02 0.  0.
         -6    2    1    2    0  502 -0.85835581181E+02  0.39066966900E+02  0.29129085303E+03  0.35185625318E+03  0.17337383580E+03 0.  0.
        -24    2    5    5    0    0 -0.12332620935E+03  0.28494977140E+01  0.21385599861E+03  0.25839236200E+03  0.76254514926E+02 0.  0.
          5    1    3    3  501    0 -0.23019124367E+02  0.34300569670E+02  0.81516046741E+01  0.42366824581E+02  0.47000000000E+01 0. -1.
        -13    1    4    4    0    0  0.39241938354E+02  0.10321563222E+02 -0.25844984795E+02  0.48108498544E+02  0.00000000000E+00 0.  1.
         14    1    4    4    0    0  0.69612767194E+02 -0.83689099792E+02 -0.12270677041E+02  0.10954621078E+03  0.00000000000E+00 0. -1.
         -5    1    5    5    0  502  0.37490628173E+02  0.36217469186E+02  0.77434854418E+02  0.93463891176E+02  0.47000000000E+01 0.  1.
         13    1    6    6    0    0 -0.72211302010E+02  0.30744386757E+02  0.78321389950E+02  0.11087799411E+03  0.00000000000E+00 0. -1.
        -14    1    6    6    0    0 -0.51114907344E+02 -0.27894889044E+02  0.13553460866E+03  0.14751436789E+03  0.00000000000E+00 0.  1.
</event>
<event>
12    1  0.9962621E-001  0.3289222E+03  0.7818608E-02  0.1071639E+00
         21   -1    0    0  503  502  0.00000000000E+00  0.00000000000E+00  0.15733399472E+03  0.15733399472E+03  0.00000000000E+00 0. -1.
         21   -1    0    0  501  503 -0.00000000000E+00 -0.00000000000E+00 -0.69672137224E+03  0.69672137224E+03  0.00000000000E+00 0.  1.
          6    2    1    2  501    0 -0.27922852825E+03  0.27059520475E+02 -0.31957781820E+03  0.45844693520E+03  0.17129746604E+03 0.  0.
         24    2    3    3    0    0 -0.29587862032E+03  0.27037070615E+02 -0.31565047425E+03  0.44070601921E+03  0.79444397680E+02 0.  0.
         -6    2    1    2    0  502  0.27922852825E+03 -0.27059520475E+02 -0.21980955932E+03  0.39560843176E+03  0.17172361595E+03 0.  0.
        -24    2    5    5    0    0  0.85428135463E+02 -0.22692065207E+02 -0.26094139992E+02  0.12151826303E+03  0.79201565361E+02 0.  0.
          5    1    3    3  501    0  0.16650092064E+02  0.22449860285E-01 -0.39273439450E+01  0.17740915991E+02  0.47000000000E+01 0. -1.
        -13    1    4    4    0    0 -0.73532114084E+02  0.38147491174E+02 -0.10940511557E+03  0.13722857646E+03  0.00000000000E+00 0.  1.
         14    1    4    4    0    0 -0.22234650623E+03 -0.11110420559E+02 -0.20624535869E+03  0.30347744275E+03  0.00000000000E+00 0. -1.
         -5    1    5    5    0  502  0.19380039279E+03 -0.43674552681E+01 -0.19371541932E+03  0.27409016873E+03  0.47000000000E+01 0.  1.
         13    1    6    6    0    0  0.36921243334E-01  0.22127082582E+02 -0.69959771952E+01  0.23206741341E+02  0.00000000000E+00 0. -1.
        -14    1    6    6    0    0  0.85391214220E+02 -0.44819147789E+02 -0.19098162797E+02  0.98311521688E+02  0.00000000000E+00 0.  1.
</event>
<event>
12    1  0.9962621E-001  0.4448133E+03  0.7818608E-02  0.1029320E+00
         21   -1    0    0  501  502  0.00000000000E+00  0.00000000000E+00  0.17232385498E+03  0.17232385498E+03  0.00000000000E+00 0.  1.
         21   -1    0    0  502  503 -0.00000000000E+00 -0.00000000000E+00 -0.12606062883E+04  0.12606062883E+04  0.00000000000E+00 0.  1.
         -6    2    1    2    0  503 -0.20367561053E+03  0.35601934352E+03 -0.32917307285E+03  0.55336583104E+03  0.17212002727E+03 0.  0.
        -24    2    3    3    0    0 -0.18236111017E+03  0.29992101099E+03 -0.33685184989E+03  0.49268317738E+03  0.77841872806E+02 0.  0.
          6    2    1    2  501    0  0.20367561053E+03 -0.35601934352E+03 -0.75910936049E+03  0.87956431226E+03  0.17074200107E+03 0.  0.
         24    2    5    5    0    0  0.98504715791E+02 -0.21780349260E+03 -0.32037320350E+03  0.40767868629E+03  0.80133521781E+02 0.  0.
          5    1    5    5  501    0  0.10517089474E+03 -0.13821585092E+03 -0.43873615698E+03  0.47188562596E+03  0.47000000000E+01 0. -1.
        -11    1    6    6    0    0  0.45531414110E+01 -0.38119328559E+02 -0.10537071252E+03  0.11214633905E+03  0.00000000000E+00 0.  1.
         12    1    6    6    0    0  0.93951574380E+02 -0.17968416404E+03 -0.21500249099E+03  0.29553234724E+03  0.00000000000E+00 0. -1.
         -5    1    3    3    0  503 -0.21314500360E+02  0.56098332534E+02  0.76787770407E+01  0.60682653662E+02  0.47000000000E+01 0.  1.
         11    1    4    4    0    0 -0.12204976570E+03  0.13712826382E+03 -0.14492294251E+03  0.23388665057E+03  0.00000000000E+00 0. -1.
        -12    1    4    4    0    0 -0.60311344464E+02  0.16279274717E+03 -0.19192890738E+03  0.25879652681E+03  0.00000000000E+00 0.  1.
</event>
<event>
12    1  0.9962621E-001  0.2662406E+03  0.7818608E-02  0.1103562E+00
         21   -1    0    0  501  502  0.00000000000E+00  0.00000000000E+00  0.88668625431E+02  0.88668625431E+02  0.00000000000E+00 0. -1.
         21   -1    0    0  502  503 -0.00000000000E+00 -0.00000000000E+00 -0.97986015102E+03  0.97986015102E+03  0.00000000000E+00 0.  1.
         -6    2    1    2    0  503 -0.20086211542E+03  0.16418834794E+02 -0.67683390688E+03  0.72731575302E+03  0.17397959520E+03 0.  0.
        -24    2    3    3    0    0 -0.50860890121E+02  0.38261073699E+02 -0.38770813065E+03  0.40082952747E+03  0.79347184068E+02 0.  0.
          6    2    1    2  501    0  0.20086211542E+03 -0.16418834794E+02 -0.21435761871E+03  0.34121302343E+03  0.17280616631E+03 0.  0.
         24    2    5    5    0    0  0.14773930424E+03 -0.70761582636E+02 -0.11332753509E+03  0.21470478217E+03  0.80130578948E+02 0.  0.
          5    1    5    5  501    0  0.53122811174E+02  0.54342747842E+02 -0.10103008362E+03  0.12650824126E+03  0.47000000000E+01 0. -1.
        -11    1    6    6    0    0  0.17195152964E+02 -0.72813983085E+01 -0.55314408152E+02  0.58381296628E+02  0.00000000000E+00 0.  1.
         12    1    6    6    0    0  0.13054415128E+03 -0.63480184327E+02 -0.58013126939E+02  0.15632348555E+03  0.00000000000E+00 0. -1.
         -5    1    3    3    0  503 -0.15000122530E+03 -0.21842238905E+02 -0.28912577623E+03  0.32648622555E+03  0.47000000000E+01 0.  1.
         11    1    4    4    0    0 -0.62193423448E+02  0.44609722791E+02 -0.22616232362E+03  0.23876232096E+03  0.00000000000E+00 0. -1.
        -12    1    4    4    0    0  0.11332533327E+02 -0.63486490918E+01 -0.16154580703E+03  0.16206720651E+03  0.00000000000E+00 0.  1.
</event>
<event>
12    1  0.9962621E-001  0.2062845E+03  0.7818608E-02  0.1144620E+00
         21   -1    0    0  501  502  0.00000000000E+00  0.00000000000E+00  0.24469960595E+03  0.24469960595E+03  0.00000000000E+00 0. -1.
         21   -1    0    0  502  503 -0.00000000000E+00 -0.00000000000E+00 -0.17512948366E+03  0.17512948366E+03  0.00000000000E+00 0. -1.
         -6    2    1    2    0  503 -0.58702466735E+02 -0.97432571555E+02  0.54562519965E+02  0.21337848417E+03  0.17208783607E+03 0.  0.
        -24    2    3    3    0    0  0.26605982626E+02  0.47958128091E+01 -0.81263718010E+01  0.66136638039E+02  0.59809186924E+02 0.  0.
          6    2    1    2  501    0  0.58702466735E+02  0.97432571555E+02  0.15007602325E+02  0.20645060544E+03  0.17163198641E+03 0.  0.
         24    2    5    5    0    0  0.95165241059E+01  0.10845803560E+03  0.52463618320E+02  0.14347552351E+03  0.77324542566E+02 0.  0.
          5    1    5    5  501    0  0.49185942629E+02 -0.11025464044E+02 -0.37456015996E+02  0.62975081929E+02  0.47000000000E+01 0. -1.
        -11    1    6    6    0    0  0.42094662222E+02  0.61607970465E+02  0.41459986891E+02  0.85360606402E+02  0.00000000000E+00 0.  1.
         12    1    6    6    0    0 -0.32578138116E+02  0.46850065134E+02  0.11003631430E+02  0.58114917111E+02  0.00000000000E+00 0. -1.
         -5    1    3    3    0  503 -0.85308449361E+02 -0.10222838436E+03  0.62688891766E+02  0.14724184613E+03  0.47000000000E+01 0.  1.
         11    1    4    4    0    0  0.26374428799E+02 -0.22686007328E+02 -0.14877849926E+02  0.37836699663E+02  0.00000000000E+00 0. -1.
        -12    1    4    4    0    0  0.23155382687E+00  0.27481820137E+02  0.67514781249E+01  0.28299938376E+02  0.00000000000E+00 0.  1.
</event>
<event>
12    1  0.9962621E-001  0.2113453E+03  0.7818608E-02  0.1140536E+00
         21   -1    0    0  503  502  0.00000000000E+00  0.00000000000E+00  0.46711065529E+03  0.46711065529E+03  0.00000000000E+00 0.  1.
         21   -1    0    0  501  503 -0.00000000000E+00 -0.00000000000E+00 -0.15919347891E+03  0.15919347891E+03  0.00000000000E+00 0.  1.
          6    2    1    2  501    0  0.19320628604E+02  0.12168950145E+03 -0.44074678435E+02  0.21573733742E+03  0.17151792916E+03 0.  0.
         24    2    3    3    0    0 -0.31584329006E+02  0.62076870767E+02 -0.77254026266E+02  0.13048512590E+03  0.78784997198E+02 0.  0.
         -6    2    1    2    0  502 -0.19320628604E+02 -0.12168950145E+03  0.35199185482E+03  0.41056679678E+03  0.17171257178E+03 0.  0.
        -24    2    5    5    0    0 -0.42382201830E+02 -0.10131616474E+02  0.10895104613E+03  0.14211210312E+03  0.80166194350E+02 0.  0.
          5    1    3    3  501    0  0.50904957610E+02  0.59612630683E+02  0.33179347831E+02  0.85252211518E+02  0.47000000000E+01 0. -1.
        -13    1    4    4    0    0 -0.14909247681E+02 -0.17421376927E+02 -0.24884984862E+02  0.33838624559E+02  0.00000000000E+00 0.  1.
         14    1    4    4    0    0 -0.16675081325E+02  0.79498247695E+02 -0.52369041404E+02  0.96646501340E+02  0.00000000000E+00 0. -1.
         -5    1    5    5    0  502  0.23061573226E+02 -0.11155788498E+03  0.24304080869E+03  0.26845469366E+03  0.47000000000E+01 0.  1.
         11    1    6    6    0    0 -0.48108875138E+02 -0.37858907345E+02  0.86533910737E+02  0.10599942660E+03  0.00000000000E+00 0. -1.
        -12    1    6    6    0    0  0.57266733078E+01  0.27727290871E+02  0.22417135391E+02  0.36112676519E+02  0.00000000000E+00 0.  1.
</event>
<event>
12    1  0.9962621E-001  0.2125061E+03  0.7818608E-02  0.1139856E+00
         21   -1    0    0  503  502  0.00000000000E+00  0.00000000000E+00  0.77387446908E+02  0.77387446908E+02  0.00000000000E+00 0. -1.
         21   -1    0    0  501  503 -0.00000000000E+00 -0.00000000000E+00 -0.10725389126E+04  0.10725389126E+04  0.00000000000E+00 0. -1.
          6    2    1    2  501    0  0.43923753555E+02 -0.11390941429E+03 -0.10875087459E+03  0.23871659461E+03  0.17393737099E+03 0.  0.
         24    2    3    3    0    0  0.51498303974E+02 -0.69677106156E+02 -0.14081384436E+03  0.18336323042E+03  0.79287836841E+02 0.  0.
         -6    2    1    2    0  502 -0.43923753555E+02  0.11390941429E+03 -0.88640059112E+03  0.91120976492E+03  0.17231534160E+03 0.  0.
        -24    2    5    5    0    0 -0.37093551482E+02  0.13358092752E+03 -0.86926147225E+03  0.88383350715E+03  0.79538452781E+02 0.  0.
          5    1    3    3  501    0 -0.75745504185E+01 -0.44232308132E+02  0.32062969772E+02  0.55353364192E+02  0.47000000000E+01 0. -1.
        -11    1    4    4    0    0  0.44081810357E+02  0.15417000866E+01 -0.38910796358E+02  0.58818644295E+02  0.00000000000E+00 0.  1.
         12    1    4    4    0    0  0.74164936171E+01 -0.71218806242E+02 -0.10190304800E+03  0.12454458612E+03  0.00000000000E+00 0. -1.
         -5    1    5    5    0  502 -0.68302020736E+01 -0.19671513236E+02 -0.17139118871E+02  0.27376257762E+02  0.47000000000E+01 0.  1.
         11    1    6    6    0    0 -0.10139283411E+02  0.13238684526E+03 -0.73242023828E+03  0.74435776836E+03  0.00000000000E+00 0. -1.
        -12    1    6    6    0    0 -0.26954268071E+02  0.11940822656E+01 -0.13684123397E+03  0.13947573880E+03  0.00000000000E+00 0.  1.
</event>
<event>
12    1  0.9962621E-001  0.2271086E+03  0.7818608E-02  0.1129022E+00
         21   -1    0    0  503  502  0.00000000000E+00  0.00000000000E+00  0.70816400781E+02  0.70816400781E+02  0.00000000000E+00 0.  1.
         21   -1    0    0  501  503 -0.00000000000E+00 -0.00000000000E+00 -0.74356906803E+03  0.74356906803E+03  0.00000000000E+00 0.  1.
          6    2    1    2  501    0  0.38742428032E+02 -0.14486647026E+03 -0.26641523071E+03  0.34888741851E+03  0.16810141495E+03 0.  0.
         24    2    3    3    0    0 -0.87561054024E+00 -0.11407810262E+03 -0.90179741734E+02  0.16558834559E+03  0.79199331958E+02 0.  0.
         -6    2    1    2    0  502 -0.38742428032E+02  0.14486647026E+03 -0.40633743654E+03  0.46549805030E+03  0.17056099367E+03 0.  0.
        -24    2    5    5    0    0 -0.48282247737E+02  0.45298424058E+02 -0.10307213996E+03  0.14612877486E+03  0.79665740048E+02 0.  0.
          5    1    3    3  501    0  0.39618038573E+02 -0.30788367632E+02 -0.17623548897E+03  0.18329907292E+03  0.47000000000E+01 0. -1.
        -13    1    4    4    0    0  0.27791727891E+02 -0.15832717133E+02 -0.48722588073E+01  0.32354195661E+02  0.00000000000E+00 0.  1.
         14    1    4    4    0    0 -0.28667338431E+02 -0.98245385490E+02 -0.85307482926E+02  0.13323414992E+03  0.00000000000E+00 0. -1.
         -5    1    5    5    0  502  0.95398197042E+01  0.99568046198E+02 -0.30326529659E+03  0.31936927544E+03  0.47000000000E+01 0.  1.
         13    1    6    6    0    0  0.19845489326E+02  0.25383045762E+02 -0.38163422215E+02  0.49945863232E+02  0.00000000000E+00 0. -1.
        -14    1    6    6    0    0 -0.68127737063E+02  0.19915378295E+02 -0.64908717741E+02  0.96182911625E+02  0.00000000000E+00 0.  1.
</event>
<event>
12    1  0.9962621E-001  0.2708750E+03  0.7818608E-02  0.1100806E+00
         21   -1    0    0  503  502  0.00000000000E+00  0.00000000000E+00  0.46190083078E+03  0.46190083078E+03  0.00000000000E+00 0.  1.
         21   -1    0    0  501  503 -0.00000000000E+00 -0.00000000000E+00 -0.20530277060E+03  0.20530277060E+03  0.00000000000E+00 0. -1.
          6    2    1    2  501    0  0.16716396872E+02 -0.20849438181E+03  0.28713392308E+03  0.39461282503E+03  0.17182562883E+03 0.  0.
         24    2    3    3    0    0 -0.34839131409E+01 -0.69957777606E+02  0.41817415429E+02  0.11211906907E+03  0.76913985188E+02 0.  0.
         -6    2    1    2    0  502 -0.16716396872E+02  0.20849438181E+03 -0.30535862910E+02  0.27259077634E+03  0.17211608655E+03 0.  0.
        -24    2    5    5    0    0 -0.38150723857E+02  0.34546251531E+02 -0.27285184560E+01  0.95072549650E+02  0.79890072339E+02 0.  0.
          5    1    3    3  501    0  0.20200310013E+02 -0.13853660421E+03  0.24531650766E+03  0.28249375596E+03  0.47000000000E+01 0. -1.
        -13    1    4    4    0    0 -0.20892100649E+02 -0.12455716807E+02  0.45852335256E+02  0.51904348557E+02  0.00000000000E+00 0.  1.
         14    1    4    4    0    0  0.17408187508E+02 -0.57502060799E+02 -0.40349198264E+01  0.60214720513E+02  0.00000000000E+00 0. -1.
         -5    1    5    5    0  502  0.21434326985E+02  0.17394813028E+03 -0.27807344454E+02  0.17751822669E+03  0.47000000000E+01 0.  1.
         11    1    6    6    0    0 -0.53068799882E+01  0.19442473201E+02 -0.38976817549E+02  0.43878981821E+02  0.00000000000E+00 0. -1.
        -12    1    6    6    0    0 -0.32843843869E+02  0.15103778330E+02  0.36248299093E+02  0.51193567829E+02  0.00000000000E+00 0.  1.
</event>
<event>
12    1  0.9962621E-001  0.1986061E+03  0.7818608E-02  0.1151517E+00
         21   -1    0    0  503  502  0.00000000000E+00  0.00000000000E+00  0.74845652193E+03  0.74845652193E+03  0.00000000000E+00 0. -1.
         21   -1    0    0  501  503 -0.00000000000E+00 -0.00000000000E+00 -0.52321977537E+02  0.52321977537E+02  0.00000000000E+00 0. -1.
          6    2    1    2  501    0 -0.28487708740E+02 -0.91699627641E+02  0.31260584956E+03  0.36887732109E+03  0.17066836138E+03 0.  0.
         24    2    3    3    0    0  0.21415508755E+02  0.54943956410E+01  0.12725920163E+03  0.15367397730E+03  0.83258480056E+02 0.  0.
         -6    2    1    2    0  502  0.28487708740E+02  0.91699627641E+02  0.38352869483E+03  0.43190117838E+03  0.17385050149E+03 0.  0.
        -24    2    5    5    0    0  0.57522391599E+02  0.12131021971E+03  0.28300944645E+03  0.32306180468E+03  0.79054335262E+02 0.  0.
          5    1    3    3  501    0 -0.49903217495E+02 -0.97194023282E+02  0.18534664793E+03  0.21520334379E+03  0.47000000000E+01 0. -1.
        -13    1    4    4    0    0  0.55036237544E+01 -0.25290779473E+02  0.46952940014E+01  0.26305117117E+02  0.00000000000E+00 0.  1.
         14    1    4    4    0    0  0.15911885001E+02  0.30785175114E+02  0.12256390763E+03  0.12736886019E+03  0.00000000000E+00 0. -1.
         -5    1    5    5    0  502 -0.29034682859E+02 -0.29610592070E+02  0.10051924839E+03  0.10883937370E+03  0.47000000000E+01 0.  1.
         13    1    6    6    0    0 -0.66065001698E+01  0.51072632012E+01 -0.20676262236E+01  0.86026193744E+01  0.00000000000E+00 0. -1.
        -14    1    6    6    0    0  0.64128891769E+02  0.11620295651E+03  0.28507707267E+03  0.31445918530E+03  0.00000000000E+00 0.  1.
</event>
<event>
12    1  0.9962621E-001  0.4063428E+03  0.7818608E-02  0.1041639E+00
         21   -1    0    0  501  502  0.00000000000E+00  0.00000000000E+00  0.12983110832E+04  0.12983110832E+04  0.00000000000E+00 0. -1.
         21   -1    0    0  502  503 -0.00000000000E+00 -0.00000000000E+00 -0.14563955812E+03  0.14563955812E+03  0.00000000000E+00 0. -1.
         -6    2    1    2    0  503 -0.23440813973E+03  0.28514454540E+03  0.83449345876E+03  0.92816690002E+03  0.16988194089E+03 0.  0.
        -24    2    3    3    0    0 -0.14058801901E+03  0.10121087161E+03  0.30222373716E+03  0.35723173913E+03  0.79162469141E+02 0.  0.
          6    2    1    2  501    0  0.23440813973E+03 -0.28514454540E+03  0.31817806627E+03  0.51578374126E+03  0.16894081256E+03 0.  0.
         24    2    5    5    0    0  0.20749076957E+03 -0.15082777202E+03  0.21880640862E+03  0.34648413473E+03  0.79834672264E+02 0.  0.
          5    1    5    5  501    0  0.26917370161E+02 -0.13431677338E+03  0.99371657656E+02  0.16929960653E+03  0.47000000000E+01 0. -1.
        -13    1    6    6    0    0  0.13357464906E+03 -0.13422161261E+03  0.18043825980E+03  0.26156374704E+03  0.00000000000E+00 0.  1.
         14    1    6    6    0    0  0.73916120513E+02 -0.16606159409E+02  0.38368148814E+02  0.84920387690E+02  0.00000000000E+00 0. -1.
         -5    1    3    3    0  503 -0.93820120722E+02  0.18393367378E+03  0.53226972160E+03  0.57093516089E+03  0.47000000000E+01 0.  1.
         11    1    4    4    0    0 -0.11526102552E+03  0.42426975495E+02  0.22990125283E+03  0.26065252407E+03  0.00000000000E+00 0. -1.
        -12    1    4    4    0    0 -0.25326993490E+02  0.58783896118E+02  0.72322484331E+02  0.96579215062E+02  0.00000000000E+00 0.  1.
</event>
<event>
12    1  0.9962621E-001  0.2238156E+03  0.7818608E-02  0.1133492E+00
         21   -1    0    0  503  502  0.00000000000E+00  0.00000000000E+00  0.18144666767E+03  0.18144666767E+03  0.00000000000E+00 0.  1.
         21   -1    0    0  501  503 -0.00000000000E+00 -0.00000000000E+00 -0.37007458154E+03  0.37007458154E+03  0.00000000000E+00 0.  1.
          6    2    1    2  501    0  0.80564920487E+02 -0.11870677940E+03 -0.24240636433E+03  0.32133534715E+03  0.15464007879E+03 0.  0.
         24    2    3    3    0    0  0.63445705248E+02 -0.92545238932E+02 -0.25314255996E+03  0.28794598317E+03  0.79004777053E+02 0.  0.
         -6    2    1    2    0  502 -0.80564920487E+02  0.11870677940E+03  0.53778450458E+02  0.23018590206E+03  0.17178888755E+03 0.  0.
        -24    2    5    5    0    0 -0.99256170400E+02  0.61527569080E+02 -0.20504300826E+01  0.14798019169E+03  0.90865305528E+02 0.  0.
          5    1    3    3  501    0  0.17119215238E+02 -0.26161540468E+02  0.10736195630E+02  0.33389363975E+02  0.47000000000E+01 0. -1.
        -13    1    4    4    0    0 -0.22548547726E+01  0.10784655292E+02 -0.70707833675E+01  0.13091567410E+02  0.00000000000E+00 0.  1.
         14    1    4    4    0    0  0.65700560021E+02 -0.10332989422E+03 -0.24607177660E+03  0.27485441576E+03  0.00000000000E+00 0. -1.
         -5    1    5    5    0  502  0.18691249914E+02  0.57179210321E+02  0.55828880540E+02  0.82205710378E+02  0.47000000000E+01 0.  1.
         11    1    6    6    0    0  0.32008429896E+00 -0.19399507637E+02 -0.31779742554E+01  0.19660693551E+02  0.00000000000E+00 0. -1.
        -12    1    6    6    0    0 -0.99576254699E+02  0.80927076717E+02  0.11275441728E+01  0.12831949814E+03  0.00000000000E+00 0.  1.
</event>
<event>
12    1  0.9962621E-001  0.2378522E+03  0.7818608E-02  0.1121313E+00
         21   -1    0    0  503  502  0.00000000000E+00  0.00000000000E+00  0.17653995687E+04  0.17653995687E+04  0.00000000000E+00 0.  1.
         21   -1    0    0  501  503 -0.00000000000E+00 -0.00000000000E+00 -0.40602894872E+02  0.40602894872E+02  0.00000000000E+00 0.  1.
          6    2    1    2  501    0  0.52907112695E+02  0.15548760492E+03  0.44560126061E+03  0.50488196128E+03  0.17137605874E+03 0.  0.
         24    2    3    3    0    0 -0.17987074564E+02  0.59384275344E+02  0.11245476409E+03  0.15094621303E+03  0.79301060856E+02 0.  0.
         -6    2    1    2    0  502 -0.52907112695E+02 -0.15548760492E+03  0.12791954132E+04  0.13011205023E+04  0.17204097893E+03 0.  0.
        -24    2    5    5    0    0 -0.37912423517E+02 -0.13311905548E+03  0.57655509237E+03  0.59794861492E+03  0.77257600014E+02 0.  0.
          5    1    3    3  501    0  0.70894187259E+02  0.96103329579E+02  0.33314649651E+03  0.35393574824E+03  0.47000000000E+01 0. -1.
        -13    1    4    4    0    0  0.19963364023E+02  0.21644583678E+02  0.36246153704E+01  0.29667519989E+02  0.00000000000E+00 0.  1.
         14    1    4    4    0    0 -0.37950438588E+02  0.37739691665E+02  0.10883014872E+03  0.12127869304E+03  0.00000000000E+00 0. -1.
         -5    1    5    5    0  502 -0.14994689178E+02 -0.22368549442E+02  0.70264032087E+03  0.70317188739E+03  0.47000000000E+01 0.  1.
         13    1    6    6    0    0  0.22266764770E+02 -0.52697746661E+02  0.18014094990E+03  0.18900693941E+03  0.00000000000E+00 0. -1.
        -14    1    6    6    0    0 -0.60179188288E+02 -0.80421308820E+02  0.39641414247E+03  0.40894167551E+03  0.00000000000E+00 0.  1.
</event>
<event>
12    1  0.9962621E-001  0.1953605E+03  0.7818608E-02  0.1153797E+00
         21   -1    0    0  501  502  0.00000000000E+00  0.00000000000E+00  0.56775325435E+03  0.56775325435E+03  0.00000000000E+00 0. -1.
         21   -1    0    0  502  503 -0.00000000000E+00 -0.00000000000E+00 -0.11550008309E+03  0.11550008309E+03  0.00000000000E+00 0. -1.
         -6    2    1    2    0  503  0.86140074882E+02 -0.38242294597E+02  0.44716754956E+03  0.48782665661E+03  0.17068521884E+03 0.  0.
        -24    2    3    3    0    0 -0.38680688631E+01 -0.60423124353E+02  0.26547068168E+03  0.28379406867E+03  0.79990466088E+02 0.  0.
          6    2    1    2  501    0 -0.86140074882E+02  0.38242294597E+02  0.50856217037E+01  0.19542668083E+03  0.17112316744E+03 0.  0.
         24    2    5    5    0    0 -0.14989053223E+02 -0.17177027291E+02  0.46541213754E+02  0.96056538257E+02  0.80876770344E+02 0.  0.
          5    1    5    5  501    0 -0.71151021660E+02  0.55419321888E+02 -0.41455592050E+02  0.99370142568E+02  0.47000000000E+01 0. -1.
        -13    1    6    6    0    0 -0.74526707506E+01 -0.15281602615E+02 -0.21591521960E+02  0.27482057790E+02  0.00000000000E+00 0.  1.
         14    1    6    6    0    0 -0.75363824720E+01 -0.18954246757E+01  0.68132735714E+02  0.68574480467E+02  0.00000000000E+00 0. -1.
         -5    1    3    3    0  503  0.90008143746E+02  0.22180829756E+02  0.18169686787E+03  0.20403258795E+03  0.47000000000E+01 0.  1.
         13    1    4    4    0    0 -0.52807247301E+01 -0.35855955776E+02  0.30020062216E+02  0.47061021597E+02  0.00000000000E+00 0. -1.
        -14    1    4    4    0    0  0.14126558670E+01 -0.24567168577E+02  0.23545061946E+03  0.23673304707E+03  0.00000000000E+00 0.  1.
</event>
<event>
12    1  0.9962621E-001  0.1976355E+03  0.7818608E-02  0.1152239E+00
         21   -1    0    0  503  502  0.00000000000E+00  0.00000000000E+00  0.54106385044E+02  0.54106385044E+02  0.00000000000E+00 0. -1.
         21   -1    0    0  501  503 -0.00000000000E+00 -0.00000000000E+00 -0.10117818920E+04  0.10117818920E+04  0.00000000000E+00 0.  1.
          6    2    1    2  501    0 -0.71980932580E+02 -0.65348615943E+02 -0.19148749021E+03  0.27518582663E+03  0.17206999743E+03 0.  0.
         24    2    3    3    0    0  0.10436441859E+02  0.98311244129E+00 -0.12142439127E+03  0.14820768035E+03  0.84331179837E+02 0.  0.
         -6    2    1    2    0  502  0.71980932580E+02  0.65348615943E+02 -0.76618801671E+03  0.79070245037E+03  0.16945380435E+03 0.  0.
        -24    2    5    5    0    0  0.33022662229E+02  0.63489306764E+02 -0.23597564405E+03  0.25903671517E+03  0.79335533837E+02 0.  0.
          5    1    3    3  501    0 -0.82417374439E+02 -0.66331728385E+02 -0.70063098939E+02  0.12697814628E+03  0.47000000000E+01 0. -1.
        -13    1    4    4    0    0  0.29804219918E+02 -0.22657870061E+02 -0.20346228110E+02  0.42610322680E+02  0.00000000000E+00 0.  1.
         14    1    4    4    0    0 -0.19367778059E+02  0.23640982502E+02 -0.10107816316E+03  0.10559735767E+03  0.00000000000E+00 0. -1.
         -5    1    5    5    0  502  0.38958270351E+02  0.18593091791E+01 -0.53021237267E+03  0.53166573520E+03  0.47000000000E+01 0.  1.
         13    1    6    6    0    0  0.44684803482E+02  0.76980103927E+02 -0.19611316235E+03  0.21536722246E+03  0.00000000000E+00 0. -1.
        -14    1    6    6    0    0 -0.11662141253E+02 -0.13490797163E+02 -0.39862481698E+02  0.43669492713E+02  0.00000000000E+00 0.  1.
</event>
<event>
12    1  0.9962621E-001  0.2320286E+03  0.7818608E-02  0.1126026E+00
         21   -1    0    0  503  502  0.00000000000E+00  0.00000000000E+00  0.12776529424E+03  0.12776529424E+03  0.00000000000E+00 0. -1.
         21   -1    0    0  501  503 -0.00000000000E+00 -0.00000000000E+00 -0.41357789929E+03  0.41357789929E+03  0.00000000000E+00 0. -1.
          6    2    1    2  501    0  0.12203770482E+03  0.90296273639E+02 -0.13217415130E+03  0.26305910320E+03  0.16936194104E+03 0.  0.
         24    2    3    3    0    0  0.29004277436E+02  0.91369257505E+02 -0.30497199555E+02  0.12515818797E+03  0.74464108856E+02 0.  0.
         -6    2    1    2    0  502 -0.12203770482E+03 -0.90296273639E+02 -0.15363845375E+03  0.27828409033E+03  0.17547262474E+03 0.  0.
        -24    2    5    5    0    0 -0.52587768703E+02 -0.12142802927E+03 -0.89800733132E+02  0.17883649404E+03  0.80050485440E+02 0.  0.
          5    1    3    3  501    0  0.93033427384E+02 -0.10729838655E+01 -0.10167695174E+03  0.13790091523E+03  0.47000000000E+01 0. -1.
        -13    1    4    4    0    0  0.22211453914E+02  0.80094690369E+02 -0.53363965752E+02  0.98773584278E+02  0.00000000000E+00 0.  1.
         14    1    4    4    0    0  0.67928235221E+01  0.11274567136E+02  0.22866766197E+02  0.26384603689E+02  0.00000000000E+00 0. -1.
         -5    1    5    5    0  502 -0.69449936117E+02  0.31131755635E+02 -0.63837720613E+02  0.99447596294E+02  0.47000000000E+01 0.  1.
         13    1    6    6    0    0  0.69626339587E+01  0.17722247542E+01  0.79160809319E+01  0.10690340946E+02  0.00000000000E+00 0. -1.
        -14    1    6    6    0    0 -0.59550402662E+02 -0.12320025403E+03 -0.97716814064E+02  0.16814615309E+03  0.00000000000E+00 0.  1.
</event>
<event>
12    1  0.9962621E-001  0.2274126E+03  0.7818608E-02  0.1128927E+00
         21   -1    0    0  503  502  0.00000000000E+00  0.00000000000E+00  0.23857170057E+03  0.23857170057E+03  0.00000000000E+00 0.  1.
         21   -1    0    0  501  503 -0.00000000000E+00 -0.00000000000E+00 -0.26078697510E+03  0.26078697510E+03  0.00000000000E+00 0.  1.
          6    2    1    2  501    0 -0.55569348154E+02 -0.13438882556E+03  0.94269277723E+02  0.24384910192E+03  0.17154410189E+03 0.  0.
         24    2    3    3    0    0 -0.93773551179E+02 -0.10164279877E+03  0.10304146833E+03  0.19255675622E+03  0.85649417556E+02 0.  0.
         -6    2    1    2    0  502  0.55569348154E+02  0.13438882556E+03 -0.11648455225E+03  0.25550957375E+03  0.17483758885E+03 0.  0.
        -24    2    5    5    0    0  0.42353312393E+02  0.14617408091E+03 -0.38587244448E+02  0.17548684943E+03  0.78396389511E+02 0.  0.
          5    1    3    3  501    0  0.38204203025E+02 -0.32746026792E+02 -0.87721906045E+01  0.51292345701E+02  0.47000000000E+01 0. -1.
        -13    1    4    4    0    0 -0.20718071840E+02  0.10544944527E+02 -0.59232604556E+00  0.23254788883E+02  0.00000000000E+00 0.  1.
         14    1    4    4    0    0 -0.73055479340E+02 -0.11218774330E+03  0.10363379437E+03  0.16930196734E+03  0.00000000000E+00 0. -1.
         -5    1    5    5    0  502  0.13216035762E+02 -0.11785255349E+02 -0.77897307801E+02  0.80022724320E+02  0.47000000000E+01 0.  1.
         11    1    6    6    0    0  0.62996058193E+02  0.10686738428E+03 -0.41970673280E+02  0.13096059937E+03  0.00000000000E+00 0. -1.
        -12    1    6    6    0    0 -0.20642745800E+02  0.39306696628E+02  0.33834288319E+01  0.44526250063E+02  0.00000000000E+00 0.  1.
</event>
<event>
12    1  0.9962621E-001  0.2003603E+03  0.7818608E-02  0.1150764E+00
         21   -1    0    0  501  502  0.00000000000E+00  0.00000000000E+00  0.15761103983E+03  0.15761103983E+03  0.00000000000E+00 0.  1.
         21   -1    0    0  502  503 -0.00000000000E+00 -0.00000000000E+00 -0.25425659259E+03  0.25425659259E+03  0.00000000000E+00 0.  1.
         -6    2    1    2    0  503 -0.88426097869E+02 -0.12243251359E+02 -0.12492443669E+02  0.19455218500E+03  0.17241061322E+03 0.  0.
        -24    2    3    3    0    0 -0.58860294165E+02 -0.32144789860E+02  0.54867361484E+02  0.11820009705E+03  0.80392871843E+02 0.  0.
          6    2    1    2  501    0  0.88426097869E+02  0.12243251359E+02 -0.84153109091E+02  0.21731544742E+03  0.17937442942E+03 0.  0.
         24    2    5    5    0    0  0.11221023679E+01 -0.36433876904E+02 -0.79776883058E+02  0.11715212179E+03  0.77663260748E+02 0.  0.
          5    1    5    5  501    0  0.87303995501E+02  0.48677128263E+02 -0.43762260331E+01  0.10016332563E+03  0.47000000000E+01 0. -1.
        -11    1    6    6    0    0 -0.91734794480E+01  0.23354458331E+02 -0.21893329049E+02  0.33300169759E+02  0.00000000000E+00 0.  1.
         12    1    6    6    0    0  0.10295581816E+02 -0.59788335235E+02 -0.57883554009E+02  0.83851952033E+02  0.00000000000E+00 0. -1.
         -5    1    3    3    0  503 -0.29565803704E+02  0.19901538500E+02 -0.67359805153E+02  0.76352087945E+02  0.47000000000E+01 0.  1.
         11    1    4    4    0    0 -0.21121924183E+02 -0.14613332340E+02  0.69497219709E+02  0.74091488786E+02  0.00000000000E+00 0. -1.
        -12    1    4    4    0    0 -0.37738369982E+02 -0.17531457520E+02 -0.14629858225E+02  0.44108608268E+02  0.00000000000E+00 0.  1.
</event>
<event>
12    1  0.9962621E-001  0.2946097E+03  0.7818608E-02  0.1088071E+00
         21   -1    0    0  503  502  0.00000000000E+00  0.00000000000E+00  0.19084130133E+04  0.19084130133E+04  0.00000000000E+00 0. -1.
         21   -1    0    0  501  503 -0.00000000000E+00 -0.00000000000E+00 -0.81618543588E+02  0.81618543588E+02  0.00000000000E+00 0. -1.
          6    2    1    2  501    0  0.23939400655E+03 -0.35824450335E+01  0.15773420495E+04  0.16046192108E+04  0.17167570120E+03 0.  0.
         24    2    3    3    0    0  0.15966487006E+03 -0.87074712161E+00  0.13844665790E+04  0.13958439114E+04  0.78351055211E+02 0.  0.
         -6    2    1    2    0  502 -0.23939400655E+03  0.35824450335E+01  0.24945242018E+03  0.38541234602E+03  0.17027578291E+03 0.  0.
        -24    2    5    5    0    0 -0.21318486795E+03 -0.12256327705E+02  0.13342876268E+03  0.26532335915E+03  0.83637579517E+02 0.  0.
          5    1    3    3  501    0  0.79729136491E+02 -0.27116979118E+01  0.19287547051E+03  0.20877529939E+03  0.47000000000E+01 0. -1.
        -11    1    4    4    0    0  0.66499761578E+02  0.33663494330E+02  0.45272903091E+03  0.45882352225E+03  0.00000000000E+00 0.  1.
         12    1    4    4    0    0  0.93165108484E+02 -0.34534241452E+02  0.93173754807E+03  0.93702038919E+03  0.00000000000E+00 0. -1.
         -5    1    5    5    0  502 -0.26209138603E+02  0.15838772738E+02  0.11602365750E+03  0.12008898687E+03  0.47000000000E+01 0.  1.
         11    1    6    6    0    0 -0.40034436311E+02  0.20601004661E+02  0.12806498315E+01  0.45042175211E+02  0.00000000000E+00 0. -1.
        -12    1    6    6    0    0 -0.17315043164E+03 -0.32857332365E+02  0.13214811285E+03  0.22028118394E+03  0.00000000000E+00 0.  1.
</event>
<event>
12    1  0.9962621E-001  0.2158023E+03  0.7818608E-02  0.1137125E+00
         21   -1    0    0  503  502  0.00000000000E+00  0.00000000000E+00  0.14839772371E+03  0.14839772371E+03  0.00000000000E+00 0. -1.
         21   -1    0    0  501  503 -0.00000000000E+00 -0.00000000000E+00 -0.41469149027E+03  0.41469149027E+03  0.00000000000E+00 0. -1.
          6    2    1    2  501    0  0.26593305795E+02  0.12746577286E+03 -0.27229378905E+03  0.34720352502E+03  0.17161483929E+03 0.  0.
         24    2    3    3    0    0  0.66256647872E+02  0.13548911210E+03 -0.19353881495E+03  0.25853565810E+03  0.81462695355E+02 0.  0.
         -6    2    1    2    0  502 -0.26593305795E+02 -0.12746577286E+03  0.60000224852E+01  0.21588568896E+03  0.17209271706E+03 0.  0.
        -24    2    5    5    0    0  0.46931015463E+02 -0.63644199171E+02  0.23984288732E+02  0.11676685666E+03  0.82499384283E+02 0.  0.
          5    1    3    3  501    0 -0.39663342078E+02 -0.80233392388E+01 -0.78754974106E+02  0.88667866918E+02  0.47000000000E+01 0. -1.
        -11    1    4    4    0    0  0.24003168866E+02  0.81262369337E+02 -0.16216907798E+03  0.18297140388E+03  0.00000000000E+00 0.  1.
         12    1    4    4    0    0  0.42253479007E+02  0.54226742761E+02 -0.31369736972E+02  0.75564254224E+02  0.00000000000E+00 0. -1.
         -5    1    5    5    0  502 -0.73524321258E+02 -0.63821573688E+02 -0.17984266247E+02  0.99118832302E+02  0.47000000000E+01 0.  1.
         13    1    6    6    0    0  0.37331984293E+02 -0.48377462572E+02 -0.23888281348E+02  0.65610257749E+02  0.00000000000E+00 0. -1.
        -14    1    6    6    0    0  0.95990311707E+01 -0.15266736599E+02  0.47872570080E+02  0.51156598908E+02  0.00000000000E+00 0.  1.
</event>
<event>
12    1  0.9962621E-001  0.4357310E+03  0.7818608E-02  0.1032511E+00
         21   -1    0    0  503  502  0.00000000000E+00  0.00000000000E+00  0.12115110097E+04  0.12115110097E+04  0.00000000000E+00 0.  1.
         21   -1    0    0  501  503 -0.00000000000E+00 -0.00000000000E+00 -0.18732676834E+03  0.18732676834E+03  0.00000000000E+00 0. -1.
          6    2    1    2  501    0  0.20878078749E+03 -0.33435256148E+03  0.22284940418E+03  0.48941126159E+03  0.18568918503E+03 0.  0.
         24    2    3    3    0    0  0.12206711562E+03 -0.86698864718E+02  0.12193020186E+03  0.20823802352E+03  0.77968111800E+02 0.  0.
         -6    2    1    2    0  502 -0.20878078749E+03  0.33435256148E+03  0.80133483720E+03  0.90942651647E+03  0.17186627056E+03 0.  0.
        -24    2    5    5    0    0 -0.78184962846E+02  0.75576926454E+02  0.32565562513E+03  0.35236915722E+03  0.79294870922E+02 0.  0.
          5    1    3    3  501    0  0.86713671876E+02 -0.24765369676E+03  0.10091920233E+03  0.28117323807E+03  0.47000000000E+01 0. -1.
        -13    1    4    4    0    0  0.25673766157E+01 -0.10993506058E+02  0.46642073915E+02  0.47988870139E+02  0.00000000000E+00 0.  1.
         14    1    4    4    0    0  0.11949973900E+03 -0.75705358660E+02  0.75288127941E+02  0.16024915339E+03  0.00000000000E+00 0. -1.
         -5    1    5    5    0  502 -0.13059582465E+03  0.25877563502E+03  0.47567921207E+03  0.55705735925E+03  0.47000000000E+01 0.  1.
         13    1    6    6    0    0 -0.72555897003E+02  0.72496034628E+02  0.18470284629E+03  0.21127038282E+03  0.00000000000E+00 0. -1.
        -14    1    6    6    0    0 -0.56290658430E+01  0.30808918259E+01  0.14095277884E+03  0.14109877440E+03  0.00000000000E+00 0.  1.
</event>
<event>
12    1  0.9962621E-001  0.1939533E+03  0.7818608E-02  0.1155437E+00
         21   -1    0    0  503  502  0.00000000000E+00  0.00000000000E+00  0.12706634145E+03  0.12706634145E+03  0.00000000000E+00 0. -1.
         21   -1    0    0  501  503 -0.00000000000E+00 -0.00000000000E+00 -0.32388517736E+03  0.32388517736E+03  0.00000000000E+00 0. -1.
          6    2    1    2  501    0  0.26670548037E+02  0.84476683049E+02 -0.16791943008E+03  0.25485696335E+03  0.17002208285E+03 0.  0.
         24    2    3    3    0    0 -0.43899071841E+02  0.22041737534E+02 -0.95095142112E+02  0.13567785197E+03  0.83381213470E+02 0.  0.
         -6    2    1    2    0  502 -0.26670548037E+02 -0.84476683049E+02 -0.28899405835E+02  0.19609455546E+03  0.17254063553E+03 0.  0.
        -24    2    5    5    0    0  0.49357444475E+02 -0.63194978389E+02 -0.20932532483E+02  0.11660413044E+03  0.82027981200E+02 0.  0.
          5    1    3    3  501    0  0.70569619878E+02  0.62434945516E+02 -0.72824287968E+02  0.11917911138E+03  0.47000000000E+01 0. -1.
        -13    1    4    4    0    0 -0.57183154323E+01  0.40331358529E+02 -0.81669686981E+02  0.91264754334E+02  0.00000000000E+00 0.  1.
         14    1    4    4    0    0 -0.38180756409E+02 -0.18289620995E+02 -0.13425455131E+02  0.44413097635E+02  0.00000000000E+00 0. -1.
         -5    1    5    5    0  502 -0.76027992513E+02 -0.21281704660E+02 -0.79668733515E+01  0.79490425019E+02  0.47000000000E+01 0.  1.
         11    1    6    6    0    0  0.28119656301E+02 -0.43925690638E+02 -0.52467702536E+02  0.73980005257E+02  0.00000000000E+00 0. -1.
        -12    1    6    6    0    0  0.21237788175E+02 -0.19269287752E+02  0.31535170053E+02  0.42624125179E+02  0.00000000000E+00 0.  1.
</event>
<event>
12    1  0.9962621E-001  0.2062328E+03  0.7818608E-02  0.1144680E+00
         21   -1    0    0  503  502  0.00000000000E+00  0.00000000000E+00  0.54583035559E+03  0.54583035559E+03  0.00000000000E+00 0.  1.
         21   -1    0    0  501  503 -0.00000000000E+00 -0.00000000000E+00 -0.12457621559E+03  0.12457621559E+03  0.00000000000E+00 0.  1.
          6    2    1    2  501    0 -0.63685432716E+01  0.11379273596E+03  0.41630011464E+03  0.46458341153E+03  0.17187965475E+03 0.  0.
         24    2    3    3    0    0  0.35980079303E+02  0.99211582235E+02  0.17856361076E+03  0.22261905226E+03  0.80850325830E+02 0.  0.
         -6    2    1    2    0  502  0.63685432716E+01 -0.11379273596E+03  0.49540253667E+01  0.20582315966E+03  0.17131633192E+03 0.  0.
        -24    2    5    5    0    0  0.66801397658E+02 -0.62500005340E+02 -0.22743577291E+02  0.12172606519E+03  0.77014850796E+02 0.  0.
          5    1    3    3  501    0 -0.42348622575E+02  0.14581153728E+02  0.23773650388E+03  0.24196435926E+03  0.47000000000E+01 0. -1.
        -11    1    4    4    0    0  0.16981674026E+02 -0.11425113562E+02  0.32385920038E+02  0.38311333693E+02  0.00000000000E+00 0.  1.
         12    1    4    4    0    0  0.18998405278E+02  0.11063669580E+03  0.14617769072E+03  0.18430771857E+03  0.00000000000E+00 0. -1.
         -5    1    5    5    0  502 -0.60432854386E+02 -0.51292730622E+02  0.27697602658E+02  0.84097094462E+02  0.47000000000E+01 0.  1.
         13    1    6    6    0    0  0.33931987366E+02  0.13224403466E+02 -0.13241797102E+01  0.36441982185E+02  0.00000000000E+00 0. -1.
        -14    1    6    6    0    0  0.32869410292E+02 -0.75724408806E+02 -0.21419397581E+02  0.85284083009E+02  0.00000000000E+00 0.  1.
</event>
<event>
12    1  0.9962621E-001  0.1807587E+03  0.7818608E-02  0.1167419E+00
         21   -1    0    0  501  502  0.00000000000E+00  0.00000000000E+00  0.10846270111E+04  0.10846270111E+04  0.00000000000E+00 0.  1.
         21   -1    0    0  502  503 -0.00000000000E+00 -0.00000000000E+00 -0.50942329072E+02  0.50942329072E+02  0.00000000000E+00 0.  1.
         -6    2    1    2    0  503  0.12728378876E+02 -0.53471573309E+02  0.88310223898E+03  0.90141182298E+03  0.17219898177E+03 0.  0.
        -24    2    3    3    0    0 -0.55711440284E+02 -0.35615428172E+02  0.45297838917E+03  0.46548583505E+03  0.84352938776E+02 0.  0.
          6    2    1    2  501    0 -0.12728378876E+02  0.53471573309E+02  0.15058244303E+03  0.23415751718E+03  0.17068523639E+03 0.  0.
         24    2    5    5    0    0 -0.61068908700E+02  0.53521020906E+02  0.14666987493E+03  0.18543167745E+03  0.79239784832E+02 0.  0.
          5    1    5    5  501    0  0.48340529824E+02 -0.49447596975E-01  0.39125681008E+01  0.48725839735E+02  0.47000000000E+01 0. -1.
        -13    1    6    6    0    0 -0.31311513697E+02 -0.16717751708E+02  0.62201648264E+02  0.71616612311E+02  0.00000000000E+00 0.  1.
         14    1    6    6    0    0 -0.29757395003E+02  0.70238772615E+02  0.84468226665E+02  0.11381506514E+03  0.00000000000E+00 0. -1.
         -5    1    3    3    0  503  0.68439819160E+02 -0.17856145137E+02  0.43012384982E+03  0.43592598792E+03  0.47000000000E+01 0.  1.
         11    1    4    4    0    0 -0.34600260122E+02 -0.53331960926E+02  0.17581502771E+03  0.18695560978E+03  0.00000000000E+00 0. -1.
        -12    1    4    4    0    0 -0.21111180162E+02  0.17716532754E+02  0.27716336145E+03  0.27853022528E+03  0.00000000000E+00 0.  1.
</event>
<event>
12    1  0.9962621E-001  0.2022516E+03  0.7818608E-02  0.1148384E+00
         21   -1    0    0  503  502  0.00000000000E+00  0.00000000000E+00  0.17615752390E+03  0.17615752390E+03  0.00000000000E+00 0. -1.
         21   -1    0    0  501  503 -0.00000000000E+00 -0.00000000000E+00 -0.25106080240E+03  0.25106080240E+03  0.00000000000E+00 0. -1.
          6    2    1    2  501    0 -0.10376495049E+03 -0.29480062682E+02 -0.10054049676E+03  0.22586303066E+03  0.17108324898E+03 0.  0.
         24    2    3    3    0    0 -0.94357092746E+02 -0.60895353161E+02 -0.12363172901E+03  0.18548081588E+03  0.80664884888E+02 0.  0.
         -6    2    1    2    0  502  0.10376495049E+03  0.29480062682E+02  0.25637218261E+02  0.20135529565E+03  0.16807869906E+03 0.  0.
        -24    2    5    5    0    0  0.40875450233E+02 -0.17133041477E+02 -0.32777512090E+02  0.10356858160E+03  0.87679771064E+02 0.  0.
          5    1    3    3  501    0 -0.94078577484E+01  0.31415290480E+02  0.23091232250E+02  0.40382214775E+02  0.47000000000E+01 0. -1.
        -13    1    4    4    0    0 -0.54857785573E+02 -0.46271821703E+02 -0.12410192620E+03  0.14335880234E+03  0.00000000000E+00 0.  1.
         14    1    4    4    0    0 -0.39499307173E+02 -0.14623531459E+02  0.47019719024E+00  0.42122013542E+02  0.00000000000E+00 0. -1.
         -5    1    5    5    0  502  0.62889500262E+02  0.46613104158E+02  0.58414730351E+02  0.97786714049E+02  0.47000000000E+01 0.  1.
         13    1    6    6    0    0  0.62113625103E+02  0.44841202403E+01 -0.50270741623E+01  0.62477845933E+02  0.00000000000E+00 0. -1.
        -14    1    6    6    0    0 -0.21238174870E+02 -0.21617161717E+02 -0.27750437927E+02  0.41090735667E+02  0.00000000000E+00 0.  1.
</event>
<event>
12    1  0.9962621E-001  0.1926125E+03  0.7818608E-02  0.1156686E+00
         21   -1    0    0  503  502  0.00000000000E+00  0.00000000000E+00  0.94968776577E+03  0.94968776577E+03  0.00000000000E+00 0. -1.
         21   -1    0    0  501  503 -0.00000000000E+00 -0.00000000000E+00 -0.62345715130E+02  0.62345715130E+02  0.00000000000E+00 0. -1.
          6    2    1    2  501    0  0.72030038131E+02 -0.32751234809E+02  0.75803661148E+03  0.78212471227E+03  0.17560920086E+03 0.  0.
         24    2    3    3    0    0  0.77155900419E+02 -0.71913688653E+02  0.37872440587E+03  0.40073277269E+03  0.77652868068E+02 0.  0.
         -6    2    1    2    0  502 -0.72030038131E+02  0.32751234809E+02  0.12930543917E+03  0.22990876864E+03  0.17285015338E+03 0.  0.
        -24    2    5    5    0    0 -0.60664753288E+02 -0.42905429899E+02  0.51793982061E+02  0.12089860123E+03  0.80079753973E+02 0.  0.
          5    1    3    3  501    0 -0.51258622879E+01  0.39162453843E+02  0.37931220560E+03  0.38139193958E+03  0.47000000000E+01 0. -1.
        -11    1    4    4    0    0  0.29160795933E+02 -0.34403078036E+02  0.28765592069E+03  0.29116980013E+03  0.00000000000E+00 0.  1.
         12    1    4    4    0    0  0.47995104486E+02 -0.37510610616E+02  0.91068485183E+02  0.10956297256E+03  0.00000000000E+00 0. -1.
         -5    1    5    5    0  502 -0.11365284844E+02  0.75656664708E+02  0.77511457107E+02  0.10901016740E+03  0.47000000000E+01 0.  1.
         11    1    6    6    0    0 -0.21976103556E+02  0.11941435824E+02  0.47450995810E+02  0.53639015841E+02  0.00000000000E+00 0. -1.
        -12    1    6    6    0    0 -0.38688649731E+02 -0.54846865723E+02  0.43429862512E+01  0.67259585393E+02  0.00000000000E+00 0.  1.
</event>
<event>
12    1  0.9962621E-001  0.1726957E+03  0.7818608E-02  0.1175685E+00
         21   -1    0    0  501  502  0.00000000000E+00  0.00000000000E+00  0.18161880764E+04  0.18161880764E+04  0.00000000000E+00 0.  1.
         21   -1    0    0  502  503 -0.00000000000E+00 -0.00000000000E+00 -0.16357887103E+02  0.16357887103E+02  0.00000000000E+00 0.  1.
         -6    2    1    2    0  503  0.12611665056E+02  0.14748602216E+02  0.99817979415E+03  0.10130087385E+04  0.17160194470E+03 0.  0.
        -24    2    3    3    0    0 -0.44327798710E+02  0.40715611593E+02  0.55227853970E+03  0.56271282818E+03  0.89506574188E+02 0.  0.
          6    2    1    2  501    0 -0.12611665056E+02 -0.14748602216E+02  0.80165039513E+03  0.81953722501E+03  0.16917840228E+03 0.  0.
         24    2    5    5    0    0  0.41737152794E+02 -0.46691852944E+02  0.59176887124E+03  0.60034208515E+03  0.79360589542E+02 0.  0.
          5    1    5    5  501    0 -0.54348817850E+02  0.31943250728E+02  0.20988152389E+03  0.21919513986E+03  0.47000000000E+01 0. -1.
        -13    1    6    6    0    0  0.15954783688E+02 -0.32923336050E+02  0.82656129268E+02  0.90391022147E+02  0.00000000000E+00 0.  1.
         14    1    6    6    0    0  0.25782369106E+02 -0.13768516894E+02  0.50911274198E+03  0.50995106300E+03  0.00000000000E+00 0. -1.
         -5    1    3    3    0  503  0.56939463766E+02 -0.25967009377E+02  0.44590125445E+03  0.45029591030E+03  0.47000000000E+01 0.  1.
         11    1    4    4    0    0  0.90384399844E+01  0.42575457443E+02  0.37636386884E+03  0.37887217467E+03  0.00000000000E+00 0. -1.
        -12    1    4    4    0    0 -0.53366238695E+02 -0.18598458504E+01  0.17591467086E+03  0.18384065351E+03  0.00000000000E+00 0.  1.
</event>
<event>
12    1  0.9962621E-001  0.1834617E+03  0.7818608E-02  0.1164574E+00
         21   -1    0    0  501  502  0.00000000000E+00  0.00000000000E+00  0.21736472523E+03  0.21736472523E+03  0.00000000000E+00 0. -1.
         21   -1    0    0  502  503 -0.00000000000E+00 -0.00000000000E+00 -0.17351753048E+03  0.17351753048E+03  0.00000000000E+00 0. -1.
         -6    2    1    2    0  503  0.60814164321E+02  0.17458348065E+02  0.86537166619E+02  0.20284689913E+03  0.17220634942E+03 0.  0.
        -24    2    3    3    0    0 -0.13759367737E+02  0.37797357098E+02  0.36671687573E+01  0.89425501158E+02  0.79784157115E+02 0.  0.
          6    2    1    2  501    0 -0.60814164321E+02 -0.17458348065E+02 -0.42689971871E+02  0.18803535657E+03  0.17184791277E+03 0.  0.
         24    2    5    5    0    0 -0.28116782212E+02 -0.72696291406E+02 -0.52488805663E+02  0.12293192867E+03  0.79258312753E+02 0.  0.
          5    1    5    5  501    0 -0.32697382109E+02  0.55237943341E+02  0.97988337914E+01  0.65103427905E+02  0.47000000000E+01 0. -1.
        -11    1    6    6    0    0 -0.54871801217E+02 -0.40757778924E+02 -0.23935037752E+02  0.72422352514E+02  0.00000000000E+00 0.  1.
         12    1    6    6    0    0  0.26755019005E+02 -0.31938512482E+02 -0.28553767911E+02  0.50509576156E+02  0.00000000000E+00 0. -1.
         -5    1    3    3    0  503  0.74573532058E+02 -0.20339009033E+02  0.82869997862E+02  0.11342139797E+03  0.47000000000E+01 0.  1.
         11    1    4    4    0    0 -0.35781970557E+01  0.61844329228E+02 -0.43740544375E+01  0.62101987923E+02  0.00000000000E+00 0. -1.
        -12    1    4    4    0    0 -0.10181170681E+02 -0.24046972129E+02  0.80412231948E+01  0.27323513235E+02  0.00000000000E+00 0.  1.
</event>
<event>
12    1  0.9962621E-001  0.2041961E+03  0.7818608E-02  0.1146674E+00
         21   -1    0    0  503  502  0.00000000000E+00  0.00000000000E+00  0.57844655089E+03  0.57844655089E+03  0.00000000000E+00 0.  1.
         21   -1    0    0  501  503 -0.00000000000E+00 -0.00000000000E+00 -0.11968603876E+03  0.11968603876E+03  0.00000000000E+00 0.  1.
          6    2    1    2  501    0 -0.26580876263E+01  0.10841208047E+03  0.45050492855E+03  0.49376967716E+03  0.17056834059E+03 0.  0.
         24    2    3    3    0    0  0.21578657727E+02  0.99456150666E+02  0.18154519298E+03  0.22353078680E+03  0.81548704336E+02 0.  0.
         -6    2    1    2    0  502  0.26580876263E+01 -0.10841208047E+03  0.82555835795E+01  0.20436291249E+03  0.17301965414E+03 0.  0.
        -24    2    5    5    0    0  0.67301338637E+02 -0.68330504757E+02 -0.95338323739E+01  0.12610797058E+03  0.81325261892E+02 0.  0.
          5    1    3    3  501    0 -0.24236745354E+02  0.89559298009E+01  0.26895973557E+03  0.27023889036E+03  0.47000000000E+01 0. -1.
        -11    1    4    4    0    0  0.15338640881E+01  0.10716554902E+03  0.13582713436E+03  0.17301970426E+03  0.00000000000E+00 0.  1.
         12    1    4    4    0    0  0.20044793639E+02 -0.77093983508E+01  0.45718058625E+02  0.50511082541E+02  0.00000000000E+00 0. -1.
         -5    1    5    5    0  502 -0.64643251011E+02 -0.40081575710E+02  0.17789415953E+02  0.78254941905E+02  0.47000000000E+01 0.  1.
         13    1    6    6    0    0  0.60380633724E+02 -0.86591473319E+02 -0.33277527492E+01  0.10561712986E+03  0.00000000000E+00 0. -1.
        -14    1    6    6    0    0  0.69207049128E+01  0.18260968563E+02 -0.62060796247E+01  0.20490840726E+02  0.00000000000E+00 0.  1.
</event>
<event>
12    1  0.9962621E-001  0.3904182E+03  0.7818608E-02  0.1047320E+00
         21   -1    0    0  503  502  0.00000000000E+00  0.00000000000E+00  0.53099214240E+03  0.53099214240E+03  0.00000000000E+00 0. -1.
         21   -1    0    0  501  503 -0.00000000000E+00 -0.00000000000E+00 -0.28904920941E+03  0.28904920941E+03  0.00000000000E+00 0. -1.
          6    2    1    2  501    0  0.32966783774E+03  0.11656123545E+03  0.16570025795E+03  0.42412606361E+03  0.17366328771E+03 0.  0.
         24    2    3    3    0    0  0.33026228936E+03  0.12887084764E+03  0.17914655062E+03  0.40529065250E+03  0.80536645479E+02 0.  0.
         -6    2    1    2    0  502 -0.32966783774E+03 -0.11656123545E+03  0.76242675049E+02  0.39591528820E+03  0.16931794082E+03 0.  0.
        -24    2    5    5    0    0 -0.25585988202E+03 -0.67528299007E+02  0.11388948573E+03  0.29952433667E+03  0.81973550003E+02 0.  0.
          5    1    3    3  501    0 -0.59445161895E+00 -0.12309612185E+02 -0.13446292671E+02  0.18835411104E+02  0.47000000000E+01 0. -1.
        -11    1    4    4    0    0  0.29673700330E+02 -0.95257949900E+01  0.57355191850E+01  0.31688569576E+02  0.00000000000E+00 0.  1.
         12    1    4    4    0    0  0.30058858903E+03  0.13839664263E+03  0.17341103143E+03  0.37360208293E+03  0.00000000000E+00 0. -1.
         -5    1    5    5    0  502 -0.73807955716E+02 -0.49032936447E+02 -0.37646810678E+02  0.96390951535E+02  0.47000000000E+01 0.  1.
         13    1    6    6    0    0 -0.10938271041E+03 -0.57595015603E+02  0.19923289667E+02  0.12521461828E+03  0.00000000000E+00 0. -1.
        -14    1    6    6    0    0 -0.14647717162E+03 -0.99332834037E+01  0.93966196060E+02  0.17430971839E+03  0.00000000000E+00 0.  1.
</event>
<event>
12    1  0.9962621E-001  0.2542943E+03  0.7818608E-02  0.1110632E+00
         21   -1    0    0  503  502  0.00000000000E+00  0.00000000000E+00  0.14706864244E+04  0.14706864244E+04  0.00000000000E+00 0. -1.
         21   -1    0    0  501  503 -0.00000000000E+00 -0.00000000000E+00 -0.44670067080E+02  0.44670067080E+02  0.00000000000E+00 0. -1.
          6    2    1    2  501    0  0.58236832349E+02  0.17843991679E+03  0.80888349485E+03  0.84791395569E+03  0.17156117121E+03 0.  0.
         24    2    3    3    0    0  0.30814849941E+01  0.89161359037E+02  0.62222397036E+03  0.63372562431E+03  0.80537284055E+02 0.  0.
         -6    2    1    2    0  502 -0.58236832349E+02 -0.17843991679E+03  0.61713286250E+03  0.66744253582E+03  0.17144747329E+03 0.  0.
        -24    2    5    5    0    0  0.34770153443E+01 -0.15350936021E+03  0.52471686272E+03  0.55345596353E+03  0.86072668298E+02 0.  0.
          5    1    3    3  501    0  0.55155347355E+02  0.89278557753E+02  0.18665952449E+03  0.21418833138E+03  0.47000000000E+01 0. -1.
        -11    1    4    4    0    0  0.15523219445E+02  0.89000763925E+02  0.35850647416E+03  0.36971475266E+03  0.00000000000E+00 0.  1.
         12    1    4    4    0    0 -0.12441734451E+02  0.16059511216E+00  0.26371749621E+03  0.26401087165E+03  0.00000000000E+00 0. -1.
         -5    1    5    5    0  502 -0.61713847694E+02 -0.24930556577E+02  0.92415999775E+02  0.11398657229E+03  0.47000000000E+01 0.  1.
         11    1    6    6    0    0  0.35544830817E+02 -0.67223186228E+02  0.32137022852E+03  0.33024417564E+03  0.00000000000E+00 0. -1.
        -12    1    6    6    0    0 -0.32067815472E+02 -0.86286173986E+02  0.20334663421E+03  0.22321178789E+03  0.00000000000E+00 0.  1.
</event>
<event>
12    1  0.9962621E-001  0.2144904E+03  0.7818608E-02  0.1138142E+00
         21   -1    0    0  501  502  0.00000000000E+00  0.00000000000E+00  0.61789624756E+03  0.61789624756E+03  0.00000000000E+00 0. -1.
         21   -1    0    0  502  503 -0.00000000000E+00 -0.00000000000E+00 -0.90904779099E+02  0.90904779099E+02  0.00000000000E+00 0. -1.
         -6    2    1    2    0  503  0.77340061342E+02  0.10116144813E+03  0.41471996405E+03  0.46670385028E+03  0.17206019763E+03 0.  0.
        -24    2    3    3    0    0  0.46098676243E+02  0.13736876537E+03  0.33372701706E+03  0.37252879294E+03  0.80054443969E+02 0.  0.
          6    2    1    2  501    0 -0.77340061342E+02 -0.10116144813E+03  0.11227150441E+03  0.24209717638E+03  0.17260077761E+03 0.  0.
         24    2    5    5    0    0 -0.27282529713E+02  0.20146960812E+02  0.65857572588E+02  0.10282108503E+03  0.71307217041E+02 0.  0.
          5    1    5    5  501    0 -0.50057531629E+02 -0.12130840894E+03  0.46413931821E+02  0.13927609135E+03  0.47000000000E+01 0. -1.
        -13    1    6    6    0    0 -0.26130072534E+02 -0.22796297608E+02  0.20200372915E+02  0.40131121852E+02  0.00000000000E+00 0.  1.
         14    1    6    6    0    0 -0.11524571794E+01  0.42943258420E+02  0.45657199673E+02  0.62689963178E+02  0.00000000000E+00 0. -1.
         -5    1    3    3    0  503  0.31241385099E+02 -0.36207317236E+02  0.80992946988E+02  0.94175057346E+02  0.47000000000E+01 0.  1.
         13    1    4    4    0    0 -0.47069500458E+00  0.25856366555E+02  0.15268444590E+03  0.15485901092E+03  0.00000000000E+00 0. -1.
        -14    1    4    4    0    0  0.46569371248E+02  0.11151239881E+03  0.18104257117E+03  0.21766978201E+03  0.00000000000E+00 0.  1.
</event>
<event>
12    1  0.9962621E-001  0.1912844E+03  0.7818608E-02  0.1158346E+00
         21   -1    0    0  503  502  0.00000000000E+00  0.00000000000E+00  0.80782755286E+03  0.80782755286E+03  0.00000000000E+00 0.  1.
         21   -1    0    0  501  503 -0.00000000000E+00 -0.00000000000E+00 -0.44921771729E+02  0.44921771729E+02  0.00000000000E+00 0.  1.
          6    2    1    2  501    0 -0.61102319972E+02 -0.58355308344E+02  0.33253981726E+03  0.38363061097E+03  0.17161258722E+03 0.  0.
         24    2    3    3    0    0 -0.39154653635E+02  0.14115092713E+02  0.91024024949E+02  0.13047921946E+03  0.83708606788E+02 0.  0.
         -6    2    1    2    0  502  0.61102319972E+02  0.58355308344E+02  0.43036596387E+03  0.46911871362E+03  0.16648924616E+03 0.  0.
        -24    2    5    5    0    0  0.96035119888E+02  0.65241850684E+02  0.39108132596E+03  0.41589186182E+03  0.80883829586E+02 0.  0.
          5    1    3    3  501    0 -0.21947666337E+02 -0.72470401057E+02  0.24151579231E+03  0.25315139151E+03  0.47000000000E+01 0. -1.
        -13    1    4    4    0    0 -0.60596463695E+02 -0.78734269698E+01  0.71643520016E+02  0.94163242430E+02  0.00000000000E+00 0.  1.
         14    1    4    4    0    0  0.21441810060E+02  0.21988519683E+02  0.19380504933E+02  0.36315977034E+02  0.00000000000E+00 0. -1.
         -5    1    5    5    0  502 -0.34932799917E+02 -0.68865423397E+01  0.39284637915E+02  0.53226851791E+02  0.47000000000E+01 0.  1.
         11    1    6    6    0    0  0.37953655743E+02  0.65668076637E+02  0.28533762340E+03  0.29524622877E+03  0.00000000000E+00 0. -1.
        -12    1    6    6    0    0  0.58081464145E+02 -0.42622595274E+00  0.10574370255E+03  0.12064563305E+03  0.00000000000E+00 0.  1.
</event>
<event>
12    1  0.9962621E-001  0.2523206E+03  0.7818608E-02  0.1112103E+00
         21   -1    0    0  503  502  0.00000000000E+00  0.00000000000E+00  0.14634461662E+03  0.14634461662E+03  0.00000000000E+00 0. -1.
         21   -1    0    0  501  503 -0.00000000000E+00 -0.00000000000E+00 -0.53925891324E+03  0.53925891324E+03  0.00000000000E+00 0. -1.
          6    2    1    2  501    0 -0.34427885764E+02 -0.18174550280E+03 -0.34866991400E+03  0.42943318460E+03  0.16919055528E+03 0.  0.
         24    2    3    3    0    0 -0.64697018121E+02 -0.16782294705E+03 -0.21481679536E+03  0.29141577517E+03  0.80166406572E+02 0.  0.
         -6    2    1    2    0  502  0.34427885764E+02  0.18174550280E+03 -0.44244382611E+02  0.25617034526E+03  0.17160703160E+03 0.  0.
        -24    2    5    5    0    0 -0.38629409429E+02  0.47073495037E+02 -0.15708784180E+02  0.10025277591E+03  0.78075015014E+02 0.  0.
          5    1    3    3  501    0  0.30269132357E+02 -0.13922555746E+02 -0.13385311865E+03  0.13801740942E+03  0.47000000000E+01 0. -1.
        -13    1    4    4    0    0 -0.24716298549E+02 -0.14606558773E+03 -0.13992713916E+03  0.20377844735E+03  0.00000000000E+00 0.  1.
         14    1    4    4    0    0 -0.39980719572E+02 -0.21757359321E+02 -0.74889656198E+02  0.87637327821E+02  0.00000000000E+00 0. -1.
         -5    1    5    5    0  502  0.73057295193E+02  0.13467200776E+03 -0.28535598431E+02  0.15591756935E+03  0.47000000000E+01 0.  1.
         11    1    6    6    0    0 -0.59727174917E+02  0.49767987574E+02 -0.12509874378E+02  0.78744428169E+02  0.00000000000E+00 0. -1.
        -12    1    6    6    0    0  0.21097765488E+02 -0.26944925374E+01 -0.31989098025E+01  0.21508347741E+02  0.00000000000E+00 0.  1.
</event>
<event>
12    1  0.9962621E-001  0.4722817E+03  0.7818608E-02  0.1021384E+00
         21   -1    0    0  503  502  0.00000000000E+00  0.00000000000E+00  0.55929191459E+03  0.55929191459E+03  0.00000000000E+00 0. -1.
         21   -1    0    0  501  503 -0.00000000000E+00 -0.00000000000E+00 -0.39992106614E+03  0.39992106614E+03  0.00000000000E+00 0.  1.
          6    2    1    2  501    0 -0.28958688786E+03  0.33007233256E+03  0.11679654515E+03  0.48650947013E+03  0.17390146988E+03 0.  0.
         24    2    3    3    0    0 -0.25004137741E+03  0.24242838754E+03  0.32935335940E+02  0.35883762161E+03  0.79921766893E+02 0.  0.
         -6    2    1    2    0  502  0.28958688786E+03 -0.33007233256E+03  0.42574303297E+02  0.47270351059E+03  0.16978730010E+03 0.  0.
        -24    2    5    5    0    0  0.54474639348E+02 -0.11814444074E+03 -0.37325072962E+01  0.15276974957E+03  0.79994184554E+02 0.  0.
          5    1    3    3  501    0 -0.39545510451E+02  0.87643945022E+02  0.83861209212E+02  0.12767184853E+03  0.47000000000E+01 0. -1.
        -13    1    4    4    0    0 -0.22888500183E+03  0.23129510026E+03  0.97688173866E+01  0.32554753456E+03  0.00000000000E+00 0.  1.
         14    1    4    4    0    0 -0.21156375586E+02  0.11133287278E+02  0.23166518553E+02  0.33290087044E+02  0.00000000000E+00 0. -1.
         -5    1    5    5    0  502  0.23511224851E+03 -0.21192789182E+03  0.46306810593E+02  0.31993376102E+03  0.47000000000E+01 0.  1.
         11    1    6    6    0    0  0.40225908105E+02 -0.32773006193E+02  0.29932095773E+02  0.59900951371E+02  0.00000000000E+00 0. -1.
        -12    1    6    6    0    0  0.14248731243E+02 -0.85371434546E+02 -0.33664603070E+02  0.92868798196E+02  0.00000000000E+00 0.  1.
</event>
<event>
12    1  0.9962621E-001  0.4333231E+03  0.7818608E-02  0.1032825E+00
         21   -1    0    0  501  502  0.00000000000E+00  0.00000000000E+00  0.37215516598E+03  0.37215516598E+03  0.00000000000E+00 0.  1.
         21   -1    0    0  502  503 -0.00000000000E+00 -0.00000000000E+00 -0.54661968129E+03  0.54661968129E+03  0.00000000000E+00 0. -1.
         -6    2    1    2    0  503  0.29250370308E+03  0.26993759230E+03 -0.21489251891E+03  0.48356990688E+03  0.17098637403E+03 0.  0.
        -24    2    3    3    0    0  0.66773621817E+02  0.86817585484E+02 -0.10927467132E+03  0.17427356643E+03  0.80214166120E+02 0.  0.
          6    2    1    2  501    0 -0.29250370308E+03 -0.26993759230E+03  0.40428003605E+02  0.43520494039E+03  0.17130147872E+03 0.  0.
         24    2    5    5    0    0 -0.15014311660E+03 -0.19852228940E+03  0.67918923100E+02  0.27351226051E+03  0.90785030057E+02 0.  0.
          5    1    5    5  501    0 -0.14236058649E+03 -0.71415302894E+02 -0.27490919496E+02  0.16169267988E+03  0.47000000000E+01 0. -1.
        -13    1    6    6    0    0 -0.11795329769E+03 -0.19163532199E+03  0.36426921381E+02  0.22795613103E+03  0.00000000000E+00 0.  1.
         14    1    6    6    0    0 -0.32189818902E+02 -0.68869674126E+01  0.31492001719E+02  0.45556129482E+02  0.00000000000E+00 0. -1.
         -5    1    3    3    0  503  0.22573008127E+03  0.18312000681E+03 -0.10561784760E+03  0.30929634045E+03  0.47000000000E+01 0.  1.
         13    1    4    4    0    0  0.91212677849E+01  0.34861778598E+01  0.12494438704E+02  0.15857552163E+02  0.00000000000E+00 0. -1.
        -14    1    4    4    0    0  0.57652354032E+02  0.83331407625E+02 -0.12176911002E+03  0.15841601427E+03  0.00000000000E+00 0.  1.
</event>
<event>
12    1  0.9962621E-001  0.1878830E+03  0.7818608E-02  0.1160855E+00
         21   -1    0    0  501  502  0.00000000000E+00  0.00000000000E+00  0.18308674679E+02  0.18308674679E+02  0.00000000000E+00 0. -1.
         21   -1    0    0  502  503 -0.00000000000E+00 -0.00000000000E+00 -0.21723409670E+04  0.21723409670E+04  0.00000000000E+00 0. -1.
         -6    2    1    2    0  503  0.71482140043E+02  0.17749531271E+01 -0.68914919364E+03  0.71376694371E+03  0.17153364695E+03 0.  0.
        -24    2    3    3    0    0  0.41648286384E+02  0.51395914902E+02 -0.25883757308E+03  0.27955215877E+03  0.82318894600E+02 0.  0.
          6    2    1    2  501    0 -0.71482140043E+02 -0.17749531271E+01 -0.14648830987E+04  0.14768826980E+04  0.17374453647E+03 0.  0.
         24    2    5    5    0    0 -0.45240727277E+02 -0.17261104668E+02 -0.37359940404E+03  0.38516358353E+03  0.80186047675E+02 0.  0.
          5    1    5    5  501    0 -0.26241412766E+02  0.15486151541E+02 -0.10912836947E+04  0.10917191145E+04  0.47000000000E+01 0. -1.
        -13    1    6    6    0    0 -0.46636469483E+02 -0.34762161133E+02 -0.35442227035E+03  0.35916363103E+03  0.00000000000E+00 0.  1.
         14    1    6    6    0    0  0.13957422059E+01  0.17501056465E+02 -0.19177133687E+02  0.25999952502E+02  0.00000000000E+00 0. -1.
         -5    1    3    3    0  503  0.29833853659E+02 -0.49620961775E+02 -0.43031162056E+03  0.43421478494E+03  0.47000000000E+01 0.  1.
         13    1    4    4    0    0  0.10389093885E+01  0.76114251001E+01  0.49175025815E+01  0.91211269266E+01  0.00000000000E+00 0. -1.
        -14    1    4    4    0    0  0.40609376995E+02  0.43784489802E+02 -0.26375507566E+03  0.27043103184E+03  0.00000000000E+00 0.  1.
</event>
<event>
12    1  0.9962621E-001  0.4098005E+03  0.7818608E-02  0.1040591E+00
         21   -1    0    0  501  502  0.00000000000E+00  0.00000000000E+00  0.38904299453E+03  0.38904299453E+03  0.00000000000E+00 0. -1.
         21   -1    0    0  502  503 -0.00000000000E+00 -0.00000000000E+00 -0.42981925999E+03  0.42981925999E+03  0.00000000000E+00 0.  1.
         -6    2    1    2    0  503 -0.27003928128E+03 -0.25595050421E+03 -0.25604231018E+02  0.41059963201E+03  0.17176905169E+03 0.  0.
        -24    2    3    3    0    0 -0.13064861470E+03 -0.19053174147E+03 -0.61619274140E+02  0.25239550508E+03  0.80840280829E+02 0.  0.
          6    2    1    2  501    0  0.27003928128E+03  0.25595050421E+03 -0.15172034436E+02  0.40826262251E+03  0.16738071654E+03 0.  0.
         24    2    5    5    0    0  0.15178564491E+03  0.89958928687E+02  0.36587294658E+02  0.19793372814E+03  0.81900181641E+02 0.  0.
          5    1    5    5  501    0  0.11825363637E+03  0.16599157552E+03 -0.51759329095E+02  0.21032889438E+03  0.47000000000E+01 0. -1.
        -13    1    6    6    0    0  0.13899695864E+03  0.43475781362E+02  0.34553902575E+02  0.14968056073E+03  0.00000000000E+00 0.  1.
         14    1    6    6    0    0  0.12788686268E+02  0.46483147326E+02  0.20333920834E+01  0.48253167410E+02  0.00000000000E+00 0. -1.
         -5    1    3    3    0  503 -0.13939066658E+03 -0.65418762738E+02  0.36015043122E+02  0.15820412693E+03  0.47000000000E+01 0.  1.
         13    1    4    4    0    0 -0.75906540867E+02 -0.73022318240E+02  0.72966313812E+01  0.10558078773E+03  0.00000000000E+00 0. -1.
        -14    1    4    4    0    0 -0.54742073834E+02 -0.11750942323E+03 -0.68915905521E+02  0.14681471735E+03  0.00000000000E+00 0.  1.
</event>
<event>
12    1  0.9962621E-001  0.2369521E+03  0.7818608E-02  0.1124447E+00
         21   -1    0    0  503  502  0.00000000000E+00  0.00000000000E+00  0.64020307127E+02  0.64020307127E+02  0.00000000000E+00 0. -1.
         21   -1    0    0  501  503 -0.00000000000E+00 -0.00000000000E+00 -0.88686934481E+03  0.88686934481E+03  0.00000000000E+00 0. -1.
          6    2    1    2  501    0  0.12117772701E+03  0.10885820298E+03 -0.55149057010E+03  0.60024007005E+03  0.17208179133E+03 0.  0.
         24    2    3    3    0    0  0.97946674228E+02  0.90057283960E+01 -0.24004819802E+03  0.27232447173E+03  0.82842177638E+02 0.  0.
         -6    2    1    2    0  502 -0.12117772701E+03 -0.10885820298E+03 -0.27135846759E+03  0.35064958189E+03  0.15094887037E+03 0.  0.
        -24    2    5    5    0    0 -0.12266755603E+03 -0.51617395803E+02 -0.23404861729E+03  0.28214524242E+03  0.84353409600E+02 0.  0.
          5    1    3    3  501    0  0.23231052781E+02  0.99852474587E+02 -0.31144237208E+03  0.32791559832E+03  0.47000000000E+01 0. -1.
        -11    1    4    4    0    0  0.17563653533E+01  0.27581536068E+02 -0.31459213347E+02  0.41874909618E+02  0.00000000000E+00 0.  1.
         12    1    4    4    0    0  0.96190308875E+02 -0.18575807672E+02 -0.20858898467E+03  0.23044956211E+03  0.00000000000E+00 0. -1.
         -5    1    5    5    0  502  0.14898290230E+01 -0.57240807180E+02 -0.37309850300E+02  0.68504339473E+02  0.47000000000E+01 0.  1.
         11    1    6    6    0    0 -0.58997606169E+02 -0.26262128378E+02 -0.39081004406E+02  0.75483387748E+02  0.00000000000E+00 0. -1.
        -12    1    6    6    0    0 -0.63669949864E+02 -0.25355267425E+02 -0.19496761288E+03  0.20666185467E+03  0.00000000000E+00 0.  1.
</event>
<event>
12    1  0.9962621E-001  0.1785404E+03  0.7818608E-02  0.1169285E+00
         21   -1    0    0  501  502  0.00000000000E+00  0.00000000000E+00  0.33706485012E+02  0.33706485012E+02  0.00000000000E+00 0.  1.
         21   -1    0    0  502  503 -0.00000000000E+00 -0.00000000000E+00 -0.96921803933E+03  0.96921803933E+03  0.00000000000E+00 0.  1.
         -6    2    1    2    0  503 -0.28783156677E+02 -0.39056909626E+02 -0.38713424060E+03  0.42621457461E+03  0.17155766106E+03 0.  0.
        -24    2    3    3    0    0 -0.60958774652E+01 -0.25116388711E+02 -0.39038183213E+03  0.39898063233E+03  0.78227727893E+02 0.  0.
          6    2    1    2  501    0  0.28783156677E+02  0.39056909626E+02 -0.54837731372E+03  0.57670994973E+03  0.17182192998E+03 0.  0.
         24    2    5    5    0    0  0.29593058357E+02 -0.37569623915E+02 -0.38594341182E+03  0.39704597430E+03  0.80037259039E+02 0.  0.
          5    1    5    5  501    0 -0.80990168054E+00  0.76626533542E+02 -0.16243390190E+03  0.17966397543E+03  0.47000000000E+01 0. -1.
        -11    1    6    6    0    0  0.50290886102E+02 -0.12945388957E+01 -0.24158679299E+03  0.24676917879E+03  0.00000000000E+00 0.  1.
         12    1    6    6    0    0 -0.20697827745E+02 -0.36275085020E+02 -0.14435661883E+03  0.15027679550E+03  0.00000000000E+00 0. -1.
         -5    1    3    3    0  503 -0.22687279211E+02 -0.13940520915E+02  0.32475915314E+01  0.27233942281E+02  0.47000000000E+01 0.  1.
         13    1    4    4    0    0  0.19457369456E+02 -0.45316737724E+02 -0.25602446974E+03  0.26073113556E+03  0.00000000000E+00 0. -1.
        -14    1    4    4    0    0 -0.25553246921E+02  0.20200349013E+02 -0.13435736240E+03  0.13824949678E+03  0.00000000000E+00 0.  1.
</event>
<event>
12    1  0.9962621E-001  0.1878338E+03  0.7818608E-02  0.1160729E+00
         21   -1    0    0  503  502  0.00000000000E+00  0.00000000000E+00  0.51072056946E+03  0.51072056946E+03  0.00000000000E+00 0.  1.
         21   -1    0    0  501  503 -0.00000000000E+00 -0.00000000000E+00 -0.71001426688E+02  0.71001426688E+02  0.00000000000E+00 0.  1.
          6    2    1    2  501    0  0.62264706653E+02 -0.40723819184E+02  0.27257836990E+03  0.33029093449E+03  0.17104914652E+03 0.  0.
         24    2    3    3    0    0  0.55101037600E+02  0.22186718579E+02  0.23859580443E+03  0.25827733389E+03  0.79062307589E+02 0.  0.
         -6    2    1    2    0  502 -0.62264706653E+02  0.40723819184E+02  0.16714077287E+03  0.25143106165E+03  0.17247091832E+03 0.  0.
        -24    2    5    5    0    0 -0.54866237530E+02 -0.25372264081E+02  0.15206873967E+03  0.18307401554E+03  0.82080069306E+02 0.  0.
          5    1    3    3  501    0  0.71636690525E+01 -0.62910537763E+02  0.33982565470E+02  0.72013600603E+02  0.47000000000E+01 0. -1.
        -11    1    4    4    0    0  0.40417404392E+02 -0.23058964153E+02  0.78411636731E+02  0.91179313336E+02  0.00000000000E+00 0.  1.
         12    1    4    4    0    0  0.14683633208E+02  0.45245682732E+02  0.16018416770E+03  0.16709802055E+03  0.00000000000E+00 0. -1.
         -5    1    5    5    0  502 -0.73984691222E+01  0.66096083265E+02  0.15072033197E+02  0.68357046111E+02  0.47000000000E+01 0.  1.
         11    1    6    6    0    0 -0.48003036239E+02 -0.44200281999E+02  0.59324199608E+02  0.88189098397E+02  0.00000000000E+00 0. -1.
        -12    1    6    6    0    0 -0.68632012916E+01  0.18828017919E+02  0.92744540061E+02  0.94884917146E+02  0.00000000000E+00 0.  1.
</event>
<event>
12    1  0.9962621E-001  0.1779448E+03  0.7818608E-02  0.1170055E+00
         21   -1    0    0  501  502  0.00000000000E+00  0.00000000000E+00  0.12714248184E+03  0.12714248184E+03  0.00000000000E+00 0. -1.
         21   -1    0    0  502  503 -0.00000000000E+00 -0.00000000000E+00 -0.25290850550E+03  0.25290850550E+03  0.00000000000E+00 0. -1.
         -6    2    1    2    0  503 -0.39885200879E+02 -0.17222357219E+02 -0.35284490988E+02  0.18042315818E+03  0.17152283191E+03 0.  0.
        -24    2    3    3    0    0 -0.10028207578E+02  0.20244155871E+02 -0.75904191122E+02  0.11743720982E+03  0.86715980227E+02 0.  0.
          6    2    1    2  501    0  0.39885200879E+02  0.17222357219E+02 -0.90481532674E+02  0.19962782916E+03  0.17255991303E+03 0.  0.
         24    2    5    5    0    0 -0.19522448941E+02  0.25924928786E+02  0.31945689300E+01  0.88262189845E+02  0.82016955201E+02 0.  0.
          5    1    5    5  501    0  0.59407649820E+02 -0.87025715673E+01 -0.93676101604E+02  0.11136563932E+03  0.47000000000E+01 0. -1.
        -13    1    6    6    0    0 -0.41318857981E+02 -0.38062362742E+01 -0.18561524276E+02  0.45456194769E+02  0.00000000000E+00 0.  1.
         14    1    6    6    0    0  0.21796409040E+02  0.29731165061E+02  0.21756093206E+02  0.42805995076E+02  0.00000000000E+00 0. -1.
         -5    1    3    3    0  503 -0.29856993300E+02 -0.37466513090E+02  0.40619700134E+02  0.62985948362E+02  0.47000000000E+01 0.  1.
         11    1    4    4    0    0 -0.36961908031E+02 -0.48584287249E+01 -0.50928352338E+01  0.37626107235E+02  0.00000000000E+00 0. -1.
        -12    1    4    4    0    0  0.26933700452E+02  0.25102584596E+02 -0.70811355888E+02  0.79811102587E+02  0.00000000000E+00 0.  1.
</event>
<event>
12    1  0.9962621E-001  0.3001247E+03  0.7818608E-02  0.1085449E+00
         21   -1    0    0  503  502  0.00000000000E+00  0.00000000000E+00  0.71787029770E+03  0.71787029770E+03  0.00000000000E+00 0.  1.
         21   -1    0    0  501  503 -0.00000000000E+00 -0.00000000000E+00 -0.14282715345E+03  0.14282715345E+03  0.00000000000E+00 0.  1.
          6    2    1    2  501    0 -0.19879306631E+03  0.14475362740E+03  0.44045908769E+03  0.53177846718E+03  0.16826120873E+03 0.  0.
         24    2    3    3    0    0 -0.59824348884E+02  0.11898274980E+03  0.21262565138E+03  0.26362439345E+03  0.80946313861E+02 0.  0.
         -6    2    1    2    0  502  0.19879306631E+03 -0.14475362740E+03  0.13458405657E+03  0.32891898397E+03  0.17205386911E+03 0.  0.
        -24    2    5    5    0    0  0.19074599615E+03 -0.83585443193E+02  0.52824276497E+02  0.22638580040E+03  0.71341187761E+02 0.  0.
          5    1    3    3  501    0 -0.13896871743E+03  0.25770877603E+02  0.22783343631E+03  0.26815407373E+03  0.47000000000E+01 0. -1.
        -11    1    4    4    0    0  0.97889444902E-01 -0.59950084912E+01 -0.34494367265E+01  0.69172482161E+01  0.00000000000E+00 0.  1.
         12    1    4    4    0    0 -0.59922238329E+02  0.12497775829E+03  0.21607508811E+03  0.25670714523E+03  0.00000000000E+00 0. -1.
         -5    1    5    5    0  502  0.80470701572E+01 -0.61168184209E+02  0.81759780069E+02  0.10253318358E+03  0.47000000000E+01 0.  1.
         13    1    6    6    0    0  0.16819950025E+03 -0.95993400825E+02  0.40508052759E+02  0.19785526838E+03  0.00000000000E+00 0. -1.
        -14    1    6    6    0    0  0.22546495905E+02  0.12407957632E+02  0.12316223739E+02  0.28530532020E+02  0.00000000000E+00 0.  1.
</event>
<event>
12    1  0.9962621E-001  0.2032728E+03  0.7818608E-02  0.1147011E+00
         21   -1    0    0  501  502  0.00000000000E+00  0.00000000000E+00  0.12658002021E+03  0.12658002021E+03  0.00000000000E+00 0.  1.
         21   -1    0    0  502  503 -0.00000000000E+00 -0.00000000000E+00 -0.40007593706E+03  0.40007593706E+03  0.00000000000E+00 0. -1.
         -6    2    1    2    0  503  0.68822516625E+02 -0.84919418852E+02 -0.23749096647E+02  0.20465540856E+03  0.17138252585E+03 0.  0.
        -24    2    3    3    0    0 -0.20726521944E+02 -0.60623438969E+02 -0.29809912654E+02  0.11155251689E+03  0.86316528354E+02 0.  0.
          6    2    1    2  501    0 -0.68822516625E+02  0.84919418852E+02 -0.24974682020E+03  0.32200054871E+03  0.17135644917E+03 0.  0.
         24    2    5    5    0    0 -0.64556188782E+02  0.61693024074E+01 -0.20833317571E+03  0.23279874187E+03  0.81160213837E+02 0.  0.
          5    1    5    5  501    0 -0.42663278424E+01  0.78750116444E+02 -0.41413644494E+02  0.89201806840E+02  0.47000000000E+01 0. -1.
        -11    1    6    6    0    0 -0.25467186443E+01  0.87568442287E+01  0.51525611746E+01  0.10474587503E+02  0.00000000000E+00 0.  1.
         12    1    6    6    0    0 -0.62009470138E+02 -0.25875418213E+01 -0.21348573689E+03  0.22232415436E+03  0.00000000000E+00 0. -1.
         -5    1    3    3    0  503  0.89549038568E+02 -0.24295979882E+02  0.60608160073E+01  0.93102891672E+02  0.47000000000E+01 0.  1.
         11    1    4    4    0    0 -0.73375202785E+01 -0.76010550567E+02 -0.42634103447E+02  0.87459189214E+02  0.00000000000E+00 0. -1.
        -12    1    4    4    0    0 -0.13389001665E+02  0.15387111597E+02  0.12824190792E+02  0.24093327673E+02  0.00000000000E+00 0.  1.
</event>
<event>
12    1  0.9962621E-001  0.1735203E+03  0.7818608E-02  0.1174416E+00
         21   -1    0    0  501  502  0.00000000000E+00  0.00000000000E+00  0.72090366940E+03  0.72090366940E+03  0.00000000000E+00 0. -1.
         21   -1    0    0  502  503 -0.00000000000E+00 -0.00000000000E+00 -0.42480845624E+02  0.42480845624E+02  0.00000000000E+00 0. -1.
         -6    2    1    2    0  503 -0.43025108978E+00 -0.21497698579E+02  0.28310285753E+03  0.33165872759E+03  0.17142913254E+03 0.  0.
        -24    2    3    3    0    0 -0.44764176917E+01  0.40258315325E+02  0.83457751670E+02  0.12258832076E+03  0.80136944069E+02 0.  0.
          6    2    1    2  501    0  0.43025108978E+00  0.21497698579E+02  0.39531996625E+03  0.43172578744E+03  0.17218287855E+03 0.  0.
         24    2    5    5    0    0  0.28170150538E+02  0.22537621003E+01  0.84364323663E+02  0.11890741718E+03  0.78885980564E+02 0.  0.
          5    1    5    5  501    0 -0.27739899449E+02  0.19243936479E+02  0.31095564258E+03  0.31281837025E+03  0.47000000000E+01 0. -1.
        -11    1    6    6    0    0  0.53108305283E+01 -0.37371637120E+02  0.43188497949E+02  0.57359310813E+02  0.00000000000E+00 0.  1.
         12    1    6    6    0    0  0.22859320010E+02  0.39625399220E+02  0.41175825715E+02  0.61548106372E+02  0.00000000000E+00 0. -1.
         -5    1    3    3    0  503  0.40461666019E+01 -0.61756013905E+02  0.19964510586E+03  0.20907040683E+03  0.47000000000E+01 0.  1.
         11    1    4    4    0    0  0.21806265390E+02 -0.60618544998E+01  0.60497346511E+02  0.64592478084E+02  0.00000000000E+00 0. -1.
        -12    1    4    4    0    0 -0.26282683081E+02  0.46320169825E+02  0.22960405160E+02  0.57995842676E+02  0.00000000000E+00 0.  1.
</event>
<event>
12    1  0.9962621E-001  0.2058159E+03  0.7818608E-02  0.1145099E+00
         21   -1    0    0  503  502  0.00000000000E+00  0.00000000000E+00  0.17632518051E+03  0.17632518051E+03  0.00000000000E+00 0. -1.
         21   -1    0    0  501  503 -0.00000000000E+00 -0.00000000000E+00 -0.59142146494E+03  0.59142146494E+03  0.00000000000E+00 0. -1.
          6    2    1    2  501    0 -0.96294236710E+02  0.59658078401E+02  0.88859516838E+02  0.22338312204E+03  0.17079911925E+03 0.  0.
         24    2    3    3    0    0 -0.89584000506E+02  0.10353021360E+03  0.93517318616E+02  0.17851022784E+03  0.66155984521E+02 0.  0.
         -6    2    1    2    0  502  0.96294236710E+02 -0.59658078401E+02 -0.50395580127E+03  0.54436352341E+03  0.17183867332E+03 0.  0.
        -24    2    5    5    0    0  0.73748959973E+02 -0.10316950741E+03 -0.43342969156E+03  0.45835447675E+03  0.78387961262E+02 0.  0.
          5    1    3    3  501    0 -0.67102362043E+01 -0.43872135195E+02 -0.46578017774E+01  0.44872894200E+02  0.47000000000E+01 0. -1.
        -11    1    4    4    0    0 -0.62730549226E+02  0.87413563803E+02  0.36785182364E+02  0.11370753090E+03  0.00000000000E+00 0.  1.
         12    1    4    4    0    0 -0.26853451280E+02  0.16116649793E+02  0.56732136252E+02  0.64802696934E+02  0.00000000000E+00 0. -1.
         -5    1    5    5    0  502  0.22545276737E+02  0.43511429013E+02 -0.70526109705E+02  0.86009046663E+02  0.47000000000E+01 0.  1.
         13    1    6    6    0    0  0.36793973641E+02 -0.86447546623E+02 -0.19446075502E+03  0.21596749769E+03  0.00000000000E+00 0. -1.
        -14    1    6    6    0    0  0.36954986332E+02 -0.16721960790E+02 -0.23896893654E+03  0.24238697906E+03  0.00000000000E+00 0.  1.
</event>
<event>
12    1  0.9962621E-001  0.2252036E+03  0.7818608E-02  0.1130492E+00
         21   -1    0    0  501  502  0.00000000000E+00  0.00000000000E+00  0.13968038448E+03  0.13968038448E+03  0.00000000000E+00 0. -1.
         21   -1    0    0  502  503 -0.00000000000E+00 -0.00000000000E+00 -0.44696060985E+03  0.44696060985E+03  0.00000000000E+00 0. -1.
         -6    2    1    2    0  503  0.14176942458E+03 -0.36781095994E+02 -0.28420085277E+03  0.36261106145E+03  0.17107085784E+03 0.  0.
        -24    2    3    3    0    0  0.15991970910E+03 -0.59160012379E+02 -0.27316059995E+03  0.33139846930E+03  0.78319931436E+02 0.  0.
          6    2    1    2  501    0 -0.14176942458E+03  0.36781095994E+02 -0.23079372596E+02  0.22402993288E+03  0.16794443908E+03 0.  0.
         24    2    5    5    0    0 -0.82728247059E+02  0.88089512163E+02 -0.11624842659E+02  0.14483580135E+03  0.78984475503E+02 0.  0.
          5    1    5    5  501    0 -0.59041177523E+02 -0.51308416169E+02 -0.11454529937E+02  0.79194131532E+02  0.47000000000E+01 0. -1.
        -11    1    6    6    0    0  0.76109032457E+01  0.25138076576E+02  0.16721832751E+02  0.31136288037E+02  0.00000000000E+00 0.  1.
         12    1    6    6    0    0 -0.90339150305E+02  0.62951435587E+02 -0.28346675410E+02  0.11369951331E+03  0.00000000000E+00 0. -1.
         -5    1    3    3    0  503 -0.18150284523E+02  0.22378916385E+02 -0.11040252815E+02  0.31212592155E+02  0.47000000000E+01 0.  1.
         13    1    4    4    0    0  0.61458391164E+02  0.15403315046E+02 -0.78765136083E+02  0.10108581810E+03  0.00000000000E+00 0. -1.
        -14    1    4    4    0    0  0.98461317941E+02 -0.74563327426E+02 -0.19439546387E+03  0.23031265120E+03  0.00000000000E+00 0.  1.
</event>
<event>
12    1  0.9962621E-001  0.2741481E+03  0.7818608E-02  0.1099314E+00
         21   -1    0    0  501  502  0.00000000000E+00  0.00000000000E+00  0.20683647082E+03  0.20683647082E+03  0.00000000000E+00 0. -1.
         21   -1    0    0  502  503 -0.00000000000E+00 -0.00000000000E+00 -0.37046623527E+03  0.37046623527E+03  0.00000000000E+00 0.  1.
         -6    2    1    2    0  503  0.69416159423E+02 -0.20283702948E+03 -0.33132188152E+02  0.27614296587E+03  0.17086758614E+03 0.  0.
        -24    2    3    3    0    0  0.71875621673E+02 -0.21990367595E+03 -0.52415738131E+02  0.24985105312E+03  0.78450031584E+02 0.  0.
          6    2    1    2  501    0 -0.69416159423E+02  0.20283702948E+03 -0.13049757629E+03  0.30115974022E+03  0.16645151844E+03 0.  0.
         24    2    5    5    0    0 -0.32093360177E+02  0.21211777105E+03 -0.12957807193E+03  0.26240333435E+03  0.77724517298E+02 0.  0.
          5    1    5    5  501    0 -0.37322799246E+02 -0.92807415696E+01 -0.91950436274E+00  0.38756405869E+02  0.47000000000E+01 0. -1.
        -13    1    6    6    0    0 -0.49586216491E+01  0.70513458640E+02 -0.86939423464E+02  0.11204998496E+03  0.00000000000E+00 0.  1.
         14    1    6    6    0    0 -0.27134738528E+02  0.14160431241E+03 -0.42638648463E+02  0.15035334938E+03  0.00000000000E+00 0. -1.
         -5    1    3    3    0  503 -0.24594622506E+01  0.17066646471E+02  0.19283549979E+02  0.26291912751E+02  0.47000000000E+01 0.  1.
         13    1    4    4    0    0  0.25074576348E+02 -0.14172106058E+03  0.15862572603E+01  0.14393091955E+03  0.00000000000E+00 0. -1.
        -14    1    4    4    0    0  0.46801045325E+02 -0.78182615372E+02 -0.54001995391E+02  0.10592013357E+03  0.00000000000E+00 0.  1.
</event>
<event>
12    1  0.9962621E-001  0.1912704E+03  0.7818608E-02  0.1157622E+00
         21   -1    0    0  501  502  0.00000000000E+00  0.00000000000E+00  0.94398451371E+02  0.94398451371E+02  0.00000000000E+00 0.  1.
         21   -1    0    0  502  503 -0.00000000000E+00 -0.00000000000E+00 -0.57717922669E+03  0.57717922669E+03  0.00000000000E+00 0.  1.
         -6    2    1    2    0  503  0.59219744160E+02  0.57222435757E+02 -0.43466678127E+03  0.47434857170E+03  0.17114313156E+03 0.  0.
        -24    2    3    3    0    0  0.36038515098E+02  0.77807057293E+02 -0.16159224729E+03  0.19947971727E+03  0.79544896030E+02 0.  0.
          6    2    1    2  501    0 -0.59219744160E+02 -0.57222435757E+02 -0.48113994043E+02  0.19722910636E+03  0.17263539243E+03 0.  0.
         24    2    5    5    0    0 -0.99097792540E+02 -0.34846953921E+02 -0.24956559527E+01  0.13246766953E+03  0.80664567732E+02 0.  0.
          5    1    5    5  501    0  0.39878048380E+02 -0.22375481836E+02 -0.45618338090E+02  0.64761436829E+02  0.47000000000E+01 0. -1.
        -13    1    6    6    0    0 -0.36176172855E+02 -0.39920201346E+02  0.29793715836E+02  0.61563003998E+02  0.00000000000E+00 0.  1.
         14    1    6    6    0    0 -0.62921619686E+02  0.50732474245E+01 -0.32289371789E+02  0.70904665529E+02  0.00000000000E+00 0. -1.
         -5    1    3    3    0  503  0.23181229062E+02 -0.20584621536E+02 -0.27307453399E+03  0.27486885443E+03  0.47000000000E+01 0.  1.
         11    1    4    4    0    0  0.32613059645E+02  0.21919373422E+02 -0.12864592818E+03  0.13451336524E+03  0.00000000000E+00 0. -1.
        -12    1    4    4    0    0  0.34254554526E+01  0.55887683872E+02 -0.32946319105E+02  0.64966352030E+02  0.00000000000E+00 0.  1.
</event>
<event>
12    1  0.9962621E-001  0.2168116E+03  0.7818608E-02  0.1137016E+00
         21   -1    0    0  501  502  0.00000000000E+00  0.00000000000E+00  0.19340382569E+03  0.19340382569E+03  0.00000000000E+00 0.  1.
         21   -1    0    0  502  503 -0.00000000000E+00 -0.00000000000E+00 -0.27572162915E+03  0.27572162915E+03  0.00000000000E+00 0.  1.
         -6    2    1    2    0  503 -0.66136291162E+02  0.10844182857E+03 -0.12669468620E+03  0.24781888707E+03  0.17096496157E+03 0.  0.
        -24    2    3    3    0    0 -0.60743791158E+02  0.45080334501E+02 -0.49808192945E+01  0.11041396218E+03  0.80276956599E+02 0.  0.
          6    2    1    2  501    0  0.66136291162E+02 -0.10844182857E+03  0.44376882741E+02  0.22130656776E+03  0.17570899243E+03 0.  0.
         24    2    5    5    0    0 -0.11224315507E+02 -0.84875062276E+02  0.44520233892E+02  0.14029936754E+03  0.10184350667E+03 0.  0.
          5    1    5    5  501    0  0.77360606669E+02 -0.23566766296E+02 -0.14335115091E+00  0.81007200220E+02  0.47000000000E+01 0. -1.
        -13    1    6    6    0    0 -0.15402242612E+02  0.17784612532E+01 -0.24802674414E+02  0.29250036923E+02  0.00000000000E+00 0.  1.
         14    1    6    6    0    0  0.41779271052E+01 -0.86653523530E+02  0.69322908306E+02  0.11104933062E+03  0.00000000000E+00 0. -1.
         -5    1    3    3    0  503 -0.53925000042E+01  0.63361494071E+02 -0.12171386691E+03  0.13740492489E+03  0.47000000000E+01 0.  1.
         13    1    4    4    0    0 -0.33608659277E+02  0.65403992504E+02 -0.15028948528E+02  0.75053937324E+02  0.00000000000E+00 0. -1.
        -14    1    4    4    0    0 -0.27135131880E+02 -0.20323658004E+02  0.10048129234E+02  0.35360024858E+02  0.00000000000E+00 0.  1.
</event>
<event>
12    1  0.9962621E-001  0.1886859E+03  0.7818608E-02  0.1159687E+00
         21   -1    0    0  501  502  0.00000000000E+00  0.00000000000E+00  0.14797021740E+03  0.14797021740E+03  0.00000000000E+00 0.  1.
         21   -1    0    0  502  503 -0.00000000000E+00 -0.00000000000E+00 -0.24249242329E+03  0.24249242329E+03  0.00000000000E+00 0.  1.
         -6    2    1    2    0  503 -0.71924209665E+02 -0.33182214285E+02 -0.29171200381E+02  0.19092758271E+03  0.17125487329E+03 0.  0.
        -24    2    3    3    0    0  0.23790673680E+02 -0.46809955108E+02 -0.15931294735E+02  0.93231936358E+02  0.75373866517E+02 0.  0.
          6    2    1    2  501    0  0.71924209665E+02  0.33182214285E+02 -0.65351005508E+02  0.19953505799E+03  0.17108282838E+03 0.  0.
         24    2    5    5    0    0  0.91838672811E+02  0.73356944278E+02 -0.67190033632E+02  0.15441226113E+03  0.74250001144E+02 0.  0.
          5    1    5    5  501    0 -0.19914463145E+02 -0.40174729993E+02  0.18390281233E+01  0.45122796864E+02  0.47000000000E+01 0. -1.
        -11    1    6    6    0    0  0.79670488971E+02  0.45360562762E+02 -0.13522766192E+02  0.92670559901E+02  0.00000000000E+00 0.  1.
         12    1    6    6    0    0  0.12168183840E+02  0.27996381516E+02 -0.53667267440E+02  0.61741701227E+02  0.00000000000E+00 0. -1.
         -5    1    3    3    0  503 -0.95714883346E+02  0.13627740823E+02 -0.13239905646E+02  0.97695646348E+02  0.47000000000E+01 0.  1.
         11    1    4    4    0    0 -0.13106269762E+02 -0.23787781595E+02  0.22442709871E+02  0.35232202409E+02  0.00000000000E+00 0. -1.
        -12    1    4    4    0    0  0.36896943442E+02 -0.23022173514E+02 -0.38374004606E+02  0.57999733949E+02  0.00000000000E+00 0.  1.
</event>
<event>
12    1  0.9962621E-001  0.3770130E+03  0.7818608E-02  0.1052085E+00
         21   -1    0    0  501  502  0.00000000000E+00  0.00000000000E+00  0.98269701810E+02  0.98269701810E+02  0.00000000000E+00 0.  1.
         21   -1    0    0  502  503 -0.00000000000E+00 -0.00000000000E+00 -0.14507951437E+04  0.14507951437E+04  0.00000000000E+00 0. -1.
         -6    2    1    2    0  503  0.30909026356E+03 -0.13079137040E+03 -0.72601345758E+03  0.81786302919E+03  0.17076656678E+03 0.  0.
        -24    2    3    3    0    0  0.23907004869E+03 -0.15777379460E+03 -0.62388941287E+03  0.69104705143E+03  0.79126287441E+02 0.  0.
          6    2    1    2  501    0 -0.30909026356E+03  0.13079137040E+03 -0.62651198427E+03  0.73120181628E+03  0.17174299433E+03 0.  0.
         24    2    5    5    0    0 -0.30543548113E+03  0.11745794873E+03 -0.49421165954E+03  0.59809808421E+03  0.79930914269E+02 0.  0.
          5    1    5    5  501    0 -0.36547824239E+01  0.13333421674E+02 -0.13230032473E+03  0.13310373207E+03  0.47000000000E+01 0. -1.
        -11    1    6    6    0    0 -0.10771114268E+03  0.28980182580E+02 -0.10785153794E+03  0.15515635815E+03  0.00000000000E+00 0.  1.
         12    1    6    6    0    0 -0.19772433846E+03  0.88477766148E+02 -0.38636012160E+03  0.44294172606E+03  0.00000000000E+00 0. -1.
         -5    1    3    3    0  503  0.70020214865E+02  0.26982424198E+02 -0.10212404471E+03  0.12681597775E+03  0.47000000000E+01 0.  1.
         11    1    4    4    0    0  0.82391701021E+02 -0.49684490115E+02 -0.30344277966E+03  0.31833074229E+03  0.00000000000E+00 0. -1.
        -12    1    4    4    0    0  0.15667834767E+03 -0.10808930449E+03 -0.32044663320E+03  0.37271630915E+03  0.00000000000E+00 0.  1.
</event>
<event>
12    1  0.9962621E-001  0.2030738E+03  0.7818608E-02  0.1147348E+00
         21   -1    0    0  503  502  0.00000000000E+00  0.00000000000E+00  0.13060927551E+04  0.13060927551E+04  0.00000000000E+00 0.  1.
         21   -1    0    0  501  503 -0.00000000000E+00 -0.00000000000E+00 -0.53915468694E+02  0.53915468694E+02  0.00000000000E+00 0.  1.
          6    2    1    2  501    0  0.80667439526E+02  0.68772205337E+02  0.10643463614E+04  0.10833867458E+04  0.17221153210E+03 0.  0.
         24    2    3    3    0    0  0.52903434942E+02  0.18704381324E+02  0.27337056948E+03  0.29032784480E+03  0.80063486679E+02 0.  0.
         -6    2    1    2    0  502 -0.80667439526E+02 -0.68772205337E+02  0.18783092496E+03  0.27662147801E+03  0.17321124010E+03 0.  0.
        -24    2    5    5    0    0 -0.38619699673E+02  0.20546920211E+02  0.14419368622E+03  0.16858344202E+03  0.75596961875E+02 0.  0.
          5    1    3    3  501    0  0.27764004584E+02  0.50067824014E+02  0.79097579196E+03  0.79305890098E+03  0.47000000000E+01 0. -1.
        -13    1    4    4    0    0  0.26225986862E+02 -0.21520105516E+02  0.19759090348E+03  0.20048212505E+03  0.00000000000E+00 0.  1.
         14    1    4    4    0    0  0.26677448080E+02  0.40224486840E+02  0.75779666000E+02  0.89845719746E+02  0.00000000000E+00 0. -1.
         -5    1    5    5    0  502 -0.42047739852E+02 -0.89319125549E+02  0.43637238740E+02  0.10803803599E+03  0.47000000000E+01 0.  1.
         13    1    6    6    0    0 -0.33923526827E+02 -0.38290801799E+01  0.13911808002E+03  0.14324562023E+03  0.00000000000E+00 0. -1.
        -14    1    6    6    0    0 -0.46961728460E+01  0.24376000391E+02  0.50756061952E+01  0.25337821783E+02  0.00000000000E+00 0.  1.
</event>
<event>
12    1  0.9962621E-001  0.2226256E+03  0.7818608E-02  0.1132644E+00
         21   -1    0    0  501  502  0.00000000000E+00  0.00000000000E+00  0.10125621408E+04  0.10125621408E+04  0.00000000000E+00 0. -1.
         21   -1    0    0  502  503 -0.00000000000E+00 -0.00000000000E+00 -0.50782042238E+02  0.50782042238E+02  0.00000000000E+00 0. -1.
         -6    2    1    2    0  503 -0.42619921672E+02  0.12705871518E+03  0.60661507104E+03  0.64617646027E+03  0.17776894714E+03 0.  0.
        -24    2    3    3    0    0  0.43168904932E+02  0.47405227236E+02  0.24255181309E+03  0.26372574880E+03  0.81296239930E+02 0.  0.
          6    2    1    2  501    0  0.42619921672E+02 -0.12705871518E+03  0.35516502752E+03  0.41716772277E+03  0.17299230422E+03 0.  0.
         24    2    5    5    0    0  0.41537707138E+02 -0.72262380582E+02  0.86152904423E+02  0.14258909678E+03  0.77214602371E+02 0.  0.
          5    1    5    5  501    0  0.10822145336E+01 -0.54796334598E+02  0.26901212310E+03  0.27457862599E+03  0.47000000000E+01 0. -1.
        -13    1    6    6    0    0  0.29341366353E+02 -0.88251394283E+02  0.65420692894E+02  0.11370616268E+03  0.00000000000E+00 0.  1.
         14    1    6    6    0    0  0.12196340785E+02  0.15989013700E+02  0.20732211529E+02  0.28882934105E+02  0.00000000000E+00 0. -1.
         -5    1    3    3    0  503 -0.85788826603E+02  0.79653487944E+02  0.36406325795E+03  0.38245071147E+03  0.47000000000E+01 0.  1.
         13    1    4    4    0    0  0.80354594054E+01  0.37252869074E+02  0.31253975737E+02  0.49286467326E+02  0.00000000000E+00 0. -1.
        -14    1    4    4    0    0  0.35133445526E+02  0.10152358161E+02  0.21129783735E+03  0.21443928148E+03  0.00000000000E+00 0.  1.
</event>
<event>
12    1  0.9962621E-001  0.3492727E+03  0.7818608E-02  0.1062986E+00
         21   -1    0    0  503  502  0.00000000000E+00  0.00000000000E+00  0.11877695029E+04  0.11877695029E+04  0.00000000000E+00 0. -1.
         21   -1    0    0  501  503 -0.00000000000E+00 -0.00000000000E+00 -0.10710911881E+03  0.10710911881E+03  0.00000000000E+00 0. -1.
          6    2    1    2  501    0 -0.15918368937E+01  0.30371346919E+03  0.40554066508E+03  0.53476150528E+03  0.17106206820E+03 0.  0.
         24    2    3    3    0    0  0.59695876174E+02  0.13758114207E+03  0.17379962668E+03  0.24307308801E+03  0.79912749893E+02 0.  0.
         -6    2    1    2    0  502  0.15918368937E+01 -0.30371346919E+03  0.67511971897E+03  0.76011711640E+03  0.17247315845E+03 0.  0.
        -24    2    5    5    0    0 -0.40728881087E+02 -0.29127849451E+03  0.56943212863E+03  0.64549762191E+03  0.76891011532E+02 0.  0.
          5    1    3    3  501    0 -0.61287713068E+02  0.16613232713E+03  0.23174103840E+03  0.29168841727E+03  0.47000000000E+01 0. -1.
        -13    1    4    4    0    0 -0.53720366344E+01  0.24436526467E+02  0.75898771709E+02  0.79916369727E+02  0.00000000000E+00 0.  1.
         14    1    4    4    0    0  0.65067912809E+02  0.11314461560E+03  0.97900854972E+02  0.16315671828E+03  0.00000000000E+00 0. -1.
         -5    1    5    5    0  502  0.42320717980E+02 -0.12434974685E+02  0.10568759034E+03  0.11461949449E+03  0.47000000000E+01 0.  1.
         13    1    6    6    0    0 -0.89756117100E+01 -0.63153575272E+02  0.20210806873E+03  0.21193538430E+03  0.00000000000E+00 0. -1.
        -14    1    6    6    0    0 -0.31753269377E+02 -0.22812491924E+03  0.36732405990E+03  0.43356223760E+03  0.00000000000E+00 0.  1.
</event>
<event>
12    1  0.9962621E-001  0.1903604E+03  0.7818608E-02  0.1158943E+00
         21   -1    0    0  503  502  0.00000000000E+00  0.00000000000E+00  0.47780289982E+03  0.47780289982E+03  0.00000000000E+00 0.  1.
         21   -1    0    0  501  503 -0.00000000000E+00 -0.00000000000E+00 -0.13163607885E+03  0.13163607885E+03  0.00000000000E+00 0.  1.
          6    2    1    2  501    0 -0.32033112338E+02 -0.70927864253E+02 -0.28703221852E+02  0.18900511929E+03  0.16982985002E+03 0.  0.
         24    2    3    3    0    0 -0.58860408782E+02 -0.76033702688E+01  0.22811357020E+02  0.10294968826E+03  0.80968644196E+02 0.  0.
         -6    2    1    2    0  502  0.32033112338E+02  0.70927864253E+02  0.37487004282E+03  0.42043385938E+03  0.17372449134E+03 0.  0.
        -24    2    5    5    0    0 -0.17691826203E+02  0.63577515243E+02  0.34860604517E+03  0.36352617346E+03  0.79183349907E+02 0.  0.
          5    1    3    3  501    0  0.26827296443E+02 -0.63324493984E+02 -0.51514578871E+02  0.86055431026E+02  0.47000000000E+01 0. -1.
        -13    1    4    4    0    0 -0.36595139552E+02 -0.42506958999E+02  0.25178132706E+02  0.61481575848E+02  0.00000000000E+00 0.  1.
         14    1    4    4    0    0 -0.22265269229E+02  0.34903588730E+02 -0.23667756866E+01  0.41468112415E+02  0.00000000000E+00 0. -1.
         -5    1    5    5    0  502  0.49724938542E+02  0.73503490097E+01  0.26263997648E+02  0.56907685913E+02  0.47000000000E+01 0.  1.
         13    1    6    6    0    0  0.27994607125E+01  0.67632377650E+02  0.15949018957E+03  0.17326019755E+03  0.00000000000E+00 0. -1.
        -14    1    6    6    0    0 -0.20491286916E+02 -0.40548624074E+01  0.18911585560E+03  0.19026597591E+03  0.00000000000E+00 0.  1.
</event>
<event>
12    1  0.9962621E-001  0.2286798E+03  0.7818608E-02  0.1128810E+00
         21   -1    0    0  501  502  0.00000000000E+00  0.00000000000E+00  0.68826706560E+02  0.68826706560E+02  0.00000000000E+00 0. -1.
         21   -1    0    0  502  503 -0.00000000000E+00 -0.00000000000E+00 -0.81263552345E+03  0.81263552345E+03  0.00000000000E+00 0. -1.
         -6    2    1    2    0  503 -0.13679700862E+03  0.68035313835E+02 -0.24274056902E+03  0.33349278095E+03  0.17015353539E+03 0.  0.
        -24    2    3    3    0    0 -0.91176992021E+02  0.10872654174E+03 -0.20532490332E+03  0.26166671338E+03  0.78590382479E+02 0.  0.
          6    2    1    2  501    0  0.13679700862E+03 -0.68035313835E+02 -0.50106824787E+03  0.54796944905E+03  0.16080703522E+03 0.  0.
         24    2    5    5    0    0  0.72367347996E+02 -0.10159991060E+03 -0.36915649728E+03  0.39730238806E+03  0.77544137019E+02 0.  0.
          5    1    5    5  501    0  0.64429660625E+02  0.33564596762E+02 -0.13191175059E+03  0.15066706099E+03  0.47000000000E+01 0. -1.
        -13    1    6    6    0    0 -0.13342652856E+02 -0.36142490338E+02 -0.11224668342E+03  0.11867444515E+03  0.00000000000E+00 0.  1.
         14    1    6    6    0    0  0.85710000852E+02 -0.65457420259E+02 -0.25690981386E+03  0.27862794291E+03  0.00000000000E+00 0. -1.
         -5    1    3    3    0  503 -0.45620016601E+02 -0.40691227904E+02 -0.37415665699E+02  0.71826067571E+02  0.47000000000E+01 0.  1.
         11    1    4    4    0    0 -0.84241907088E+02  0.56435560566E+02 -0.93070222524E+02  0.13763625150E+03  0.00000000000E+00 0. -1.
        -12    1    4    4    0    0 -0.69350849324E+01  0.52290981173E+02 -0.11225468079E+03  0.12403046188E+03  0.00000000000E+00 0.  1.
</event>
<event>
12    1  0.9962621E-001  0.2068295E+03  0.7818608E-02  0.1144248E+00
         21   -1    0    0  503  502  0.00000000000E+00  0.00000000000E+00  0.57179954467E+03  0.57179954467E+03  0.00000000000E+00 0. -1.
         21   -1    0    0  501  503 -0.00000000000E+00 -0.00000000000E+00 -0.27825477216E+03  0.27825477216E+03  0.00000000000E+00 0. -1.
          6    2    1    2  501    0  0.14670760344E+02  0.11374251435E+03 -0.21695479236E+03  0.29924740528E+03  0.17125138499E+03 0.  0.
         24    2    3    3    0    0  0.45192960242E+02  0.10140956064E+03 -0.81939109306E+02  0.16019694284E+03  0.81380220065E+02 0.  0.
         -6    2    1    2    0  502 -0.14670760344E+02 -0.11374251435E+03  0.51049956487E+03  0.55080691155E+03  0.17212163518E+03 0.  0.
        -24    2    5    5    0    0 -0.63308907139E+02 -0.45584173627E+02  0.37448915345E+03  0.39101908113E+03  0.81042341718E+02 0.  0.
          5    1    3    3  501    0 -0.30522199899E+02  0.12332953710E+02 -0.13501568305E+03  0.13905046244E+03  0.47000000000E+01 0. -1.
        -11    1    4    4    0    0  0.25491013345E+01  0.39584206780E+02 -0.74908871700E+02  0.84762883406E+02  0.00000000000E+00 0.  1.
         12    1    4    4    0    0  0.42643858908E+02  0.61825353857E+02 -0.70302376065E+01  0.75434059436E+02  0.00000000000E+00 0. -1.
         -5    1    5    5    0  502  0.48638146796E+02 -0.68158340721E+02  0.13601041142E+03  0.15978783041E+03  0.47000000000E+01 0.  1.
         13    1    6    6    0    0 -0.12184344658E+02 -0.65138545441E+01  0.25442701384E+03  0.25480187190E+03  0.00000000000E+00 0. -1.
        -14    1    6    6    0    0 -0.51124562481E+02 -0.39070319082E+02  0.12006213961E+03  0.13621720923E+03  0.00000000000E+00 0.  1.
</event>
<event>
12    1  0.9962621E-001  0.2524253E+03  0.7818608E-02  0.1111933E+00
         21   -1    0    0  503  502  0.00000000000E+00  0.00000000000E+00  0.28519371418E+03  0.28519371418E+03  0.00000000000E+00 0. -1.
         21   -1    0    0  501  503 -0.00000000000E+00 -0.00000000000E+00 -0.22728407272E+03  0.22728407272E+03  0.00000000000E+00 0. -1.
          6    2    1    2  501    0  0.15631194429E+03 -0.97070588022E+02 -0.80207790639E+01  0.25158445746E+03  0.17138927432E+03 0.  0.
         24    2    3    3    0    0  0.93290218193E+02 -0.76790111673E+02 -0.70114609257E+02  0.16069568241E+03  0.79418246350E+02 0.  0.
         -6    2    1    2    0  502 -0.15631194429E+03  0.97070588022E+02  0.65930420525E+02  0.26089332944E+03  0.17280736677E+03 0.  0.
        -24    2    5    5    0    0 -0.52004843472E+02  0.63704457130E+02  0.93573123829E+02  0.14784697161E+03  0.79624342445E+02 0.  0.
          5    1    3    3  501    0  0.63021726095E+02 -0.20280476348E+02  0.62093830193E+02  0.90888775044E+02  0.47000000000E+01 0. -1.
        -13    1    4    4    0    0  0.10012442911E+03 -0.85145397132E+02 -0.71807097343E+02  0.14976948683E+03  0.00000000000E+00 0.  1.
         14    1    4    4    0    0 -0.68342109148E+01  0.83552854591E+01  0.16924880865E+01  0.10926195580E+02  0.00000000000E+00 0. -1.
         -5    1    5    5    0  502 -0.10430710082E+03  0.33366130892E+02 -0.27642703303E+02  0.11304635782E+03  0.47000000000E+01 0.  1.
         11    1    6    6    0    0  0.19414015584E+02  0.16934598778E+02  0.38255737251E+02  0.46121427444E+02  0.00000000000E+00 0. -1.
        -12    1    6    6    0    0 -0.71418859055E+02  0.46769858353E+02  0.55317386577E+02  0.10172554417E+03  0.00000000000E+00 0.  1.
</event>
<event>
12    1  0.9962621E-001  0.1734724E+03  0.7818608E-02  0.1175816E+00
         21   -1    0    0  503  502  0.00000000000E+00  0.00000000000E+00  0.30234381429E+03  0.30234381429E+03  0.00000000000E+00 0. -1.
         21   -1    0    0  501  503 -0.00000000000E+00 -0.00000000000E+00 -0.18270168246E+03  0.18270168246E+03  0.00000000000E+00 0. -1.
          6    2    1    2  501    0  0.65721233630E+01  0.19522163307E+02  0.22728888640E+03  0.28592468985E+03  0.17224512393E+03 0.  0.
         24    2    3    3    0    0  0.35335718873E+02 -0.13011636846E+02  0.49989215612E+02  0.10332387977E+03  0.82213056941E+02 0.  0.
         -6    2    1    2    0  502 -0.65721233630E+01 -0.19522163307E+02 -0.10764675457E+03  0.19912080691E+03  0.16624368953E+03 0.  0.
        -24    2    5    5    0    0 -0.61603323505E+02  0.47241683569E+01 -0.39454955902E+02  0.10807944820E+03  0.79417796151E+02 0.  0.
          5    1    3    3  501    0 -0.28763595510E+02  0.32533800153E+02  0.17729967079E+03  0.18260081008E+03  0.47000000000E+01 0. -1.
        -11    1    4    4    0    0  0.41441074195E+02  0.26995902368E+02  0.32847671655E+02  0.59372644443E+02  0.00000000000E+00 0.  1.
         12    1    4    4    0    0 -0.61053553212E+01 -0.40007539214E+02  0.17141543957E+02  0.43951235327E+02  0.00000000000E+00 0. -1.
         -5    1    5    5    0  502  0.55031200142E+02 -0.24246331664E+02 -0.68191798671E+02  0.91041358701E+02  0.47000000000E+01 0.  1.
         11    1    6    6    0    0 -0.36784320195E+02  0.15902157517E+02 -0.61259425793E+02  0.73203019572E+02  0.00000000000E+00 0. -1.
        -12    1    6    6    0    0 -0.24819003310E+02 -0.11177989160E+02  0.21804469891E+02  0.34876428633E+02  0.00000000000E+00 0.  1.
</event>
<event>
12    1  0.9962621E-001  0.2776144E+03  0.7818608E-02  0.1097099E+00
         21   -1    0    0  501  502  0.00000000000E+00  0.00000000000E+00  0.32627691797E+03  0.32627691797E+03  0.00000000000E+00 0. -1.
         21   -1    0    0  502  503 -0.00000000000E+00 -0.00000000000E+00 -0.23909690527E+03  0.23909690527E+03  0.00000000000E+00 0. -1.
         -6    2    1    2    0  503  0.15684371757E+03 -0.14709129027E+03  0.93247068164E+01  0.27704899965E+03  0.17445170861E+03 0.  0.
        -24    2    3    3    0    0  0.89658161269E+02 -0.10642605746E+03  0.71946259912E+02  0.17649498905E+03  0.81296526722E+02 0.  0.
          6    2    1    2  501    0 -0.15684371757E+03  0.14709129027E+03  0.77855305890E+02  0.28832482359E+03  0.17559600175E+03 0.  0.
         24    2    5    5    0    0 -0.64661077594E+02  0.11267653543E+03  0.10681703536E+03  0.18564626576E+03  0.78597712155E+02 0.  0.
          5    1    5    5  501    0 -0.92182639976E+02  0.34414754838E+02 -0.28961729474E+02  0.10267855783E+03  0.47000000000E+01 0. -1.
        -13    1    6    6    0    0 -0.78693897813E+02  0.10924836329E+03  0.10567028917E+03  0.17115532258E+03  0.00000000000E+00 0.  1.
         14    1    6    6    0    0  0.14032820219E+02  0.34281721350E+01  0.11467461987E+01  0.14490943183E+02  0.00000000000E+00 0. -1.
         -5    1    3    3    0  503  0.67185556301E+02 -0.40665232805E+02 -0.62621553095E+02  0.10055401059E+03  0.47000000000E+01 0.  1.
         13    1    4    4    0    0 -0.80234941440E+01 -0.71197212735E+01  0.28701261240E+02  0.30640321246E+02  0.00000000000E+00 0. -1.
        -14    1    4    4    0    0  0.97681655413E+02 -0.99306336187E+02  0.43244998672E+02  0.14585466781E+03  0.00000000000E+00 0.  1.
</event>
<event>
12    1  0.9962621E-001  0.1814296E+03  0.7818608E-02  0.1166785E+00
         21   -1    0    0  503  502  0.00000000000E+00  0.00000000000E+00  0.40178689698E+03  0.40178689698E+03  0.00000000000E+00 0.  1.
         21   -1    0    0  501  503 -0.00000000000E+00 -0.00000000000E+00 -0.29592551035E+03  0.29592551035E+03  0.00000000000E+00 0.  1.
          6    2    1    2  501    0 -0.52609367515E+02  0.15172720824E+02  0.34999717488E+03  0.39354306629E+03  0.17140643392E+03 0.  0.
         24    2    3    3    0    0 -0.76655211036E+02  0.52832974430E+02  0.30646388144E+03  0.33098321550E+03  0.83441199360E+02 0.  0.
         -6    2    1    2    0  502  0.52609367515E+02 -0.15172720824E+02 -0.24413578825E+03  0.30416934104E+03  0.17297036716E+03 0.  0.
        -24    2    5    5    0    0  0.51923901350E+02 -0.50131079282E+02 -0.73464721347E+02  0.12989008304E+03  0.79152711569E+02 0.  0.
          5    1    3    3  501    0  0.24045843521E+02 -0.37660253606E+02  0.43533293436E+02  0.62559850781E+02  0.47000000000E+01 0. -1.
        -11    1    4    4    0    0 -0.24226379558E+02  0.26699907738E+02  0.23870428883E+03  0.24141155740E+03  0.00000000000E+00 0.  1.
         12    1    4    4    0    0 -0.52428831478E+02  0.26133066692E+02  0.67759592613E+02  0.89571658107E+02  0.00000000000E+00 0. -1.
         -5    1    5    5    0  502  0.68546616487E+00  0.34958358458E+02 -0.17067106691E+03  0.17427925800E+03  0.47000000000E+01 0.  1.
         13    1    6    6    0    0  0.55545610756E+02 -0.53222617867E+01 -0.62168128949E+02  0.83537522119E+02  0.00000000000E+00 0. -1.
        -14    1    6    6    0    0 -0.36217094061E+01 -0.44808817495E+02 -0.11296592398E+02  0.46352560923E+02  0.00000000000E+00 0.  1.
</event>
<event>
12    1  0.9962621E-001  0.1982913E+03  0.7818608E-02  0.1151268E+00
         21   -1    0    0  503  502  0.00000000000E+00  0.00000000000E+00  0.90324903528E+02  0.90324903528E+02  0.00000000000E+00 0. -1.
         21   -1    0    0  501  503 -0.00000000000E+00 -0.00000000000E+00 -0.44145528137E+03  0.44145528137E+03  0.00000000000E+00 0. -1.
          6    2    1    2  501    0 -0.64461373161E+02  0.71607156897E+02 -0.14203293828E+03  0.24361155489E+03  0.17288834713E+03 0.  0.
         24    2    3    3    0    0 -0.48670323739E+02  0.10714009417E+03 -0.14570626185E+03  0.20427289479E+03  0.81543243813E+02 0.  0.
         -6    2    1    2    0  502  0.64461373161E+02 -0.71607156897E+02 -0.20909743956E+03  0.28816863001E+03  0.17331060712E+03 0.  0.
        -24    2    5    5    0    0  0.37804796686E+02 -0.17693476215E+02 -0.22088925776E+02  0.91670456321E+02  0.78570288068E+02 0.  0.
          5    1    3    3  501    0 -0.15791049422E+02 -0.35532937272E+02  0.36733235642E+01  0.39338660107E+02  0.47000000000E+01 0. -1.
        -11    1    4    4    0    0 -0.34839504032E+02  0.25112578025E+02 -0.10118679002E+03  0.10992360571E+03  0.00000000000E+00 0.  1.
         12    1    4    4    0    0 -0.13830819707E+02  0.82027516144E+02 -0.44519471825E+02  0.94349289081E+02  0.00000000000E+00 0. -1.
         -5    1    5    5    0  502  0.26656576475E+02 -0.53913680682E+02 -0.18700851379E+03  0.19649817369E+03  0.47000000000E+01 0.  1.
         13    1    6    6    0    0 -0.97445748781E+01 -0.35734562280E+02 -0.16361229721E+02  0.40492042661E+02  0.00000000000E+00 0. -1.
        -14    1    6    6    0    0  0.47549371564E+02  0.18041086065E+02 -0.57276960555E+01  0.51178413659E+02  0.00000000000E+00 0.  1.
</event>
<event>
12    1  0.9962621E-001  0.4246734E+03  0.7818608E-02  0.1035696E+00
         21   -1    0    0  501  502  0.00000000000E+00  0.00000000000E+00  0.69888694310E+02  0.69888694310E+02  0.00000000000E+00 0. -1.
         21   -1    0    0  502  503 -0.00000000000E+00 -0.00000000000E+00 -0.26496672821E+04  0.26496672821E+04  0.00000000000E+00 0. -1.
         -6    2    1    2    0  503  0.15339571017E+03 -0.35458318130E+03 -0.10565486066E+04  0.11387020949E+04  0.17631796943E+03 0.  0.
        -24    2    3    3    0    0  0.25045719787E+02 -0.22543165491E+03 -0.64267884360E+03  0.68652501944E+03  0.82666723581E+02 0.  0.
          6    2    1    2  501    0 -0.15339571017E+03  0.35458318130E+03 -0.15232299812E+04  0.15808538816E+04  0.17207539890E+03 0.  0.
         24    2    5    5    0    0 -0.16128567930E+03  0.35465857406E+03 -0.15201351115E+04  0.15711623639E+04  0.77101504404E+02 0.  0.
          5    1    5    5  501    0  0.78899691256E+01 -0.75392759245E-01 -0.30948697181E+01  0.96915177059E+01  0.47000000000E+01 0. -1.
        -13    1    6    6    0    0 -0.52983729972E+02  0.82529486104E+02 -0.51359388720E+03  0.52287385925E+03  0.00000000000E+00 0.  1.
         14    1    6    6    0    0 -0.10830194933E+03  0.27212908795E+03 -0.10065412243E+04  0.10482885046E+04  0.00000000000E+00 0. -1.
         -5    1    3    3    0  503  0.12834999039E+03 -0.12915152638E+03 -0.41386976301E+03  0.45217707542E+03  0.47000000000E+01 0.  1.
         13    1    4    4    0    0 -0.37030779744E+01 -0.33101357824E+01 -0.90704983620E+02  0.90840870971E+02  0.00000000000E+00 0. -1.
        -14    1    4    4    0    0  0.28748797762E+02 -0.22212151913E+03 -0.55197385998E+03  0.59568414847E+03  0.00000000000E+00 0.  1.
</event>
<event>
12    1  0.9962621E-001  0.1855609E+03  0.7818608E-02  0.1162683E+00
         21   -1    0    0  503  502  0.00000000000E+00  0.00000000000E+00  0.13442185940E+03  0.13442185940E+03  0.00000000000E+00 0.  1.
         21   -1    0    0  501  503 -0.00000000000E+00 -0.00000000000E+00 -0.26638261361E+03  0.26638261361E+03  0.00000000000E+00 0.  1.
          6    2    1    2  501    0  0.14299205418E+02  0.65681902556E+02 -0.25094246341E+02  0.18725006405E+03  0.17295746786E+03 0.  0.
         24    2    3    3    0    0  0.44912106338E+02  0.34369044668E+02 -0.72990611769E+02  0.12218243314E+03  0.80016179828E+02 0.  0.
         -6    2    1    2    0  502 -0.14299205418E+02 -0.65681902556E+02 -0.10686650787E+03  0.21355440896E+03  0.17223952939E+03 0.  0.
        -24    2    5    5    0    0 -0.50042625969E+02 -0.62028041073E+01 -0.10963517238E+03  0.14394757907E+03  0.78474806806E+02 0.  0.
          5    1    3    3  501    0 -0.30612900919E+02  0.31312857887E+02  0.47896365428E+02  0.65067630916E+02  0.47000000000E+01 0. -1.
        -11    1    4    4    0    0 -0.50596855011E+01 -0.13035947708E+02  0.78025518039E+01  0.16012999865E+02  0.00000000000E+00 0.  1.
         12    1    4    4    0    0  0.49971791839E+02  0.47404992376E+02 -0.80793163573E+02  0.10616943327E+03  0.00000000000E+00 0. -1.
         -5    1    5    5    0  502  0.35743420551E+02 -0.59479098448E+02  0.27686645121E+01  0.69606829895E+02  0.47000000000E+01 0.  1.
         11    1    6    6    0    0 -0.14888320676E+01 -0.35544134604E+02 -0.52614336935E+02  0.63512759165E+02  0.00000000000E+00 0. -1.
        -12    1    6    6    0    0 -0.48553793901E+02  0.29341330496E+02 -0.57020835448E+02  0.80434819902E+02  0.00000000000E+00 0.  1.
</event>
<event>
12    1  0.9962621E-001  0.1761828E+03  0.7818608E-02  0.1171576E+00
         21   -1    0    0  501  502  0.00000000000E+00  0.00000000000E+00  0.10954734092E+03  0.10954734092E+03  0.00000000000E+00 0.  1.
         21   -1    0    0  502  503 -0.00000000000E+00 -0.00000000000E+00 -0.32315159985E+03  0.32315159985E+03  0.00000000000E+00 0.  1.
         -6    2    1    2    0  503  0.19343933202E+02  0.37806278104E+02 -0.30685285825E+02  0.17873094249E+03  0.17087908187E+03 0.  0.
        -24    2    3    3    0    0  0.52154610449E+02 -0.44133039434E+02 -0.17275438314E+02  0.89330124206E+02  0.54896281850E+02 0.  0.
          6    2    1    2  501    0 -0.19343933202E+02 -0.37806278104E+02 -0.18291897311E+03  0.25396799828E+03  0.17098798500E+03 0.  0.
         24    2    5    5    0    0  0.21906516194E+02  0.13703470356E+00 -0.17956600923E+03  0.19762417050E+03  0.79570389384E+02 0.  0.
          5    1    5    5  501    0 -0.41250449396E+02 -0.37943312807E+02 -0.33529638805E+01  0.56343827780E+02  0.47000000000E+01 0. -1.
        -13    1    6    6    0    0  0.25773869521E+02  0.30522914607E+02 -0.47565002649E+02  0.62115780147E+02  0.00000000000E+00 0.  1.
         14    1    6    6    0    0 -0.38673533274E+01 -0.30385879903E+02 -0.13200100658E+03  0.13550839035E+03  0.00000000000E+00 0. -1.
         -5    1    3    3    0  503 -0.32810677246E+02  0.81939317538E+02 -0.13409847511E+02  0.89400818286E+02  0.47000000000E+01 0.  1.
         13    1    4    4    0    0  0.19888451213E+02 -0.22356097741E+02  0.19551116388E+02  0.35743415476E+02  0.00000000000E+00 0. -1.
        -14    1    4    4    0    0  0.32266159236E+02 -0.21776941693E+02 -0.36826554702E+02  0.53586708731E+02  0.00000000000E+00 0.  1.
</event>
<event>
12    1  0.9962621E-001  0.2003138E+03  0.7818608E-02  0.1149816E+00
         21   -1    0    0  503  502  0.00000000000E+00  0.00000000000E+00  0.34383790434E+03  0.34383790434E+03  0.00000000000E+00 0.  1.
         21   -1    0    0  501  503 -0.00000000000E+00 -0.00000000000E+00 -0.12319027110E+03  0.12319027110E+03  0.00000000000E+00 0.  1.
          6    2    1    2  501    0 -0.10242646761E+03  0.36323519823E+01  0.16809537399E+03  0.26149888401E+03  0.17210821111E+03 0.  0.
         24    2    3    3    0    0 -0.23712140954E+02  0.57161214038E+02  0.11094817360E+03  0.15037203393E+03  0.80452354510E+02 0.  0.
         -6    2    1    2    0  502  0.10242646761E+03 -0.36323519823E+01  0.52552259243E+02  0.20552929143E+03  0.17022389503E+03 0.  0.
        -24    2    5    5    0    0  0.55444918450E+02 -0.70147703817E+02  0.42486091691E+02  0.12334063212E+03  0.73573121525E+02 0.  0.
          5    1    3    3  501    0 -0.78714326659E+02 -0.53528862056E+02  0.57147200395E+02  0.11112685007E+03  0.47000000000E+01 0. -1.
        -13    1    4    4    0    0 -0.44645575614E+01  0.13073840123E+02  0.10011221752E+03  0.10106094036E+03  0.00000000000E+00 0.  1.
         14    1    4    4    0    0 -0.19247583393E+02  0.44087373916E+02  0.10835956075E+02  0.49311093572E+02  0.00000000000E+00 0. -1.
         -5    1    5    5    0  502  0.46981549163E+02  0.66515351835E+02  0.10066167552E+02  0.82188659319E+02  0.47000000000E+01 0.  1.
         11    1    6    6    0    0 -0.14239119149E+02 -0.29282638798E+02  0.24052942903E+02  0.40481718237E+02  0.00000000000E+00 0. -1.
        -12    1    6    6    0    0  0.69684037599E+02 -0.40865065019E+02  0.18433148788E+02  0.82858913879E+02  0.00000000000E+00 0.  1.
</event>
<event>
12    1  0.9962621E-001  0.2164162E+03  0.7818608E-02  0.1136718E+00
         21   -1    0    0  503  502  0.00000000000E+00  0.00000000000E+00  0.64084093641E+02  0.64084093641E+02  0.00000000000E+00 0. -1.
         21   -1    0    0  501  503 -0.00000000000E+00 -0.00000000000E+00 -0.88803238399E+03  0.88803238399E+03  0.00000000000E+00 0.  1.
          6    2    1    2  501    0 -0.12567619719E+03  0.36705131136E+02 -0.21073371138E+03  0.30206732119E+03  0.17232004013E+03 0.  0.
         24    2    3    3    0    0 -0.73706057822E+02  0.66984399980E+02 -0.63016757390E+02  0.14250505120E+03  0.80106710745E+02 0.  0.
         -6    2    1    2    0  502  0.12567619719E+03 -0.36705131136E+02 -0.61321457897E+03  0.65004915644E+03  0.17143515607E+03 0.  0.
        -24    2    5    5    0    0  0.18727350213E+01 -0.18444467759E+01 -0.30595845747E+03  0.31692608796E+03  0.82611490779E+02 0.  0.
          5    1    3    3  501    0 -0.51970139364E+02 -0.30279268844E+02 -0.14771695399E+03  0.15956226999E+03  0.47000000000E+01 0. -1.
        -11    1    4    4    0    0 -0.25346378254E+02 -0.87303311474E+01 -0.42664662242E+02  0.50387805834E+02  0.00000000000E+00 0.  1.
         12    1    4    4    0    0 -0.48359679568E+02  0.75714731128E+02 -0.20352095148E+02  0.92117245370E+02  0.00000000000E+00 0. -1.
         -5    1    5    5    0  502  0.12380346217E+03 -0.34860684360E+02 -0.30725612150E+03  0.33312306848E+03  0.47000000000E+01 0.  1.
         11    1    6    6    0    0 -0.82694289905E+00 -0.13327943319E+02 -0.29339965416E+01  0.13672097257E+02  0.00000000000E+00 0. -1.
        -12    1    6    6    0    0  0.26996779203E+01  0.11483496544E+02 -0.30302446093E+03  0.30325399070E+03  0.00000000000E+00 0.  1.
</event>
<event>
12    1  0.9962621E-001  0.1736290E+03  0.7818608E-02  0.1176990E+00
         21   -1    0    0  503  502  0.00000000000E+00  0.00000000000E+00  0.29248670981E+03  0.29248670981E+03  0.00000000000E+00 0. -1.
         21   -1    0    0  501  503 -0.00000000000E+00 -0.00000000000E+00 -0.14853753036E+03  0.14853753036E+03  0.00000000000E+00 0. -1.
          6    2    1    2  501    0  0.48630424670E+01 -0.15710655771E+02  0.20070197950E+03  0.25835538454E+03  0.16185100017E+03 0.  0.
         24    2    3    3    0    0 -0.66093570286E+01  0.21045706477E+02  0.20488910734E+03  0.21933912952E+03  0.75123245883E+02 0.  0.
         -6    2    1    2    0  502 -0.48630424670E+01  0.15710655771E+02 -0.56752800048E+02  0.18266885563E+03  0.17284836308E+03 0.  0.
        -24    2    5    5    0    0  0.47651662420E+02  0.39690074082E+02 -0.71538871584E+02  0.12288989074E+03  0.78346232760E+02 0.  0.
          5    1    3    3  501    0  0.11472399496E+02 -0.36756362248E+02 -0.41871278342E+01  0.39016255015E+02  0.47000000000E+01 0. -1.
        -13    1    4    4    0    0  0.29827223153E+02 -0.88897014576E+01  0.79402261015E+02  0.85284283941E+02  0.00000000000E+00 0.  1.
         14    1    4    4    0    0 -0.36436580182E+02  0.29935407935E+02  0.12548684632E+03  0.13405484558E+03  0.00000000000E+00 0. -1.
         -5    1    5    5    0  502 -0.52514704887E+02 -0.23979418311E+02  0.14786071536E+02  0.59778964890E+02  0.47000000000E+01 0.  1.
         13    1    6    6    0    0  0.27046483918E+01 -0.21766339925E+01  0.15764824313E+02  0.16142569315E+02  0.00000000000E+00 0. -1.
        -14    1    6    6    0    0  0.44947014028E+02  0.41866708074E+02 -0.87303695897E+02  0.10674732143E+03  0.00000000000E+00 0.  1.
</event>
<event>
12    1  0.9962621E-001  0.1793605E+03  0.7818608E-02  0.1169255E+00
         21   -1    0    0  501  502  0.00000000000E+00  0.00000000000E+00  0.16796625033E+03  0.16796625033E+03  0.00000000000E+00 0. -1.
         21   -1    0    0  502  503 -0.00000000000E+00 -0.00000000000E+00 -0.20537499045E+03  0.20537499045E+03  0.00000000000E+00 0. -1.
         -6    2    1    2    0  503  0.37121710770E+02 -0.18186016412E+02 -0.72943894786E+02  0.19049448121E+03  0.17105140450E+03 0.  0.
        -24    2    3    3    0    0  0.73021028321E+02 -0.38341674755E+02 -0.18074380580E+02  0.12173573520E+03  0.87696929201E+02 0.  0.
          6    2    1    2  501    0 -0.37121710770E+02  0.18186016412E+02  0.35535154665E+02  0.18284675956E+03  0.17453205339E+03 0.  0.
         24    2    5    5    0    0 -0.47928153800E+02  0.76373673573E+02  0.32543811743E+02  0.12340249332E+03  0.77711194383E+02 0.  0.
          5    1    5    5  501    0  0.10806443030E+02 -0.58187657161E+02  0.29913429220E+01  0.59444266244E+02  0.47000000000E+01 0. -1.
        -13    1    6    6    0    0 -0.15149749784E+02 -0.56360379603E+01  0.31126596392E+02  0.35073420782E+02  0.00000000000E+00 0.  1.
         14    1    6    6    0    0 -0.32778404016E+02  0.82009711534E+02  0.14172153511E+01  0.88329072536E+02  0.00000000000E+00 0. -1.
         -5    1    3    3    0  503 -0.35899317551E+02  0.20155658342E+02 -0.54869514206E+02  0.68758746011E+02  0.47000000000E+01 0.  1.
         11    1    4    4    0    0  0.15489634293E+02  0.25866740238E+02  0.88411549982E+01  0.31419469167E+02  0.00000000000E+00 0. -1.
        -12    1    4    4    0    0  0.57531394028E+02 -0.64208414992E+02 -0.26915535578E+02  0.90316266033E+02  0.00000000000E+00 0.  1.
</event>
<event>
12    1  0.9962621E-001  0.2556666E+03  0.7818608E-02  0.1109820E+00
         21   -1    0    0  503  502  0.00000000000E+00  0.00000000000E+00  0.70518449448E+03  0.70518449448E+03  0.00000000000E+00 0. -1.
         21   -1    0    0  501  503 -0.00000000000E+00 -0.00000000000E+00 -0.31303222038E+03  0.31303222038E+03  0.00000000000E+00 0. -1.
          6    2    1    2  501    0 -0.18930267926E+03 -0.99543562565E+01 -0.23119290724E+03  0.34447744300E+03  0.17111386499E+03 0.  0.
         24    2    3    3    0    0 -0.20587702824E+03  0.15251544939E+02 -0.18429633992E+03  0.28851831036E+03  0.81607071551E+02 0.  0.
         -6    2    1    2    0  502  0.18930267926E+03  0.99543562565E+01  0.62334518134E+03  0.67373927186E+03  0.17155406660E+03 0.  0.
        -24    2    5    5    0    0  0.19324322822E+03 -0.32886966998E+02  0.50963407126E+03  0.55207081473E+03  0.81429724568E+02 0.  0.
          5    1    3    3  501    0  0.16574348977E+02 -0.25205901195E+02 -0.46896567321E+02  0.55959132638E+02  0.47000000000E+01 0. -1.
        -13    1    4    4    0    0 -0.16498198669E+03 -0.19536271434E+01 -0.17963214633E+03  0.24390690967E+03  0.00000000000E+00 0.  1.
         14    1    4    4    0    0 -0.40895041553E+02  0.17205172082E+02 -0.46641935924E+01  0.44611400694E+02  0.00000000000E+00 0. -1.
         -5    1    5    5    0  502 -0.39405489578E+01  0.42841323254E+02  0.11371111008E+03  0.12166845713E+03  0.47000000000E+01 0.  1.
         11    1    6    6    0    0  0.11843124760E+03 -0.58279997583E+02  0.34717810163E+03  0.37142314518E+03  0.00000000000E+00 0. -1.
        -12    1    6    6    0    0  0.74811980619E+02  0.25393030585E+02  0.16245596963E+03  0.18064766955E+03  0.00000000000E+00 0.  1.
</event>
<event>
12    1  0.9962621E-001  0.2116250E+03  0.7818608E-02  0.1140324E+00
         21   -1    0    0  501  502  0.00000000000E+00  0.00000000000E+00  0.13295846753E+03  0.13295846753E+03  0.00000000000E+00 0.  1.
         21   -1    0    0  502  503 -0.00000000000E+00 -0.00000000000E+00 -0.33895277895E+03  0.33895277895E+03  0.00000000000E+00 0.  1.
         -6    2    1    2    0  503  0.57391441404E+02  0.10935245691E+03 -0.12302682005E+03  0.24478713478E+03  0.17185286009E+03 0.  0.
        -24    2    3    3    0    0  0.87565092102E+02  0.12827433491E+03 -0.10679347024E+03  0.20536508118E+03  0.81535396791E+02 0.  0.
          6    2    1    2  501    0 -0.57391441404E+02 -0.10935245691E+03 -0.82967491364E+02  0.22712411171E+03  0.17161008163E+03 0.  0.
         24    2    5    5    0    0 -0.70930054267E+02 -0.36981451062E+02  0.46538022754E+00  0.11575090762E+03  0.83662152230E+02 0.  0.
          5    1    5    5  501    0  0.13538612863E+02 -0.72371005848E+02 -0.83432871592E+02  0.11137320408E+03  0.47000000000E+01 0. -1.
        -13    1    6    6    0    0 -0.63574371573E+02 -0.62522247469E+02  0.77254944970E+00  0.89170224751E+02  0.00000000000E+00 0.  1.
         14    1    6    6    0    0 -0.73556826943E+01  0.25540796407E+02 -0.30716922216E+00  0.26580682872E+02  0.00000000000E+00 0. -1.
         -5    1    3    3    0  503 -0.30173650698E+02 -0.18921878004E+02 -0.16233349815E+02  0.39422053598E+02  0.47000000000E+01 0.  1.
         11    1    4    4    0    0  0.40425551408E+02  0.88789542137E+02 -0.10573177246E+03  0.14386457419E+03  0.00000000000E+00 0. -1.
        -12    1    4    4    0    0  0.47139540695E+02  0.39484792777E+02 -0.10616977755E+01  0.61500506988E+02  0.00000000000E+00 0.  1.
</event>
<event>
12    1  0.9962621E-001  0.1946982E+03  0.7818608E-02  0.1154306E+00
         21   -1    0    0  501  502  0.00000000000E+00  0.00000000000E+00  0.64961807497E+03  0.64961807497E+03  0.00000000000E+00 0. -1.
         21   -1    0    0  502  503 -0.00000000000E+00 -0.00000000000E+00 -0.74120190902E+02  0.74120190902E+02  0.00000000000E+00 0. -1.
         -6    2    1    2    0  503  0.81658908030E+02  0.43425137193E+02  0.12077899988E+03  0.22911779916E+03  0.17132857111E+03 0.  0.
        -24    2    3    3    0    0  0.37280549303E+01  0.67694930026E+02  0.99147502890E+02  0.14454680904E+03  0.80417975157E+02 0.  0.
          6    2    1    2  501    0 -0.81658908030E+02 -0.43425137193E+02  0.45471888419E+03  0.49462046671E+03  0.17124900773E+03 0.  0.
         24    2    5    5    0    0 -0.64783064321E+02 -0.86671782860E+02  0.27237198991E+03  0.30639840022E+03  0.89356787099E+02 0.  0.
          5    1    5    5  501    0 -0.16875843709E+02  0.43246645667E+02  0.18234689427E+03  0.18822206649E+03  0.47000000000E+01 0. -1.
        -13    1    6    6    0    0 -0.80071645999E+02 -0.57993660369E+02  0.24395570266E+03  0.26322826215E+03  0.00000000000E+00 0.  1.
         14    1    6    6    0    0  0.15288581678E+02 -0.28678122491E+02  0.28416287253E+02  0.43170138066E+02  0.00000000000E+00 0. -1.
         -5    1    3    3    0  503  0.77930853100E+02 -0.24269792833E+02  0.21631496990E+02  0.84570990127E+02  0.47000000000E+01 0.  1.
         13    1    4    4    0    0 -0.30707418357E+02  0.46981980875E+02  0.27738412074E+02  0.62607280515E+02  0.00000000000E+00 0. -1.
        -14    1    4    4    0    0  0.34435473287E+02  0.20712949151E+02  0.71409090816E+02  0.81939528521E+02  0.00000000000E+00 0.  1.
</event>
<event>
12    1  0.9962621E-001  0.2335690E+03  0.7818608E-02  0.1124517E+00
         21   -1    0    0  503  502  0.00000000000E+00  0.00000000000E+00  0.48687030724E+02  0.48687030724E+02  0.00000000000E+00 0.  1.
         21   -1    0    0  501  503 -0.00000000000E+00 -0.00000000000E+00 -0.11318379050E+04  0.11318379050E+04  0.00000000000E+00 0.  1.
          6    2    1    2  501    0  0.14632309216E+03  0.51216473701E+02 -0.45806278318E+03  0.51322469647E+03  0.17188513971E+03 0.  0.
         24    2    3    3    0    0  0.59739483871E+02 -0.20407848593E+02 -0.31561724423E+03  0.33173203454E+03  0.80290794405E+02 0.  0.
         -6    2    1    2    0  502 -0.14632309216E+03 -0.51216473701E+02 -0.62508809111E+03  0.66730023926E+03  0.17470235603E+03 0.  0.
        -24    2    5    5    0    0 -0.15366174799E+03 -0.86347938318E+02 -0.57347466871E+03  0.60425968845E+03  0.72032466210E+02 0.  0.
          5    1    3    3  501    0  0.86583608289E+02  0.71624322295E+02 -0.14244553896E+03  0.18149266194E+03  0.47000000000E+01 0. -1.
        -11    1    4    4    0    0  0.32405040608E+02  0.27528185010E+02 -0.91117507711E+02  0.10054992709E+03  0.00000000000E+00 0.  1.
         12    1    4    4    0    0  0.27334443263E+02 -0.47936033603E+02 -0.22449973652E+03  0.23118210744E+03  0.00000000000E+00 0. -1.
         -5    1    5    5    0  502  0.73386558279E+01  0.35131464617E+02 -0.51613422393E+02  0.63040550811E+02  0.47000000000E+01 0.  1.
         11    1    6    6    0    0 -0.29009964547E+02 -0.39505837846E+02 -0.24434665497E+03  0.24921391827E+03  0.00000000000E+00 0. -1.
        -12    1    6    6    0    0 -0.12465178344E+03 -0.46842100472E+02 -0.32912801374E+03  0.35504577018E+03  0.00000000000E+00 0.  1.
</event>
<event>
12    1  0.9962621E-001  0.2450400E+03  0.7818608E-02  0.1116551E+00
         21   -1    0    0  501  502  0.00000000000E+00  0.00000000000E+00  0.16349222190E+03  0.16349222190E+03  0.00000000000E+00 0. -1.
         21   -1    0    0  502  503 -0.00000000000E+00 -0.00000000000E+00 -0.36752266315E+03  0.36752266315E+03  0.00000000000E+00 0. -1.
         -6    2    1    2    0  503  0.17381127734E+03 -0.13446201703E+02 -0.11531631391E+03  0.27081813780E+03  0.17220177419E+03 0.  0.
        -24    2    3    3    0    0  0.10333768376E+02 -0.25739987632E+01 -0.28087707106E+02  0.85146329005E+02  0.79671612348E+02 0.  0.
          6    2    1    2  501    0 -0.17381127734E+03  0.13446201703E+02 -0.88714127342E+02  0.26019674726E+03  0.17158377085E+03 0.  0.
         24    2    5    5    0    0 -0.19852136379E+03 -0.38986642024E+01 -0.81113994187E+02  0.22871207211E+03  0.79396476070E+02 0.  0.
          5    1    5    5  501    0  0.24710086443E+02  0.17344865905E+02 -0.76001331549E+01  0.31484675149E+02  0.47000000000E+01 0. -1.
        -13    1    6    6    0    0 -0.52294998230E+02  0.28527950089E+02 -0.44957910125E+02  0.74631256582E+02  0.00000000000E+00 0.  1.
         14    1    6    6    0    0 -0.14622636555E+03 -0.32426614292E+02 -0.36156084062E+02  0.15408081552E+03  0.00000000000E+00 0. -1.
         -5    1    3    3    0  503  0.16347750897E+03 -0.10872202939E+02 -0.87228606802E+02  0.18567180879E+03  0.47000000000E+01 0.  1.
         11    1    4    4    0    0 -0.11785262111E+02  0.27543234561E+02 -0.36118305054E+02  0.46926049622E+02  0.00000000000E+00 0. -1.
        -12    1    4    4    0    0  0.22119030487E+02 -0.30117233324E+02  0.80305979487E+01  0.38220279384E+02  0.00000000000E+00 0.  1.
</event>
<event>
12    1  0.9962621E-001  0.1754187E+03  0.7818608E-02  0.1177085E+00
         21   -1    0    0  501  502  0.00000000000E+00  0.00000000000E+00  0.55675735366E+03  0.55675735366E+03  0.00000000000E+00 0. -1.
         21   -1    0    0  502  503 -0.00000000000E+00 -0.00000000000E+00 -0.57600014363E+02  0.57600014363E+02  0.00000000000E+00 0. -1.
         -6    2    1    2    0  503 -0.13705959773E+01  0.25979803945E+01  0.37454232731E+03  0.41358634124E+03  0.17539406683E+03 0.  0.
        -24    2    3    3    0    0  0.62677417557E+00  0.57512587436E+02  0.32434624549E+03  0.33901194762E+03  0.80128166737E+02 0.  0.
          6    2    1    2  501    0  0.13705959773E+01 -0.25979803945E+01  0.12461501199E+03  0.20077102679E+03  0.15738956747E+03 0.  0.
         24    2    5    5    0    0 -0.24705251113E+02  0.42429995523E+02  0.38202854968E+02  0.99792715759E+02  0.78028674461E+02 0.  0.
          5    1    5    5  501    0  0.26075847090E+02 -0.45027975918E+02  0.86412157025E+02  0.10097831103E+03  0.47000000000E+01 0. -1.
        -11    1    6    6    0    0 -0.48953675291E+02  0.37591012446E+02  0.42167219921E+02  0.74750391150E+02  0.00000000000E+00 0.  1.
         12    1    6    6    0    0  0.24248424178E+02  0.48389830768E+01 -0.39643649531E+01  0.25042324609E+02  0.00000000000E+00 0. -1.
         -5    1    3    3    0  503 -0.19973701529E+01 -0.54914607041E+02  0.50196081819E+02  0.74574393621E+02  0.47000000000E+01 0.  1.
         13    1    4    4    0    0 -0.31882446960E+02  0.12221240528E+02  0.19785446190E+03  0.20077907570E+03  0.00000000000E+00 0. -1.
        -14    1    4    4    0    0  0.32509221135E+02  0.45291346907E+02  0.12649178359E+03  0.13823287192E+03  0.00000000000E+00 0.  1.
</event>
<event>
12    1  0.9962621E-001  0.1017244E+04  0.7818608E-02  0.9289868E-01
         21   -1    0    0  501  502  0.00000000000E+00  0.00000000000E+00  0.14013969834E+04  0.14013969834E+04  0.00000000000E+00 0.  1.
         21   -1    0    0  502  503 -0.00000000000E+00 -0.00000000000E+00 -0.74335645681E+03  0.74335645681E+03  0.00000000000E+00 0.  1.
         -6    2    1    2    0  503 -0.39187185546E+03  0.92258472655E+03  0.41747608084E+03  0.10994515220E+04  0.17257242621E+03 0.  0.
        -24    2    3    3    0    0 -0.10136100321E+03  0.22591546677E+03  0.13172911460E+03  0.29234680042E+03  0.82475699380E+02 0.  0.
          6    2    1    2  501    0  0.39187185546E+03 -0.92258472655E+03  0.24056444575E+03  0.10453019183E+04  0.17337450496E+03 0.  0.
         24    2    5    5    0    0  0.10388508447E+03 -0.21804524221E+03  0.90646694987E+02  0.26953798041E+03  0.78090083527E+02 0.  0.
          5    1    5    5  501    0  0.28798677099E+03 -0.70453948434E+03  0.14991775076E+03  0.77576393785E+03  0.47000000000E+01 0. -1.
        -13    1    6    6    0    0  0.40526308800E+02 -0.16664372792E+03  0.71014408914E+02  0.18562208929E+03  0.00000000000E+00 0.  1.
         14    1    6    6    0    0  0.63358775668E+02 -0.51401514294E+02  0.19632286073E+02  0.83915891119E+02  0.00000000000E+00 0. -1.
         -5    1    3    3    0  503 -0.29051085225E+03  0.69666925978E+03  0.28574696624E+03  0.80710472153E+03  0.47000000000E+01 0.  1.
         11    1    4    4    0    0 -0.69758843047E+02  0.19579478986E+03  0.13614006304E+03  0.24846732720E+03  0.00000000000E+00 0. -1.
        -12    1    4    4    0    0 -0.31602160161E+02  0.30120676905E+02 -0.44109484451E+01  0.43879473222E+02  0.00000000000E+00 0.  1.
</event>
<event>
12    1  0.9962621E-001  0.2365781E+03  0.7818608E-02  0.1122264E+00
         21   -1    0    0  503  502  0.00000000000E+00  0.00000000000E+00  0.77161219054E+02  0.77161219054E+02  0.00000000000E+00 0.  1.
         21   -1    0    0  501  503 -0.00000000000E+00 -0.00000000000E+00 -0.86965243349E+03  0.86965243349E+03  0.00000000000E+00 0.  1.
          6    2    1    2  501    0 -0.13711427728E+03  0.85910613845E+02 -0.20206947870E+03  0.31112901899E+03  0.17259268127E+03 0.  0.
         24    2    3    3    0    0 -0.37783872068E+02 -0.97087447832E+01 -0.39770447125E+02  0.98120435136E+02  0.80771595335E+02 0.  0.
         -6    2    1    2    0  502  0.13711427728E+03 -0.85910613845E+02 -0.59042173574E+03  0.63568463356E+03  0.17121965045E+03 0.  0.
        -24    2    5    5    0    0  0.10710708593E+02  0.25977899701E+01 -0.22049330544E+03  0.23483462013E+03  0.80053315201E+02 0.  0.
          5    1    3    3  501    0 -0.99330405217E+02  0.95619358628E+02 -0.16229903157E+03  0.21300858385E+03  0.47000000000E+01 0. -1.
        -11    1    4    4    0    0 -0.29795866723E+02 -0.11205419040E+02  0.20134752914E+02  0.37666475340E+02  0.00000000000E+00 0.  1.
         12    1    4    4    0    0 -0.79880053449E+01  0.14966742568E+01 -0.59905200039E+02  0.60453959796E+02  0.00000000000E+00 0. -1.
         -5    1    5    5    0  502  0.12640356869E+03 -0.88508403815E+02 -0.36992843030E+03  0.40085001343E+03  0.47000000000E+01 0.  1.
         13    1    6    6    0    0  0.26184738372E+02 -0.26500425757E+02 -0.57296035240E+02  0.68342876316E+02  0.00000000000E+00 0. -1.
        -14    1    6    6    0    0 -0.15474029779E+02  0.29098215728E+02 -0.16319727020E+03  0.16649174381E+03  0.00000000000E+00 0.  1.
</event>
<event>
12    1  0.1176619E+000  0.2675904E+03  0.7818608E-02  0.1103945E+00
         21   -1    0    0  501  502  0.00000000000E+00  0.00000000000E+00  0.44546527371E+03  0.44546527371E+03  0.00000000000E+00 0.  1.
         21   -1    0    0  502  503 -0.00000000000E+00 -0.00000000000E+00 -0.33625409076E+03  0.33625409076E+03  0.00000000000E+00 0.  1.
         -6    2    1    2    0  503 -0.12093802899E+03 -0.15101437701E+03  0.34068532775E+03  0.42790460718E+03  0.17205961577E+03 0.  0.
        -24    2    3    3    0    0 -0.10750037793E+03 -0.85481849898E+02  0.12296131245E+03  0.20008687429E+03  0.77793283696E+02 0.  0.
          6    2    1    2  501    0  0.12093802899E+03  0.15101437701E+03 -0.23147414481E+03  0.35381475730E+03  0.18486009264E+03 0.  0.
         24    2    5    5    0    0  0.10748716991E+03  0.58131444312E+02 -0.58834556173E+02  0.15725768579E+03  0.79597225005E+02 0.  0.
          5    1    5    5  501    0  0.13450859084E+02  0.92882932695E+02 -0.17263958863E+03  0.19655707151E+03  0.47000000000E+01 0. -1.
        -13    1    6    6    0    0  0.36007516269E+02  0.59480955030E+02 -0.49068440316E+02  0.85101334151E+02  0.00000000000E+00 0.  1.
         14    1    6    6    0    0  0.71479653637E+02 -0.13495107184E+01 -0.97661158566E+01  0.72156351642E+02  0.00000000000E+00 0. -1.
         -5    1    3    3    0  503 -0.13437651059E+02 -0.65532527108E+02  0.21772401530E+03  0.22781773288E+03  0.47000000000E+01 0.  1.
         13    1    4    4    0    0 -0.10396087728E+03 -0.56930459090E+02  0.12368285265E+03  0.17130787844E+03  0.00000000000E+00 0. -1.
        -14    1    4    4    0    0 -0.35395006514E+01 -0.28551390808E+02 -0.72154020092E+00  0.28778995851E+02  0.00000000000E+00 0.  1.
</event>
<event>
12    1  0.9962621E-001  0.1914862E+03  0.7818608E-02  0.1158461E+00
         21   -1    0    0  501  502  0.00000000000E+00  0.00000000000E+00  0.65652570753E+03  0.65652570753E+03  0.00000000000E+00 0.  1.
         21   -1    0    0  502  503 -0.00000000000E+00 -0.00000000000E+00 -0.82584167842E+02  0.82584167842E+02  0.00000000000E+00 0.  1.
         -6    2    1    2    0  503  0.65598720877E+02 -0.45883360094E+02  0.73072937929E+02  0.20495515881E+03  0.17394967074E+03 0.  0.
        -24    2    3    3    0    0  0.10311548251E+03 -0.48365432614E+02  0.20171789559E+02  0.13988373969E+03  0.78667285002E+02 0.  0.
          6    2    1    2  501    0 -0.65598720877E+02  0.45883360094E+02  0.50086860176E+03  0.53415471657E+03  0.16746172723E+03 0.  0.
         24    2    5    5    0    0 -0.83554250586E+02  0.30303930081E+02  0.49493355400E+03  0.50920607976E+03  0.80199550017E+02 0.  0.
          5    1    5    5  501    0  0.17955529709E+02  0.15579430012E+02  0.59350477641E+01  0.24948636808E+02  0.47000000000E+01 0. -1.
        -11    1    6    6    0    0 -0.58989434243E+02 -0.92108406089E-01  0.13719741822E+03  0.14934153274E+03  0.00000000000E+00 0.  1.
         12    1    6    6    0    0 -0.24564816343E+02  0.30396038487E+02  0.35773613578E+03  0.35986454702E+03  0.00000000000E+00 0. -1.
         -5    1    3    3    0  503 -0.37516761633E+02  0.24820725199E+01  0.52901148370E+02  0.65071419120E+02  0.47000000000E+01 0.  1.
         11    1    4    4    0    0  0.31675517332E+02 -0.15812282890E+02 -0.30260777410E+02  0.46573397320E+02  0.00000000000E+00 0. -1.
        -12    1    4    4    0    0  0.71439965178E+02 -0.32553149724E+02  0.50432566969E+02  0.93310342367E+02  0.00000000000E+00 0.  1.
</event>
<event>
12    1  0.9962621E-001  0.2154931E+03  0.7818608E-02  0.1137468E+00
         21   -1    0    0  503  502  0.00000000000E+00  0.00000000000E+00  0.28305936412E+04  0.28305936412E+04  0.00000000000E+00 0.  1.
         21   -1    0    0  501  503 -0.00000000000E+00 -0.00000000000E+00 -0.41443119769E+02  0.41443119769E+02  0.00000000000E+00 0.  1.
          6    2    1    2  501    0 -0.83848732536E+02 -0.98114571725E+02  0.25111331101E+04  0.25202826413E+04  0.17140016420E+03 0.  0.
         24    2    3    3    0    0 -0.38244260817E+02  0.27807702182E+01  0.66441239766E+03  0.67023963705E+03  0.79416501617E+02 0.  0.
         -6    2    1    2    0  502  0.83848732536E+02  0.98114571725E+02  0.27801741139E+03  0.35175411972E+03  0.17256940799E+03 0.  0.
        -24    2    5    5    0    0  0.28156596870E+02  0.39144370006E+02  0.40751501189E+02  0.10096277057E+03  0.78789088976E+02 0.  0.
          5    1    3    3  501    0 -0.45604471719E+02 -0.10089534194E+03  0.18467207124E+04  0.18500430042E+04  0.47000000000E+01 0. -1.
        -11    1    4    4    0    0  0.15906107070E+02  0.12325004034E+02  0.59033158400E+02  0.62368451618E+02  0.00000000000E+00 0.  1.
         12    1    4    4    0    0 -0.54150367887E+02 -0.95442338154E+01  0.60537923926E+03  0.60787118543E+03  0.00000000000E+00 0. -1.
         -5    1    5    5    0  502  0.55692135666E+02  0.58970201720E+02  0.23726591020E+03  0.25079134915E+03  0.47000000000E+01 0.  1.
         13    1    6    6    0    0  0.29039419219E+02 -0.17983841192E+02  0.79081701804E+01  0.35060598515E+02  0.00000000000E+00 0. -1.
        -14    1    6    6    0    0 -0.88282234891E+00  0.57128211198E+02  0.32843331008E+02  0.65902172056E+02  0.00000000000E+00 0.  1.
</event>
<event>
12    1  0.9962621E-001  0.5101166E+03  0.7818608E-02  0.1011262E+00
         21   -1    0    0  501  502  0.00000000000E+00  0.00000000000E+00  0.24518006435E+03  0.24518006435E+03  0.00000000000E+00 0. -1.
         21   -1    0    0  502  503 -0.00000000000E+00 -0.00000000000E+00 -0.11422072210E+04  0.11422072210E+04  0.00000000000E+00 0.  1.
         -6    2    1    2    0  503  0.40058322619E+03 -0.26340257062E+03 -0.63584504763E+03  0.81429476367E+03  0.17008586725E+03 0.  0.
        -24    2    3    3    0    0  0.23153942130E+03 -0.20476794528E+03 -0.32392375556E+03  0.45466883342E+03  0.79099517335E+02 0.  0.
          6    2    1    2  501    0 -0.40058322619E+03  0.26340257062E+03 -0.26118210897E+03  0.57309252163E+03  0.17427308738E+03 0.  0.
         24    2    5    5    0    0 -0.24407589751E+03  0.98284647197E+02 -0.19080780988E+03  0.33490540078E+03  0.80753275718E+02 0.  0.
          5    1    5    5  501    0 -0.15650732867E+03  0.16511792342E+03 -0.70374299098E+02  0.23818712085E+03  0.47000000000E+01 0. -1.
        -13    1    6    6    0    0 -0.39391537507E+02  0.39444826676E+02 -0.71921377471E+02  0.90996000549E+02  0.00000000000E+00 0.  1.
         14    1    6    6    0    0 -0.20468436001E+03  0.58839820521E+02 -0.11888643241E+03  0.24390940023E+03  0.00000000000E+00 0. -1.
         -5    1    3    3    0  503  0.16904380489E+03 -0.58634625339E+02 -0.31192129207E+03  0.35962593025E+03  0.47000000000E+01 0.  1.
         11    1    4    4    0    0  0.46227590968E+02 -0.75833623767E+02 -0.12775355148E+03  0.15559144763E+03  0.00000000000E+00 0. -1.
        -12    1    4    4    0    0  0.18531183033E+03 -0.12893432151E+03 -0.19617020408E+03  0.29907738580E+03  0.00000000000E+00 0.  1.
</event>
<event>
12    1  0.9962621E-001  0.2536930E+03  0.7818608E-02  0.1111380E+00
         21   -1    0    0  501  502  0.00000000000E+00  0.00000000000E+00  0.79555098355E+02  0.79555098355E+02  0.00000000000E+00 0. -1.
         21   -1    0    0  502  503 -0.00000000000E+00 -0.00000000000E+00 -0.80839772841E+03  0.80839772841E+03  0.00000000000E+00 0. -1.
         -6    2    1    2    0  503  0.18387871660E+03  0.28327496427E+02 -0.32401329335E+03  0.41151518018E+03  0.17247115635E+03 0.  0.
        -24    2    3    3    0    0  0.20651443422E+03  0.41639172993E+02 -0.27610435951E+03  0.35667967719E+03  0.81269566956E+02 0.  0.
          6    2    1    2  501    0 -0.18387871660E+03 -0.28327496427E+02 -0.40482933670E+03  0.47643764659E+03  0.16879635590E+03 0.  0.
         24    2    5    5    0    0 -0.14898355272E+03 -0.44544995347E+02 -0.19016851811E+03  0.25830457535E+03  0.79855073556E+02 0.  0.
          5    1    5    5  501    0 -0.34895163876E+02  0.16217498921E+02 -0.21466081858E+03  0.21813307124E+03  0.47000000000E+01 0. -1.
        -11    1    6    6    0    0 -0.14952375918E+03 -0.21130562084E+02 -0.15854820037E+03  0.21895521700E+03  0.00000000000E+00 0.  1.
         12    1    6    6    0    0  0.54020645446E+00 -0.23414433263E+02 -0.31620317744E+02  0.39349358347E+02  0.00000000000E+00 0. -1.
         -5    1    3    3    0  503 -0.22635717622E+02 -0.13311676566E+02 -0.47908933843E+02  0.54835502982E+02  0.47000000000E+01 0.  1.
         13    1    4    4    0    0  0.58569778971E+02 -0.33932623086E+01 -0.13555786210E+03  0.14770872424E+03  0.00000000000E+00 0. -1.
        -14    1    4    4    0    0  0.14794465525E+03  0.45032435301E+02 -0.14054649741E+03  0.20897095295E+03  0.00000000000E+00 0.  1.
</event>
<event>
12    1  0.9962621E-001  0.2939635E+03  0.7818608E-02  0.1088506E+00
         21   -1    0    0  503  502  0.00000000000E+00  0.00000000000E+00  0.72371147641E+02  0.72371147641E+02  0.00000000000E+00 0. -1.
         21   -1    0    0  501  503 -0.00000000000E+00 -0.00000000000E+00 -0.12435460313E+04  0.12435460313E+04  0.00000000000E+00 0. -1.
          6    2    1    2  501    0  0.22453241648E+02 -0.23386725408E+03 -0.72682499101E+03  0.78402112176E+03  0.17668194931E+03 0.  0.
         24    2    3    3    0    0 -0.12187648475E+02 -0.11376048215E+03 -0.21765880763E+03  0.25971403594E+03  0.83582521224E+02 0.  0.
         -6    2    1    2    0  502 -0.22453241648E+02  0.23386725408E+03 -0.44434989262E+03  0.53189605716E+03  0.17397858477E+03 0.  0.
        -24    2    5    5    0    0  0.22674972260E+02  0.58451637637E+02 -0.10153785275E+03  0.14414693870E+03  0.80855773370E+02 0.  0.
          5    1    3    3  501    0  0.34640890124E+02 -0.12010677193E+03 -0.50916618339E+03  0.52430708581E+03  0.47000000000E+01 0. -1.
        -13    1    4    4    0    0  0.49748877105E+01 -0.12228376314E+03 -0.18404388539E+03  0.22102085871E+03  0.00000000000E+00 0.  1.
         14    1    4    4    0    0 -0.17162536186E+02  0.85232809948E+01 -0.33614922237E+02  0.38693177231E+02  0.00000000000E+00 0. -1.
         -5    1    5    5    0  502 -0.45128213908E+02  0.17541561644E+03 -0.34281203988E+03  0.38774911846E+03  0.47000000000E+01 0.  1.
         11    1    6    6    0    0  0.20049926986E+02 -0.34587870113E+01  0.49522238980E+01  0.20940088378E+02  0.00000000000E+00 0. -1.
        -12    1    6    6    0    0  0.26250452733E+01  0.61910424648E+02 -0.10649007665E+03  0.12320685032E+03  0.00000000000E+00 0.  1.
</event>
<event>
12    1  0.9962621E-001  0.2214223E+03  0.7818608E-02  0.1133682E+00
         21   -1    0    0  501  502  0.00000000000E+00  0.00000000000E+00  0.15295264597E+03  0.15295264597E+03  0.00000000000E+00 0. -1.
         21   -1    0    0  502  503 -0.00000000000E+00 -0.00000000000E+00 -0.31742876275E+03  0.31742876275E+03  0.00000000000E+00 0. -1.
         -6    2    1    2    0  503  0.10689053176E+03  0.88536596713E+02 -0.56783553767E+02  0.22415893624E+03  0.16660894929E+03 0.  0.
        -24    2    3    3    0    0  0.72265724320E+02  0.65635461555E+02 -0.10234297676E+03  0.16234396795E+03  0.79693979136E+02 0.  0.
          6    2    1    2  501    0 -0.10689053176E+03 -0.88536596713E+02 -0.10769256302E+03  0.24622247248E+03  0.17252102216E+03 0.  0.
         24    2    5    5    0    0 -0.97057735274E+02 -0.31164400319E+02 -0.61859544532E+01  0.12911596374E+03  0.79001533131E+02 0.  0.
          5    1    5    5  501    0 -0.98327964828E+01 -0.57372196394E+02 -0.10150660857E+03  0.11710650874E+03  0.47000000000E+01 0. -1.
        -13    1    6    6    0    0 -0.28488689413E+02 -0.49073890784E+02 -0.12033906270E+02  0.58005750416E+02  0.00000000000E+00 0.  1.
         14    1    6    6    0    0 -0.68569045861E+02  0.17909490465E+02  0.58479518170E+01  0.71110213328E+02  0.00000000000E+00 0. -1.
         -5    1    3    3    0  503  0.34624807437E+02  0.22901135158E+02  0.45559422998E+02  0.61814968296E+02  0.47000000000E+01 0.  1.
         11    1    4    4    0    0  0.75165099593E+02  0.16848844501E+02 -0.59161169849E+02  0.97127337942E+02  0.00000000000E+00 0. -1.
        -12    1    4    4    0    0 -0.28993752733E+01  0.48786617055E+02 -0.43181806916E+02  0.65216630005E+02  0.00000000000E+00 0.  1.
</event>
<event>
12    1  0.9962621E-001  0.2397766E+03  0.7818608E-02  0.1120074E+00
         21   -1    0    0  503  502  0.00000000000E+00  0.00000000000E+00  0.10556139395E+04  0.10556139395E+04  0.00000000000E+00 0.  1.
         21   -1    0    0  501  503 -0.00000000000E+00 -0.00000000000E+00 -0.31548832375E+03  0.31548832375E+03  0.00000000000E+00 0.  1.
          6    2    1    2  501    0  0.11747043755E+03 -0.12256295297E+03  0.99374684769E+03  0.10220799744E+04  0.16820729956E+03 0.  0.
         24    2    3    3    0    0  0.44702600776E+02  0.77589116944E+01  0.37492617754E+03  0.38549529167E+03  0.77320489300E+02 0.  0.
         -6    2    1    2    0  502 -0.11747043755E+03  0.12256295297E+03 -0.25362123195E+03  0.34902228884E+03  0.16932763411E+03 0.  0.
        -24    2    5    5    0    0 -0.10125567088E+03  0.23265172241E+02 -0.10115541068E+03  0.16629056042E+03  0.81401193177E+02 0.  0.
          5    1    3    3  501    0  0.72767836771E+02 -0.13032186466E+03  0.61882067015E+03  0.63658468273E+03  0.47000000000E+01 0. -1.
        -13    1    4    4    0    0 -0.22616676534E+01  0.34508027787E+02  0.11892866000E+03  0.12385453279E+03  0.00000000000E+00 0.  1.
         14    1    4    4    0    0  0.46964268429E+02 -0.26749116093E+02  0.25599751754E+03  0.26164075888E+03  0.00000000000E+00 0. -1.
         -5    1    5    5    0  502 -0.16214766668E+02  0.99297780728E+02 -0.15246582127E+03  0.18273172842E+03  0.47000000000E+01 0.  1.
         13    1    6    6    0    0 -0.56900377487E+02  0.11198574801E+02 -0.31932566829E+01  0.58079754855E+02  0.00000000000E+00 0. -1.
        -14    1    6    6    0    0 -0.44355293392E+02  0.12066597440E+02 -0.97962153995E+02  0.10821080556E+03  0.00000000000E+00 0.  1.
</event>
<event>
12    1  0.9962621E-001  0.2328672E+03  0.7818608E-02  0.1125065E+00
         21   -1    0    0  503  502  0.00000000000E+00  0.00000000000E+00  0.38408303520E+02  0.38408303520E+02  0.00000000000E+00 0.  1.
         21   -1    0    0  501  503 -0.00000000000E+00 -0.00000000000E+00 -0.16538110303E+04  0.16538110303E+04  0.00000000000E+00 0.  1.
          6    2    1    2  501    0  0.27467138411E+02 -0.15191552774E+03 -0.11447253773E+04  0.11681709254E+04  0.17433975531E+03 0.  0.
         24    2    3    3    0    0 -0.29670541056E+02 -0.32447922226E+02 -0.63750578686E+03  0.64392763637E+03  0.79347110430E+02 0.  0.
         -6    2    1    2    0  502 -0.27467138411E+02  0.15191552774E+03 -0.47067734953E+03  0.52404840846E+03  0.17104618027E+03 0.  0.
        -24    2    5    5    0    0  0.49509365019E+02  0.72464699204E+02 -0.26486916634E+03  0.29034578865E+03  0.80266380602E+02 0.  0.
          5    1    3    3  501    0  0.57137679467E+02 -0.11946760552E+03 -0.50721959039E+03  0.52424328900E+03  0.47000000000E+01 0. -1.
        -11    1    4    4    0    0 -0.43996728126E+02 -0.47108759956E+02 -0.36468070179E+03  0.37033358153E+03  0.00000000000E+00 0.  1.
         12    1    4    4    0    0  0.14326187071E+02  0.14660837729E+02 -0.27282508507E+03  0.27359405484E+03  0.00000000000E+00 0. -1.
         -5    1    5    5    0  502 -0.76976503431E+02  0.79450828538E+02 -0.20580818319E+03  0.23370261980E+03  0.47000000000E+01 0.  1.
         11    1    6    6    0    0  0.16439490832E+02  0.23101005779E+02 -0.20147232865E+03  0.20345764311E+03  0.00000000000E+00 0. -1.
        -12    1    6    6    0    0  0.33069874188E+02  0.49363693424E+02 -0.63396837692E+02  0.86888145547E+02  0.00000000000E+00 0.  1.
</event>
<event>
12    1  0.9962621E-001  0.1847452E+03  0.7818608E-02  0.1163595E+00
         21   -1    0    0  503  502  0.00000000000E+00  0.00000000000E+00  0.81563091005E+03  0.81563091005E+03  0.00000000000E+00 0. -1.
         21   -1    0    0  501  503 -0.00000000000E+00 -0.00000000000E+00 -0.75149388861E+02  0.75149388861E+02  0.00000000000E+00 0. -1.
          6    2    1    2  501    0 -0.52686688413E+02  0.39160326331E+02  0.66877614977E+03  0.69382441255E+03  0.17268861764E+03 0.  0.
         24    2    3    3    0    0 -0.54929745475E+02 -0.25626493032E+02  0.23022667773E+03  0.25048470906E+03  0.77873437395E+02 0.  0.
         -6    2    1    2    0  502  0.52686688413E+02 -0.39160326331E+02  0.71705371418E+02  0.19695588635E+03  0.17129081290E+03 0.  0.
        -24    2    5    5    0    0  0.25112952032E+02  0.32285112785E+02 -0.20405009403E+01  0.90535468208E+02  0.80743535296E+02 0.  0.
          5    1    3    3  501    0  0.22430570626E+01  0.64786819363E+02  0.43854947203E+03  0.44333970349E+03  0.47000000000E+01 0. -1.
        -11    1    4    4    0    0 -0.17100484521E+02  0.24580125869E+02  0.11913334484E+03  0.12283876836E+03  0.00000000000E+00 0.  1.
         12    1    4    4    0    0 -0.37829260954E+02 -0.50206618900E+02  0.11109333289E+03  0.12764594070E+03  0.00000000000E+00 0. -1.
         -5    1    5    5    0  502  0.27573736381E+02 -0.71445439117E+02  0.73745872358E+02  0.10642041815E+03  0.47000000000E+01 0.  1.
         13    1    6    6    0    0 -0.22989386413E+02 -0.42432481357E+01  0.15001879955E+02  0.27777210886E+02  0.00000000000E+00 0. -1.
        -14    1    6    6    0    0  0.48102338445E+02  0.36528360921E+02 -0.17042380896E+02  0.62758257322E+02  0.00000000000E+00 0.  1.
</event>
<event>
12    1  0.9962621E-001  0.1935397E+03  0.7818608E-02  0.1159634E+00
         21   -1    0    0  501  502  0.00000000000E+00  0.00000000000E+00  0.66763739456E+03  0.66763739456E+03  0.00000000000E+00 0.  1.
         21   -1    0    0  502  503 -0.00000000000E+00 -0.00000000000E+00 -0.53838757475E+02  0.53838757475E+02  0.00000000000E+00 0.  1.
         -6    2    1    2    0  503 -0.28568879937E+02 -0.14397427165E+02  0.23645015440E+03  0.30555895308E+03  0.19087726811E+03 0.  0.
        -24    2    3    3    0    0 -0.83041352062E+02 -0.41453639324E+02  0.20013498535E+03  0.23456479600E+03  0.79701698834E+02 0.  0.
          6    2    1    2  501    0  0.28568879937E+02  0.14397427165E+02  0.37734848269E+03  0.41591719896E+03  0.17196445037E+03 0.  0.
         24    2    5    5    0    0  0.11344814446E+02  0.56478400624E+02  0.34966797802E+03  0.36247772761E+03  0.76183289576E+02 0.  0.
          5    1    5    5  501    0  0.17224065491E+02 -0.42080973459E+02  0.27680504674E+02  0.53439471351E+02  0.47000000000E+01 0. -1.
        -11    1    6    6    0    0  0.42045171433E+01 -0.16642687014E+02  0.12321584304E+03  0.12440579156E+03  0.00000000000E+00 0.  1.
         12    1    6    6    0    0  0.71402973026E+01  0.73121087637E+02  0.22645213497E+03  0.23807193606E+03  0.00000000000E+00 0. -1.
         -5    1    3    3    0  503  0.54472472125E+02  0.27056212159E+02  0.36315169049E+02  0.70994157076E+02  0.47000000000E+01 0.  1.
         11    1    4    4    0    0 -0.24180959685E+02 -0.36644218294E+02  0.15249244651E+03  0.15868668435E+03  0.00000000000E+00 0. -1.
        -12    1    4    4    0    0 -0.58860392377E+02 -0.48094210302E+01  0.47642538835E+02  0.75878111653E+02  0.00000000000E+00 0.  1.
</event>
<event>
12    1  0.9962621E-001  0.2381427E+03  0.7818608E-02  0.1121504E+00
         21   -1    0    0  503  502  0.00000000000E+00  0.00000000000E+00  0.53900733354E+03  0.53900733354E+03  0.00000000000E+00 0. -1.
         21   -1    0    0  501  503 -0.00000000000E+00 -0.00000000000E+00 -0.11511732258E+03  0.11511732258E+03  0.00000000000E+00 0. -1.
          6    2    1    2  501    0 -0.16015130183E+03  0.14032659008E+02  0.31470905355E+03  0.39465645833E+03  0.17568886341E+03 0.  0.
         24    2    3    3    0    0 -0.17901160822E+03  0.45085443336E+02  0.26379866162E+03  0.33193529303E+03  0.80705958901E+02 0.  0.
         -6    2    1    2    0  502  0.16015130183E+03 -0.14032659008E+02  0.10918095741E+03  0.25946819778E+03  0.17192413793E+03 0.  0.
        -24    2    5    5    0    0  0.10243066338E+02  0.94542604329E+01  0.21572848893E+02  0.84193028031E+02  0.80179640254E+02 0.  0.
          5    1    3    3  501    0  0.18860306398E+02 -0.31052784327E+02  0.50910391922E+02  0.62721165307E+02  0.47000000000E+01 0. -1.
        -13    1    4    4    0    0 -0.57103583381E+02  0.15587781038E+02  0.29407653717E+02  0.66095448026E+02  0.00000000000E+00 0.  1.
         14    1    4    4    0    0 -0.12190802484E+03  0.29497662298E+02  0.23439100791E+03  0.26583984500E+03  0.00000000000E+00 0. -1.
         -5    1    5    5    0  502  0.14990823549E+03 -0.23486919441E+02  0.87608108520E+02  0.17527516975E+03  0.47000000000E+01 0.  1.
         11    1    6    6    0    0  0.23803325881E+02 -0.29805013530E+02  0.18906879629E+02  0.42572376629E+02  0.00000000000E+00 0. -1.
        -12    1    6    6    0    0 -0.13560259543E+02  0.39259273963E+02  0.26659692645E+01  0.41620651402E+02  0.00000000000E+00 0.  1.
</event>
<event>
12    1  0.9962621E-001  0.2320461E+03  0.7818608E-02  0.1125502E+00
         21   -1    0    0  501  502  0.00000000000E+00  0.00000000000E+00  0.23555765290E+03  0.23555765290E+03  0.00000000000E+00 0. -1.
         21   -1    0    0  502  503 -0.00000000000E+00 -0.00000000000E+00 -0.25740972103E+03  0.25740972103E+03  0.00000000000E+00 0. -1.
         -6    2    1    2    0  503  0.15316935376E+03 -0.20379314417E+02  0.73857127832E+02  0.24351643918E+03  0.17311618477E+03 0.  0.
        -24    2    3    3    0    0  0.53005930988E+01 -0.67278747589E+01  0.89076322648E+01  0.81368176282E+02  0.80424334706E+02 0.  0.
          6    2    1    2  501    0 -0.15316935376E+03  0.20379314417E+02 -0.95709195963E+02  0.24945093475E+03  0.17084891356E+03 0.  0.
         24    2    5    5    0    0 -0.14447417474E+03  0.15018337415E+02 -0.15723990775E+02  0.16867922397E+03  0.84303612549E+02 0.  0.
          5    1    5    5  501    0 -0.86951790244E+01  0.53609770023E+01 -0.79985205187E+02  0.80771710775E+02  0.47000000000E+01 0. -1.
        -13    1    6    6    0    0 -0.68203170104E+01 -0.79537833621E+01 -0.26708447103E+02  0.28690077388E+02  0.00000000000E+00 0.  1.
         14    1    6    6    0    0 -0.13765385773E+03  0.22972120777E+02  0.10984456327E+02  0.13998914658E+03  0.00000000000E+00 0. -1.
         -5    1    3    3    0  503  0.14786876067E+03 -0.13651439658E+02  0.64949495567E+02  0.16214826290E+03  0.47000000000E+01 0.  1.
         11    1    4    4    0    0 -0.21647474366E+02 -0.31791159023E+02 -0.10353547744E+02  0.39830727955E+02  0.00000000000E+00 0. -1.
        -12    1    4    4    0    0  0.26948067465E+02  0.25063284265E+02  0.19261180009E+02  0.41537448328E+02  0.00000000000E+00 0.  1.
</event>
<event>
12    1  0.9962621E-001  0.3628867E+03  0.7818608E-02  0.1057496E+00
         21   -1    0    0  501  502  0.00000000000E+00  0.00000000000E+00  0.80365912375E+03  0.80365912375E+03  0.00000000000E+00 0.  1.
         21   -1    0    0  502  503 -0.00000000000E+00 -0.00000000000E+00 -0.16529752384E+03  0.16529752384E+03  0.00000000000E+00 0. -1.
         -6    2    1    2    0  503  0.31061268409E+03  0.74187482586E+02  0.36801168523E+03  0.51683587907E+03  0.17234472239E+03 0.  0.
        -24    2    3    3    0    0  0.91156546772E+02  0.67605274374E+02  0.18310730341E+03  0.22975393591E+03  0.79866121483E+02 0.  0.
          6    2    1    2  501    0 -0.31061268409E+03 -0.74187482586E+02  0.27034991469E+03  0.45212076852E+03  0.17128949432E+03 0.  0.
         24    2    5    5    0    0 -0.10698084822E+03  0.69875727669E+01  0.54795272183E+02  0.14464522787E+03  0.80162285606E+02 0.  0.
          5    1    5    5  501    0 -0.20363183588E+03 -0.81175055353E+02  0.21555464250E+03  0.30747554065E+03  0.47000000000E+01 0. -1.
        -13    1    6    6    0    0  0.50213426604E+01  0.19371666241E+02  0.17171131671E+01  0.20085412934E+02  0.00000000000E+00 0.  1.
         14    1    6    6    0    0 -0.11200219088E+03 -0.12384093475E+02  0.53078159016E+02  0.12455981494E+03  0.00000000000E+00 0. -1.
         -5    1    3    3    0  503  0.21945613732E+03  0.65822082128E+01  0.18490438182E+03  0.28708194316E+03  0.47000000000E+01 0.  1.
         13    1    4    4    0    0  0.96796313835E+02  0.76467629777E+02  0.14573458424E+03  0.19093295634E+03  0.00000000000E+00 0. -1.
        -14    1    4    4    0    0 -0.56397670628E+01 -0.88623554038E+01  0.37372719178E+02  0.38820979568E+02  0.00000000000E+00 0.  1.
</event>
<event>
12    1  0.9962621E-001  0.2602415E+03  0.7818608E-02  0.1107220E+00
         21   -1    0    0  501  502  0.00000000000E+00  0.00000000000E+00  0.14544818723E+03  0.14544818723E+03  0.00000000000E+00 0. -1.
         21   -1    0    0  502  503 -0.00000000000E+00 -0.00000000000E+00 -0.48724050042E+03  0.48724050042E+03  0.00000000000E+00 0. -1.
         -6    2    1    2    0  503 -0.14207250039E+03  0.13112490197E+03 -0.10079441649E+03  0.27907910342E+03  0.17420475391E+03 0.  0.
        -24    2    3    3    0    0 -0.11199980501E+03  0.52812308429E+02 -0.12349055866E+03  0.19204787808E+03  0.79368590457E+02 0.  0.
          6    2    1    2  501    0  0.14207250039E+03 -0.13112490197E+03 -0.24099789671E+03  0.35360958423E+03  0.17199248983E+03 0.  0.
         24    2    5    5    0    0  0.11862078962E+03 -0.16435184410E+03 -0.19650963663E+03  0.29315044344E+03  0.78985598749E+02 0.  0.
          5    1    5    5  501    0  0.23451710771E+02  0.33226942127E+02 -0.44488260073E+02  0.60459140794E+02  0.47000000000E+01 0. -1.
        -13    1    6    6    0    0  0.98115865178E+02 -0.76550349743E+02 -0.13718597183E+03  0.18522059797E+03  0.00000000000E+00 0.  1.
         14    1    6    6    0    0  0.20504924443E+02 -0.87801494354E+02 -0.59323664806E+02  0.10792984547E+03  0.00000000000E+00 0. -1.
         -5    1    3    3    0  503 -0.30072695378E+02  0.78312593541E+02  0.22696142171E+02  0.87031225338E+02  0.47000000000E+01 0.  1.
         13    1    4    4    0    0 -0.58375180544E+01  0.92179641583E+00  0.11326252101E+02  0.12775379146E+02  0.00000000000E+00 0. -1.
        -14    1    4    4    0    0 -0.10616228696E+03  0.51890512013E+02 -0.13481681076E+03  0.17927249893E+03  0.00000000000E+00 0.  1.
</event>
<event>
12    1  0.9962621E-001  0.1962187E+03  0.7818608E-02  0.1153519E+00
         21   -1    0    0  503  502  0.00000000000E+00  0.00000000000E+00  0.15192775492E+03  0.15192775492E+03  0.00000000000E+00 0. -1.
         21   -1    0    0  501  503 -0.00000000000E+00 -0.00000000000E+00 -0.41803984423E+03  0.41803984423E+03  0.00000000000E+00 0. -1.
          6    2    1    2  501    0  0.82810420607E+02  0.31063313573E+02  0.47016707601E+02  0.20177297769E+03  0.17515498428E+03 0.  0.
         24    2    3    3    0    0 -0.21500538977E+02 -0.11054803887E+02  0.32930015743E+02  0.88303876185E+02  0.78286057169E+02 0.  0.
         -6    2    1    2    0  502 -0.82810420607E+02 -0.31063313573E+02 -0.31312879691E+03  0.36819462146E+03  0.17232278029E+03 0.  0.
        -24    2    5    5    0    0 -0.73423151873E+02  0.44384278318E+02 -0.17569150216E+03  0.21105913875E+03  0.79482908399E+02 0.  0.
          5    1    3    3  501    0  0.10431095958E+03  0.42118117461E+02  0.14086691857E+02  0.11346910150E+03  0.47000000000E+01 0. -1.
        -11    1    4    4    0    0  0.64259123625E+01  0.26244932107E+02 -0.58916940094E+01  0.27655033345E+02  0.00000000000E+00 0.  1.
         12    1    4    4    0    0 -0.27926451340E+02 -0.37299735995E+02  0.38821709753E+02  0.60648842840E+02  0.00000000000E+00 0. -1.
         -5    1    5    5    0  502 -0.93872687340E+01 -0.75447591892E+02 -0.13743729476E+03  0.15713548271E+03  0.47000000000E+01 0.  1.
         11    1    6    6    0    0 -0.51599556066E+01  0.35253206787E+02 -0.20102615451E+02  0.40908787303E+02  0.00000000000E+00 0. -1.
        -12    1    6    6    0    0 -0.68263196266E+02  0.91310715315E+01 -0.15558888670E+03  0.17015035145E+03  0.00000000000E+00 0.  1.
</event>
<event>
12    1  0.9962621E-001  0.1755120E+03  0.7818608E-02  0.1172320E+00
         21   -1    0    0  501  502  0.00000000000E+00  0.00000000000E+00  0.59071680998E+03  0.59071680998E+03  0.00000000000E+00 0. -1.
         21   -1    0    0  502  503 -0.00000000000E+00 -0.00000000000E+00 -0.62388117765E+02  0.62388117765E+02  0.00000000000E+00 0. -1.
         -6    2    1    2    0  503 -0.14904976335E+02  0.33466137738E+02  0.13134144600E+03  0.21921458352E+03  0.17164590730E+03 0.  0.
        -24    2    3    3    0    0  0.20884303782E+01 -0.55054434554E+01  0.15160937622E+03  0.17188130762E+03  0.80765769372E+02 0.  0.
          6    2    1    2  501    0  0.14904976335E+02 -0.33466137738E+02  0.39698724622E+03  0.43389034423E+03  0.17123030241E+03 0.  0.
         24    2    5    5    0    0 -0.33800172655E+02 -0.66122399668E+02  0.31178455178E+03  0.33035188703E+03  0.80050853360E+02 0.  0.
          5    1    5    5  501    0  0.48705148990E+02  0.32656261930E+02  0.85202694435E+02  0.10353845720E+03  0.47000000000E+01 0. -1.
        -13    1    6    6    0    0 -0.59101439212E+02 -0.37243514112E+02  0.22112827828E+03  0.23190035557E+03  0.00000000000E+00 0.  1.
         14    1    6    6    0    0  0.25301266557E+02 -0.28878885556E+02  0.90656273505E+02  0.98451531456E+02  0.00000000000E+00 0. -1.
         -5    1    3    3    0  503 -0.16993406713E+02  0.38971581193E+02 -0.20267930212E+02  0.47333275901E+02  0.47000000000E+01 0.  1.
         13    1    4    4    0    0  0.17705293044E+02  0.16106250182E+02  0.14126977961E+03  0.14328307412E+03  0.00000000000E+00 0. -1.
        -14    1    4    4    0    0 -0.15616862666E+02 -0.21611693638E+02  0.10339596604E+02  0.28598233500E+02  0.00000000000E+00 0.  1.
</event>
<event>
12    1  0.9962621E-001  0.2075715E+03  0.7818608E-02  0.1143962E+00
         21   -1    0    0  501  502  0.00000000000E+00  0.00000000000E+00  0.58397002925E+03  0.58397002925E+03  0.00000000000E+00 0. -1.
         21   -1    0    0  502  503 -0.00000000000E+00 -0.00000000000E+00 -0.10495769094E+03  0.10495769094E+03  0.00000000000E+00 0. -1.
         -6    2    1    2    0  503  0.99711721335E+02 -0.53843614471E+02  0.43056067579E+03  0.47798371581E+03  0.17390909939E+03 0.  0.
        -24    2    3    3    0    0  0.13286809328E+03 -0.54563665437E+02  0.28799821704E+03  0.33153915934E+03  0.79649967749E+02 0.  0.
          6    2    1    2  501    0 -0.99711721335E+02  0.53843614471E+02  0.48451662517E+02  0.21094400438E+03  0.17119651630E+03 0.  0.
         24    2    5    5    0    0 -0.22168333326E+02 -0.18780858507E+02 -0.17810427308E+02  0.85644181370E+02  0.78571997766E+02 0.  0.
          5    1    5    5  501    0 -0.77543388009E+02  0.72624472978E+02  0.66262089825E+02  0.12529982301E+03  0.47000000000E+01 0. -1.
        -11    1    6    6    0    0 -0.47993144794E+02 -0.28362218591E+02 -0.75774938158E+01  0.56259895157E+02  0.00000000000E+00 0.  1.
         12    1    6    6    0    0  0.25824811467E+02  0.95813600832E+01 -0.10232933492E+02  0.29384286213E+02  0.00000000000E+00 0. -1.
         -5    1    3    3    0  503 -0.33156371943E+02  0.72005096571E+00  0.14256245875E+03  0.14644455647E+03  0.47000000000E+01 0.  1.
         11    1    4    4    0    0  0.77860228360E+01  0.43043316410E+01 -0.29872136203E+01  0.93847145770E+01  0.00000000000E+00 0. -1.
        -12    1    4    4    0    0  0.12508207044E+03 -0.58867997078E+02  0.29098543066E+03  0.32215444476E+03  0.00000000000E+00 0.  1.
</event>
<event>
12    1  0.9962621E-001  0.3025401E+03  0.7818608E-02  0.1084010E+00
         21   -1    0    0  501  502  0.00000000000E+00  0.00000000000E+00  0.25130957310E+03  0.25130957310E+03  0.00000000000E+00 0.  1.
         21   -1    0    0  502  503 -0.00000000000E+00 -0.00000000000E+00 -0.63671983487E+03  0.63671983487E+03  0.00000000000E+00 0. -1.
         -6    2    1    2    0  503  0.16522857955E+03 -0.18625879479E+03 -0.48329981337E+03  0.57004693987E+03  0.17141173217E+03 0.  0.
        -24    2    3    3    0    0  0.18353382949E+03 -0.16790182513E+03 -0.38567477987E+03  0.46892919823E+03  0.96300922494E+02 0.  0.
          6    2    1    2  501    0 -0.16522857955E+03  0.18625879479E+03  0.97889551595E+02  0.31798246810E+03  0.17186524830E+03 0.  0.
         24    2    5    5    0    0 -0.63575529825E+02  0.27861342478E+02  0.72304791155E+02  0.12798308552E+03  0.79583823463E+02 0.  0.
          5    1    5    5  501    0 -0.10165304972E+03  0.15839745231E+03  0.25584760440E+02  0.18999938258E+03  0.47000000000E+01 0. -1.
        -11    1    6    6    0    0 -0.71028305964E+02 -0.36094818410E+01  0.37236314218E+02  0.80278214379E+02  0.00000000000E+00 0.  1.
         12    1    6    6    0    0  0.74527761395E+01  0.31470824319E+02  0.35068476937E+02  0.47704871137E+02  0.00000000000E+00 0. -1.
         -5    1    3    3    0  503 -0.18305249947E+02 -0.18356969660E+02 -0.97625033493E+02  0.10111774164E+03  0.47000000000E+01 0.  1.
         11    1    4    4    0    0  0.12423285791E+03 -0.93962750240E+02 -0.15593373509E+03  0.22040447172E+03  0.00000000000E+00 0. -1.
        -12    1    4    4    0    0  0.59300971581E+02 -0.73939074886E+02 -0.22974104479E+03  0.24852472651E+03  0.00000000000E+00 0.  1.
</event>
<event>
12    1  0.9962621E-001  0.2345374E+03  0.7818608E-02  0.1123573E+00
         21   -1    0    0  503  502  0.00000000000E+00  0.00000000000E+00  0.13480759284E+04  0.13480759284E+04  0.00000000000E+00 0.  1.
         21   -1    0    0  501  503 -0.00000000000E+00 -0.00000000000E+00 -0.46780654322E+02  0.46780654322E+02  0.00000000000E+00 0.  1.
          6    2    1    2  501    0  0.13837692017E+03 -0.78124230553E+02  0.90235013193E+03  0.93233231375E+03  0.17249989925E+03 0.  0.
         24    2    3    3    0    0  0.19750919020E+02  0.30316342965E+01  0.44135766902E+03  0.44943010480E+03  0.82410785054E+02 0.  0.
         -6    2    1    2    0  502 -0.13837692017E+03  0.78124230553E+02  0.39894514215E+03  0.46252426897E+03  0.17181357776E+03 0.  0.
        -24    2    5    5    0    0 -0.11755094262E+03  0.80991192000E+02  0.40769821795E+03  0.43927244872E+03  0.79778756481E+02 0.  0.
          5    1    3    3  501    0  0.11862600115E+03 -0.81155864849E+02  0.46099246291E+03  0.48290220895E+03  0.47000000000E+01 0. -1.
        -13    1    4    4    0    0  0.14708130158E+02 -0.39203114248E+02  0.24055897051E+03  0.24417582099E+03  0.00000000000E+00 0.  1.
         14    1    4    4    0    0  0.50427888620E+01  0.42234748544E+02  0.20079869850E+03  0.20525428381E+03  0.00000000000E+00 0. -1.
         -5    1    5    5    0  502 -0.20825977554E+02 -0.28669614465E+01 -0.87530758046E+01  0.23251820253E+02  0.47000000000E+01 0.  1.
         11    1    6    6    0    0 -0.25986688457E+02 -0.15698296934E+02  0.77180234974E+02  0.82936922864E+02  0.00000000000E+00 0. -1.
        -12    1    6    6    0    0 -0.91564254163E+02  0.96689488934E+02  0.33051798298E+03  0.35633552585E+03  0.00000000000E+00 0.  1.
</event>
<event>
12    1  0.9962621E-001  0.1860956E+03  0.7818608E-02  0.1162615E+00
         21   -1    0    0  503  502  0.00000000000E+00  0.00000000000E+00  0.49484699322E+03  0.49484699322E+03  0.00000000000E+00 0. -1.
         21   -1    0    0  501  503 -0.00000000000E+00 -0.00000000000E+00 -0.84821736043E+02  0.84821736043E+02  0.00000000000E+00 0. -1.
          6    2    1    2  501    0  0.63875763847E+02 -0.14383739885E+02  0.81148716306E+02  0.20301896164E+03  0.17419695591E+03 0.  0.
         24    2    3    3    0    0  0.14223120876E+02  0.47187325191E+02  0.80262819752E+02  0.12377720610E+03  0.80310246482E+02 0.  0.
         -6    2    1    2    0  502 -0.63875763847E+02  0.14383739885E+02  0.32887654087E+03  0.37664976762E+03  0.17151753010E+03 0.  0.
        -24    2    5    5    0    0 -0.96834794507E+02  0.33411621618E+02  0.17650196272E+03  0.21952414892E+03  0.80898672598E+02 0.  0.
          5    1    3    3  501    0  0.49652642971E+02 -0.61571065076E+02  0.88589655424E+00  0.79241755542E+02  0.47000000000E+01 0. -1.
        -13    1    4    4    0    0  0.12913835565E+02  0.32473973295E+02  0.96018143007E+02  0.10218028125E+03  0.00000000000E+00 0.  1.
         14    1    4    4    0    0  0.13092853119E+01  0.14713351896E+02 -0.15755323256E+02  0.21596924849E+02  0.00000000000E+00 0. -1.
         -5    1    5    5    0  502  0.32959030660E+02 -0.19027881733E+02  0.15237457815E+03  0.15712561870E+03  0.47000000000E+01 0.  1.
         11    1    6    6    0    0 -0.21807163637E+02  0.48894628584E+02  0.80974142412E+02  0.97072389636E+02  0.00000000000E+00 0. -1.
        -12    1    6    6    0    0 -0.75027630871E+02 -0.15483006966E+02  0.95527820311E+02  0.12245175929E+03  0.00000000000E+00 0.  1.
</event>
<event>
12    1  0.9962621E-001  0.1978101E+03  0.7818608E-02  0.1151826E+00
         21   -1    0    0  501  502  0.00000000000E+00  0.00000000000E+00  0.91526872302E+02  0.91526872302E+02  0.00000000000E+00 0.  1.
         21   -1    0    0  502  503 -0.00000000000E+00 -0.00000000000E+00 -0.16240811981E+04  0.16240811981E+04  0.00000000000E+00 0.  1.
         -6    2    1    2    0  503  0.96532864164E+02  0.25964265949E+00 -0.28744257820E+02  0.19884389623E+03  0.17144678893E+03 0.  0.
        -24    2    3    3    0    0  0.21187101218E+02  0.47172537959E+02 -0.48638345750E+02  0.10776333588E+03  0.81074695726E+02 0.  0.
          6    2    1    2  501    0 -0.96532864164E+02 -0.25964265949E+00 -0.15038100680E+04  0.15167641741E+04  0.17265624292E+03 0.  0.
         24    2    5    5    0    0 -0.88357550586E+02 -0.31204648762E+02 -0.14414735128E+04  0.14465333742E+04  0.76368368314E+02 0.  0.
          5    1    5    5  501    0 -0.81753135783E+01  0.30945006102E+02 -0.62336555154E+02  0.70230799962E+02  0.47000000000E+01 0. -1.
        -13    1    6    6    0    0  0.73136133650E+00 -0.31061509478E+02 -0.30751223535E+03  0.30907786584E+03  0.00000000000E+00 0.  1.
         14    1    6    6    0    0 -0.89088911922E+02 -0.14313928409E+00 -0.11339612774E+04  0.11374555083E+04  0.00000000000E+00 0. -1.
         -5    1    3    3    0  503  0.75345762946E+02 -0.46912895300E+02  0.19894087930E+02  0.91080560351E+02  0.47000000000E+01 0.  1.
         13    1    4    4    0    0  0.20048078435E+02 -0.20126565218E+02 -0.19267543770E+02  0.34325534509E+02  0.00000000000E+00 0. -1.
        -14    1    4    4    0    0  0.11390227838E+01  0.67299103177E+02 -0.29370801980E+02  0.73437801372E+02  0.00000000000E+00 0.  1.
</event>
<event>
12    1  0.9962621E-001  0.1882839E+03  0.7818608E-02  0.1160271E+00
         21   -1    0    0  501  502  0.00000000000E+00  0.00000000000E+00  0.71174314553E+02  0.71174314553E+02  0.00000000000E+00 0. -1.
         21   -1    0    0  502  503 -0.00000000000E+00 -0.00000000000E+00 -0.56545331105E+03  0.56545331105E+03  0.00000000000E+00 0. -1.
         -6    2    1    2    0  503 -0.18660669797E+02 -0.74893345818E+02 -0.35873059301E+03  0.40462722795E+03  0.17052366812E+03 0.  0.
        -24    2    3    3    0    0 -0.31517892388E+02 -0.63094084868E+02 -0.10063428979E+03  0.14589894873E+03  0.78644782872E+02 0.  0.
          6    2    1    2  501    0  0.18660669797E+02  0.74893345818E+02 -0.13554840349E+03  0.23200039766E+03  0.17173695287E+03 0.  0.
         24    2    5    5    0    0 -0.15358493909E+02  0.10778743254E+03 -0.12194464891E+03  0.18253852771E+03  0.81214547659E+02 0.  0.
          5    1    5    5  501    0  0.34019163706E+02 -0.32894086720E+02 -0.13603754582E+02  0.49461869951E+02  0.47000000000E+01 0. -1.
        -13    1    6    6    0    0  0.33333667392E+02  0.36769427092E+02 -0.47859126593E+02  0.68946502078E+02  0.00000000000E+00 0.  1.
         14    1    6    6    0    0 -0.48692161301E+02  0.71018005446E+02 -0.74085522313E+02  0.11359202563E+03  0.00000000000E+00 0. -1.
         -5    1    3    3    0  503  0.12857222591E+02 -0.11799260951E+02 -0.25809630322E+03  0.25872827922E+03  0.47000000000E+01 0.  1.
         13    1    4    4    0    0 -0.55433954713E+02 -0.34127604452E+02 -0.79663095875E+02  0.10287772142E+03  0.00000000000E+00 0. -1.
        -14    1    4    4    0    0  0.23916062325E+02 -0.28966480415E+02 -0.20971193917E+02  0.43021227308E+02  0.00000000000E+00 0.  1.
</event>
<event>
12    1  0.9962621E-001  0.2096950E+03  0.7818608E-02  0.1141867E+00
         21   -1    0    0  501  502  0.00000000000E+00  0.00000000000E+00  0.11367651527E+03  0.11367651527E+03  0.00000000000E+00 0. -1.
         21   -1    0    0  502  503 -0.00000000000E+00 -0.00000000000E+00 -0.39572863899E+03  0.39572863899E+03  0.00000000000E+00 0. -1.
         -6    2    1    2    0  503  0.85721855374E+02 -0.84289756403E+02 -0.18051331085E+03  0.27668941269E+03  0.17181087328E+03 0.  0.
        -24    2    3    3    0    0  0.76002131899E+02 -0.38457574907E+02 -0.19494347381E+03  0.22744125041E+03  0.80444112806E+02 0.  0.
          6    2    1    2  501    0 -0.85721855374E+02  0.84289756403E+02 -0.10153881286E+03  0.23271574156E+03  0.17144528670E+03 0.  0.
         24    2    5    5    0    0 -0.28763515156E+02  0.33911543202E+02 -0.12034543680E+03  0.15424284185E+03  0.85618324773E+02 0.  0.
          5    1    5    5  501    0 -0.56958340219E+02  0.50378213201E+02  0.18806623935E+02  0.78472899714E+02  0.47000000000E+01 0. -1.
        -13    1    6    6    0    0 -0.56850576316E+02  0.29699709243E+02 -0.61304418666E+02  0.88725940426E+02  0.00000000000E+00 0.  1.
         14    1    6    6    0    0  0.28087061160E+02  0.42118339593E+01 -0.59041018134E+02  0.65516901424E+02  0.00000000000E+00 0. -1.
         -5    1    3    3    0  503  0.97197234756E+01 -0.45832181496E+02  0.14430162960E+02  0.49248162282E+02  0.47000000000E+01 0.  1.
         13    1    4    4    0    0  0.37636020255E+02 -0.29437117472E+02 -0.17841708806E+03  0.18470428045E+03  0.00000000000E+00 0. -1.
        -14    1    4    4    0    0  0.38366111643E+02 -0.90204574344E+01 -0.16526385749E+02  0.42736969954E+02  0.00000000000E+00 0.  1.
</event>
<event>
12    1  0.9962621E-001  0.2600130E+03  0.7818608E-02  0.1107192E+00
         21   -1    0    0  503  502  0.00000000000E+00  0.00000000000E+00  0.65112901882E+03  0.65112901882E+03  0.00000000000E+00 0. -1.
         21   -1    0    0  501  503 -0.00000000000E+00 -0.00000000000E+00 -0.10707554163E+03  0.10707554163E+03  0.00000000000E+00 0. -1.
          6    2    1    2  501    0 -0.14841959612E+03  0.12587215060E+03  0.33934816323E+03  0.42728004916E+03  0.17186881544E+03 0.  0.
         24    2    3    3    0    0 -0.16399809812E+02  0.34823957662E+02  0.20376677397E+03  0.21722434101E+03  0.64682720764E+02 0.  0.
         -6    2    1    2    0  502  0.14841959612E+03 -0.12587215060E+03  0.20470531396E+03  0.33092451129E+03  0.17243721118E+03 0.  0.
        -24    2    5    5    0    0 -0.43221853522E+01 -0.34122117625E+02  0.46963794531E+02  0.92906450397E+02  0.72408634370E+02 0.  0.
          5    1    3    3  501    0 -0.13201978630E+03  0.91048192941E+02  0.13558138925E+03  0.21005570815E+03  0.47000000000E+01 0. -1.
        -13    1    4    4    0    0 -0.27356060410E+02  0.39967060184E+02  0.19796277596E+03  0.20380132632E+03  0.00000000000E+00 0.  1.
         14    1    4    4    0    0  0.10956250598E+02 -0.51431025213E+01  0.58039980067E+01  0.13423014698E+02  0.00000000000E+00 0. -1.
         -5    1    5    5    0  502  0.15274178147E+03 -0.91750032978E+02  0.15774151943E+03  0.23801806089E+03  0.47000000000E+01 0.  1.
         13    1    6    6    0    0  0.62800351367E+00 -0.49712207496E+02  0.55454015669E+02  0.74477149625E+02  0.00000000000E+00 0. -1.
        -14    1    6    6    0    0 -0.49501888659E+01  0.15590089870E+02 -0.84902211385E+01  0.18429300772E+02  0.00000000000E+00 0.  1.
</event>
<event>
12    1  0.9962621E-001  0.3245105E+03  0.7818608E-02  0.1073610E+00
         21   -1    0    0  503  502  0.00000000000E+00  0.00000000000E+00  0.18226907042E+03  0.18226907042E+03  0.00000000000E+00 0.  1.
         21   -1    0    0  501  503 -0.00000000000E+00 -0.00000000000E+00 -0.11506725488E+04  0.11506725488E+04  0.00000000000E+00 0.  1.
          6    2    1    2  501    0 -0.18669124889E+03  0.20175839229E+03 -0.13871465577E+02  0.32480683029E+03  0.17247315205E+03 0.  0.
         24    2    3    3    0    0 -0.11142583026E+03  0.20315870398E+03  0.96567012637E+01  0.24579728183E+03  0.81448617075E+02 0.  0.
         -6    2    1    2    0  502  0.18669124889E+03 -0.20175839229E+03 -0.95453201283E+03  0.10081347889E+04  0.17217525346E+03 0.  0.
        -24    2    5    5    0    0  0.39435259101E+02 -0.16085544090E+02 -0.28267319232E+03  0.29569174015E+03  0.75601502283E+02 0.  0.
          5    1    3    3  501    0 -0.75265418626E+02 -0.14003116909E+01 -0.23528166841E+02  0.79009548465E+02  0.47000000000E+01 0. -1.
        -13    1    4    4    0    0 -0.35810948112E+01 -0.75276215561E+01 -0.27789471450E+01  0.87870287113E+01  0.00000000000E+00 0.  1.
         14    1    4    4    0    0 -0.10784473545E+03  0.21068632553E+03  0.12435648409E+02  0.23701025312E+03  0.00000000000E+00 0. -1.
         -5    1    5    5    0  502  0.14725598979E+03 -0.18567284820E+03 -0.67185882050E+03  0.71244304879E+03  0.47000000000E+01 0.  1.
         11    1    6    6    0    0  0.28919677296E+02 -0.46287236942E+02 -0.18806596187E+03  0.19582559091E+03  0.00000000000E+00 0. -1.
        -12    1    6    6    0    0  0.10515581805E+02  0.30201692852E+02 -0.94607230449E+02  0.99866149245E+02  0.00000000000E+00 0.  1.
</event>
<event>
12    1  0.9962621E-001  0.2579520E+03  0.7818608E-02  0.1108395E+00
         21   -1    0    0  501  502  0.00000000000E+00  0.00000000000E+00  0.15015243459E+03  0.15015243459E+03  0.00000000000E+00 0. -1.
         21   -1    0    0  502  503 -0.00000000000E+00 -0.00000000000E+00 -0.44744923604E+03  0.44744923604E+03  0.00000000000E+00 0. -1.
         -6    2    1    2    0  503  0.79184681360E+02  0.17551436691E+03 -0.11875124391E+03  0.28388560326E+03  0.17150414298E+03 0.  0.
        -24    2    3    3    0    0  0.10514316793E+03  0.17905609995E+03 -0.12733018073E+03  0.25591999841E+03  0.78523232032E+02 0.  0.
          6    2    1    2  501    0 -0.79184681360E+02 -0.17551436691E+03 -0.17854555754E+03  0.31371606736E+03  0.17165007443E+03 0.  0.
         24    2    5    5    0    0 -0.11689603262E+03 -0.11629597893E+03 -0.98458423691E+02  0.20710930165E+03  0.77529120177E+02 0.  0.
          5    1    5    5  501    0  0.37711351257E+02 -0.59218387972E+02 -0.80087133852E+02  0.10660676572E+03  0.47000000000E+01 0. -1.
        -11    1    6    6    0    0 -0.89887017500E+02 -0.83558693604E+02 -0.10814644673E+03  0.16357684779E+03  0.00000000000E+00 0.  1.
         12    1    6    6    0    0 -0.27009015116E+02 -0.32737285329E+02  0.96880230429E+01  0.43532453857E+02  0.00000000000E+00 0. -1.
         -5    1    3    3    0  503 -0.25958486571E+02 -0.35417330470E+01  0.85789368193E+01  0.27965604856E+02  0.47000000000E+01 0.  1.
         11    1    4    4    0    0  0.35172089511E+02  0.21693769146E+02 -0.55805876104E+02  0.69440559532E+02  0.00000000000E+00 0. -1.
        -12    1    4    4    0    0  0.69971078420E+02  0.15736233081E+03 -0.71524304621E+02  0.18647943888E+03  0.00000000000E+00 0.  1.
</event>
<event>
12    1  0.9962621E-001  0.2012797E+03  0.7818608E-02  0.1148686E+00
         21   -1    0    0  501  502  0.00000000000E+00  0.00000000000E+00  0.38410690180E+02  0.38410690180E+02  0.00000000000E+00 0.  1.
         21   -1    0    0  502  503 -0.00000000000E+00 -0.00000000000E+00 -0.11747626441E+04  0.11747626441E+04  0.00000000000E+00 0.  1.
         -6    2    1    2    0  503  0.65588328089E+02  0.81603876423E+02 -0.37397608788E+03  0.42470180877E+03  0.17190837860E+03 0.  0.
        -24    2    3    3    0    0  0.43962757235E+02  0.10787553002E+02 -0.31994724383E+03  0.33292042194E+03  0.80129103261E+02 0.  0.
          6    2    1    2  501    0 -0.65588328089E+02 -0.81603876423E+02 -0.76237586608E+03  0.78847152556E+03  0.17178289787E+03 0.  0.
         24    2    5    5    0    0  0.19494243377E+02 -0.20591121645E+02 -0.21769814995E+03  0.23380270125E+03  0.80418895806E+02 0.  0.
          5    1    5    5  501    0 -0.85082571465E+02 -0.61012754778E+02 -0.54467771613E+03  0.55466882431E+03  0.47000000000E+01 0. -1.
        -11    1    6    6    0    0 -0.22428166405E+01  0.28277512682E+02 -0.10939281300E+03  0.11301077597E+03  0.00000000000E+00 0.  1.
         12    1    6    6    0    0  0.21737060017E+02 -0.48868634327E+02 -0.10830533695E+03  0.12079192527E+03  0.00000000000E+00 0. -1.
         -5    1    3    3    0  503  0.21625570854E+02  0.70816323421E+02 -0.54028844053E+02  0.91781386824E+02  0.47000000000E+01 0.  1.
         11    1    4    4    0    0  0.76003515121E+01  0.34318212842E+02 -0.61221729236E+02  0.70594654235E+02  0.00000000000E+00 0. -1.
        -12    1    4    4    0    0  0.36362405722E+02 -0.23530659841E+02 -0.25872551459E+03  0.26232576771E+03  0.00000000000E+00 0.  1.
</event>
<event>
12    1  0.9962621E-001  0.4431113E+03  0.7818608E-02  0.1029818E+00
         21   -1    0    0  501  502  0.00000000000E+00  0.00000000000E+00  0.19528491676E+03  0.19528491676E+03  0.00000000000E+00 0.  1.
         21   -1    0    0  502  503 -0.00000000000E+00 -0.00000000000E+00 -0.10305025473E+04  0.10305025473E+04  0.00000000000E+00 0. -1.
         -6    2    1    2    0  503  0.40522265903E+03  0.49640359907E+02 -0.32095583603E+03  0.54713828469E+03  0.17227328629E+03 0.  0.
        -24    2    3    3    0    0  0.15584033684E+03 -0.35968271101E+02 -0.14413934052E+03  0.22963782263E+03  0.79858956819E+02 0.  0.
          6    2    1    2  501    0 -0.40522265903E+03 -0.49640359907E+02 -0.51426179454E+03  0.67864917939E+03  0.17155158595E+03 0.  0.
         24    2    5    5    0    0 -0.21849309334E+03 -0.46801562802E+02 -0.38188653850E+03  0.44969222299E+03  0.80350164997E+02 0.  0.
          5    1    5    5  501    0 -0.18672956569E+03 -0.28387971045E+01 -0.13237525604E+03  0.22895695640E+03  0.47000000000E+01 0. -1.
        -11    1    6    6    0    0 -0.18477951902E+03 -0.22836664482E+02 -0.25160254392E+03  0.31299971886E+03  0.00000000000E+00 0.  1.
         12    1    6    6    0    0 -0.33713574318E+02 -0.23964898320E+02 -0.13028399457E+03  0.13669250413E+03  0.00000000000E+00 0. -1.
         -5    1    3    3    0  503  0.24938232219E+03  0.85608631007E+02 -0.17681649551E+03  0.31750046206E+03  0.47000000000E+01 0.  1.
         11    1    4    4    0    0  0.13058016722E+03 -0.46417565278E+02 -0.14715068869E+03  0.20213632929E+03  0.00000000000E+00 0. -1.
        -12    1    4    4    0    0  0.25260169619E+02  0.10449294177E+02  0.30113481705E+01  0.27501493338E+02  0.00000000000E+00 0.  1.
</event>
<event>
12    1  0.9962621E-001  0.2650354E+03  0.7818608E-02  0.1104332E+00
         21   -1    0    0  501  502  0.00000000000E+00  0.00000000000E+00  0.72484607168E+02  0.72484607168E+02  0.00000000000E+00 0. -1.
         21   -1    0    0  502  503 -0.00000000000E+00 -0.00000000000E+00 -0.11793551805E+04  0.11793551805E+04  0.00000000000E+00 0. -1.
         -6    2    1    2    0  503 -0.19881675528E+03 -0.10727190291E+02 -0.28535697880E+03  0.38863161027E+03  0.17309751113E+03 0.  0.
        -24    2    3    3    0    0 -0.17872328920E+03 -0.58389572606E+02 -0.18701887574E+03  0.27742044815E+03  0.81453599536E+02 0.  0.
          6    2    1    2  501    0  0.19881675528E+03  0.10727190291E+02 -0.82151359454E+03  0.86320817740E+03  0.17493026249E+03 0.  0.
         24    2    5    5    0    0  0.87407144185E+02  0.48379086566E+02 -0.26321617828E+03  0.29264016065E+03  0.79843360700E+02 0.  0.
          5    1    5    5  501    0  0.11140961109E+03 -0.37651896275E+02 -0.55829741626E+03  0.57056801675E+03  0.47000000000E+01 0. -1.
        -13    1    6    6    0    0  0.99239797934E+02  0.28254420504E+02 -0.19627179866E+03  0.22174189663E+03  0.00000000000E+00 0.  1.
         14    1    6    6    0    0 -0.11832653750E+02  0.20124666062E+02 -0.66944379615E+02  0.70898264019E+02  0.00000000000E+00 0. -1.
         -5    1    3    3    0  503 -0.20093466084E+02  0.47662382315E+02 -0.98338103055E+02  0.11121116212E+03  0.47000000000E+01 0.  1.
         13    1    4    4    0    0 -0.36418968753E+02 -0.24397107559E+02 -0.94880541621E+02  0.10451735416E+03  0.00000000000E+00 0. -1.
        -14    1    4    4    0    0 -0.14230432044E+03 -0.33992465047E+02 -0.92138334123E+02  0.17290309399E+03  0.00000000000E+00 0.  1.
</event>
<event>
12    1  0.9962621E-001  0.1986761E+03  0.7818608E-02  0.1151210E+00
         21   -1    0    0  501  502  0.00000000000E+00  0.00000000000E+00  0.98630091883E+03  0.98630091883E+03  0.00000000000E+00 0.  1.
         21   -1    0    0  502  503 -0.00000000000E+00 -0.00000000000E+00 -0.54362078982E+02  0.54362078982E+02  0.00000000000E+00 0.  1.
         -6    2    1    2    0  503  0.56414910875E+02 -0.79989080753E+02  0.73767859354E+03  0.76396459490E+03  0.17289100522E+03 0.  0.
        -24    2    3    3    0    0 -0.96657282131E+01 -0.78873948930E+02  0.29265860544E+03  0.31403929644E+03  0.81591018211E+02 0.  0.
          6    2    1    2  501    0 -0.56414910875E+02  0.79989080753E+02  0.19426024631E+03  0.27669840291E+03  0.17100896956E+03 0.  0.
         24    2    5    5    0    0 -0.80022291585E+02  0.76604676764E+02  0.76613628717E+02  0.15656689478E+03  0.79822933949E+02 0.  0.
          5    1    5    5  501    0  0.23607380710E+02  0.33844039893E+01  0.11764661759E+03  0.12013150813E+03  0.47000000000E+01 0. -1.
        -13    1    6    6    0    0 -0.17213593754E+01 -0.18571994408E+01 -0.13484938542E+02  0.13720635384E+02  0.00000000000E+00 0.  1.
         14    1    6    6    0    0 -0.78300932209E+02  0.78461876204E+02  0.90098567258E+02  0.14284625940E+03  0.00000000000E+00 0. -1.
         -5    1    3    3    0  503  0.66080639088E+02 -0.11151318227E+01  0.44501998810E+03  0.44992529845E+03  0.47000000000E+01 0.  1.
         11    1    4    4    0    0  0.12778519848E+02 -0.90921673990E+01  0.39534063269E+01  0.16173666842E+02  0.00000000000E+00 0. -1.
        -12    1    4    4    0    0 -0.22444248061E+02 -0.69781781531E+02  0.28870519911E+03  0.29786562960E+03  0.00000000000E+00 0.  1.
</event>
<event>
12    1  0.9962621E-001  0.2158329E+03  0.7818608E-02  0.1137309E+00
         21   -1    0    0  503  502  0.00000000000E+00  0.00000000000E+00  0.22559011706E+03  0.22559011706E+03  0.00000000000E+00 0.  1.
         21   -1    0    0  501  503 -0.00000000000E+00 -0.00000000000E+00 -0.20517752977E+03  0.20517752977E+03  0.00000000000E+00 0.  1.
          6    2    1    2  501    0 -0.58139730301E+01 -0.12899125551E+03  0.14310482517E+02  0.21484849571E+03  0.17112141865E+03 0.  0.
         24    2    3    3    0    0  0.50195505989E+02 -0.12494864505E+03 -0.36524219646E+01  0.15570324758E+03  0.78092306917E+02 0.  0.
         -6    2    1    2    0  502  0.58139730301E+01  0.12899125551E+03  0.61021047724E+01  0.21591915111E+03  0.17294883016E+03 0.  0.
        -24    2    5    5    0    0 -0.51327973995E+02  0.65402407222E+02  0.43389938154E+02  0.12253169877E+03  0.78862504949E+02 0.  0.
          5    1    3    3  501    0 -0.56009479019E+02 -0.40426104565E+01  0.17962904481E+02  0.59145248133E+02  0.47000000000E+01 0. -1.
        -13    1    4    4    0    0 -0.29730490275E+01 -0.49311180584E+02  0.29435918319E+02  0.57505693965E+02  0.00000000000E+00 0.  1.
         14    1    4    4    0    0  0.53168555016E+02 -0.75637464467E+02 -0.33088340284E+02  0.98197553617E+02  0.00000000000E+00 0. -1.
         -5    1    5    5    0  502  0.57141947025E+02  0.63588848286E+02 -0.37287833382E+02  0.93387452339E+02  0.47000000000E+01 0.  1.
         13    1    6    6    0    0  0.18267491889E+02  0.26430992271E+02  0.24910482351E+02  0.40655021133E+02  0.00000000000E+00 0. -1.
        -14    1    6    6    0    0 -0.69595465884E+02  0.38971414951E+02  0.18479455803E+02  0.81876677642E+02  0.00000000000E+00 0.  1.
</event>
<event>
12    1  0.9962621E-001  0.2229867E+03  0.7818608E-02  0.1131872E+00
         21   -1    0    0  503  502  0.00000000000E+00  0.00000000000E+00  0.19923784117E+03  0.19923784117E+03  0.00000000000E+00 0.  1.
         21   -1    0    0  501  503 -0.00000000000E+00 -0.00000000000E+00 -0.24959289089E+03  0.24959289089E+03  0.00000000000E+00 0.  1.
          6    2    1    2  501    0  0.84806709458E+02  0.11316637233E+03 -0.95422981024E+01  0.22319074887E+03  0.17240721892E+03 0.  0.
         24    2    3    3    0    0  0.16228713837E+02  0.40535983846E+02 -0.62230880257E+02  0.11015849019E+03  0.79722477152E+02 0.  0.
         -6    2    1    2    0  502 -0.84806709458E+02 -0.11316637233E+03 -0.40812751614E+02  0.22563998319E+03  0.17102314324E+03 0.  0.
        -24    2    5    5    0    0 -0.10784231773E+03 -0.13403349555E+03 -0.39950435161E+02  0.19419304900E+03  0.80746266717E+02 0.  0.
          5    1    3    3  501    0  0.68577995621E+02  0.72630388482E+02  0.52688582154E+02  0.11303225869E+03  0.47000000000E+01 0. -1.
        -13    1    4    4    0    0  0.14295882612E+02 -0.14907526922E+02  0.66648829523E+01  0.21703162980E+02  0.00000000000E+00 0.  1.
         14    1    4    4    0    0  0.19328312252E+01  0.55443510768E+02 -0.68895763209E+02  0.88455327205E+02  0.00000000000E+00 0. -1.
         -5    1    5    5    0  502  0.23035608276E+02  0.20867123219E+02 -0.86231645248E+00  0.31446934187E+02  0.47000000000E+01 0.  1.
         11    1    6    6    0    0 -0.28400540649E+02 -0.60277402666E+02 -0.52821459698E+02  0.85029774702E+02  0.00000000000E+00 0. -1.
        -12    1    6    6    0    0 -0.79441777085E+02 -0.73756092882E+02  0.12871024536E+02  0.10916327430E+03  0.00000000000E+00 0.  1.
</event>
<event>
12    1  0.9962621E-001  0.2520392E+03  0.7818608E-02  0.1112071E+00
         21   -1    0    0  501  502  0.00000000000E+00  0.00000000000E+00  0.93455377151E+03  0.93455377151E+03  0.00000000000E+00 0. -1.
         21   -1    0    0  502  503 -0.00000000000E+00 -0.00000000000E+00 -0.69280988866E+02  0.69280988866E+02  0.00000000000E+00 0. -1.
         -6    2    1    2    0  503  0.70990637821E+02  0.16978696310E+03  0.36175244945E+03  0.44089519585E+03  0.17221049777E+03 0.  0.
        -24    2    3    3    0    0  0.87191875121E+02  0.48221381477E+02  0.15466220569E+03  0.20016894097E+03  0.78863694712E+02 0.  0.
          6    2    1    2  501    0 -0.70990637821E+02 -0.16978696310E+03  0.50352033319E+03  0.56293956452E+03  0.17175838806E+03 0.  0.
         24    2    5    5    0    0 -0.21009482526E+02 -0.15820129071E+03  0.46699726114E+03  0.49978603349E+03  0.78934090375E+02 0.  0.
          5    1    5    5  501    0 -0.49981155295E+02 -0.11585672391E+02  0.36523072050E+02  0.63153531029E+02  0.47000000000E+01 0. -1.
        -13    1    6    6    0    0 -0.11028362468E+02 -0.13701281170E+03  0.28641477941E+03  0.31769098384E+03  0.00000000000E+00 0.  1.
         14    1    6    6    0    0 -0.99811200576E+01 -0.21188479011E+02  0.18058248173E+03  0.18209504965E+03  0.00000000000E+00 0. -1.
         -5    1    3    3    0  503 -0.16201237300E+02  0.12156558162E+03  0.20709024376E+03  0.24072625488E+03  0.47000000000E+01 0.  1.
         13    1    4    4    0    0  0.45596002969E+02  0.32584549745E+02  0.14392661379E+03  0.15445264169E+03  0.00000000000E+00 0. -1.
        -14    1    4    4    0    0  0.41595872152E+02  0.15636831732E+02  0.10735591900E+02  0.45716299283E+02  0.00000000000E+00 0.  1.
</event>
<event>
12    1  0.9962621E-001  0.2184529E+03  0.7818608E-02  0.1135176E+00
         21   -1    0    0  503  502  0.00000000000E+00  0.00000000000E+00  0.65056296250E+03  0.65056296250E+03  0.00000000000E+00 0.  1.
         21   -1    0    0  501  503 -0.00000000000E+00 -0.00000000000E+00 -0.79298065494E+02  0.79298065494E+02  0.00000000000E+00 0.  1.
          6    2    1    2  501    0  0.70322654614E+01 -0.13339485057E+03  0.18329663956E+03  0.28461837599E+03  0.17194860558E+03 0.  0.
         24    2    3    3    0    0  0.11495022114E+01 -0.65556819060E+02  0.16590647952E+02  0.10448069792E+03  0.79636353240E+02 0.  0.
         -6    2    1    2    0  502 -0.70322654614E+01  0.13339485057E+03  0.38796825744E+03  0.44524265200E+03  0.17285257146E+03 0.  0.
        -24    2    5    5    0    0 -0.14648289602E+02  0.18527941194E+02  0.80685453275E+02  0.11707010222E+03  0.81470298085E+02 0.  0.
          5    1    3    3  501    0  0.58827632500E+01 -0.67838031513E+02  0.16670599161E+03  0.18013767807E+03  0.47000000000E+01 0. -1.
        -11    1    4    4    0    0  0.18781012301E+02 -0.45905055339E+02  0.44087643100E+02  0.66360536487E+02  0.00000000000E+00 0.  1.
         12    1    4    4    0    0 -0.17631510089E+02 -0.19651763721E+02 -0.27496995148E+02  0.38120161431E+02  0.00000000000E+00 0. -1.
         -5    1    5    5    0  502  0.76160241402E+01  0.11486690938E+03  0.30728280417E+03  0.32817254978E+03  0.47000000000E+01 0.  1.
         11    1    6    6    0    0  0.83008400287E+01  0.88661880408E+01 -0.14365540706E+02  0.18811751522E+02  0.00000000000E+00 0. -1.
        -12    1    6    6    0    0 -0.22949129630E+02  0.96617531535E+01  0.95050993981E+02  0.98258350696E+02  0.00000000000E+00 0.  1.
</event>
<event>
12    1  0.9962621E-001  0.2032604E+03  0.7818608E-02  0.1153344E+00
         21   -1    0    0  501  502  0.00000000000E+00  0.00000000000E+00  0.56517976406E+03  0.56517976406E+03  0.00000000000E+00 0.  1.
         21   -1    0    0  502  503 -0.00000000000E+00 -0.00000000000E+00 -0.65775723423E+02  0.65775723423E+02  0.00000000000E+00 0.  1.
         -6    2    1    2    0  503  0.55863141390E+02 -0.71537556638E+02  0.29301368688E+03  0.34128023837E+03  0.14958899634E+03 0.  0.
        -24    2    3    3    0    0  0.36340397949E+02 -0.97690681096E+02  0.17710148500E+03  0.22076944228E+03  0.80685295794E+02 0.  0.
          6    2    1    2  501    0 -0.55863141390E+02  0.71537556638E+02  0.20639035376E+03  0.28967524911E+03  0.18186934665E+03 0.  0.
         24    2    5    5    0    0 -0.35859865616E+02 -0.34207521919E+02  0.76050483814E+02  0.12058141606E+03  0.79373278200E+02 0.  0.
          5    1    5    5  501    0 -0.20003275775E+02  0.10574507856E+03  0.13033986994E+03  0.16909383306E+03  0.47000000000E+01 0. -1.
        -13    1    6    6    0    0 -0.48102363529E+02 -0.12648833839E+02  0.10962257423E+02  0.50931340669E+02  0.00000000000E+00 0.  1.
         14    1    6    6    0    0  0.12242497913E+02 -0.21558688081E+02  0.65088226391E+02  0.69650075388E+02  0.00000000000E+00 0. -1.
         -5    1    3    3    0  503  0.19522743441E+02  0.26153124458E+02  0.11591220188E+03  0.12051079609E+03  0.47000000000E+01 0.  1.
         13    1    4    4    0    0  0.49463975969E+02 -0.21903035277E+02  0.85268438051E+02  0.10098086156E+03  0.00000000000E+00 0. -1.
        -14    1    4    4    0    0 -0.13123578020E+02 -0.75787645818E+02  0.91833046950E+02  0.11978858072E+03  0.00000000000E+00 0.  1.
</event>
<event>
12    1  0.9962621E-001  0.4102654E+03  0.7818608E-02  0.1040311E+00
         21   -1    0    0  501  502  0.00000000000E+00  0.00000000000E+00  0.10329191523E+04  0.10329191523E+04  0.00000000000E+00 0.  1.
         21   -1    0    0  502  503 -0.00000000000E+00 -0.00000000000E+00 -0.18340083905E+03  0.18340083905E+03  0.00000000000E+00 0.  1.
         -6    2    1    2    0  503 -0.17558399563E+03 -0.32826210975E+03  0.22084254052E+03  0.46561972137E+03  0.17159412871E+03 0.  0.
        -24    2    3    3    0    0 -0.12515907745E+03 -0.19754153130E+03  0.64709877996E+02  0.25578635817E+03  0.80943446063E+02 0.  0.
          6    2    1    2  501    0  0.17558399563E+03  0.32826210975E+03  0.62867577277E+03  0.75070027002E+03  0.17242945204E+03 0.  0.
         24    2    5    5    0    0  0.16393955378E+03  0.27664541029E+03  0.41793830422E+03  0.53337045767E+03  0.80017239722E+02 0.  0.
          5    1    5    5  501    0  0.11644441846E+02  0.51616699465E+02  0.21073746854E+03  0.21732981235E+03  0.47000000000E+01 0. -1.
        -11    1    6    6    0    0  0.85071556926E+02  0.74195099582E+02  0.12161963023E+03  0.16593196515E+03  0.00000000000E+00 0.  1.
         12    1    6    6    0    0  0.78867996854E+02  0.20245031070E+03  0.29631867399E+03  0.36743849252E+03  0.00000000000E+00 0. -1.
         -5    1    3    3    0  503 -0.50424918180E+02 -0.13072057845E+03  0.15613266252E+03  0.20983336320E+03  0.47000000000E+01 0.  1.
         11    1    4    4    0    0 -0.91935658089E+02 -0.13908854389E+03  0.82807612748E+02  0.18615823645E+03  0.00000000000E+00 0. -1.
        -12    1    4    4    0    0 -0.33223419358E+02 -0.58452987418E+02 -0.18097734752E+02  0.69628121726E+02  0.00000000000E+00 0.  1.
</event>
<event>
12    1  0.9962621E-001  0.4006009E+03  0.7818608E-02  0.1043591E+00
         21   -1    0    0  501  502  0.00000000000E+00  0.00000000000E+00  0.91424120576E+02  0.91424120576E+02  0.00000000000E+00 0. -1.
         21   -1    0    0  502  503 -0.00000000000E+00 -0.00000000000E+00 -0.19528007832E+04  0.19528007832E+04  0.00000000000E+00 0. -1.
         -6    2    1    2    0  503  0.23712579582E+03  0.27300676702E+03 -0.12567148996E+04  0.13190198631E+04  0.17239409100E+03 0.  0.
        -24    2    3    3    0    0  0.22376850610E+03  0.15969496547E+03 -0.88899654390E+03  0.93397848786E+03  0.80163173642E+02 0.  0.
          6    2    1    2  501    0 -0.23712579582E+03 -0.27300676702E+03 -0.60466176303E+03  0.72520504064E+03  0.17188707167E+03 0.  0.
         24    2    5    5    0    0 -0.24177516787E+03 -0.28403676557E+03 -0.60157673390E+03  0.71198063392E+03  0.76744643531E+02 0.  0.
          5    1    5    5  501    0  0.46493720463E+01  0.11029998546E+02 -0.30850291323E+01  0.13224406720E+02  0.47000000000E+01 0. -1.
        -13    1    6    6    0    0 -0.19759958535E+03 -0.18802819661E+03 -0.46756382801E+03  0.54130964531E+03  0.00000000000E+00 0.  1.
         14    1    6    6    0    0 -0.44175582522E+02 -0.96008568963E+02 -0.13401290590E+03  0.17067098861E+03  0.00000000000E+00 0. -1.
         -5    1    3    3    0  503  0.13357289726E+02  0.11331180156E+03 -0.36771835570E+03  0.38504137529E+03  0.47000000000E+01 0.  1.
         13    1    4    4    0    0  0.53244914244E+02  0.12715260528E+02 -0.26547709958E+03  0.27106233442E+03  0.00000000000E+00 0. -1.
        -14    1    4    4    0    0  0.17052359185E+03  0.14697970494E+03 -0.62351944432E+03  0.66291615344E+03  0.00000000000E+00 0.  1.
</event>
<event>
12    1  0.9962621E-001  0.2238667E+03  0.7818608E-02  0.1131118E+00
         21   -1    0    0  503  502  0.00000000000E+00  0.00000000000E+00  0.56571405578E+03  0.56571405578E+03  0.00000000000E+00 0.  1.
         21   -1    0    0  501  503 -0.00000000000E+00 -0.00000000000E+00 -0.88943722207E+02  0.88943722207E+02  0.00000000000E+00 0.  1.
          6    2    1    2  501    0  0.14230712111E+03  0.13055879917E+02  0.21266471621E+03  0.30843807733E+03  0.17171486047E+03 0.  0.
         24    2    3    3    0    0  0.74871647607E+02  0.15867895422E+02  0.30910910176E+02  0.11449997760E+03  0.79354941763E+02 0.  0.
         -6    2    1    2    0  502 -0.14230712111E+03 -0.13055879917E+02  0.26410561736E+03  0.34621970066E+03  0.17232101231E+03 0.  0.
        -24    2    5    5    0    0 -0.76098490020E+02  0.43868085771E+02  0.79396139093E+02  0.14185825111E+03  0.78132114858E+02 0.  0.
          5    1    3    3  501    0  0.67435473500E+02 -0.28120155050E+01  0.18175380604E+03  0.19393809973E+03  0.47000000000E+01 0. -1.
        -13    1    4    4    0    0 -0.30753325706E+00 -0.20164673364E+01 -0.21197652913E+02  0.21295567760E+02  0.00000000000E+00 0.  1.
         14    1    4    4    0    0  0.75179180864E+02  0.17884362759E+02  0.52108563088E+02  0.93204409841E+02  0.00000000000E+00 0. -1.
         -5    1    5    5    0  502 -0.66208631086E+02 -0.56923965688E+02  0.18470947827E+03  0.20436144955E+03  0.47000000000E+01 0.  1.
         13    1    6    6    0    0 -0.12575947542E+02  0.50998116341E+02  0.26202416085E+02  0.58698628056E+02  0.00000000000E+00 0. -1.
        -14    1    6    6    0    0 -0.63522542478E+02 -0.71300305706E+01  0.53193723008E+02  0.83159623053E+02  0.00000000000E+00 0.  1.
</event>
<event>
12    1  0.9962621E-001  0.1877787E+03  0.7818608E-02  0.1160589E+00
         21   -1    0    0  503  502  0.00000000000E+00  0.00000000000E+00  0.28196557028E+02  0.28196557028E+02  0.00000000000E+00 0. -1.
         21   -1    0    0  501  503 -0.00000000000E+00 -0.00000000000E+00 -0.19648781478E+04  0.19648781478E+04  0.00000000000E+00 0. -1.
          6    2    1    2  501    0 -0.73784109382E+02 -0.36783674153E+01 -0.36692404027E+03  0.41218211875E+03  0.17263609851E+03 0.  0.
         24    2    3    3    0    0 -0.72115905573E+02 -0.50777524979E+02 -0.33421649571E+03  0.35462356580E+03  0.79234755861E+02 0.  0.
         -6    2    1    2    0  502  0.73784109382E+02  0.36783674153E+01 -0.15697575505E+04  0.15808925861E+04  0.17211907553E+03 0.  0.
        -24    2    5    5    0    0  0.56678842225E+02  0.60666729413E+02 -0.73317134126E+03  0.74217997793E+03  0.79987253855E+02 0.  0.
          5    1    3    3  501    0 -0.16682038094E+01  0.47099157564E+02 -0.32707544560E+02  0.57558552955E+02  0.47000000000E+01 0. -1.
        -11    1    4    4    0    0 -0.69898254397E+02 -0.33173273141E+02 -0.14303046473E+03  0.16261594590E+03  0.00000000000E+00 0.  1.
         12    1    4    4    0    0 -0.22176511761E+01 -0.17604251838E+02 -0.19118603098E+03  0.19200761990E+03  0.00000000000E+00 0. -1.
         -5    1    5    5    0  502  0.17105267158E+02 -0.56988361998E+02 -0.83658620927E+03  0.83871260818E+03  0.47000000000E+01 0.  1.
         11    1    6    6    0    0 -0.16840223185E+02  0.30483012141E+02 -0.27049742199E+03  0.27273001751E+03  0.00000000000E+00 0. -1.
        -12    1    6    6    0    0  0.73519065410E+02  0.30183717273E+02 -0.46267391927E+03  0.46944996042E+03  0.00000000000E+00 0.  1.
</event>
<event>
12    1  0.9962621E-001  0.1862782E+03  0.7818608E-02  0.1164183E+00
         21   -1    0    0  503  502  0.00000000000E+00  0.00000000000E+00  0.13673652697E+04  0.13673652697E+04  0.00000000000E+00 0.  1.
         21   -1    0    0  501  503 -0.00000000000E+00 -0.00000000000E+00 -0.48031201953E+02  0.48031201953E+02  0.00000000000E+00 0.  1.
          6    2    1    2  501    0 -0.20286639591E+02 -0.57766702331E+02  0.11683515928E+04  0.11831081997E+04  0.17592904283E+03 0.  0.
         24    2    3    3    0    0 -0.51932453589E+02 -0.17529088388E+02  0.10452787755E+04  0.10497307973E+04  0.79515907351E+02 0.  0.
         -6    2    1    2    0  502  0.20286639591E+02  0.57766702331E+02  0.15098247496E+03  0.23228827198E+03  0.16557051039E+03 0.  0.
        -24    2    5    5    0    0 -0.11067693551E+02  0.69297231892E+02  0.35314563896E+02  0.11180091593E+03  0.79547006177E+02 0.  0.
          5    1    3    3  501    0  0.31645813998E+02 -0.40237613943E+02  0.12307281730E+03  0.13337740243E+03  0.47000000000E+01 0. -1.
        -13    1    4    4    0    0  0.98873659082E+01  0.19952172356E+02  0.34876698329E+03  0.34947712060E+03  0.00000000000E+00 0.  1.
         14    1    4    4    0    0 -0.61819819497E+02 -0.37481260744E+02  0.69651179222E+03  0.70025367667E+03  0.00000000000E+00 0. -1.
         -5    1    5    5    0  502  0.31354333142E+02 -0.11530529560E+02  0.11566791106E+03  0.12048735605E+03  0.47000000000E+01 0.  1.
         13    1    6    6    0    0 -0.95123416740E+01  0.77469093513E+02  0.51564220810E+02  0.93545785376E+02  0.00000000000E+00 0. -1.
        -14    1    6    6    0    0 -0.15553518772E+01 -0.81718616215E+01 -0.16249656914E+02  0.18255130556E+02  0.00000000000E+00 0.  1.
</event>
<event>
12    1  0.9962621E-001  0.2184293E+03  0.7818608E-02  0.1135640E+00
         21   -1    0    0  501  502  0.00000000000E+00  0.00000000000E+00  0.22212948675E+02  0.22212948675E+02  0.00000000000E+00 0. -1.
         21   -1    0    0  502  503 -0.00000000000E+00 -0.00000000000E+00 -0.21758177764E+04  0.21758177764E+04  0.00000000000E+00 0. -1.
         -6    2    1    2    0  503 -0.11864475091E+03 -0.59216521694E+02 -0.12634844437E+04  0.12822263023E+04  0.17357470264E+03 0.  0.
        -24    2    3    3    0    0 -0.26886770598E+02  0.27880800035E+02 -0.54608357043E+03  0.55374049364E+03  0.83192733815E+02 0.  0.
          6    2    1    2  501    0  0.11864475091E+03  0.59216521694E+02 -0.89012038404E+03  0.91580442282E+03  0.16970642126E+03 0.  0.
         24    2    5    5    0    0  0.53290997037E+02  0.22252665177E+01 -0.34580389264E+03  0.36460423312E+03  0.10252332647E+03 0.  0.
          5    1    5    5  501    0  0.65353753873E+02  0.56991255177E+02 -0.54431649140E+03  0.55120018970E+03  0.47000000000E+01 0. -1.
        -11    1    6    6    0    0  0.42936019998E+02 -0.29093254383E+02 -0.31574647512E+03  0.31997774268E+03  0.00000000000E+00 0.  1.
         12    1    6    6    0    0  0.10354977040E+02  0.31318520901E+02 -0.30057417519E+02  0.44626490438E+02  0.00000000000E+00 0. -1.
         -5    1    3    3    0  503 -0.91757980312E+02 -0.87097321729E+02 -0.71740087330E+03  0.72848580866E+03  0.47000000000E+01 0.  1.
         13    1    4    4    0    0 -0.12883989128E+02 -0.71087971933E+01 -0.45406320038E+03  0.45430157617E+03  0.00000000000E+00 0. -1.
        -14    1    4    4    0    0 -0.14002781470E+02  0.34989597228E+02 -0.92020370054E+02  0.99438917472E+02  0.00000000000E+00 0.  1.
</event>
<event>
12    1  0.9962621E-001  0.2650423E+03  0.7818608E-02  0.1104153E+00
         21   -1    0    0  501  502  0.00000000000E+00  0.00000000000E+00  0.11389447623E+04  0.11389447623E+04  0.00000000000E+00 0. -1.
         21   -1    0    0  502  503 -0.00000000000E+00 -0.00000000000E+00 -0.24154945570E+03  0.24154945570E+03  0.00000000000E+00 0. -1.
         -6    2    1    2    0  503 -0.59276270424E+02 -0.19329645454E+03  0.10443441891E+04  0.10774517266E+04  0.17137748441E+03 0.  0.
        -24    2    3    3    0    0 -0.26453428227E+02 -0.36119407253E+02  0.22035134755E+03  0.23794695820E+03  0.77843709452E+02 0.  0.
          6    2    1    2  501    0  0.59276270424E+02  0.19329645454E+03 -0.14694888251E+03  0.30304249145E+03  0.17135805199E+03 0.  0.
         24    2    5    5    0    0  0.50835383685E+02  0.21623408331E+03 -0.14709500360E+03  0.27815284030E+03  0.79941525279E+02 0.  0.
          5    1    5    5  501    0  0.84408867396E+01 -0.22937628778E+02  0.14612108743E+00  0.24889651148E+02  0.47000000000E+01 0. -1.
        -11    1    6    6    0    0  0.39309401759E+02  0.29927924387E+02 -0.31746809801E+02  0.58726226316E+02  0.00000000000E+00 0.  1.
         12    1    6    6    0    0  0.11525981926E+02  0.18630615893E+03 -0.11534819379E+03  0.21942661399E+03  0.00000000000E+00 0. -1.
         -5    1    3    3    0  503 -0.32822842197E+02 -0.15717704728E+03  0.82399284157E+03  0.83950476837E+03  0.47000000000E+01 0.  1.
         11    1    4    4    0    0  0.25690930344E+02  0.11070678864E+01  0.65167927685E+02  0.70057892489E+02  0.00000000000E+00 0. -1.
        -12    1    4    4    0    0 -0.52144358572E+02 -0.37226475139E+02  0.15518341987E+03  0.16788906571E+03  0.00000000000E+00 0.  1.
</event>
<event>
12    1  0.9962621E-001  0.4550509E+03  0.7818608E-02  0.1026312E+00
         21   -1    0    0  501  502  0.00000000000E+00  0.00000000000E+00  0.52235153275E+03  0.52235153275E+03  0.00000000000E+00 0.  1.
         21   -1    0    0  502  503 -0.00000000000E+00 -0.00000000000E+00 -0.48878333830E+03  0.48878333830E+03  0.00000000000E+00 0.  1.
         -6    2    1    2    0  503 -0.29604227870E+03 -0.29891666400E+03  0.23777768341E+03  0.51342917933E+03  0.17343325134E+03 0.  0.
        -24    2    3    3    0    0 -0.21990020479E+03 -0.20209000751E+03  0.91877213995E+02  0.32242642071E+03  0.79504107555E+02 0.  0.
          6    2    1    2  501    0  0.29604227870E+03  0.29891666400E+03 -0.20420948896E+03  0.49770569172E+03  0.17034446687E+03 0.  0.
         24    2    5    5    0    0  0.21456547480E+03  0.22612435835E+03 -0.78958017158E+02  0.33143118819E+03  0.80260174512E+02 0.  0.
          5    1    5    5  501    0  0.81476803895E+02  0.72792305647E+02 -0.12525147180E+03  0.16627450353E+03  0.47000000000E+01 0. -1.
        -13    1    6    6    0    0 -0.18503879803E+01 -0.15415062445E+01  0.56331237005E+01  0.61263577927E+01  0.00000000000E+00 0.  1.
         14    1    6    6    0    0  0.21641586278E+03  0.22766586460E+03 -0.84591140858E+02  0.32530483040E+03  0.00000000000E+00 0. -1.
         -5    1    3    3    0  503 -0.76142073905E+02 -0.96826656489E+02  0.14590046941E+03  0.19100275862E+03  0.47000000000E+01 0.  1.
         13    1    4    4    0    0 -0.17861534150E+03 -0.12524039868E+03  0.42716155807E+02  0.22229095269E+03  0.00000000000E+00 0. -1.
        -14    1    4    4    0    0 -0.41284863299E+02 -0.76849608828E+02  0.49161058188E+02  0.10013546803E+03  0.00000000000E+00 0.  1.
</event>
<event>
12    1  0.9962621E-001  0.6567206E+03  0.7818608E-02  0.9794543E-01
         21   -1    0    0  503  502  0.00000000000E+00  0.00000000000E+00  0.47966791962E+03  0.47966791962E+03  0.00000000000E+00 0. -1.
         21   -1    0    0  501  503 -0.00000000000E+00 -0.00000000000E+00 -0.89846348915E+03  0.89846348915E+03  0.00000000000E+00 0. -1.
          6    2    1    2  501    0 -0.31075218205E+03  0.55219048965E+03 -0.19888079116E+03  0.68556776288E+03  0.17020086045E+03 0.  0.
         24    2    3    3    0    0 -0.52147843922E+02  0.16081724338E+03 -0.57440400062E+02  0.19559154322E+03  0.79844028125E+02 0.  0.
         -6    2    1    2    0  502  0.31075218205E+03 -0.55219048965E+03 -0.21991477837E+03  0.69256364588E+03  0.17262861393E+03 0.  0.
        -24    2    5    5    0    0  0.68282379523E+02 -0.15434824504E+03 -0.10627505687E+03  0.21297409947E+03  0.74684102926E+02 0.  0.
          5    1    3    3  501    0 -0.25860433812E+03  0.39137324627E+03 -0.14144039110E+03  0.48997621966E+03  0.47000000000E+01 0. -1.
        -11    1    4    4    0    0 -0.58119076116E+02  0.16747036372E+03 -0.50641943776E+02  0.18436039760E+03  0.00000000000E+00 0.  1.
         12    1    4    4    0    0  0.59712321936E+01 -0.66531203408E+01 -0.67984562854E+01  0.11231145625E+02  0.00000000000E+00 0. -1.
         -5    1    5    5    0  502  0.24246980252E+03 -0.39784224461E+03 -0.11363972150E+03  0.47958954642E+03  0.47000000000E+01 0.  1.
         11    1    6    6    0    0  0.13943117456E+02 -0.38664706397E+02  0.75933009683E+01  0.41797467205E+02  0.00000000000E+00 0. -1.
        -12    1    6    6    0    0  0.54339262066E+02 -0.11568353865E+03 -0.11386835784E+03  0.17117663226E+03  0.00000000000E+00 0.  1.
</event>
<event>
12    1  0.9962621E-001  0.3857445E+03  0.7818608E-02  0.1048882E+00
         21   -1    0    0  503  502  0.00000000000E+00  0.00000000000E+00  0.29960608052E+03  0.29960608052E+03  0.00000000000E+00 0. -1.
         21   -1    0    0  501  503 -0.00000000000E+00 -0.00000000000E+00 -0.50167365300E+03  0.50167365300E+03  0.00000000000E+00 0.  1.
          6    2    1    2  501    0 -0.34078828547E+03 -0.50688757480E+02 -0.14387245556E+03  0.41117016599E+03  0.17220806103E+03 0.  0.
         24    2    3    3    0    0 -0.18702307768E+03 -0.40112065935E+02 -0.11566781568E+02  0.20798924440E+03  0.80864862146E+02 0.  0.
         -6    2    1    2    0  502  0.34078828547E+03  0.50688757480E+02 -0.58195116916E+02  0.39010956752E+03  0.17347275691E+03 0.  0.
        -24    2    5    5    0    0  0.23401851272E+03  0.11012116237E+02 -0.10260083167E+03  0.26776588057E+03  0.79282439032E+02 0.  0.
          5    1    3    3  501    0 -0.15376520779E+03 -0.10576691544E+02 -0.13230567399E+03  0.20318092160E+03  0.47000000000E+01 0. -1.
        -13    1    4    4    0    0 -0.31352239829E+02 -0.42989540149E+01 -0.34270433354E+02  0.46646613492E+02  0.00000000000E+00 0.  1.
         14    1    4    4    0    0 -0.15567083785E+03 -0.35813111921E+02  0.22703651786E+02  0.16134263091E+03  0.00000000000E+00 0. -1.
         -5    1    5    5    0  502  0.10676977275E+03  0.39676641243E+02  0.44405714758E+02  0.12234368695E+03  0.47000000000E+01 0.  1.
         11    1    6    6    0    0  0.98213859272E+02  0.52921325911E+01 -0.15065046068E+01  0.98367872685E+02  0.00000000000E+00 0. -1.
        -12    1    6    6    0    0  0.13580465345E+03  0.57199836457E+01 -0.10109432707E+03  0.16939800789E+03  0.00000000000E+00 0.  1.
</event>
<event>
12    1  0.9962621E-001  0.2108350E+03  0.7818608E-02  0.1141313E+00
         21   -1    0    0  501  502  0.00000000000E+00  0.00000000000E+00  0.44302514775E+02  0.44302514775E+02  0.00000000000E+00 0. -1.
         21   -1    0    0  502  503 -0.00000000000E+00 -0.00000000000E+00 -0.22561773719E+04  0.22561773719E+04  0.00000000000E+00 0. -1.
         -6    2    1    2    0  503  0.23026758293E+02 -0.11637365325E+03 -0.24786921265E+03  0.32540828350E+03  0.17429384850E+03 0.  0.
        -24    2    3    3    0    0  0.48078231891E+02 -0.90504186477E+02 -0.25692451932E+03  0.28797976203E+03  0.80122472254E+02 0.  0.
          6    2    1    2  501    0 -0.23026758293E+02  0.11637365325E+03 -0.19640056445E+04  0.19750716032E+04  0.17180397945E+03 0.  0.
         24    2    5    5    0    0  0.10431688781E+02  0.14126254123E+03 -0.13832238622E+04  0.13927757221E+04  0.80324551535E+02 0.  0.
          5    1    5    5  501    0 -0.33458447074E+02 -0.24888887981E+02 -0.58078178231E+03  0.58229588105E+03  0.47000000000E+01 0. -1.
        -11    1    6    6    0    0  0.14861698518E+02  0.42838987618E+02 -0.18373598713E+03  0.18924841323E+03  0.00000000000E+00 0.  1.
         12    1    6    6    0    0 -0.44300097370E+01  0.98423553617E+02 -0.11994878750E+04  0.12035273089E+04  0.00000000000E+00 0. -1.
         -5    1    3    3    0  503 -0.25051473598E+02 -0.25869466776E+02  0.90553066695E+01  0.37428521473E+02  0.47000000000E+01 0.  1.
         11    1    4    4    0    0 -0.86798036642E+01 -0.44164813011E+02 -0.44585166399E+02  0.63353822007E+02  0.00000000000E+00 0. -1.
        -12    1    4    4    0    0  0.56758035556E+02 -0.46339373466E+02 -0.21233935292E+03  0.22462594002E+03  0.00000000000E+00 0.  1.
</event>
<event>
12    1  0.9962621E-001  0.2241753E+03  0.7818608E-02  0.1130970E+00
         21   -1    0    0  501  502  0.00000000000E+00  0.00000000000E+00  0.17686194423E+03  0.17686194423E+03  0.00000000000E+00 0.  1.
         21   -1    0    0  502  503 -0.00000000000E+00 -0.00000000000E+00 -0.35665633494E+03  0.35665633494E+03  0.00000000000E+00 0.  1.
         -6    2    1    2    0  503  0.14196001208E+03  0.11084060956E+02 -0.21096800616E+03  0.30718582400E+03  0.17198874791E+03 0.  0.
        -24    2    3    3    0    0  0.84771025390E+01  0.66930931783E+01 -0.27237535472E+02  0.79994398995E+02  0.74434949911E+02 0.  0.
          6    2    1    2  501    0 -0.14196001208E+03 -0.11084060956E+02  0.31173615456E+02  0.22633245516E+03  0.17314469245E+03 0.  0.
         24    2    5    5    0    0 -0.39065775911E+02 -0.70599960898E+02 -0.44720993328E+01  0.10214681523E+03  0.62477858986E+02 0.  0.
          5    1    5    5  501    0 -0.10289423617E+03  0.59515899942E+02  0.35645714789E+02  0.12418563993E+03  0.47000000000E+01 0. -1.
        -11    1    6    6    0    0 -0.20609429040E+02 -0.27061805730E+02 -0.32608178877E+02  0.47120942524E+02  0.00000000000E+00 0.  1.
         12    1    6    6    0    0 -0.18456346871E+02 -0.43538155168E+02  0.28136079544E+02  0.55025872708E+02  0.00000000000E+00 0. -1.
         -5    1    3    3    0  503  0.13348290954E+03  0.43909677775E+01 -0.18373047069E+03  0.22719142501E+03  0.47000000000E+01 0.  1.
         13    1    4    4    0    0  0.16413941911E+02  0.17111741471E+02  0.19971971104E+02  0.31001755031E+02  0.00000000000E+00 0. -1.
        -14    1    4    4    0    0 -0.79368393716E+01 -0.10418648292E+02 -0.47209506576E+02  0.48992643964E+02  0.00000000000E+00 0.  1.
</event>
<event>
12    1  0.9962621E-001  0.3915867E+03  0.7818608E-02  0.1046738E+00
         21   -1    0    0  503  502  0.00000000000E+00  0.00000000000E+00  0.52634210310E+03  0.52634210310E+03  0.00000000000E+00 0.  1.
         21   -1    0    0  501  503 -0.00000000000E+00 -0.00000000000E+00 -0.31252442242E+03  0.31252442242E+03  0.00000000000E+00 0. -1.
          6    2    1    2  501    0  0.34624221362E+03 -0.63010809937E+02 -0.24323430156E+01  0.39153643345E+03  0.17158330269E+03 0.  0.
         24    2    3    3    0    0  0.21313137149E+03  0.15392749707E+02 -0.42336844830E+02  0.23191164301E+03  0.79553023048E+02 0.  0.
         -6    2    1    2    0  502 -0.34624221362E+03  0.63010809937E+02  0.21625002370E+03  0.44733009207E+03  0.17171518821E+03 0.  0.
        -24    2    5    5    0    0 -0.12958234302E+03  0.73735858066E+02  0.55979330914E+02  0.17757963118E+03  0.78563856400E+02 0.  0.
          5    1    3    3  501    0  0.13311084212E+03 -0.78403559644E+02  0.39904501814E+02  0.15962479043E+03  0.47000000000E+01 0. -1.
        -13    1    4    4    0    0  0.93336540397E+02  0.52119807243E+01  0.21305815872E+02  0.95879154702E+02  0.00000000000E+00 0.  1.
         14    1    4    4    0    0  0.11979483110E+03  0.10180768983E+02 -0.63642660702E+02  0.13603248831E+03  0.00000000000E+00 0. -1.
         -5    1    5    5    0  502 -0.21665987060E+03 -0.10725048129E+02  0.16027069279E+03  0.26975046090E+03  0.47000000000E+01 0.  1.
         13    1    6    6    0    0 -0.30721904019E+02 -0.77819206856E+01  0.35889363549E+02  0.47879432871E+02  0.00000000000E+00 0. -1.
        -14    1    6    6    0    0 -0.98860438998E+02  0.81517778752E+02  0.20089967364E+02  0.12970019830E+03  0.00000000000E+00 0.  1.
</event>
<event>
12    1  0.9962621E-001  0.2049539E+03  0.7818608E-02  0.1145688E+00
         21   -1    0    0  503  502  0.00000000000E+00  0.00000000000E+00  0.59914971784E+02  0.59914971784E+02  0.00000000000E+00 0. -1.
         21   -1    0    0  501  503 -0.00000000000E+00 -0.00000000000E+00 -0.25124139156E+04  0.25124139156E+04  0.00000000000E+00 0. -1.
          6    2    1    2  501    0  0.22216133227E+01  0.11113866509E+03 -0.23183744861E+04  0.23273891883E+04  0.17182385585E+03 0.  0.
         24    2    3    3    0    0  0.49815111544E+02  0.19431614836E+02 -0.74318330966E+03  0.74880607153E+03  0.74363754640E+02 0.  0.
         -6    2    1    2    0  502 -0.22216133227E+01 -0.11113866509E+03 -0.13412445769E+03  0.24493969909E+03  0.17218985915E+03 0.  0.
        -24    2    5    5    0    0  0.18105509973E+02  0.26710622766E+01 -0.31746818879E+02  0.90443366080E+02  0.82687350265E+02 0.  0.
          5    1    3    3  501    0 -0.47593498221E+02  0.91707050254E+02 -0.15751911764E+04  0.15785831167E+04  0.47000000000E+01 0. -1.
        -11    1    4    4    0    0  0.17120678663E+02  0.44053710100E+02 -0.29552219301E+03  0.29927782005E+03  0.00000000000E+00 0.  1.
         12    1    4    4    0    0  0.32694432881E+02 -0.24622095264E+02 -0.44766111665E+03  0.44952825147E+03  0.00000000000E+00 0. -1.
         -5    1    5    5    0  502 -0.20327123296E+02 -0.11380972737E+03 -0.10237763882E+03  0.15449633301E+03  0.47000000000E+01 0.  1.
         11    1    6    6    0    0  0.31361469551E+02 -0.33190199294E+02 -0.11105129958E+02  0.46994201908E+02  0.00000000000E+00 0. -1.
        -12    1    6    6    0    0 -0.13255959578E+02  0.35861261570E+02 -0.20641688921E+02  0.43449164172E+02  0.00000000000E+00 0.  1.
</event>
<event>
12    1  0.9962621E-001  0.1832354E+03  0.7818608E-02  0.1165687E+00
         21   -1    0    0  503  502  0.00000000000E+00  0.00000000000E+00  0.74802199850E+02  0.74802199850E+02  0.00000000000E+00 0.  1.
         21   -1    0    0  501  503 -0.00000000000E+00 -0.00000000000E+00 -0.57226440868E+03  0.57226440868E+03  0.00000000000E+00 0.  1.
          6    2    1    2  501    0  0.20260016961E+02 -0.56896837553E+02 -0.40707026351E+03  0.44640947490E+03  0.17299566884E+03 0.  0.
         24    2    3    3    0    0  0.63224712404E+02 -0.57691658039E+02 -0.17830819682E+03  0.21359888676E+03  0.80653454400E+02 0.  0.
         -6    2    1    2    0  502 -0.20260016961E+02  0.56896837553E+02 -0.90391945324E+02  0.20065713363E+03  0.16865604966E+03 0.  0.
        -24    2    5    5    0    0 -0.47171885338E+02  0.94877142981E+02 -0.61708270114E+02  0.14577912817E+03  0.78846588910E+02 0.  0.
          5    1    3    3  501    0 -0.42964695443E+02  0.79482048634E+00 -0.22876206669E+03  0.23281058814E+03  0.47000000000E+01 0. -1.
        -11    1    4    4    0    0 -0.16353492685E+02 -0.13480759764E+02 -0.12946478627E+02  0.24835034038E+02  0.00000000000E+00 0.  1.
         12    1    4    4    0    0  0.79578205088E+02 -0.44210898275E+02 -0.16536171819E+03  0.18876385273E+03  0.00000000000E+00 0. -1.
         -5    1    5    5    0  502  0.26911868378E+02 -0.37980305428E+02 -0.28683675210E+02  0.54878005463E+02  0.47000000000E+01 0.  1.
         13    1    6    6    0    0 -0.24240581363E+00  0.13860164005E+02  0.18068267649E+02  0.22773344125E+02  0.00000000000E+00 0. -1.
        -14    1    6    6    0    0 -0.46929479525E+02  0.81016978976E+02 -0.79776537763E+02  0.12300578404E+03  0.00000000000E+00 0.  1.
</event>
<event>
12    1  0.9962621E-001  0.2001017E+03  0.7818608E-02  0.1149985E+00
         21   -1    0    0  503  502  0.00000000000E+00  0.00000000000E+00  0.66550054366E+03  0.66550054366E+03  0.00000000000E+00 0. -1.
         21   -1    0    0  501  503 -0.00000000000E+00 -0.00000000000E+00 -0.71001397674E+02  0.71001397674E+02  0.00000000000E+00 0. -1.
          6    2    1    2  501    0  0.99273402055E+02 -0.19797396920E+02  0.44320926258E+03  0.48564476030E+03  0.17079003919E+03 0.  0.
         24    2    3    3    0    0  0.80921313826E+02 -0.33182777662E+02  0.14708650745E+03  0.18861489031E+03  0.79320743867E+02 0.  0.
         -6    2    1    2    0  502 -0.99273402055E+02  0.19797396920E+02  0.15128988340E+03  0.25085718104E+03  0.17260808549E+03 0.  0.
        -24    2    5    5    0    0 -0.98449918650E+02  0.67150231308E+02  0.14386488075E+03  0.20268883340E+03  0.78639171062E+02 0.  0.
          5    1    3    3  501    0  0.18352088228E+02  0.13385380742E+02  0.29612275513E+03  0.29702986999E+03  0.47000000000E+01 0. -1.
        -13    1    4    4    0    0  0.96435917184E+02 -0.23924889972E+02  0.11675360346E+03  0.15330913347E+03  0.00000000000E+00 0.  1.
         14    1    4    4    0    0 -0.15514603357E+02 -0.92578876904E+01  0.30332903987E+02  0.35305756841E+02  0.00000000000E+00 0. -1.
         -5    1    5    5    0  502 -0.82348340472E+00 -0.47352834387E+02  0.74250026555E+01  0.48168347635E+02  0.47000000000E+01 0.  1.
         11    1    6    6    0    0 -0.35142984807E+02  0.70920539706E+02  0.74397317921E+02  0.10862648502E+03  0.00000000000E+00 0. -1.
        -12    1    6    6    0    0 -0.63306933844E+02 -0.37703083986E+01  0.69467562828E+02  0.94062348384E+02  0.00000000000E+00 0.  1.
</event>
<event>
12    1  0.9962621E-001  0.2041200E+03  0.7818608E-02  0.1146871E+00
         21   -1    0    0  501  502  0.00000000000E+00  0.00000000000E+00  0.50501226642E+03  0.50501226642E+03  0.00000000000E+00 0. -1.
         21   -1    0    0  502  503 -0.00000000000E+00 -0.00000000000E+00 -0.82436729787E+02  0.82436729787E+02  0.00000000000E+00 0. -1.
         -6    2    1    2    0  503  0.58988744538E+01  0.10533791403E+03  0.17706917403E+03  0.26817113236E+03  0.17155579555E+03 0.  0.
        -24    2    3    3    0    0  0.24656908203E+01  0.49724193977E+02  0.18886929308E+03  0.21102215671E+03  0.79875939152E+02 0.  0.
          6    2    1    2  501    0 -0.58988744538E+01 -0.10533791403E+03  0.24550636261E+03  0.31927786385E+03  0.17474011392E+03 0.  0.
         24    2    5    5    0    0 -0.63266212316E+02 -0.93820501929E+02  0.13277456859E+03  0.19217865214E+03  0.80614192742E+02 0.  0.
          5    1    5    5  501    0  0.57367337862E+02 -0.11517412105E+02  0.11273179401E+03  0.12709921171E+03  0.47000000000E+01 0. -1.
        -13    1    6    6    0    0 -0.66420979621E+02 -0.10291116456E+03  0.13501878125E+03  0.18229790348E+03  0.00000000000E+00 0.  1.
         14    1    6    6    0    0  0.31547673050E+01  0.90906626274E+01 -0.22442126503E+01  0.98807486647E+01  0.00000000000E+00 0. -1.
         -5    1    3    3    0  503  0.34331836335E+01  0.55613720057E+02 -0.11800119050E+02  0.57148975652E+02  0.47000000000E+01 0.  1.
         13    1    4    4    0    0  0.18036756178E+01  0.87219574556E+01 -0.67345360941E+01  0.11166009314E+02  0.00000000000E+00 0. -1.
        -14    1    4    4    0    0  0.66201520246E+00  0.41002236522E+02  0.19560382917E+03  0.19985614739E+03  0.00000000000E+00 0.  1.
</event>
<event>
12    1  0.9962621E-001  0.2380441E+03  0.7818608E-02  0.1121456E+00
         21   -1    0    0  501  502  0.00000000000E+00  0.00000000000E+00  0.85945306237E+02  0.85945306237E+02  0.00000000000E+00 0.  1.
         21   -1    0    0  502  503 -0.00000000000E+00 -0.00000000000E+00 -0.69063414044E+03  0.69063414044E+03  0.00000000000E+00 0.  1.
         -6    2    1    2    0  503  0.13830191715E+03 -0.87999864791E+02 -0.21108754629E+03  0.31659362559E+03  0.16971203575E+03 0.  0.
        -24    2    3    3    0    0  0.10893814656E+03 -0.46691807195E+02 -0.61275472158E+02  0.15837120556E+03  0.85317704080E+02 0.  0.
          6    2    1    2  501    0 -0.13830191715E+03  0.87999864791E+02 -0.39360128792E+03  0.45998582108E+03  0.17260818421E+03 0.  0.
         24    2    5    5    0    0  0.20887261875E+01  0.34303115536E+02 -0.11985654503E+03  0.14765402975E+03  0.79088903160E+02 0.  0.
          5    1    5    5  501    0 -0.14039064334E+03  0.53696749256E+02 -0.27374474289E+03  0.31233179133E+03  0.47000000000E+01 0. -1.
        -13    1    6    6    0    0 -0.36639545294E+01 -0.18725075970E+02 -0.31531907582E+01  0.19338967005E+02  0.00000000000E+00 0.  1.
         14    1    6    6    0    0  0.57526807168E+01  0.53028191505E+02 -0.11670335427E+03  0.12831506274E+03  0.00000000000E+00 0. -1.
         -5    1    3    3    0  503  0.29363770593E+02 -0.41308057596E+02 -0.14981207413E+03  0.15822242003E+03  0.47000000000E+01 0.  1.
         11    1    4    4    0    0  0.37336060733E+02  0.24179126235E+02 -0.11212541079E+02  0.45873005722E+02  0.00000000000E+00 0. -1.
        -12    1    4    4    0    0  0.71602085822E+02 -0.70870933430E+02 -0.50062931079E+02  0.11249819984E+03  0.00000000000E+00 0.  1.
</event>
<event>
12    1  0.9962621E-001  0.2312068E+03  0.7818608E-02  0.1125861E+00
         21   -1    0    0  501  502  0.00000000000E+00  0.00000000000E+00  0.43436086157E+02  0.43436086157E+02  0.00000000000E+00 0. -1.
         21   -1    0    0  502  503 -0.00000000000E+00 -0.00000000000E+00 -0.13862509894E+04  0.13862509894E+04  0.00000000000E+00 0. -1.
         -6    2    1    2    0  503 -0.10376869624E+03  0.11533037239E+03 -0.91195697749E+03  0.94071350609E+03  0.17090153491E+03 0.  0.
        -24    2    3    3    0    0  0.32179454577E+01 -0.13978791898E+02 -0.24041744451E+03  0.24850368543E+03  0.61219051362E+02 0.  0.
          6    2    1    2  501    0  0.10376869624E+03 -0.11533037239E+03 -0.43085792575E+03  0.48897356946E+03  0.17142800919E+03 0.  0.
         24    2    5    5    0    0  0.13245184953E+03 -0.52708309441E+02 -0.31921661708E+03  0.35771002596E+03  0.75733451824E+02 0.  0.
          5    1    5    5  501    0 -0.28683153291E+02 -0.62622062949E+02 -0.11164130867E+03  0.13126354350E+03  0.47000000000E+01 0. -1.
        -11    1    6    6    0    0  0.10117027262E+02 -0.36578701795E+02 -0.70484329053E+02  0.80052459723E+02  0.00000000000E+00 0.  1.
         12    1    6    6    0    0  0.12233482227E+03 -0.16129607646E+02 -0.24873228802E+03  0.27765756624E+03  0.00000000000E+00 0. -1.
         -5    1    3    3    0  503 -0.10698664170E+03  0.12930916429E+03 -0.67153953298E+03  0.69220982066E+03  0.47000000000E+01 0.  1.
         11    1    4    4    0    0 -0.26263994382E+02 -0.34261448807E+01 -0.62956574937E+02  0.68301289866E+02  0.00000000000E+00 0. -1.
        -12    1    4    4    0    0  0.29481939839E+02 -0.10552647017E+02 -0.17746086957E+03  0.18020239556E+03  0.00000000000E+00 0.  1.
</event>
<event>
12    1  0.9962621E-001  0.2875925E+03  0.7818608E-02  0.1091616E+00
         21   -1    0    0  501  502  0.00000000000E+00  0.00000000000E+00  0.47405421899E+03  0.47405421899E+03  0.00000000000E+00 0.  1.
         21   -1    0    0  502  503 -0.00000000000E+00 -0.00000000000E+00 -0.34920037053E+03  0.34920037053E+03  0.00000000000E+00 0.  1.
         -6    2    1    2    0  503  0.63597815867E+02 -0.22180275669E+03  0.35361208671E+03  0.45579706813E+03  0.17166337522E+03 0.  0.
        -24    2    3    3    0    0  0.34422692313E+02 -0.23622405328E+03  0.33202132999E+03  0.41645990497E+03  0.78828699012E+02 0.  0.
          6    2    1    2  501    0 -0.63597815867E+02  0.22180275669E+03 -0.22875823825E+03  0.36745752139E+03  0.17162037582E+03 0.  0.
         24    2    5    5    0    0 -0.32515982232E+02  0.15153648111E+03 -0.23366986814E+03  0.29032358610E+03  0.75270068142E+02 0.  0.
          5    1    5    5  501    0 -0.31081833635E+02  0.70266275575E+02  0.49116298871E+01  0.77133935290E+02  0.47000000000E+01 0. -1.
        -11    1    6    6    0    0 -0.50142692474E+01  0.23514286886E+02 -0.18948946115E+01  0.24117529091E+02  0.00000000000E+00 0.  1.
         12    1    6    6    0    0 -0.27501712985E+02  0.12802219423E+03 -0.23177497353E+03  0.26620605701E+03  0.00000000000E+00 0. -1.
         -5    1    3    3    0  503  0.29175123553E+02  0.14421296588E+02  0.21590756723E+02  0.39337163160E+02  0.47000000000E+01 0.  1.
         11    1    4    4    0    0 -0.17675592904E+02 -0.18905042920E+02  0.52953332590E+02  0.58939652737E+02  0.00000000000E+00 0. -1.
        -12    1    4    4    0    0  0.52098285217E+02 -0.21731901036E+03  0.27906799740E+03  0.35752025223E+03  0.00000000000E+00 0.  1.
</event>
<event>
12    1  0.9962621E-001  0.1867319E+03  0.7818608E-02  0.1162284E+00
         21   -1    0    0  501  502  0.00000000000E+00  0.00000000000E+00  0.42046943427E+02  0.42046943427E+02  0.00000000000E+00 0. -1.
         21   -1    0    0  502  503 -0.00000000000E+00 -0.00000000000E+00 -0.81365964014E+03  0.81365964014E+03  0.00000000000E+00 0. -1.
         -6    2    1    2    0  503  0.65741289044E+02 -0.28221935548E+02 -0.39082909749E+03  0.43160170408E+03  0.16856527753E+03 0.  0.
        -24    2    3    3    0    0  0.11603228563E+02 -0.64772548412E+02 -0.31693764283E+03  0.33286511530E+03  0.77586065736E+02 0.  0.
          6    2    1    2  501    0 -0.65741289044E+02  0.28221935548E+02 -0.38078359922E+03  0.42410487949E+03  0.17248305608E+03 0.  0.
         24    2    5    5    0    0 -0.56234035745E+02  0.64608730145E+02 -0.15018782636E+03  0.19041515539E+03  0.79780908920E+02 0.  0.
          5    1    5    5  501    0 -0.95072532988E+01 -0.36386794597E+02 -0.23059577286E+03  0.23368972410E+03  0.47000000000E+01 0. -1.
        -13    1    6    6    0    0 -0.31257313912E+02 -0.44999996019E+01 -0.11771382303E+02  0.33702152910E+02  0.00000000000E+00 0.  1.
         14    1    6    6    0    0 -0.24976721833E+02  0.69108729747E+02 -0.13841644406E+03  0.15671300248E+03  0.00000000000E+00 0. -1.
         -5    1    3    3    0  503  0.54138060482E+02  0.36550612864E+02 -0.73891454661E+02  0.98736588787E+02  0.47000000000E+01 0.  1.
         11    1    4    4    0    0 -0.26676388321E+02 -0.15207424357E+01 -0.10713687112E+03  0.11041852881E+03  0.00000000000E+00 0. -1.
        -12    1    4    4    0    0  0.38279616884E+02 -0.63251805976E+02 -0.20980077171E+03  0.22244658649E+03  0.00000000000E+00 0.  1.
</event>
<event>
12    1  0.9962621E-001  0.2956402E+03  0.7818608E-02  0.1087458E+00
         21   -1    0    0  501  502  0.00000000000E+00  0.00000000000E+00  0.28853488161E+03  0.28853488161E+03  0.00000000000E+00 0. -1.
         21   -1    0    0  502  503 -0.00000000000E+00 -0.00000000000E+00 -0.38446107456E+03  0.38446107456E+03  0.00000000000E+00 0. -1.
         -6    2    1    2    0  503  0.18512854234E+03 -0.15344063503E+03 -0.20307060337E+03  0.35866529155E+03  0.17200731306E+03 0.  0.
        -24    2    3    3    0    0  0.16721674263E+03 -0.18210734081E+03 -0.16336291386E+03  0.30630688062E+03  0.77536706764E+02 0.  0.
          6    2    1    2  501    0 -0.18512854234E+03  0.15344063503E+03  0.10714441043E+03  0.31433066461E+03  0.17177670496E+03 0.  0.
         24    2    5    5    0    0 -0.18195856204E+03  0.16460361216E+03  0.59342437897E+02  0.26491630019E+03  0.80348327536E+02 0.  0.
          5    1    5    5  501    0 -0.31699802964E+01 -0.11162977130E+02  0.47801972528E+02  0.49414364420E+02  0.47000000000E+01 0. -1.
        -11    1    6    6    0    0 -0.11536746383E+03  0.57907301881E+02  0.51243972390E+02  0.13888431167E+03  0.00000000000E+00 0.  1.
         12    1    6    6    0    0 -0.66591098205E+02  0.10669631028E+03  0.80984655077E+01  0.12603198852E+03  0.00000000000E+00 0. -1.
         -5    1    3    3    0  503  0.17911799705E+02  0.28666705782E+02 -0.39707689516E+02  0.52358410936E+02  0.47000000000E+01 0.  1.
         13    1    4    4    0    0  0.30812154667E+00 -0.37193562225E+02 -0.32771020350E+02  0.49572127094E+02  0.00000000000E+00 0. -1.
        -14    1    4    4    0    0  0.16690862108E+03 -0.14491377858E+03 -0.13059189351E+03  0.25673475352E+03  0.00000000000E+00 0.  1.
</event>
<event>
12    1  0.9962621E-001  0.2686371E+03  0.7818608E-02  0.1102139E+00
         21   -1    0    0  501  502  0.00000000000E+00  0.00000000000E+00  0.43902892249E+03  0.43902892249E+03  0.00000000000E+00 0.  1.
         21   -1    0    0  502  503 -0.00000000000E+00 -0.00000000000E+00 -0.18766987050E+03  0.18766987050E+03  0.00000000000E+00 0.  1.
         -6    2    1    2    0  503  0.78271999217E+02 -0.19031894906E+03  0.23695929539E+03  0.35821169561E+03  0.17267919089E+03 0.  0.
        -24    2    3    3    0    0  0.32333558046E+02 -0.80665175301E+02  0.20315924997E+03  0.23452328246E+03  0.78582184273E+02 0.  0.
          6    2    1    2  501    0 -0.78271999217E+02  0.19031894906E+03  0.14399756606E+02  0.26848709738E+03  0.17184341778E+03 0.  0.
         24    2    5    5    0    0 -0.49440041400E+02  0.11928241240E+03  0.76244516299E+02  0.16987505129E+03  0.79822898864E+02 0.  0.
          5    1    5    5  501    0 -0.28831957817E+02  0.71036536668E+02 -0.61844759692E+02  0.98612046093E+02  0.47000000000E+01 0. -1.
        -11    1    6    6    0    0 -0.27388926552E+02  0.13490025026E+02  0.50134823529E+02  0.58699528134E+02  0.00000000000E+00 0.  1.
         12    1    6    6    0    0 -0.22051114848E+02  0.10579238737E+03  0.26109692770E+02  0.11117552315E+03  0.00000000000E+00 0. -1.
         -5    1    3    3    0  503  0.45938441171E+02 -0.10965377376E+03  0.33800045425E+02  0.12368841315E+03  0.47000000000E+01 0.  1.
         13    1    4    4    0    0  0.56074569620E+02 -0.49193512855E+02  0.10550177907E+03  0.12920907263E+03  0.00000000000E+00 0. -1.
        -14    1    4    4    0    0 -0.23741011574E+02 -0.31471662446E+02  0.97657470901E+02  0.10531420982E+03  0.00000000000E+00 0.  1.
</event>
<event>
12    1  0.9962621E-001  0.1779372E+03  0.7818608E-02  0.1169950E+00
         21   -1    0    0  501  502  0.00000000000E+00  0.00000000000E+00  0.27711178150E+03  0.27711178150E+03  0.00000000000E+00 0. -1.
         21   -1    0    0  502  503 -0.00000000000E+00 -0.00000000000E+00 -0.14170796679E+03  0.14170796679E+03  0.00000000000E+00 0. -1.
         -6    2    1    2    0  503  0.93663820504E+01  0.43535708227E+02  0.16054956201E+03  0.23966188366E+03  0.17227469232E+03 0.  0.
        -24    2    3    3    0    0  0.43442512898E+02 -0.19823201093E+02  0.46549934517E+02  0.10477845565E+03  0.80817183417E+02 0.  0.
          6    2    1    2  501    0 -0.93663820504E+01 -0.43535708227E+02 -0.25145747307E+02  0.17915786463E+03  0.17170365415E+03 0.  0.
         24    2    5    5    0    0 -0.52834308177E+02 -0.27768189257E+02  0.33994375902E+02  0.10394005139E+03  0.78008847156E+02 0.  0.
          5    1    5    5  501    0  0.43467926127E+02 -0.15767518970E+02 -0.59140123209E+02  0.75217813245E+02  0.47000000000E+01 0. -1.
        -13    1    6    6    0    0 -0.28291002039E+02  0.24794344523E+02  0.19528784894E+01  0.37669006505E+02  0.00000000000E+00 0.  1.
         14    1    6    6    0    0 -0.24543306138E+02 -0.52562533780E+02  0.32041497413E+02  0.66271044884E+02  0.00000000000E+00 0. -1.
         -5    1    3    3    0  503 -0.34076130847E+02  0.63358909321E+02  0.11399962750E+03  0.13488342802E+03  0.47000000000E+01 0.  1.
         13    1    4    4    0    0  0.27473990893E+02  0.30339182367E+02  0.24513575708E+02  0.47709554141E+02  0.00000000000E+00 0. -1.
        -14    1    4    4    0    0  0.15968522005E+02 -0.50162383461E+02  0.22036358809E+02  0.57068901505E+02  0.00000000000E+00 0.  1.
</event>
<event>
12    1  0.9962621E-001  0.2301900E+03  0.7818608E-02  0.1126669E+00
         21   -1    0    0  503  502  0.00000000000E+00  0.00000000000E+00  0.72986284540E+02  0.72986284540E+02  0.00000000000E+00 0.  1.
         21   -1    0    0  501  503 -0.00000000000E+00 -0.00000000000E+00 -0.89501347732E+03  0.89501347732E+03  0.00000000000E+00 0.  1.
          6    2    1    2  501    0 -0.15206823231E+03  0.78875653344E+01 -0.19954805241E+03  0.30464222319E+03  0.17262820732E+03 0.  0.
         24    2    3    3    0    0 -0.95679010726E+02 -0.48903586937E+02 -0.68186220518E+02  0.15074940281E+03  0.80808340343E+02 0.  0.
         -6    2    1    2    0  502  0.15206823231E+03 -0.78875653344E+01 -0.62247914036E+03  0.66335753866E+03  0.17139423255E+03 0.  0.
        -24    2    5    5    0    0  0.16477422670E+03  0.17864848539E+02 -0.39184683732E+03  0.43089683592E+03  0.68252770578E+02 0.  0.
          5    1    3    3  501    0 -0.56389221586E+02  0.56791152271E+02 -0.13136183190E+03  0.15389282039E+03  0.47000000000E+01 0. -1.
        -13    1    4    4    0    0 -0.75129074343E+00  0.23144165160E+00  0.15175652369E+02  0.15196000390E+02  0.00000000000E+00 0.  1.
         14    1    4    4    0    0 -0.94927719983E+02 -0.49135028588E+02 -0.83361872887E+02  0.13555340242E+03  0.00000000000E+00 0. -1.
         -5    1    5    5    0  502 -0.12705994383E+02 -0.25752413873E+02 -0.23063230305E+03  0.23246070275E+03  0.47000000000E+01 0.  1.
         11    1    6    6    0    0  0.11883183446E+03  0.36906229373E+02 -0.22896269310E+03  0.26058969565E+03  0.00000000000E+00 0. -1.
        -12    1    6    6    0    0  0.45942392237E+02 -0.19041380835E+02 -0.16288414422E+03  0.17030714027E+03  0.00000000000E+00 0.  1.
</event>
<event>
12    1  0.9962621E-001  0.1785768E+03  0.7818608E-02  0.1169274E+00
         21   -1    0    0  501  502  0.00000000000E+00  0.00000000000E+00  0.38549591898E+03  0.38549591898E+03  0.00000000000E+00 0.  1.
         21   -1    0    0  502  503 -0.00000000000E+00 -0.00000000000E+00 -0.16016764045E+03  0.16016764045E+03  0.00000000000E+00 0.  1.
         -6    2    1    2    0  503 -0.21402321026E+02 -0.41694209677E+02  0.30263756964E+03  0.35139600910E+03  0.17231712099E+03 0.  0.
        -24    2    3    3    0    0  0.46809612514E+02 -0.45617276570E+02  0.13738868882E+03  0.17251744430E+03  0.81329828642E+02 0.  0.
          6    2    1    2  501    0  0.21402321026E+02  0.41694209677E+02 -0.77309291106E+02  0.19426755033E+03  0.17194966750E+03 0.  0.
         24    2    5    5    0    0  0.26047773264E+02 -0.20468504789E+02 -0.97090485608E+02  0.12869950207E+03  0.77714562712E+02 0.  0.
          5    1    5    5  501    0 -0.46454522379E+01  0.62162714467E+02  0.19781194502E+02  0.65568048257E+02  0.47000000000E+01 0. -1.
        -11    1    6    6    0    0  0.36264130827E+02  0.83872878598E+01 -0.13355915843E+02  0.39545091608E+02  0.00000000000E+00 0.  1.
         12    1    6    6    0    0 -0.10216357563E+02 -0.28855792649E+02 -0.83734569765E+02  0.89154410463E+02  0.00000000000E+00 0. -1.
         -5    1    3    3    0  503 -0.68211933541E+02  0.39230668928E+01  0.16524888082E+03  0.17887856479E+03  0.47000000000E+01 0.  1.
         13    1    4    4    0    0  0.24524927425E+02 -0.60464650165E+02  0.53248800261E+02  0.84219241947E+02  0.00000000000E+00 0. -1.
        -14    1    4    4    0    0  0.22284685089E+02  0.14847373595E+02  0.84139888561E+02  0.88298202356E+02  0.00000000000E+00 0.  1.
</event>
<event>
12    1  0.9962621E-001  0.1748644E+03  0.7818608E-02  0.1173085E+00
         21   -1    0    0  503  502  0.00000000000E+00  0.00000000000E+00  0.65365718479E+02  0.65365718479E+02  0.00000000000E+00 0. -1.
         21   -1    0    0  501  503 -0.00000000000E+00 -0.00000000000E+00 -0.57078315723E+03  0.57078315723E+03  0.00000000000E+00 0. -1.
          6    2    1    2  501    0  0.36528506371E+02 -0.15594213716E+02 -0.38983139320E+03  0.42725411199E+03  0.17029400990E+03 0.  0.
         24    2    3    3    0    0  0.84805874268E+02 -0.30569847792E+02 -0.31234003134E+03  0.33461516214E+03  0.79274583885E+02 0.  0.
         -6    2    1    2    0  502 -0.36528506371E+02  0.15594213716E+02 -0.11558604555E+03  0.20889476371E+03  0.16940890503E+03 0.  0.
        -24    2    5    5    0    0  0.25693530288E+02 -0.40081227609E+02 -0.51339584592E+02  0.10343844879E+03  0.76138672406E+02 0.  0.
          5    1    3    3  501    0 -0.48277367897E+02  0.14975634076E+02 -0.77491361860E+02  0.92638949854E+02  0.47000000000E+01 0. -1.
        -11    1    4    4    0    0  0.17647521903E+02 -0.47027271214E+02 -0.14914324064E+03  0.15737441182E+03  0.00000000000E+00 0.  1.
         12    1    4    4    0    0  0.67158352365E+02  0.16457423422E+02 -0.16319679070E+03  0.17724075032E+03  0.00000000000E+00 0. -1.
         -5    1    5    5    0  502 -0.62222036659E+02  0.55675441326E+02 -0.64246460953E+02  0.10545631493E+03  0.47000000000E+01 0.  1.
         11    1    6    6    0    0  0.29868695025E+02 -0.78304775098E+01 -0.61960340944E+02  0.69228167464E+02  0.00000000000E+00 0. -1.
        -12    1    6    6    0    0 -0.41751647372E+01 -0.32250750100E+02  0.10620756353E+02  0.34210281321E+02  0.00000000000E+00 0.  1.
</event>
<event>
12    1  0.9962621E-001  0.2753595E+03  0.7818608E-02  0.1098364E+00
         21   -1    0    0  503  502  0.00000000000E+00  0.00000000000E+00  0.47431125716E+02  0.47431125716E+02  0.00000000000E+00 0.  1.
         21   -1    0    0  501  503 -0.00000000000E+00 -0.00000000000E+00 -0.19288925402E+04  0.19288925402E+04  0.00000000000E+00 0.  1.
          6    2    1    2  501    0  0.21075737159E+03 -0.43115681538E+02 -0.53006187026E+03  0.59731769590E+03  0.17188720679E+03 0.  0.
         24    2    3    3    0    0  0.19902234340E+03 -0.74166896234E+01 -0.51375321445E+03  0.55608432150E+03  0.74983376814E+02 0.  0.
         -6    2    1    2    0  502 -0.21075737159E+03  0.43115681538E+02 -0.13513995442E+04  0.13790059700E+04  0.17058459932E+03 0.  0.
        -24    2    5    5    0    0 -0.22830536932E+03  0.54832931702E+02 -0.12949419454E+04  0.13185512213E+04  0.81072123446E+02 0.  0.
          5    1    3    3  501    0  0.11735028198E+02 -0.35698991915E+02 -0.16308655806E+02  0.41233374404E+02  0.47000000000E+01 0. -1.
        -13    1    4    4    0    0  0.88246791798E+02  0.33917688259E+02 -0.23306076474E+03  0.25150591623E+03  0.00000000000E+00 0.  1.
         14    1    4    4    0    0  0.11077555160E+03 -0.41334377883E+02 -0.28069244972E+03  0.30457840527E+03  0.00000000000E+00 0. -1.
         -5    1    5    5    0  502  0.17547997728E+02 -0.11717250163E+02 -0.56457598805E+02  0.60454748684E+02  0.47000000000E+01 0.  1.
         11    1    6    6    0    0 -0.16761753569E+03  0.35426380867E+01 -0.93881275216E+03  0.95366533552E+03  0.00000000000E+00 0. -1.
        -12    1    6    6    0    0 -0.60687833634E+02  0.51290293615E+02 -0.35612919322E+03  0.36488588577E+03  0.00000000000E+00 0.  1.
</event>
<event>
12    1  0.9962621E-001  0.1801994E+03  0.7818608E-02  0.1168173E+00
         21   -1    0    0  503  502  0.00000000000E+00  0.00000000000E+00  0.14329855871E+03  0.14329855871E+03  0.00000000000E+00 0. -1.
         21   -1    0    0  501  503 -0.00000000000E+00 -0.00000000000E+00 -0.23772142389E+03  0.23772142389E+03  0.00000000000E+00 0. -1.
          6    2    1    2  501    0  0.12311569070E+02  0.45321211833E+02 -0.93763922438E+02  0.20313416310E+03  0.17397191754E+03 0.  0.
         24    2    3    3    0    0  0.23157997260E+02 -0.28500872853E+02 -0.10009135646E+02  0.90865291621E+02  0.82508943967E+02 0.  0.
         -6    2    1    2    0  502 -0.12311569070E+02 -0.45321211833E+02 -0.65894273886E+00  0.17788581950E+03  0.17157314358E+03 0.  0.
        -24    2    5    5    0    0 -0.51830070444E+02 -0.55839085354E+02  0.39939855652E+02  0.12006981786E+03  0.83768785572E+02 0.  0.
          5    1    3    3  501    0 -0.10846428190E+02  0.73822084686E+02 -0.83754786792E+02  0.11226887148E+03  0.47000000000E+01 0. -1.
        -13    1    4    4    0    0 -0.47398081321E+01 -0.52982983354E+02 -0.60959753523E+01  0.53542723331E+02  0.00000000000E+00 0.  1.
         14    1    4    4    0    0  0.27897805392E+02  0.24482110501E+02 -0.39131602938E+01  0.37322568290E+02  0.00000000000E+00 0. -1.
         -5    1    5    5    0  502  0.39518501375E+02  0.10517873521E+02 -0.40598798391E+02  0.57816001635E+02  0.47000000000E+01 0.  1.
         13    1    6    6    0    0 -0.16840961557E+02 -0.54037995798E+02 -0.11572254986E+02  0.57772312239E+02  0.00000000000E+00 0. -1.
        -14    1    6    6    0    0 -0.34989108888E+02 -0.18010895564E+01  0.51512110638E+02  0.62297505622E+02  0.00000000000E+00 0.  1.
</event>
<event>
12    1  0.9962621E-001  0.1977167E+03  0.7818608E-02  0.1152148E+00
         21   -1    0    0  501  502  0.00000000000E+00  0.00000000000E+00  0.50365270303E+02  0.50365270303E+02  0.00000000000E+00 0. -1.
         21   -1    0    0  502  503 -0.00000000000E+00 -0.00000000000E+00 -0.77265445150E+03  0.77265445150E+03  0.00000000000E+00 0. -1.
         -6    2    1    2    0  503 -0.80584122970E+02 -0.54408772867E+02 -0.39225825741E+03  0.43829606089E+03  0.16965488808E+03 0.  0.
        -24    2    3    3    0    0 -0.26529628448E+02 -0.23652004198E+02 -0.36212079355E+03  0.36902684749E+03  0.61531346183E+02 0.  0.
          6    2    1    2  501    0  0.80584122970E+02  0.54408772867E+02 -0.33003092379E+03  0.38472366091E+03  0.17215623477E+03 0.  0.
         24    2    5    5    0    0 -0.14239289266E+01 -0.14575617579E+02 -0.93316169904E+02  0.12483881832E+03  0.81623200091E+02 0.  0.
          5    1    5    5  501    0  0.82008051896E+02  0.68984390445E+02 -0.23671475389E+03  0.25988484259E+03  0.47000000000E+01 0. -1.
        -11    1    6    6    0    0 -0.48516716241E+01  0.14297386186E+02 -0.94539329438E+02  0.95737342661E+02  0.00000000000E+00 0.  1.
         12    1    6    6    0    0  0.34277426975E+01 -0.28873003765E+02  0.12231595335E+01  0.29101475661E+02  0.00000000000E+00 0. -1.
         -5    1    3    3    0  503 -0.54054494522E+02 -0.30756768669E+02 -0.30137463861E+02  0.69269213399E+02  0.47000000000E+01 0.  1.
         13    1    4    4    0    0  0.33425918171E+01 -0.35659927583E+02 -0.13650699554E+03  0.14112747141E+03  0.00000000000E+00 0. -1.
        -14    1    4    4    0    0 -0.29872220265E+02  0.12007923385E+02 -0.22561379801E+03  0.22789937608E+03  0.00000000000E+00 0.  1.
</event>
<event>
12    1  0.9962621E-001  0.3963125E+03  0.7818608E-02  0.1045114E+00
         21   -1    0    0  503  502  0.00000000000E+00  0.00000000000E+00  0.84140420935E+03  0.84140420935E+03  0.00000000000E+00 0.  1.
         21   -1    0    0  501  503 -0.00000000000E+00 -0.00000000000E+00 -0.36325349841E+03  0.36325349841E+03  0.00000000000E+00 0.  1.
          6    2    1    2  501    0 -0.33290931805E+03  0.12745328633E+03 -0.18129116765E+03  0.43528964785E+03  0.17186516755E+03 0.  0.
         24    2    3    3    0    0 -0.55372587763E+02  0.42191427736E+02 -0.28887888404E+02  0.10734899664E+03  0.76439890983E+02 0.  0.
         -6    2    1    2    0  502  0.33290931805E+03 -0.12745328633E+03  0.65944187859E+03  0.76936805991E+03  0.17317813411E+03 0.  0.
        -24    2    5    5    0    0  0.24511477779E+03 -0.12473615961E+03  0.37567733545E+03  0.47228276910E+03  0.79228718312E+02 0.  0.
          5    1    3    3  501    0 -0.27753673029E+03  0.85261858592E+02 -0.15240327925E+03  0.32794065121E+03  0.47000000000E+01 0. -1.
        -11    1    4    4    0    0 -0.14799851064E+02  0.44274828666E+02 -0.43857204133E+02  0.64052715784E+02  0.00000000000E+00 0.  1.
         12    1    4    4    0    0 -0.40572736700E+02 -0.20834009297E+01  0.14969315729E+02  0.43296280858E+02  0.00000000000E+00 0. -1.
         -5    1    5    5    0  502  0.87794540260E+02 -0.27171267138E+01  0.28376454314E+03  0.29708529081E+03  0.47000000000E+01 0.  1.
         13    1    6    6    0    0  0.13836546750E+02 -0.20944859925E+02  0.93304763207E+01  0.26780496105E+02  0.00000000000E+00 0. -1.
        -14    1    6    6    0    0  0.23127823104E+03 -0.10379129969E+03  0.36634685913E+03  0.44550227299E+03  0.00000000000E+00 0.  1.
</event>
<event>
12    1  0.9962621E-001  0.3663090E+03  0.7818608E-02  0.1056213E+00
         21   -1    0    0  501  502  0.00000000000E+00  0.00000000000E+00  0.41817297885E+03  0.41817297885E+03  0.00000000000E+00 0. -1.
         21   -1    0    0  502  503 -0.00000000000E+00 -0.00000000000E+00 -0.47253276774E+03  0.47253276774E+03  0.00000000000E+00 0. -1.
         -6    2    1    2    0  503  0.41686110675E+02 -0.32066723878E+03  0.22584463708E+03  0.43033487840E+03  0.17209618712E+03 0.  0.
        -24    2    3    3    0    0  0.81657222529E+02 -0.27229162240E+03  0.21944348206E+03  0.36708177706E+03  0.76045773133E+02 0.  0.
          6    2    1    2  501    0 -0.41686110675E+02  0.32066723878E+03 -0.28020442596E+03  0.46037086819E+03  0.16988703925E+03 0.  0.
         24    2    5    5    0    0 -0.54353632883E+02  0.10875339459E+03 -0.16163244533E+03  0.21716447834E+03  0.79080623578E+02 0.  0.
          5    1    5    5  501    0  0.12667522208E+02  0.21191384418E+03 -0.11857198063E+03  0.24320638986E+03  0.47000000000E+01 0. -1.
        -13    1    6    6    0    0 -0.43021422621E+02  0.11739255664E+03 -0.12053968831E+03  0.17367115943E+03  0.00000000000E+00 0.  1.
         14    1    6    6    0    0 -0.11332210263E+02 -0.86391620502E+01 -0.41092757013E+02  0.43493318904E+02  0.00000000000E+00 0. -1.
         -5    1    3    3    0  503 -0.39971111854E+02 -0.48375616379E+02  0.64011550112E+01  0.63253101334E+02  0.47000000000E+01 0.  1.
         13    1    4    4    0    0  0.52102973913E+02 -0.58236928488E+02  0.60968205787E+02  0.99112975171E+02  0.00000000000E+00 0. -1.
        -14    1    4    4    0    0  0.29554248617E+02 -0.21405469391E+03  0.15847527628E+03  0.26796880189E+03  0.00000000000E+00 0.  1.
</event>
<event>
12    1  0.9962621E-001  0.2966139E+03  0.7818608E-02  0.1086951E+00
         21   -1    0    0  501  502  0.00000000000E+00  0.00000000000E+00  0.15116384622E+03  0.15116384622E+03  0.00000000000E+00 0.  1.
         21   -1    0    0  502  503 -0.00000000000E+00 -0.00000000000E+00 -0.58527663220E+03  0.58527663220E+03  0.00000000000E+00 0.  1.
         -6    2    1    2    0  503 -0.15123003206E+03 -0.18844926888E+03 -0.24484567748E+03  0.38458564375E+03  0.17196820073E+03 0.  0.
        -24    2    3    3    0    0 -0.11663895269E+03 -0.18959387798E+03 -0.14295616967E+03  0.27687578022E+03  0.81689946573E+02 0.  0.
          6    2    1    2  501    0  0.15123003206E+03  0.18844926888E+03 -0.18926710851E+03  0.35185483467E+03  0.17203527771E+03 0.  0.
         24    2    5    5    0    0  0.14133920110E+03  0.77658760587E+02 -0.82824503172E+02  0.19782729331E+03  0.79171249779E+02 0.  0.
          5    1    5    5  501    0  0.98908309638E+01  0.11079050829E+03 -0.10644260533E+03  0.15402754135E+03  0.47000000000E+01 0. -1.
        -13    1    6    6    0    0  0.78295610727E+02  0.66076685584E+02 -0.13378723108E+02  0.10332144632E+03  0.00000000000E+00 0.  1.
         14    1    6    6    0    0  0.63043590370E+02  0.11582075004E+02 -0.69445780063E+02  0.94505846998E+02  0.00000000000E+00 0. -1.
         -5    1    3    3    0  503 -0.34591079375E+02  0.11446091032E+01 -0.10188950780E+03  0.10770986353E+03  0.47000000000E+01 0.  1.
         13    1    4    4    0    0 -0.10019260997E+03 -0.10120886901E+03 -0.59963758582E+02  0.15452328822E+03  0.00000000000E+00 0. -1.
        -14    1    4    4    0    0 -0.16446342720E+02 -0.88385008976E+02 -0.82992411090E+02  0.12235249200E+03  0.00000000000E+00 0.  1.
</event>
<event>
12    1  0.9962621E-001  0.2278354E+03  0.7818608E-02  0.1128543E+00
         21   -1    0    0  503  502  0.00000000000E+00  0.00000000000E+00  0.16185216348E+03  0.16185216348E+03  0.00000000000E+00 0.  1.
         21   -1    0    0  501  503 -0.00000000000E+00 -0.00000000000E+00 -0.32774930348E+03  0.32774930348E+03  0.00000000000E+00 0.  1.
          6    2    1    2  501    0 -0.14536783452E+03 -0.18113413586E+02 -0.12594544621E+03  0.26032908389E+03  0.17449662872E+03 0.  0.
         24    2    3    3    0    0 -0.14843649763E+02 -0.74211734008E+00 -0.63772360510E+01  0.82405022510E+02  0.80802437579E+02 0.  0.
         -6    2    1    2    0  502  0.14536783452E+03  0.18113413586E+02 -0.39951693795E+02  0.22927238306E+03  0.17178412247E+03 0.  0.
        -24    2    5    5    0    0  0.11294671429E+03  0.77001112464E+02 -0.26685785872E+02  0.16059222269E+03  0.79947477954E+02 0.  0.
          5    1    3    3  501    0 -0.13052418475E+03 -0.17371296246E+02 -0.11956821016E+03  0.17792406138E+03  0.47000000000E+01 0. -1.
        -11    1    4    4    0    0  0.64020082492E+00  0.37492243423E+02  0.86852228321E+01  0.38490404903E+02  0.00000000000E+00 0.  1.
         12    1    4    4    0    0 -0.15483850588E+02 -0.38234360763E+02 -0.15062458883E+02  0.43914617607E+02  0.00000000000E+00 0. -1.
         -5    1    5    5    0  502  0.32421120231E+02 -0.58887698878E+02 -0.13265907923E+02  0.68680160376E+02  0.47000000000E+01 0.  1.
         13    1    6    6    0    0  0.45109509284E+02  0.30952345858E+02 -0.51289441320E+02  0.74990148239E+02  0.00000000000E+00 0. -1.
        -14    1    6    6    0    0  0.67837205003E+02  0.46048766606E+02  0.24603655448E+02  0.85602074449E+02  0.00000000000E+00 0.  1.
</event>
<event>
12    1  0.9962621E-001  0.1925375E+03  0.7818608E-02  0.1156603E+00
         21   -1    0    0  501  502  0.00000000000E+00  0.00000000000E+00  0.12930993019E+03  0.12930993019E+03  0.00000000000E+00 0.  1.
         21   -1    0    0  502  503 -0.00000000000E+00 -0.00000000000E+00 -0.38145753590E+03  0.38145753590E+03  0.00000000000E+00 0.  1.
         -6    2    1    2    0  503 -0.70672077932E+02  0.43199012617E+02  0.34987881226E+01  0.19072719956E+03  0.17176706856E+03 0.  0.
        -24    2    3    3    0    0 -0.99899685610E+02  0.74815074443E+02 -0.54841765309E+01  0.14649359163E+03  0.76505252425E+02 0.  0.
          6    2    1    2  501    0  0.70672077932E+02 -0.43199012617E+02 -0.25564639383E+03  0.32004026653E+03  0.17381023052E+03 0.  0.
         24    2    5    5    0    0  0.47324113957E+01 -0.17757740869E+02 -0.26035314064E+02  0.79751615360E+02  0.73107793673E+02 0.  0.
          5    1    5    5  501    0  0.65939666536E+02 -0.25441271748E+02 -0.22961107976E+03  0.24028865117E+03  0.47000000000E+01 0. -1.
        -13    1    6    6    0    0 -0.20118730007E+02 -0.36305414474E+02 -0.25545253621E+02  0.48738141120E+02  0.00000000000E+00 0.  1.
         14    1    6    6    0    0  0.24851141403E+02  0.18547673605E+02 -0.49006044238E+00  0.31013474240E+02  0.00000000000E+00 0. -1.
         -5    1    3    3    0  503  0.29227607678E+02 -0.31616061826E+02  0.89829646535E+01  0.44233607924E+02  0.47000000000E+01 0.  1.
         13    1    4    4    0    0 -0.35293043957E+02  0.68757203848E+02  0.14419166073E+02  0.78619745503E+02  0.00000000000E+00 0. -1.
        -14    1    4    4    0    0 -0.64606641652E+02  0.60578705957E+01 -0.19903342604E+02  0.67873846131E+02  0.00000000000E+00 0.  1.
</event>
<event>
12    1  0.9962621E-001  0.2212019E+03  0.7818608E-02  0.1133044E+00
         21   -1    0    0  503  502  0.00000000000E+00  0.00000000000E+00  0.21184347640E+03  0.21184347640E+03  0.00000000000E+00 0. -1.
         21   -1    0    0  501  503 -0.00000000000E+00 -0.00000000000E+00 -0.26216515016E+03  0.26216515016E+03  0.00000000000E+00 0. -1.
          6    2    1    2  501    0  0.13509166781E+03  0.26631945951E+02  0.57002370989E+02  0.22814543142E+03  0.17274851178E+03 0.  0.
         24    2    3    3    0    0  0.26271085625E+02 -0.11088867698E+02 -0.22824535641E+02  0.87934148307E+02  0.79989512340E+02 0.  0.
         -6    2    1    2    0  502 -0.13509166781E+03 -0.26631945951E+02 -0.10732404475E+03  0.24586319515E+03  0.17312204045E+03 0.  0.
        -24    2    5    5    0    0 -0.20053905286E+02 -0.19751741872E+01 -0.97887553289E+02  0.12774130652E+03  0.79560089695E+02 0.  0.
          5    1    3    3  501    0  0.10882058219E+03  0.37720813649E+02  0.79826906630E+02  0.14021128311E+03  0.47000000000E+01 0. -1.
        -13    1    4    4    0    0  0.25869026155E+02  0.16601332172E+02  0.20190246565E+02  0.36775763765E+02  0.00000000000E+00 0.  1.
         14    1    4    4    0    0  0.40205946970E+00 -0.27690199870E+02 -0.43014782207E+02  0.51158384542E+02  0.00000000000E+00 0. -1.
         -5    1    5    5    0  502 -0.11503776253E+03 -0.24656771763E+02 -0.94364914596E+01  0.11812188863E+03  0.47000000000E+01 0.  1.
         11    1    6    6    0    0 -0.33406699971E+02 -0.12447040431E+02 -0.83567535178E+01  0.36616550190E+02  0.00000000000E+00 0. -1.
        -12    1    6    6    0    0  0.13352794686E+02  0.10471866244E+02 -0.89530799771E+02  0.91124756330E+02  0.00000000000E+00 0.  1.
</event>
<event>
12    1  0.9962621E-001  0.2469913E+03  0.7818608E-02  0.1115612E+00
         21   -1    0    0  503  502  0.00000000000E+00  0.00000000000E+00  0.19379366282E+03  0.19379366282E+03  0.00000000000E+00 0.  1.
         21   -1    0    0  501  503 -0.00000000000E+00 -0.00000000000E+00 -0.31616809147E+03  0.31616809147E+03  0.00000000000E+00 0.  1.
          6    2    1    2  501    0 -0.12911233193E+03  0.11737416620E+03 -0.91768694112E+02  0.26348851901E+03  0.17480851605E+03 0.  0.
         24    2    3    3    0    0 -0.33159159540E+02  0.50017985036E+01  0.21345433229E+01  0.88347238003E+02  0.81707590454E+02 0.  0.
         -6    2    1    2    0  502  0.12911233193E+03 -0.11737416620E+03 -0.30605734531E+02  0.24647323528E+03  0.17136410236E+03 0.  0.
        -24    2    5    5    0    0  0.12596954409E+03 -0.13219758836E+03  0.13648169520E+02  0.19946143906E+03  0.79082644966E+02 0.  0.
          5    1    3    3  501    0 -0.95953172387E+02  0.11237236769E+03 -0.93903237435E+02  0.17514128101E+03  0.47000000000E+01 0. -1.
        -11    1    4    4    0    0 -0.47088950133E+02  0.30636608790E+02 -0.94296168578E+01  0.56963924521E+02  0.00000000000E+00 0.  1.
         12    1    4    4    0    0  0.13929790593E+02 -0.25634810287E+02  0.11564160181E+02  0.31383313481E+02  0.00000000000E+00 0. -1.
         -5    1    5    5    0  502  0.31427878357E+01  0.14823422166E+02 -0.44253904051E+02  0.47011796220E+02  0.47000000000E+01 0.  1.
         13    1    6    6    0    0  0.10270320838E+03 -0.62844154900E+02  0.30891557799E+02  0.12430456613E+03  0.00000000000E+00 0. -1.
        -14    1    6    6    0    0  0.23266335712E+02 -0.69353433461E+02 -0.17243388279E+02  0.75156872937E+02  0.00000000000E+00 0.  1.
</event>
<event>
12    1  0.9962621E-001  0.1866716E+03  0.7818608E-02  0.1161663E+00
         21   -1    0    0  501  502  0.00000000000E+00  0.00000000000E+00  0.17727238484E+03  0.17727238484E+03  0.00000000000E+00 0.  1.
         21   -1    0    0  502  503 -0.00000000000E+00 -0.00000000000E+00 -0.23185744454E+03  0.23185744454E+03  0.00000000000E+00 0.  1.
         -6    2    1    2    0  503 -0.71694941834E+01 -0.71586577927E+02  0.53401801042E+02  0.19347396722E+03  0.17147706508E+03 0.  0.
        -24    2    3    3    0    0  0.94766799377E+01 -0.12999591437E+02 -0.32869356446E+02  0.87765250864E+02  0.79771848579E+02 0.  0.
          6    2    1    2  501    0  0.71694941834E+01  0.71586577927E+02 -0.10798686074E+03  0.21565586216E+03  0.17225054138E+03 0.  0.
         24    2    5    5    0    0 -0.58118396222E+02  0.29163163024E+02 -0.34907472305E+02  0.10876834287E+03  0.79898577782E+02 0.  0.
          5    1    5    5  501    0  0.65287890406E+02  0.42423414902E+02 -0.73079388440E+02  0.10688751929E+03  0.47000000000E+01 0. -1.
        -11    1    6    6    0    0 -0.24634790260E+02 -0.93108509282E+01 -0.49195337119E+02  0.55800950085E+02  0.00000000000E+00 0.  1.
         12    1    6    6    0    0 -0.33483605962E+02  0.38474013952E+02  0.14287864814E+02  0.52967392788E+02  0.00000000000E+00 0. -1.
         -5    1    3    3    0  503 -0.16646174121E+02 -0.58586986489E+02  0.86271157488E+02  0.10570871635E+03  0.47000000000E+01 0.  1.
         13    1    4    4    0    0  0.28670459402E+02  0.18867958375E+02  0.49952303223E+01  0.34683532426E+02  0.00000000000E+00 0. -1.
        -14    1    4    4    0    0 -0.19193779465E+02 -0.31867549812E+02 -0.37864586768E+02  0.53081718438E+02  0.00000000000E+00 0.  1.
</event>
<event>
12    1  0.9962621E-001  0.1985885E+03  0.7818608E-02  0.1151254E+00
         21   -1    0    0  501  502  0.00000000000E+00  0.00000000000E+00  0.92603062213E+02  0.92603062213E+02  0.00000000000E+00 0.  1.
         21   -1    0    0  502  503 -0.00000000000E+00 -0.00000000000E+00 -0.62084092182E+03  0.62084092182E+03  0.00000000000E+00 0.  1.
         -6    2    1    2    0  503 -0.10324750388E+01 -0.95830597368E+02 -0.46633035568E+03  0.50685440780E+03  0.17393338002E+03 0.  0.
        -24    2    3    3    0    0  0.11780303356E+02 -0.76791276150E+02 -0.11782955551E+03  0.15756718966E+03  0.70056687509E+02 0.  0.
          6    2    1    2  501    0  0.10324750388E+01  0.95830597368E+02 -0.61907503932E+02  0.20658957623E+03  0.17222701463E+03 0.  0.
         24    2    5    5    0    0  0.62857617307E+02  0.53346662645E+02 -0.64336764698E+02  0.13138835128E+03  0.79540763717E+02 0.  0.
          5    1    5    5  501    0 -0.61825142268E+02  0.42483934723E+02  0.24292607653E+01  0.75201224949E+02  0.47000000000E+01 0. -1.
        -11    1    6    6    0    0  0.48779871797E+02 -0.67611773489E+01 -0.12577875607E+02  0.50827083002E+02  0.00000000000E+00 0.  1.
         12    1    6    6    0    0  0.14077745509E+02  0.60107839993E+02 -0.51758889091E+02  0.80561268282E+02  0.00000000000E+00 0. -1.
         -5    1    3    3    0  503 -0.12812778395E+02 -0.19039321218E+02 -0.34850080017E+03  0.34928721815E+03  0.47000000000E+01 0.  1.
         11    1    4    4    0    0 -0.12775921618E+02 -0.40122449870E+02 -0.13388175517E+02  0.44184594605E+02  0.00000000000E+00 0. -1.
        -12    1    4    4    0    0  0.24556224974E+02 -0.36668826280E+02 -0.10444137999E+03  0.11338259505E+03  0.00000000000E+00 0.  1.
</event>
<event>
12    1  0.9962621E-001  0.7191454E+03  0.7818608E-02  0.9686984E-01
         21   -1    0    0  503  502  0.00000000000E+00  0.00000000000E+00  0.13452944074E+04  0.13452944074E+04  0.00000000000E+00 0. -1.
         21   -1    0    0  501  503 -0.00000000000E+00 -0.00000000000E+00 -0.38256327960E+03  0.38256327960E+03  0.00000000000E+00 0. -1.
          6    2    1    2  501    0  0.20895152175E+03 -0.66642173412E+03  0.51814167746E+03  0.88636389482E+03  0.17143946446E+03 0.  0.
         24    2    3    3    0    0  0.14621445000E+03 -0.56910612916E+03  0.48374359178E+03  0.76548550371E+03  0.81851952708E+02 0.  0.
         -6    2    1    2    0  502 -0.20895152175E+03  0.66642173412E+03  0.44458945031E+03  0.84149379214E+03  0.15057674701E+03 0.  0.
        -24    2    5    5    0    0 -0.55336227826E+02  0.23226990242E+03  0.13496382849E+03  0.28653830998E+03  0.82931070205E+02 0.  0.
          5    1    3    3  501    0  0.62737071745E+02 -0.97315604964E+02  0.34398085682E+02  0.12087839112E+03  0.47000000000E+01 0. -1.
        -11    1    4    4    0    0  0.87479803980E+02 -0.23666222210E+03  0.16706283966E+03  0.30260818870E+03  0.00000000000E+00 0.  1.
         12    1    4    4    0    0  0.58734646023E+02 -0.33244390706E+03  0.31668075212E+03  0.46287731500E+03  0.00000000000E+00 0. -1.
         -5    1    5    5    0  502 -0.15361529392E+03  0.43415183170E+03  0.30962562182E+03  0.55495548216E+03  0.47000000000E+01 0.  1.
         13    1    6    6    0    0 -0.59375151510E+02  0.23715475354E+03  0.12461426804E+03  0.27440208007E+03  0.00000000000E+00 0. -1.
        -14    1    6    6    0    0  0.40389236849E+01 -0.48848511244E+01  0.10349560447E+02  0.12136229912E+02  0.00000000000E+00 0.  1.
</event>
<event>
12    1  0.9962621E-001  0.1927454E+03  0.7818608E-02  0.1156147E+00
         21   -1    0    0  503  502  0.00000000000E+00  0.00000000000E+00  0.10370659256E+04  0.10370659256E+04  0.00000000000E+00 0.  1.
         21   -1    0    0  501  503 -0.00000000000E+00 -0.00000000000E+00 -0.35856600002E+02  0.35856600002E+02  0.00000000000E+00 0.  1.
          6    2    1    2  501    0  0.81894910555E+02  0.30891822761E+02  0.46676319079E+03  0.50499374696E+03  0.17172573223E+03 0.  0.
         24    2    3    3    0    0  0.55795075022E+02  0.68873668002E+02  0.40519535840E+03  0.42794499637E+03  0.10534215163E+03 0.  0.
         -6    2    1    2    0  502 -0.81894910555E+02 -0.30891822761E+02  0.53444613483E+03  0.56792877866E+03  0.17102440032E+03 0.  0.
        -24    2    5    5    0    0  0.68773449592E+01 -0.54988800553E+02  0.22680700577E+03  0.24679780629E+03  0.79979205179E+02 0.  0.
          5    1    3    3  501    0  0.26099835533E+02 -0.37981845242E+02  0.61567832387E+02  0.77048750591E+02  0.47000000000E+01 0. -1.
        -13    1    4    4    0    0  0.57156943063E+01 -0.27214147063E+02  0.11098908027E+03  0.11441964386E+03  0.00000000000E+00 0.  1.
         14    1    4    4    0    0  0.50079380715E+02  0.96087815065E+02  0.29420627813E+03  0.31352535251E+03  0.00000000000E+00 0. -1.
         -5    1    5    5    0  502 -0.88772255514E+02  0.24096977792E+02  0.30763912906E+03  0.32113097237E+03  0.47000000000E+01 0.  1.
         13    1    6    6    0    0 -0.31422707482E+02 -0.48201160570E+02  0.15106355617E+03  0.16165066170E+03  0.00000000000E+00 0. -1.
        -14    1    6    6    0    0  0.38300052441E+02 -0.67876399825E+01  0.75743449599E+02  0.85147144584E+02  0.00000000000E+00 0.  1.
</event>
<event>
12    1  0.9962621E-001  0.2587597E+03  0.7818608E-02  0.1108206E+00
         21   -1    0    0  501  502  0.00000000000E+00  0.00000000000E+00  0.34057090905E+04  0.34057090905E+04  0.00000000000E+00 0. -1.
         21   -1    0    0  502  503 -0.00000000000E+00 -0.00000000000E+00 -0.23269717881E+02  0.23269717881E+02  0.00000000000E+00 0.  1.
         -6    2    1    2    0  503  0.17513673691E+01  0.19137827758E+03  0.23867513439E+04  0.24007370824E+04  0.17414892824E+03 0.  0.
        -24    2    3    3    0    0 -0.53479984599E+02  0.73700002541E+02  0.14349434128E+04  0.14400815218E+04  0.80500883485E+02 0.  0.
          6    2    1    2  501    0 -0.17513673691E+01 -0.19137827758E+03  0.99568802879E+03  0.10282417260E+04  0.17104877643E+03 0.  0.
         24    2    5    5    0    0  0.13957745143E+02 -0.17279110469E+03  0.55715668985E+03  0.58901048340E+03  0.80362852111E+02 0.  0.
          5    1    5    5  501    0 -0.15709112512E+02 -0.18587172892E+02  0.43853133894E+03  0.43923124257E+03  0.47000000000E+01 0. -1.
        -13    1    6    6    0    0  0.43310457546E+02 -0.61507626338E+02  0.24634722133E+03  0.25757705116E+03  0.00000000000E+00 0.  1.
         14    1    6    6    0    0 -0.29352712403E+02 -0.11128347835E+03  0.31080946852E+03  0.33143343223E+03  0.00000000000E+00 0. -1.
         -5    1    3    3    0  503  0.55231351968E+02  0.11767827504E+03  0.95180793102E+03  0.96065556065E+03  0.47000000000E+01 0.  1.
         13    1    4    4    0    0  0.11175511492E+02  0.38586734054E+02  0.77685574014E+03  0.77789373894E+03  0.00000000000E+00 0. -1.
        -14    1    4    4    0    0 -0.64655496091E+02  0.35113268487E+02  0.65808767271E+03  0.66218778286E+03  0.00000000000E+00 0.  1.
</event>
<event>
12    1  0.9962621E-001  0.5237419E+03  0.7818608E-02  0.1007880E+00
         21   -1    0    0  503  502  0.00000000000E+00  0.00000000000E+00  0.79081026740E+03  0.79081026740E+03  0.00000000000E+00 0. -1.
         21   -1    0    0  501  503 -0.00000000000E+00 -0.00000000000E+00 -0.35665531447E+03  0.35665531447E+03  0.00000000000E+00 0. -1.
          6    2    1    2  501    0 -0.16279064556E+02  0.49442957028E+03  0.31771835644E+03  0.61093686401E+03  0.16605206979E+03 0.  0.
         24    2    3    3    0    0 -0.36949791451E+02  0.17725549066E+03  0.16786196250E+03  0.25950308001E+03  0.79871234017E+02 0.  0.
         -6    2    1    2    0  502  0.16279064556E+02 -0.49442957028E+03  0.11643659649E+03  0.53652871786E+03  0.17198830245E+03 0.  0.
        -24    2    5    5    0    0  0.16509944052E+02 -0.11111099437E+03  0.14727974254E+02  0.13991818122E+03  0.82109395849E+02 0.  0.
          5    1    3    3  501    0  0.20670726895E+02  0.31717407962E+03  0.14985639394E+03  0.35143378400E+03  0.47000000000E+01 0. -1.
        -13    1    4    4    0    0 -0.28806808641E+02  0.18253457869E+03  0.14574752901E+03  0.23535302601E+03  0.00000000000E+00 0.  1.
         14    1    4    4    0    0 -0.81429828100E+01 -0.52790880303E+01  0.22114433489E+02  0.24150053996E+02  0.00000000000E+00 0. -1.
         -5    1    5    5    0  502 -0.23087949652E+00 -0.38331857591E+03  0.10170862224E+03  0.39661053664E+03  0.47000000000E+01 0.  1.
         13    1    6    6    0    0  0.30469511109E+02 -0.74141537912E+01  0.16157003976E+02  0.35276189719E+02  0.00000000000E+00 0. -1.
        -14    1    6    6    0    0 -0.13959567057E+02 -0.10369684058E+03 -0.14290297211E+01  0.10464199150E+03  0.00000000000E+00 0.  1.
</event>
<event>
12    1  0.9962621E-001  0.3646384E+03  0.7818608E-02  0.1056770E+00
         21   -1    0    0  501  502  0.00000000000E+00  0.00000000000E+00  0.78200925178E+02  0.78200925178E+02  0.00000000000E+00 0. -1.
         21   -1    0    0  502  503 -0.00000000000E+00 -0.00000000000E+00 -0.19028806165E+04  0.19028806165E+04  0.00000000000E+00 0. -1.
         -6    2    1    2    0  503 -0.15982911889E+03 -0.27849443003E+03 -0.12357787854E+04  0.12884305366E+04  0.17262545058E+03 0.  0.
        -24    2    3    3    0    0 -0.14396546769E+03 -0.28219181292E+03 -0.10009696452E+04  0.10530101712E+04  0.80820263182E+02 0.  0.
          6    2    1    2  501    0  0.15982911889E+03  0.27849443003E+03 -0.58890090587E+03  0.69265100511E+03  0.17279074959E+03 0.  0.
         24    2    5    5    0    0  0.15496148700E+03  0.23138999894E+03 -0.57326754751E+03  0.64256095458E+03  0.81819956357E+02 0.  0.
          5    1    5    5  501    0  0.48676318895E+01  0.47104431091E+02 -0.15633358357E+02  0.50090050530E+02  0.47000000000E+01 0. -1.
        -13    1    6    6    0    0  0.13940440868E+03  0.23154242454E+03 -0.50751630520E+03  0.57499415960E+03  0.00000000000E+00 0.  1.
         14    1    6    6    0    0  0.15557078318E+02 -0.15242560132E+00 -0.65751242308E+02  0.67566794984E+02  0.00000000000E+00 0. -1.
         -5    1    3    3    0  503 -0.15863651202E+02  0.36973828911E+01 -0.23480914024E+03  0.23542036532E+03  0.47000000000E+01 0.  1.
         11    1    4    4    0    0 -0.29054466402E+01  0.46196917337E+00  0.42361861422E+00  0.29722867336E+01  0.00000000000E+00 0. -1.
        -12    1    4    4    0    0 -0.14106002105E+03 -0.28265378209E+03 -0.10013932638E+04  0.10500378845E+04  0.00000000000E+00 0.  1.
</event>
<event>
12    1  0.9962621E-001  0.1733857E+03  0.7818608E-02  0.1174567E+00
         21   -1    0    0  503  502  0.00000000000E+00  0.00000000000E+00  0.80796420425E+03  0.80796420425E+03  0.00000000000E+00 0. -1.
         21   -1    0    0  501  503 -0.00000000000E+00 -0.00000000000E+00 -0.68132332058E+02  0.68132332058E+02  0.00000000000E+00 0. -1.
          6    2    1    2  501    0  0.91181174149E+01  0.18010104046E+02  0.66632341963E+03  0.68851253315E+03  0.17220657610E+03 0.  0.
         24    2    3    3    0    0 -0.21351239832E+02  0.16857940184E+02  0.64604922420E+03  0.65159584028E+03  0.80358405825E+02 0.  0.
         -6    2    1    2    0  502 -0.91181174149E+01 -0.18010104046E+02  0.73508452567E+02  0.18758400316E+03  0.17139650442E+03 0.  0.
        -24    2    5    5    0    0 -0.64478591044E+01  0.18340037995E+02 -0.23060967785E+02  0.84258275223E+02  0.78674753433E+02 0.  0.
          5    1    3    3  501    0  0.30469357247E+02  0.11521638625E+01  0.20274195424E+02  0.36916692873E+02  0.47000000000E+01 0. -1.
        -11    1    4    4    0    0 -0.16125390775E+01  0.46906269016E+02  0.43279133461E+03  0.43532876963E+03  0.00000000000E+00 0.  1.
         12    1    4    4    0    0 -0.19738700755E+02 -0.30048328832E+02  0.21325788959E+03  0.21626707065E+03  0.00000000000E+00 0. -1.
         -5    1    5    5    0  502 -0.26702583105E+01 -0.36350142041E+02  0.96569420352E+02  0.10332572793E+03  0.47000000000E+01 0.  1.
         11    1    6    6    0    0 -0.24025631814E+02  0.15703537980E+02  0.21775079911E+02  0.36027575470E+02  0.00000000000E+00 0. -1.
        -12    1    6    6    0    0  0.17577772709E+02  0.26365000140E+01 -0.44836047695E+02  0.48230699753E+02  0.00000000000E+00 0.  1.
</event>
<event>
12    1  0.9962621E-001  0.2621624E+03  0.7818608E-02  0.1105936E+00
         21   -1    0    0  503  502  0.00000000000E+00  0.00000000000E+00  0.83092907399E+02  0.83092907399E+02  0.00000000000E+00 0.  1.
         21   -1    0    0  501  503 -0.00000000000E+00 -0.00000000000E+00 -0.82549715317E+03  0.82549715317E+03  0.00000000000E+00 0.  1.
          6    2    1    2  501    0 -0.31001879161E+02  0.19518883801E+03 -0.37732918282E+03  0.45913601325E+03  0.17137318186E+03 0.  0.
         24    2    3    3    0    0 -0.74067085498E+01  0.32960068366E+02 -0.19189895645E+03  0.21158528183E+03  0.82473611298E+02 0.  0.
         -6    2    1    2    0  502  0.31001879161E+02 -0.19518883801E+03 -0.36507506295E+03  0.44945404731E+03  0.17224790293E+03 0.  0.
        -24    2    5    5    0    0 -0.46409966057E+02 -0.13715818775E+03 -0.22904971793E+03  0.28246562066E+03  0.79729543792E+02 0.  0.
          5    1    3    3  501    0 -0.23595170611E+02  0.16222876965E+03 -0.18543022637E+03  0.24755073142E+03  0.47000000000E+01 0. -1.
        -11    1    4    4    0    0 -0.28829326288E+02  0.25817726559E+02 -0.32332691346E+02  0.50429039140E+02  0.00000000000E+00 0.  1.
         12    1    4    4    0    0  0.21422617739E+02  0.71423418073E+01 -0.15956626511E+03  0.16115624269E+03  0.00000000000E+00 0. -1.
         -5    1    5    5    0  502  0.77411845218E+02 -0.58030650268E+02 -0.13602534501E+03  0.16698842665E+03  0.47000000000E+01 0.  1.
         11    1    6    6    0    0 -0.99861199560E+01 -0.73339327920E+02 -0.51102604925E+02  0.89943625909E+02  0.00000000000E+00 0. -1.
        -12    1    6    6    0    0 -0.36423846101E+02 -0.63818859826E+02 -0.17794711301E+03  0.19252199475E+03  0.00000000000E+00 0.  1.
</event>
<event>
12    1  0.9962621E-001  0.2350110E+03  0.7818608E-02  0.1124157E+00
         21   -1    0    0  503  502  0.00000000000E+00  0.00000000000E+00  0.13945268675E+03  0.13945268675E+03  0.00000000000E+00 0. -1.
         21   -1    0    0  501  503 -0.00000000000E+00 -0.00000000000E+00 -0.40661754085E+03  0.40661754085E+03  0.00000000000E+00 0. -1.
          6    2    1    2  501    0  0.13213794567E+03 -0.72975515789E+02 -0.19283068837E+03  0.29958344795E+03  0.17257087041E+03 0.  0.
         24    2    3    3    0    0  0.50727993230E+02 -0.35189191842E+02 -0.18802554497E+02  0.10371801451E+03  0.81192868896E+02 0.  0.
         -6    2    1    2    0  502 -0.13213794567E+03  0.72975515789E+02 -0.74334165725E+02  0.24648677966E+03  0.18012301842E+03 0.  0.
        -24    2    5    5    0    0 -0.39227430378E+02 -0.28012957628E+02 -0.50117153655E+02  0.10706085206E+03  0.81405035861E+02 0.  0.
          5    1    3    3  501    0  0.81409952436E+02 -0.37786323947E+02 -0.17402813388E+03  0.19586543343E+03  0.47000000000E+01 0. -1.
        -11    1    4    4    0    0  0.62372508526E+02 -0.16129562467E+02 -0.37540275814E+02  0.74563831134E+02  0.00000000000E+00 0.  1.
         12    1    4    4    0    0 -0.11644515296E+02 -0.19059629375E+02  0.18737721317E+02  0.29154183380E+02  0.00000000000E+00 0. -1.
         -5    1    5    5    0  502 -0.92910515288E+02  0.10098847342E+03 -0.24217012070E+02  0.13942592760E+03  0.47000000000E+01 0.  1.
         11    1    6    6    0    0 -0.26211936547E+02  0.19219008742E+01 -0.65794213827E+02  0.70849402917E+02  0.00000000000E+00 0. -1.
        -12    1    6    6    0    0 -0.13015493831E+02 -0.29934858502E+02  0.15677060172E+02  0.36211449140E+02  0.00000000000E+00 0.  1.
</event>
<event>
12    1  0.9962621E-001  0.2102150E+03  0.7818608E-02  0.1142059E+00
         21   -1    0    0  501  502  0.00000000000E+00  0.00000000000E+00  0.35807294719E+03  0.35807294719E+03  0.00000000000E+00 0.  1.
         21   -1    0    0  502  503 -0.00000000000E+00 -0.00000000000E+00 -0.12638262032E+03  0.12638262032E+03  0.00000000000E+00 0.  1.
         -6    2    1    2    0  503 -0.10615963642E+03 -0.55565958255E+02  0.68959067334E+02  0.22123671127E+03  0.17272198854E+03 0.  0.
        -24    2    3    3    0    0 -0.19865869044E+02  0.21767634350E+02  0.64177417176E+02  0.10516753788E+03  0.77929375016E+02 0.  0.
          6    2    1    2  501    0  0.10615963642E+03  0.55565958255E+02  0.16273125954E+03  0.26321885624E+03  0.16865722436E+03 0.  0.
         24    2    5    5    0    0  0.65111966277E+02 -0.35419349628E+02  0.80692593718E+02  0.13392976094E+03  0.77018099840E+02 0.  0.
          5    1    5    5  501    0  0.41047670138E+02  0.90985307883E+02  0.82038665821E+02  0.12928909530E+03  0.47000000000E+01 0. -1.
        -11    1    6    6    0    0  0.72652532077E+01  0.91828964094E+01 -0.11429199004E+02  0.16362642834E+02  0.00000000000E+00 0.  1.
         12    1    6    6    0    0  0.57846713069E+02 -0.44602246038E+02  0.92121792722E+02  0.11756711810E+03  0.00000000000E+00 0. -1.
         -5    1    3    3    0  503 -0.86293767371E+02 -0.77333592604E+02  0.47816501577E+01  0.11606917339E+03  0.47000000000E+01 0.  1.
         13    1    4    4    0    0 -0.27044833044E+02  0.62555556212E+01 -0.96491368888E+01  0.29388106663E+02  0.00000000000E+00 0. -1.
        -14    1    4    4    0    0  0.71789640001E+01  0.15512078729E+02  0.73826554065E+02  0.75779431218E+02  0.00000000000E+00 0.  1.
</event>
<event>
12    1  0.9962621E-001  0.1956283E+03  0.7818608E-02  0.1153595E+00
         21   -1    0    0  501  502  0.00000000000E+00  0.00000000000E+00  0.23201108651E+03  0.23201108651E+03  0.00000000000E+00 0.  1.
         21   -1    0    0  502  503 -0.00000000000E+00 -0.00000000000E+00 -0.17571022706E+03  0.17571022706E+03  0.00000000000E+00 0.  1.
         -6    2    1    2    0  503 -0.54365041585E+02  0.75004136509E+02 -0.23363647865E+02  0.19649423000E+03  0.17170598167E+03 0.  0.
        -24    2    3    3    0    0 -0.10545788007E+03  0.19792487263E+02 -0.63699037805E+01  0.11923051474E+03  0.51596830819E+02 0.  0.
          6    2    1    2  501    0  0.54365041585E+02 -0.75004136509E+02  0.79664507320E+02  0.21122708357E+03  0.17230574241E+03 0.  0.
         24    2    5    5    0    0 -0.94908616356E+01 -0.32601406354E+02 -0.14924000362E+02  0.89388486703E+02  0.81330483937E+02 0.  0.
          5    1    5    5  501    0  0.63855903221E+02 -0.42402730155E+02  0.94588507682E+02  0.12183859687E+03  0.47000000000E+01 0. -1.
        -13    1    6    6    0    0  0.67858322999E+01 -0.31448315504E+02 -0.44913401966E+02  0.55247241960E+02  0.00000000000E+00 0.  1.
         14    1    6    6    0    0 -0.16276693935E+02 -0.11530908505E+01  0.29989401604E+02  0.34141244742E+02  0.00000000000E+00 0. -1.
         -5    1    3    3    0  503  0.51092838485E+02  0.55211649246E+02 -0.16993744084E+02  0.77263715255E+02  0.47000000000E+01 0.  1.
         11    1    4    4    0    0 -0.92733554243E+02 -0.15287797402E+01 -0.12687328868E+02  0.93609922358E+02  0.00000000000E+00 0. -1.
        -12    1    4    4    0    0 -0.12724325827E+02  0.21321267003E+02  0.63174250871E+01  0.25620592384E+02  0.00000000000E+00 0.  1.
</event>
<event>
12    1  0.9962621E-001  0.1792745E+03  0.7818608E-02  0.1169340E+00
         21   -1    0    0  503  502  0.00000000000E+00  0.00000000000E+00  0.25229473671E+03  0.25229473671E+03  0.00000000000E+00 0.  1.
         21   -1    0    0  501  503 -0.00000000000E+00 -0.00000000000E+00 -0.14249966011E+03  0.14249966011E+03  0.00000000000E+00 0.  1.
          6    2    1    2  501    0 -0.35956406299E+02  0.37038085402E+02  0.12362966425E+03  0.21498688925E+03  0.16813799614E+03 0.  0.
         24    2    3    3    0    0  0.10679371183E+02 -0.27991956846E+02  0.32537939440E+02  0.93646069807E+02  0.82542536127E+02 0.  0.
         -6    2    1    2    0  502  0.35956406299E+02 -0.37038085402E+02 -0.13834587644E+02  0.17980750756E+03  0.17168185995E+03 0.  0.
        -24    2    5    5    0    0  0.19767574856E+02 -0.24147861610E+02 -0.75461995715E+02  0.11462880277E+03  0.80444846885E+02 0.  0.
          5    1    3    3  501    0 -0.46635777482E+02  0.65030042249E+02  0.91091724806E+02  0.12134081945E+03  0.47000000000E+01 0. -1.
        -11    1    4    4    0    0 -0.30665625554E+02 -0.20192193472E+02  0.36011157774E+02  0.51428676360E+02  0.00000000000E+00 0.  1.
         12    1    4    4    0    0  0.41344996737E+02 -0.77997633743E+01 -0.34732183344E+01  0.42217393447E+02  0.00000000000E+00 0. -1.
         -5    1    5    5    0  502  0.16188831444E+02 -0.12890223793E+02  0.61627408071E+02  0.65178704793E+02  0.47000000000E+01 0.  1.
         11    1    6    6    0    0  0.43285383651E+02 -0.75554613792E+01 -0.73685757367E+02  0.85792192379E+02  0.00000000000E+00 0. -1.
        -12    1    6    6    0    0 -0.23517808796E+02 -0.16592400231E+02 -0.17762383481E+01  0.28836610387E+02  0.00000000000E+00 0.  1.
</event>
<event>
12    1  0.9962621E-001  0.1891390E+03  0.7818608E-02  0.1159263E+00
         21   -1    0    0  503  502  0.00000000000E+00  0.00000000000E+00  0.49975563644E+03  0.49975563644E+03  0.00000000000E+00 0.  1.
         21   -1    0    0  501  503 -0.00000000000E+00 -0.00000000000E+00 -0.78687199588E+02  0.78687199588E+02  0.00000000000E+00 0.  1.
          6    2    1    2  501    0  0.15187114280E+02 -0.76213983739E+02  0.29762808980E+03  0.35258646720E+03  0.17232387315E+03 0.  0.
         24    2    3    3    0    0 -0.18754540862E+02 -0.63194768473E+02  0.79619009456E+02  0.13151728112E+03  0.81316031642E+02 0.  0.
         -6    2    1    2    0  502 -0.15187114280E+02  0.76213983739E+02  0.12344034705E+03  0.22585636883E+03  0.17243653993E+03 0.  0.
        -24    2    5    5    0    0 -0.39521159289E+02 -0.75606656572E+01  0.19294767820E+02  0.89919878873E+02  0.78065426755E+02 0.  0.
          5    1    3    3  501    0  0.33941655142E+02 -0.13019215266E+02  0.21800908035E+03  0.22106918608E+03  0.47000000000E+01 0. -1.
        -13    1    4    4    0    0  0.23706709308E+02 -0.55651852040E+02  0.55559212825E+02  0.82133810526E+02  0.00000000000E+00 0.  1.
         14    1    4    4    0    0 -0.42461250170E+02 -0.75429164329E+01  0.24059796631E+02  0.49383470598E+02  0.00000000000E+00 0. -1.
         -5    1    5    5    0  502  0.24334045009E+02  0.83774649396E+02  0.10414557923E+03  0.13593648995E+03  0.47000000000E+01 0.  1.
         13    1    6    6    0    0 -0.29031837925E+02  0.30857089216E+02  0.25745850499E+02  0.49576772647E+02  0.00000000000E+00 0. -1.
        -14    1    6    6    0    0 -0.10489321363E+02 -0.38417754873E+02 -0.64510826784E+01  0.40343106225E+02  0.00000000000E+00 0.  1.
</event>
<event>
12    1  0.9962621E-001  0.2068015E+03  0.7818608E-02  0.1144245E+00
         21   -1    0    0  501  502  0.00000000000E+00  0.00000000000E+00  0.14628275605E+04  0.14628275605E+04  0.00000000000E+00 0.  1.
         21   -1    0    0  502  503 -0.00000000000E+00 -0.00000000000E+00 -0.90303167543E+02  0.90303167543E+02  0.00000000000E+00 0.  1.
         -6    2    1    2    0  503  0.99150374321E+02  0.55589817140E+02  0.13256288110E+04  0.13416626294E+04  0.17275949244E+03 0.  0.
        -24    2    3    3    0    0  0.10639756298E+03  0.14850801710E+02  0.12318094986E+04  0.12390159417E+04  0.79150965234E+02 0.  0.
          6    2    1    2  501    0 -0.99150374321E+02 -0.55589817140E+02  0.46895581963E+02  0.21146809859E+03  0.17204225242E+03 0.  0.
         24    2    5    5    0    0 -0.11941090367E+03 -0.63741085629E+01  0.58765162015E+02  0.15673554931E+03  0.82541474284E+02 0.  0.
          5    1    5    5  501    0  0.20260529346E+02 -0.49215708577E+02 -0.11869580052E+02  0.54732549281E+02  0.47000000000E+01 0. -1.
        -13    1    6    6    0    0 -0.43763986958E+02  0.18172465506E+02  0.60915628429E+02  0.77176672926E+02  0.00000000000E+00 0.  1.
         14    1    6    6    0    0 -0.75646916709E+02 -0.24546574069E+02 -0.21504664134E+01  0.79558876386E+02  0.00000000000E+00 0. -1.
         -5    1    3    3    0  503 -0.72471886549E+01  0.40739015430E+02  0.93819312363E+02  0.10264668769E+03  0.47000000000E+01 0.  1.
         13    1    4    4    0    0  0.25222231001E+02  0.36812077833E+02  0.28414963449E+03  0.28763223879E+03  0.00000000000E+00 0. -1.
        -14    1    4    4    0    0  0.81175331974E+02 -0.21961276123E+02  0.94765986412E+03  0.95138370294E+03  0.00000000000E+00 0.  1.
</event>
<event>
12    1  0.9962621E-001  0.1896865E+03  0.7818608E-02  0.1158931E+00
         21   -1    0    0  501  502  0.00000000000E+00  0.00000000000E+00  0.30084832808E+02  0.30084832808E+02  0.00000000000E+00 0.  1.
         21   -1    0    0  502  503 -0.00000000000E+00 -0.00000000000E+00 -0.13971448656E+04  0.13971448656E+04  0.00000000000E+00 0.  1.
         -6    2    1    2    0  503  0.65119410049E+02  0.44695308661E+02 -0.40800355531E+03  0.44959465564E+03  0.17155245570E+03 0.  0.
        -24    2    3    3    0    0  0.10726506541E+03  0.37607117491E+02 -0.35430704910E+03  0.38080582299E+03  0.80990741658E+02 0.  0.
          6    2    1    2  501    0 -0.65119410049E+02 -0.44695308661E+02 -0.95905647748E+03  0.97763504276E+03  0.17246084093E+03 0.  0.
         24    2    5    5    0    0  0.87822311198E+01 -0.62918024009E+02 -0.70736463025E+03  0.71464379598E+03  0.79468419338E+02 0.  0.
          5    1    5    5  501    0 -0.73901641169E+02  0.18222715348E+02 -0.25169184723E+03  0.26299124678E+03  0.47000000000E+01 0. -1.
        -13    1    6    6    0    0 -0.17297097196E+02  0.23531389788E+01 -0.40720884958E+02  0.44304822607E+02  0.00000000000E+00 0.  1.
         14    1    6    6    0    0  0.26079328315E+02 -0.65271162988E+02 -0.66664374529E+03  0.67033897337E+03  0.00000000000E+00 0. -1.
         -5    1    3    3    0  503 -0.42145655357E+02  0.70881911703E+01 -0.53696506207E+02  0.68788832658E+02  0.47000000000E+01 0.  1.
         11    1    4    4    0    0  0.71615523105E+02  0.88609822149E+01 -0.30538052338E+03  0.31379063755E+03  0.00000000000E+00 0. -1.
        -12    1    4    4    0    0  0.35649542301E+02  0.28746135276E+02 -0.48926525722E+02  0.67015185434E+02  0.00000000000E+00 0.  1.
</event>
<event>
12    1  0.9962621E-001  0.3008583E+03  0.7818608E-02  0.1084947E+00
         21   -1    0    0  501  502  0.00000000000E+00  0.00000000000E+00  0.48540611260E+02  0.48540611260E+02  0.00000000000E+00 0.  1.
         21   -1    0    0  502  503 -0.00000000000E+00 -0.00000000000E+00 -0.29428643198E+04  0.29428643198E+04  0.00000000000E+00 0.  1.
         -6    2    1    2    0  503 -0.22834255457E+03  0.91309378153E+02 -0.53740994322E+03  0.61536658243E+03  0.17143179094E+03 0.  0.
        -24    2    3    3    0    0 -0.24541831766E+03  0.68415279646E+02 -0.44771795810E+03  0.52111975954E+03  0.78763142709E+02 0.  0.
          6    2    1    2  501    0  0.22834255457E+03 -0.91309378153E+02 -0.23569137653E+04  0.23760383486E+04  0.17331477779E+03 0.  0.
         24    2    5    5    0    0  0.53729778896E+02 -0.20897663126E+02 -0.12002206327E+04  0.12041132127E+04  0.77688226220E+02 0.  0.
          5    1    5    5  501    0  0.17461277567E+03 -0.70411715027E+02 -0.11566931326E+04  0.11719251359E+04  0.47000000000E+01 0. -1.
        -13    1    6    6    0    0 -0.46388208666E+01  0.31981266877E+01 -0.60245049866E+01  0.82487170928E+01  0.00000000000E+00 0.  1.
         14    1    6    6    0    0  0.58368599763E+02 -0.24095789814E+02 -0.11941961277E+04  0.11958644956E+04  0.00000000000E+00 0. -1.
         -5    1    3    3    0  503  0.17075763087E+02  0.22894098508E+02 -0.89691985114E+02  0.94246822892E+02  0.47000000000E+01 0.  1.
         11    1    4    4    0    0 -0.16109950060E+03  0.68241117795E+02 -0.35515023938E+03  0.39590603909E+03  0.00000000000E+00 0. -1.
        -12    1    4    4    0    0 -0.84318817052E+02  0.17416185108E+00 -0.92567718719E+02  0.12521372045E+03  0.00000000000E+00 0.  1.
</event>
<event>
12    1  0.9962621E-001  0.3873289E+03  0.7818608E-02  0.1048340E+00
         21   -1    0    0  503  502  0.00000000000E+00  0.00000000000E+00  0.14366825539E+04  0.14366825539E+04  0.00000000000E+00 0. -1.
         21   -1    0    0  501  503 -0.00000000000E+00 -0.00000000000E+00 -0.13823770635E+03  0.13823770635E+03  0.00000000000E+00 0. -1.
          6    2    1    2  501    0 -0.11903848441E+03  0.32514970186E+03  0.25778612056E+03  0.46451752288E+03  0.17155277823E+03 0.  0.
         24    2    3    3    0    0 -0.66938014008E+02  0.90996329509E+02  0.14218709453E+03  0.19819537656E+03  0.79392743597E+02 0.  0.
         -6    2    1    2    0  502  0.11903848441E+03 -0.32514970186E+03  0.10406587270E+04  0.11104027374E+04  0.17358330486E+03 0.  0.
        -24    2    5    5    0    0  0.11221469356E+03 -0.20068181874E+03  0.83684745803E+03  0.87144679707E+03  0.78996976508E+02 0.  0.
          5    1    3    3  501    0 -0.52100470398E+02  0.23415337235E+03  0.11559902603E+03  0.26632214631E+03  0.47000000000E+01 0. -1.
        -13    1    4    4    0    0 -0.44638380850E+02  0.10328538315E+03  0.11306634673E+03  0.15951317870E+03  0.00000000000E+00 0.  1.
         14    1    4    4    0    0 -0.22299633159E+02 -0.12289053644E+02  0.29120747804E+02  0.38682197858E+02  0.00000000000E+00 0. -1.
         -5    1    5    5    0  502  0.68237908426E+01 -0.12446788312E+03  0.20381126894E+03  0.23895594029E+03  0.47000000000E+01 0.  1.
         11    1    6    6    0    0  0.15100853334E+02  0.44991160153E+01  0.67073807925E+02  0.68899735310E+02  0.00000000000E+00 0. -1.
        -12    1    6    6    0    0  0.97113840230E+02 -0.20518093475E+03  0.76977365010E+03  0.80254706176E+03  0.00000000000E+00 0.  1.
</event>
<event>
12    1  0.9962621E-001  0.2163641E+03  0.7818608E-02  0.1140053E+00
         21   -1    0    0  503  502  0.00000000000E+00  0.00000000000E+00  0.10847902220E+04  0.10847902220E+04  0.00000000000E+00 0. -1.
         21   -1    0    0  501  503 -0.00000000000E+00 -0.00000000000E+00 -0.40300615152E+02  0.40300615152E+02  0.00000000000E+00 0. -1.
          6    2    1    2  501    0 -0.19572485448E+02 -0.96951371539E+02  0.43739750825E+03  0.48059548554E+03  0.17283746663E+03 0.  0.
         24    2    3    3    0    0 -0.90389771904E+01 -0.13540783625E+03  0.36870339192E+03  0.40102899704E+03  0.80405721371E+02 0.  0.
         -6    2    1    2    0  502  0.19572485448E+02  0.96951371539E+02  0.60709209859E+03  0.64449535160E+03  0.19243386249E+03 0.  0.
        -24    2    5    5    0    0  0.63248846079E+02 -0.88608657725E+01  0.30747358077E+03  0.32371941693E+03  0.78583246007E+02 0.  0.
          5    1    3    3  501    0 -0.10533508258E+02  0.38456464709E+02  0.68694116323E+02  0.79566488496E+02  0.47000000000E+01 0. -1.
        -11    1    4    4    0    0 -0.14475336456E+02 -0.68498855297E+01  0.11948595001E+03  0.12055433857E+03  0.00000000000E+00 0.  1.
         12    1    4    4    0    0  0.54363592658E+01 -0.12855795072E+03  0.24921744191E+03  0.28047465848E+03  0.00000000000E+00 0. -1.
         -5    1    5    5    0  502 -0.43676360631E+02  0.10581223731E+03  0.29961851783E+03  0.32077593468E+03  0.47000000000E+01 0.  1.
         13    1    6    6    0    0  0.66482284651E+02  0.13937023424E+02  0.15118721929E+03  0.16574592023E+03  0.00000000000E+00 0. -1.
        -14    1    6    6    0    0 -0.32334385719E+01 -0.22797889196E+02  0.15628636147E+03  0.15797349670E+03  0.00000000000E+00 0.  1.
</event>
<event>
12    1  0.9962621E-001  0.3090018E+03  0.7818608E-02  0.1080846E+00
         21   -1    0    0  501  502  0.00000000000E+00  0.00000000000E+00  0.31040118268E+03  0.31040118268E+03  0.00000000000E+00 0. -1.
         21   -1    0    0  502  503 -0.00000000000E+00 -0.00000000000E+00 -0.35402194804E+03  0.35402194804E+03  0.00000000000E+00 0. -1.
         -6    2    1    2    0  503 -0.86584030527E+02 -0.24170886056E+03  0.98691412401E+02  0.32437955994E+03  0.17193643130E+03 0.  0.
        -24    2    3    3    0    0 -0.23058367379E+02 -0.39621096213E+02  0.59952154907E+02  0.10897808722E+03  0.78615793869E+02 0.  0.
          6    2    1    2  501    0  0.86584030527E+02  0.24170886056E+03 -0.14231217776E+03  0.34004357078E+03  0.17163014443E+03 0.  0.
         24    2    5    5    0    0  0.69226833132E+02  0.23709270508E+03 -0.16825324776E+03  0.30814356599E+03  0.75086594350E+02 0.  0.
          5    1    5    5  501    0  0.17357197395E+02  0.46161554742E+01  0.25941070003E+02  0.31900004791E+02  0.47000000000E+01 0. -1.
        -13    1    6    6    0    0  0.66644842975E+01  0.56676461340E+02 -0.56661242614E+01  0.57347550820E+02  0.00000000000E+00 0.  1.
         14    1    6    6    0    0  0.62562348835E+02  0.18041624374E+03 -0.16258712350E+03  0.25079601517E+03  0.00000000000E+00 0. -1.
         -5    1    3    3    0  503 -0.63525663149E+02 -0.20208776434E+03  0.38739257495E+02  0.21540147271E+03  0.47000000000E+01 0.  1.
         13    1    4    4    0    0  0.28848776842E+02 -0.15908494540E+02  0.14373214209E+02  0.35943308286E+02  0.00000000000E+00 0. -1.
        -14    1    4    4    0    0 -0.51907144221E+02 -0.23712601673E+02  0.45578940698E+02  0.73034778938E+02  0.00000000000E+00 0.  1.
</event>
<event>
12    1  0.9962621E-001  0.2716552E+03  0.7818608E-02  0.1100658E+00
         21   -1    0    0  501  502  0.00000000000E+00  0.00000000000E+00  0.21268274600E+03  0.21268274600E+03  0.00000000000E+00 0. -1.
         21   -1    0    0  502  503 -0.00000000000E+00 -0.00000000000E+00 -0.38249373363E+03  0.38249373363E+03  0.00000000000E+00 0. -1.
         -6    2    1    2    0  503  0.12113349110E+03  0.16871348205E+03  0.96897249230E+01  0.26957386817E+03  0.17157685723E+03 0.  0.
        -24    2    3    3    0    0  0.27428297024E+02  0.14989226297E+03 -0.80659541798E+01  0.17224835339E+03  0.79902651116E+02 0.  0.
          6    2    1    2  501    0 -0.12113349110E+03 -0.16871348205E+03 -0.17950071254E+03  0.32560261146E+03  0.17509709619E+03 0.  0.
         24    2    5    5    0    0 -0.34532526271E+02 -0.15750034821E+03 -0.14720053556E+03  0.23237786736E+03  0.79577763921E+02 0.  0.
          5    1    5    5  501    0 -0.86600964833E+02 -0.11213133844E+02 -0.32300176986E+02  0.93224744107E+02  0.47000000000E+01 0. -1.
        -11    1    6    6    0    0 -0.31761583357E+02 -0.56943268089E+02 -0.10432933501E+03  0.12302822481E+03  0.00000000000E+00 0.  1.
         12    1    6    6    0    0 -0.27709429147E+01 -0.10055708012E+03 -0.42871200553E+02  0.10934964254E+03  0.00000000000E+00 0. -1.
         -5    1    3    3    0  503  0.93705194080E+02  0.18821219089E+02  0.17755679103E+02  0.97325514774E+02  0.47000000000E+01 0.  1.
         13    1    4    4    0    0 -0.88406150105E-01  0.35925837396E+01  0.20376224999E+02  0.20690698847E+02  0.00000000000E+00 0. -1.
        -14    1    4    4    0    0  0.27516703174E+02  0.14629967923E+03 -0.28442179179E+02  0.15155765455E+03  0.00000000000E+00 0.  1.
</event>
<event>
12    1  0.9962621E-001  0.1732896E+03  0.7818608E-02  0.1174465E+00
         21   -1    0    0  501  502  0.00000000000E+00  0.00000000000E+00  0.80256376711E+02  0.80256376711E+02  0.00000000000E+00 0. -1.
         21   -1    0    0  502  503 -0.00000000000E+00 -0.00000000000E+00 -0.59603069034E+03  0.59603069034E+03  0.00000000000E+00 0. -1.
         -6    2    1    2    0  503  0.12103281364E+02  0.19506934792E+02 -0.51555264450E+02  0.18077864667E+03  0.17174389036E+03 0.  0.
        -24    2    3    3    0    0  0.32972837435E+02 -0.13852356446E+01 -0.94342660247E+02  0.12857833637E+03  0.80887107475E+02 0.  0.
          6    2    1    2  501    0 -0.12103281364E+02 -0.19506934792E+02 -0.46421904918E+03  0.49550842038E+03  0.17176221680E+03 0.  0.
         24    2    5    5    0    0 -0.63811014902E+02  0.15686176070E+02 -0.35265579492E+03  0.36752133329E+03  0.79924458038E+02 0.  0.
          5    1    5    5  501    0  0.51707733538E+02 -0.35193110862E+02 -0.11156325426E+03  0.12798708709E+03  0.47000000000E+01 0. -1.
        -13    1    6    6    0    0 -0.39070074974E+02 -0.22886588594E+02 -0.26261599929E+03  0.26649095628E+03  0.00000000000E+00 0.  1.
         14    1    6    6    0    0 -0.24740939928E+02  0.38572764663E+02 -0.90039795622E+02  0.10103037701E+03  0.00000000000E+00 0. -1.
         -5    1    3    3    0  503 -0.20869556071E+02  0.20892170437E+02  0.42787395798E+02  0.52200310299E+02  0.47000000000E+01 0.  1.
         13    1    4    4    0    0  0.71206548693E+01  0.38772680608E+02 -0.38576586685E+02  0.55155938280E+02  0.00000000000E+00 0. -1.
        -14    1    4    4    0    0  0.25852182566E+02 -0.40157916253E+02 -0.55766073562E+02  0.73422398093E+02  0.00000000000E+00 0.  1.
</event>
<event>
12    1  0.9962621E-001  0.1840053E+03  0.7818608E-02  0.1164077E+00
         21   -1    0    0  503  502  0.00000000000E+00  0.00000000000E+00  0.17113940353E+03  0.17113940353E+03  0.00000000000E+00 0. -1.
         21   -1    0    0  501  503 -0.00000000000E+00 -0.00000000000E+00 -0.62365286902E+03  0.62365286902E+03  0.00000000000E+00 0. -1.
          6    2    1    2  501    0 -0.46600568813E+02 -0.44798254698E+02  0.10235683499E+03  0.21020780140E+03  0.17184848403E+03 0.  0.
         24    2    3    3    0    0 -0.72608071991E+02 -0.82420474887E+02  0.10774756126E+03  0.16391556012E+03  0.56512893152E+02 0.  0.
         -6    2    1    2    0  502  0.46600568813E+02  0.44798254698E+02 -0.55487030047E+03  0.58458447115E+03  0.17227726758E+03 0.  0.
        -24    2    5    5    0    0 -0.58899379020E+01  0.29212220535E+02 -0.12837453886E+03  0.15456249214E+03  0.80755783397E+02 0.  0.
          5    1    3    3  501    0  0.26007503178E+02  0.37622220189E+02 -0.53907262736E+01  0.46292241286E+02  0.47000000000E+01 0. -1.
        -13    1    4    4    0    0 -0.53121612066E+02 -0.27680997267E+02  0.30396818302E+02  0.67172240108E+02  0.00000000000E+00 0.  1.
         14    1    4    4    0    0 -0.19486459925E+02 -0.54739477619E+02  0.77350742957E+02  0.96743320010E+02  0.00000000000E+00 0. -1.
         -5    1    5    5    0  502  0.52490506715E+02  0.15586034163E+02 -0.42649576162E+03  0.43002197901E+03  0.47000000000E+01 0.  1.
         13    1    6    6    0    0  0.22469821629E+02  0.47298644340E+02 -0.74932701802E+02  0.91416434189E+02  0.00000000000E+00 0. -1.
        -14    1    6    6    0    0 -0.28359759531E+02 -0.18086423805E+02 -0.53441837057E+02  0.63146057951E+02  0.00000000000E+00 0.  1.
</event>
<event>
12    1  0.9962621E-001  0.2562209E+03  0.7818608E-02  0.1109534E+00
         21   -1    0    0  501  502  0.00000000000E+00  0.00000000000E+00  0.22179565145E+03  0.22179565145E+03  0.00000000000E+00 0. -1.
         21   -1    0    0  502  503 -0.00000000000E+00 -0.00000000000E+00 -0.36210861798E+03  0.36210861798E+03  0.00000000000E+00 0. -1.
         -6    2    1    2    0  503 -0.16243193168E+03 -0.97628072748E+02 -0.19553645858E+03  0.32179978130E+03  0.17147950196E+03 0.  0.
        -24    2    3    3    0    0 -0.24367448218E+02 -0.55133840786E+01 -0.97198415174E+02  0.12882470974E+03  0.80771925755E+02 0.  0.
          6    2    1    2  501    0  0.16243193168E+03  0.97628072748E+02  0.55223492047E+02  0.26210448814E+03  0.17243478655E+03 0.  0.
         24    2    5    5    0    0  0.37320113822E+02  0.11699985324E+02  0.63597247887E+02  0.11002288845E+03  0.80813027990E+02 0.  0.
          5    1    5    5  501    0  0.12511181786E+03  0.85928087424E+02 -0.83737558393E+01  0.15208159968E+03  0.47000000000E+01 0. -1.
        -11    1    6    6    0    0 -0.25220083291E+02 -0.33193884924E+01  0.16887815045E+02  0.30533084321E+02  0.00000000000E+00 0.  1.
         12    1    6    6    0    0  0.62540197113E+02  0.15019373816E+02  0.46709432842E+02  0.79489804134E+02  0.00000000000E+00 0. -1.
         -5    1    3    3    0  503 -0.13806448346E+03 -0.92114688669E+02 -0.98338043404E+02  0.19297507156E+03  0.47000000000E+01 0.  1.
         13    1    4    4    0    0  0.86846902549E+01  0.58329068567E+01  0.10965702439E+02  0.15155635164E+02  0.00000000000E+00 0. -1.
        -14    1    4    4    0    0 -0.33052138473E+02 -0.11346290935E+02 -0.10816411761E+03  0.11366907457E+03  0.00000000000E+00 0.  1.
</event>
<event>
12    1  0.9962621E-001  0.2563124E+03  0.7818608E-02  0.1109586E+00
         21   -1    0    0  503  502  0.00000000000E+00  0.00000000000E+00  0.56242873206E+03  0.56242873206E+03  0.00000000000E+00 0. -1.
         21   -1    0    0  501  503 -0.00000000000E+00 -0.00000000000E+00 -0.24549106243E+03  0.24549106243E+03  0.00000000000E+00 0. -1.
          6    2    1    2  501    0 -0.24086469945E+02 -0.18713911480E+03 -0.13489460083E+03  0.28845040234E+03  0.17148141286E+03 0.  0.
         24    2    3    3    0    0  0.27702240925E+01 -0.20665607151E+03 -0.11838338357E+03  0.25107522463E+03  0.79433852275E+02 0.  0.
         -6    2    1    2    0  502  0.24086469945E+02  0.18713911480E+03  0.45183227046E+03  0.51946939214E+03  0.17347865121E+03 0.  0.
        -24    2    5    5    0    0  0.61081001643E+02  0.97507660111E+02  0.16423233124E+03  0.21592663060E+03  0.80083822570E+02 0.  0.
          5    1    3    3  501    0 -0.26856694037E+02  0.19516956702E+02 -0.16511217257E+02  0.37375177710E+02  0.47000000000E+01 0. -1.
        -11    1    4    4    0    0  0.20257678252E+02 -0.78007768028E+02 -0.86051257345E+01  0.81053276244E+02  0.00000000000E+00 0.  1.
         12    1    4    4    0    0 -0.17487454159E+02 -0.12864830348E+03 -0.10977825784E+03  0.17002194839E+03  0.00000000000E+00 0. -1.
         -5    1    5    5    0  502 -0.36994531698E+02  0.89631454694E+02  0.28759993922E+03  0.30354276154E+03  0.47000000000E+01 0.  1.
         11    1    6    6    0    0 -0.14586432288E+02  0.32645499036E+01  0.44754221917E+01  0.15602906677E+02  0.00000000000E+00 0. -1.
        -12    1    6    6    0    0  0.75667433931E+02  0.94243110207E+02  0.15975690905E+03  0.20032372393E+03  0.00000000000E+00 0.  1.
</event>
<event>
12    1  0.9962621E-001  0.2553045E+03  0.7818608E-02  0.1110122E+00
         21   -1    0    0  501  502  0.00000000000E+00  0.00000000000E+00  0.27154801338E+03  0.27154801338E+03  0.00000000000E+00 0.  1.
         21   -1    0    0  502  503 -0.00000000000E+00 -0.00000000000E+00 -0.56731815497E+03  0.56731815497E+03  0.00000000000E+00 0.  1.
         -6    2    1    2    0  503 -0.11074157155E+03  0.15160152603E+03 -0.46673173737E+03  0.53160691393E+03  0.17181582553E+03 0.  0.
        -24    2    3    3    0    0 -0.13179208791E+03  0.12763808741E+03 -0.45419110430E+03  0.49701315571E+03  0.84094482153E+02 0.  0.
          6    2    1    2  501    0  0.11074157155E+03 -0.15160152603E+03  0.17096159579E+03  0.30725925442E+03  0.17301347875E+03 0.  0.
         24    2    5    5    0    0  0.54130601357E+02 -0.38407061662E+02  0.14479856780E+03  0.17793646933E+03  0.79306604339E+02 0.  0.
          5    1    5    5  501    0  0.56610970190E+02 -0.11319446437E+03  0.26163027981E+02  0.12932278509E+03  0.47000000000E+01 0. -1.
        -11    1    6    6    0    0  0.55278076905E+02 -0.39074618267E+02  0.15421946987E+03  0.16842249394E+03  0.00000000000E+00 0.  1.
         12    1    6    6    0    0 -0.11474755474E+01  0.66755660494E+00 -0.94209020667E+01  0.95139753891E+01  0.00000000000E+00 0. -1.
         -5    1    3    3    0  503  0.21050516364E+02  0.23963438627E+02 -0.12540633074E+02  0.34593758222E+02  0.47000000000E+01 0.  1.
         11    1    4    4    0    0 -0.69401240859E+01  0.48917010515E+02 -0.72087849928E+02  0.87393920540E+02  0.00000000000E+00 0. -1.
        -12    1    4    4    0    0 -0.12485196383E+03  0.78721076892E+02 -0.38210325437E+03  0.40961923517E+03  0.00000000000E+00 0.  1.
</event>
<event>
12    1  0.9962621E-001  0.1892624E+03  0.7818608E-02  0.1159144E+00
         21   -1    0    0  503  502  0.00000000000E+00  0.00000000000E+00  0.23077544518E+03  0.23077544518E+03  0.00000000000E+00 0.  1.
         21   -1    0    0  501  503 -0.00000000000E+00 -0.00000000000E+00 -0.23502998135E+03  0.23502998135E+03  0.00000000000E+00 0.  1.
          6    2    1    2  501    0 -0.71789663152E+02  0.30108524281E+02  0.13364403104E+03  0.23163396134E+03  0.17243342496E+03 0.  0.
         24    2    3    3    0    0 -0.43151019208E+02 -0.48058305196E+02  0.10421838675E+03  0.14321346768E+03  0.74006851242E+02 0.  0.
         -6    2    1    2    0  502  0.71789663152E+02 -0.30108524281E+02 -0.13789856721E+03  0.23417146518E+03  0.17251081501E+03 0.  0.
        -24    2    5    5    0    0 -0.11648171537E+02 -0.20185000636E+02 -0.13098965954E+02  0.83647782485E+02  0.79260674074E+02 0.  0.
          5    1    3    3  501    0 -0.28638643943E+02  0.78166829477E+02  0.29425644284E+02  0.88420493659E+02  0.47000000000E+01 0. -1.
        -11    1    4    4    0    0  0.75373553986E+01 -0.33152380879E+02  0.76129756466E+02  0.83376446938E+02  0.00000000000E+00 0.  1.
         12    1    4    4    0    0 -0.50688374607E+02 -0.14905924318E+02  0.28088630287E+02  0.59837020744E+02  0.00000000000E+00 0. -1.
         -5    1    5    5    0  502  0.83437834688E+02 -0.99235236446E+01 -0.12479960125E+03  0.15052368269E+03  0.47000000000E+01 0.  1.
         13    1    6    6    0    0  0.19349182575E+02 -0.22358582523E+02 -0.34860778059E+02  0.45711824790E+02  0.00000000000E+00 0. -1.
        -14    1    6    6    0    0 -0.30997354112E+02  0.21735818868E+01  0.21761812105E+02  0.37935957695E+02  0.00000000000E+00 0.  1.
</event>
<event>
12    1  0.9962621E-001  0.1842416E+03  0.7818608E-02  0.1164163E+00
         21   -1    0    0  503  502  0.00000000000E+00  0.00000000000E+00  0.25145096503E+03  0.25145096503E+03  0.00000000000E+00 0. -1.
         21   -1    0    0  501  503 -0.00000000000E+00 -0.00000000000E+00 -0.13377269627E+03  0.13377269627E+03  0.00000000000E+00 0. -1.
          6    2    1    2  501    0  0.42575512829E+02  0.46830000261E+02  0.56389145053E+02  0.19267774244E+03  0.17302963196E+03 0.  0.
         24    2    3    3    0    0 -0.53118132465E+02  0.31643054353E+02  0.26245799357E+02  0.91097092878E+02  0.61538763894E+02 0.  0.
         -6    2    1    2    0  502 -0.42575512829E+02 -0.46830000261E+02  0.61289123708E+02  0.19254591887E+03  0.17120704124E+03 0.  0.
        -24    2    5    5    0    0  0.18715088641E+02 -0.80360776857E+01 -0.17958042926E+02  0.85011228294E+02  0.80557957663E+02 0.  0.
          5    1    3    3  501    0  0.95693645294E+02  0.15186945908E+02  0.30143345696E+02  0.10158064956E+03  0.47000000000E+01 0. -1.
        -11    1    4    4    0    0 -0.32287047787E+02 -0.14709822972E+02  0.17390463978E+02  0.39512790132E+02  0.00000000000E+00 0.  1.
         12    1    4    4    0    0 -0.20831084678E+02  0.46352877324E+02  0.88553353783E+01  0.51584302746E+02  0.00000000000E+00 0. -1.
         -5    1    5    5    0  502 -0.61290601470E+02 -0.38793922575E+02  0.79247166634E+02  0.10753469057E+03  0.47000000000E+01 0.  1.
         11    1    6    6    0    0 -0.23896219400E+02 -0.54678498735E+01 -0.31784295958E+02  0.40139359155E+02  0.00000000000E+00 0. -1.
        -12    1    6    6    0    0  0.42611308041E+02 -0.25682278123E+01  0.13826253032E+02  0.44871869138E+02  0.00000000000E+00 0.  1.
</event>
<event>
12    1  0.9962621E-001  0.2478418E+03  0.7818608E-02  0.1114970E+00
         21   -1    0    0  503  502  0.00000000000E+00  0.00000000000E+00  0.16019594067E+03  0.16019594067E+03  0.00000000000E+00 0. -1.
         21   -1    0    0  501  503 -0.00000000000E+00 -0.00000000000E+00 -0.42987830563E+03  0.42987830563E+03  0.00000000000E+00 0.  1.
          6    2    1    2  501    0 -0.13795553668E+03 -0.10907572212E+03 -0.35403228693E+02  0.25035765394E+03  0.17463196450E+03 0.  0.
         24    2    3    3    0    0 -0.17048304246E+02 -0.40515865742E+02  0.79410455405E+01  0.10468737944E+03  0.94679497021E+02 0.  0.
         -6    2    1    2    0  502  0.13795553668E+03  0.10907572212E+03 -0.23427913627E+03  0.33971659237E+03  0.17202152825E+03 0.  0.
        -24    2    5    5    0    0  0.10203779254E+03  0.12983046364E+03 -0.12348742903E+03  0.22132007201E+03  0.80410004039E+02 0.  0.
          5    1    3    3  501    0 -0.12090723244E+03 -0.68559856376E+02 -0.43344274233E+02  0.14567027449E+03  0.47000000000E+01 0. -1.
        -13    1    4    4    0    0  0.72951780553E+01 -0.16837906010E+01 -0.38628764823E+02  0.39347633289E+02  0.00000000000E+00 0.  1.
         14    1    4    4    0    0 -0.24343482301E+02 -0.38832075141E+02  0.46569810364E+02  0.65339746155E+02  0.00000000000E+00 0. -1.
         -5    1    5    5    0  502  0.35917744139E+02 -0.20754741518E+02 -0.11079170725E+03  0.11839652036E+03  0.47000000000E+01 0.  1.
         13    1    6    6    0    0 -0.13960258189E+01  0.57196897034E+02 -0.41195605488E+02  0.70501856926E+02  0.00000000000E+00 0. -1.
        -14    1    6    6    0    0  0.10343381836E+03  0.72633566602E+02 -0.82291823538E+02  0.15081821508E+03  0.00000000000E+00 0.  1.
</event>
<event>
12    1  0.9962621E-001  0.4467353E+03  0.7818608E-02  0.1028794E+00
         21   -1    0    0  503  502  0.00000000000E+00  0.00000000000E+00  0.23438367618E+03  0.23438367618E+03  0.00000000000E+00 0. -1.
         21   -1    0    0  501  503 -0.00000000000E+00 -0.00000000000E+00 -0.84922844383E+03  0.84922844383E+03  0.00000000000E+00 0. -1.
          6    2    1    2  501    0 -0.32450252537E+03 -0.25208720013E+03 -0.30019105926E+03  0.53718797534E+03  0.17206511369E+03 0.  0.
         24    2    3    3    0    0 -0.28474485579E+03 -0.20215332923E+03 -0.30842772354E+03  0.47265894009E+03  0.79581477573E+02 0.  0.
         -6    2    1    2    0  502  0.32450252537E+03  0.25208720013E+03 -0.31465370838E+03  0.54642414466E+03  0.17527847623E+03 0.  0.
        -24    2    5    5    0    0  0.13759624607E+03  0.68062886030E+02 -0.68718001041E+02  0.18683358921E+03  0.81359344913E+02 0.  0.
          5    1    3    3  501    0 -0.39757669584E+02 -0.49933870892E+02  0.82366642794E+01  0.64529035259E+02  0.47000000000E+01 0. -1.
        -11    1    4    4    0    0 -0.17507458049E+03 -0.16332387264E+03 -0.23245917781E+03  0.33371105084E+03  0.00000000000E+00 0.  1.
         12    1    4    4    0    0 -0.10967027530E+03 -0.38829456599E+02 -0.75968545735E+02  0.13894788924E+03  0.00000000000E+00 0. -1.
         -5    1    5    5    0  502  0.18690627931E+03  0.18402431410E+03 -0.24593570734E+03  0.35959055545E+03  0.47000000000E+01 0.  1.
         11    1    6    6    0    0  0.12950197900E+03  0.83325874767E+02 -0.70693064303E+02  0.16944460249E+03  0.00000000000E+00 0. -1.
        -12    1    6    6    0    0  0.80942670634E+01 -0.15262988737E+02  0.19750632616E+01  0.17388986726E+02  0.00000000000E+00 0.  1.
</event>
<event>
12    1  0.9962621E-001  0.1887811E+03  0.7818608E-02  0.1159893E+00
         21   -1    0    0  503  502  0.00000000000E+00  0.00000000000E+00  0.59568271200E+03  0.59568271200E+03  0.00000000000E+00 0.  1.
         21   -1    0    0  501  503 -0.00000000000E+00 -0.00000000000E+00 -0.60843471583E+02  0.60843471583E+02  0.00000000000E+00 0.  1.
          6    2    1    2  501    0 -0.40018481312E+02 -0.62160003854E+02  0.31943769605E+03  0.37105086924E+03  0.17370365852E+03 0.  0.
         24    2    3    3    0    0 -0.48129556648E+02  0.18065741257E+02  0.23835353969E+03  0.25660136014E+03  0.79931363754E+02 0.  0.
         -6    2    1    2    0  502  0.40018481312E+02  0.62160003854E+02  0.21540154437E+03  0.28547531434E+03  0.17214233894E+03 0.  0.
        -24    2    5    5    0    0 -0.11759046681E+02  0.57925102979E+02  0.67621002203E+02  0.12875892900E+03  0.92264126967E+02 0.  0.
          5    1    3    3  501    0  0.81110753361E+01 -0.80225745111E+02  0.81084156351E+02  0.11444950910E+03  0.47000000000E+01 0. -1.
        -13    1    4    4    0    0 -0.46398673760E+02 -0.11144873838E+02  0.64119400934E+02  0.79927108766E+02  0.00000000000E+00 0.  1.
         14    1    4    4    0    0 -0.17308828886E+01  0.29210615095E+02  0.17423413876E+03  0.17667425138E+03  0.00000000000E+00 0. -1.
         -5    1    5    5    0  502  0.51777527993E+02  0.42349008752E+01  0.14778054217E+03  0.15671638534E+03  0.47000000000E+01 0.  1.
         13    1    6    6    0    0  0.80601093212E+00  0.21211129496E+02  0.83999135306E+02  0.86639577563E+02  0.00000000000E+00 0. -1.
        -14    1    6    6    0    0 -0.12565057613E+02  0.36713973483E+02 -0.16378133104E+02  0.42119351439E+02  0.00000000000E+00 0.  1.
</event>
<event>
12    1  0.9962621E-001  0.1877921E+03  0.7818608E-02  0.1161403E+00
         21   -1    0    0  503  502  0.00000000000E+00  0.00000000000E+00  0.94374957863E+02  0.94374957863E+02  0.00000000000E+00 0. -1.
         21   -1    0    0  501  503 -0.00000000000E+00 -0.00000000000E+00 -0.42917260809E+03  0.42917260809E+03  0.00000000000E+00 0. -1.
          6    2    1    2  501    0 -0.24863908211E+02  0.62553157201E+02 -0.26652405711E+03  0.32372974038E+03  0.17098175452E+03 0.  0.
         24    2    3    3    0    0  0.51367731367E+02  0.59696737199E+02 -0.15188596247E+03  0.18594946330E+03  0.72838952824E+02 0.  0.
         -6    2    1    2    0  502  0.24863908211E+02 -0.62553157201E+02 -0.68273593115E+02  0.19981782558E+03  0.17531334374E+03 0.  0.
        -24    2    5    5    0    0  0.61044859080E+02 -0.88477523734E+02 -0.76123978385E+02  0.15437717709E+03  0.80515251319E+02 0.  0.
          5    1    3    3  501    0 -0.76231639578E+02  0.28564200019E+01 -0.11463809464E+03  0.13778027708E+03  0.47000000000E+01 0. -1.
        -11    1    4    4    0    0  0.28490372607E+02  0.16799087821E+02 -0.79383697538E+01  0.34013650161E+02  0.00000000000E+00 0.  1.
         12    1    4    4    0    0  0.22877358760E+02  0.42897649378E+02 -0.14394759271E+03  0.15193581314E+03  0.00000000000E+00 0. -1.
         -5    1    5    5    0  502 -0.36180950869E+02  0.25924366533E+02  0.78503852695E+01  0.45440648486E+02  0.47000000000E+01 0.  1.
         13    1    6    6    0    0 -0.57354915494E+01 -0.60729778782E+02 -0.25566789123E+02  0.66141232225E+02  0.00000000000E+00 0. -1.
        -14    1    6    6    0    0  0.66780350629E+02 -0.27747744952E+02 -0.50557189262E+02  0.88235944865E+02  0.00000000000E+00 0.  1.
</event>
<event>
12    1  0.9962621E-001  0.3679722E+03  0.7818608E-02  0.1055494E+00
         21   -1    0    0  503  502  0.00000000000E+00  0.00000000000E+00  0.73395591570E+03  0.73395591570E+03  0.00000000000E+00 0.  1.
         21   -1    0    0  501  503 -0.00000000000E+00 -0.00000000000E+00 -0.32878031975E+03  0.32878031975E+03  0.00000000000E+00 0.  1.
          6    2    1    2  501    0  0.29713943977E+03  0.13151091816E+03  0.55471657308E+03  0.66553849307E+03  0.17217444947E+03 0.  0.
         24    2    3    3    0    0  0.29682084577E+03  0.12816128518E+03  0.44754768326E+03  0.55821383379E+03  0.82315405287E+02 0.  0.
         -6    2    1    2    0  502 -0.29713943977E+03 -0.13151091816E+03 -0.14954097713E+03  0.39719774238E+03  0.17267476494E+03 0.  0.
        -24    2    5    5    0    0 -0.21059593577E+03 -0.52110374202E+02 -0.52343071264E+02  0.24467316282E+03  0.10029466701E+03 0.  0.
          5    1    3    3  501    0  0.31859399911E+00  0.33496329780E+01  0.10716888982E+03  0.10732465928E+03  0.47000000000E+01 0. -1.
        -11    1    4    4    0    0  0.40165465174E+02  0.35199261174E+02  0.36148634543E+02  0.64490126060E+02  0.00000000000E+00 0.  1.
         12    1    4    4    0    0  0.25665538060E+03  0.92962024004E+02  0.41139904871E+03  0.49372370773E+03  0.00000000000E+00 0. -1.
         -5    1    5    5    0  502 -0.86543504000E+02 -0.79400543954E+02 -0.97197905867E+02  0.15252457956E+03  0.47000000000E+01 0.  1.
         13    1    6    6    0    0 -0.11695627690E+03 -0.79483781440E+02 -0.33207328872E+02  0.14525552970E+03  0.00000000000E+00 0. -1.
        -14    1    6    6    0    0 -0.93639658877E+02  0.27373407238E+02 -0.19135742392E+02  0.99417633120E+02  0.00000000000E+00 0.  1.
</event>
<event>
12    1  0.9962621E-001  0.2106821E+03  0.7818608E-02  0.1141492E+00
         21   -1    0    0  501  502  0.00000000000E+00  0.00000000000E+00  0.56333548470E+02  0.56333548470E+02  0.00000000000E+00 0. -1.
         21   -1    0    0  502  503 -0.00000000000E+00 -0.00000000000E+00 -0.78316349331E+03  0.78316349331E+03  0.00000000000E+00 0. -1.
         -6    2    1    2    0  503  0.11463368680E+03 -0.41121173142E+02 -0.39531629224E+03  0.44795302419E+03  0.17191599094E+03 0.  0.
        -24    2    3    3    0    0  0.19835781219E+02 -0.68989298484E+02 -0.16810334489E+03  0.20014041604E+03  0.81513618794E+02 0.  0.
          6    2    1    2  501    0 -0.11463368680E+03  0.41121173142E+02 -0.33151365260E+03  0.39154401759E+03  0.16903722318E+03 0.  0.
         24    2    5    5    0    0 -0.12418997968E+03  0.45522417560E+02 -0.34232476361E+03  0.37574326422E+03  0.80630734047E+02 0.  0.
          5    1    5    5  501    0  0.95562928806E+01 -0.44012444176E+01  0.10811111006E+02  0.15800753375E+02  0.47000000000E+01 0. -1.
        -11    1    6    6    0    0 -0.79394008074E+02 -0.13788097993E+02 -0.17825003582E+03  0.19561849461E+03  0.00000000000E+00 0.  1.
         12    1    6    6    0    0 -0.44795971605E+02  0.59310515552E+02 -0.16407472779E+03  0.18012476961E+03  0.00000000000E+00 0. -1.
         -5    1    3    3    0  503  0.94797905579E+02  0.27868125342E+02 -0.22721294735E+03  0.24781260815E+03  0.47000000000E+01 0.  1.
         11    1    4    4    0    0  0.28197420435E+02  0.65824006341E+01 -0.71950377693E+02  0.77558232106E+02  0.00000000000E+00 0. -1.
        -12    1    4    4    0    0 -0.83616392159E+01 -0.75571699119E+02 -0.96152967197E+02  0.12258218394E+03  0.00000000000E+00 0.  1.
</event>
<event>
12    1  0.9962621E-001  0.2531972E+03  0.7818608E-02  0.1111524E+00
         21   -1    0    0  501  502  0.00000000000E+00  0.00000000000E+00  0.97253985800E+02  0.97253985800E+02  0.00000000000E+00 0.  1.
         21   -1    0    0  502  503 -0.00000000000E+00 -0.00000000000E+00 -0.10460070137E+04  0.10460070137E+04  0.00000000000E+00 0.  1.
         -6    2    1    2    0  503  0.17456246842E+03  0.54875066303E+02 -0.12425112409E+03  0.28075755141E+03  0.17292522242E+03 0.  0.
        -24    2    3    3    0    0  0.90037122463E+02  0.77795361182E+02 -0.30131840778E+02  0.15210917979E+03  0.89835811932E+02 0.  0.
          6    2    1    2  501    0 -0.17456246842E+03 -0.54875066303E+02 -0.82450190381E+03  0.86250344810E+03  0.17500137231E+03 0.  0.
         24    2    5    5    0    0 -0.44598601452E+02 -0.19950413759E+01 -0.16614314347E+03  0.18934280526E+03  0.79083110325E+02 0.  0.
          5    1    5    5  501    0 -0.12996386697E+03 -0.52880024927E+02 -0.65835876034E+03  0.67316064284E+03  0.47000000000E+01 0. -1.
        -11    1    6    6    0    0  0.21384657484E+02 -0.11236664337E+02 -0.42104898004E+02  0.48542647610E+02  0.00000000000E+00 0.  1.
         12    1    6    6    0    0 -0.65983258936E+02  0.92416229609E+01 -0.12403824547E+03  0.14080015765E+03  0.00000000000E+00 0. -1.
         -5    1    3    3    0  503  0.84525345961E+02 -0.22920294879E+02 -0.94119283316E+02  0.12864837161E+03  0.47000000000E+01 0.  1.
         11    1    4    4    0    0  0.14045576446E+02  0.38022370392E+02 -0.49701437162E+02  0.64134325629E+02  0.00000000000E+00 0. -1.
        -12    1    4    4    0    0  0.75991546017E+02  0.39772990790E+02  0.19569596384E+02  0.87974854163E+02  0.00000000000E+00 0.  1.
</event>
<event>
12    1  0.9962621E-001  0.2040650E+03  0.7818608E-02  0.1146588E+00
         21   -1    0    0  503  502  0.00000000000E+00  0.00000000000E+00  0.26265184706E+03  0.26265184706E+03  0.00000000000E+00 0.  1.
         21   -1    0    0  501  503 -0.00000000000E+00 -0.00000000000E+00 -0.21400122805E+03  0.21400122805E+03  0.00000000000E+00 0.  1.
          6    2    1    2  501    0  0.10151932720E+03  0.47465305564E+02  0.14665385358E+03  0.25129637652E+03  0.17053852073E+03 0.  0.
         24    2    3    3    0    0  0.13140172207E+03  0.20642857540E+02  0.82535244850E+02  0.17549606500E+03  0.79336385461E+02 0.  0.
         -6    2    1    2    0  502 -0.10151932720E+03 -0.47465305564E+02 -0.98003234575E+02  0.22535669859E+03  0.16918001827E+03 0.  0.
        -24    2    5    5    0    0 -0.10082129565E+03  0.19828849086E+02 -0.48778009321E+02  0.14184500300E+03  0.84750184493E+02 0.  0.
          5    1    3    3  501    0 -0.29882394864E+02  0.26822448024E+02  0.64118608734E+02  0.75800311522E+02  0.47000000000E+01 0. -1.
        -13    1    4    4    0    0  0.95409957385E+01 -0.23419738516E+02  0.14045108293E+02  0.28927146745E+02  0.00000000000E+00 0.  1.
         14    1    4    4    0    0  0.12186072633E+03  0.44062596056E+02  0.68490136557E+02  0.14656891825E+03  0.00000000000E+00 0. -1.
         -5    1    5    5    0  502 -0.69803155589E+00 -0.67294154651E+02 -0.49225225254E+02  0.83511695585E+02  0.47000000000E+01 0.  1.
         13    1    6    6    0    0 -0.42452366393E+02  0.44375641153E+02 -0.48935435346E+02  0.78524376933E+02  0.00000000000E+00 0. -1.
        -14    1    6    6    0    0 -0.58368929253E+02 -0.24546792067E+02  0.15742602525E+00  0.63320626070E+02  0.00000000000E+00 0.  1.
</event>
<event>
12    1  0.9962621E-001  0.2038828E+03  0.7818608E-02  0.1147605E+00
         21   -1    0    0  503  502  0.00000000000E+00  0.00000000000E+00  0.20988203341E+03  0.20988203341E+03  0.00000000000E+00 0. -1.
         21   -1    0    0  501  503 -0.00000000000E+00 -0.00000000000E+00 -0.26566116993E+03  0.26566116993E+03  0.00000000000E+00 0. -1.
          6    2    1    2  501    0 -0.86466807319E+02 -0.67262410990E+02  0.96752135206E+02  0.22091801373E+03  0.16565944713E+03 0.  0.
         24    2    3    3    0    0 -0.76749054754E+01 -0.55014558940E+01  0.82120696759E+01  0.87186893289E+02  0.86284100981E+02 0.  0.
         -6    2    1    2    0  502  0.86466807319E+02  0.67262410990E+02 -0.15253127173E+03  0.25462518961E+03  0.17195190499E+03 0.  0.
        -24    2    5    5    0    0  0.34451945067E+02  0.10660679766E+03 -0.95712361575E+02  0.16799952824E+03  0.80691012536E+02 0.  0.
          5    1    3    3  501    0 -0.78791901843E+02 -0.61760955096E+02  0.88540065530E+02  0.13373112044E+03  0.47000000000E+01 0. -1.
        -13    1    4    4    0    0 -0.95315113238E+01  0.22120747135E+02  0.38964763313E+02  0.45808623009E+02  0.00000000000E+00 0.  1.
         14    1    4    4    0    0  0.18566058483E+01 -0.27622203029E+02 -0.30752693637E+02  0.41378270280E+02  0.00000000000E+00 0. -1.
         -5    1    5    5    0  502  0.52014862252E+02 -0.39344386667E+02 -0.56818910156E+02  0.86625661375E+02  0.47000000000E+01 0.  1.
         11    1    6    6    0    0 -0.22393578110E+02  0.27299781255E+02 -0.67337323301E+01  0.35945702778E+02  0.00000000000E+00 0. -1.
        -12    1    6    6    0    0  0.56845523177E+02  0.79307016402E+02 -0.88978629245E+02  0.13205382546E+03  0.00000000000E+00 0.  1.
</event>
<event>
12    1  0.9962621E-001  0.1752794E+03  0.7818608E-02  0.1172621E+00
         21   -1    0    0  501  502  0.00000000000E+00  0.00000000000E+00  0.17329225143E+03  0.17329225143E+03  0.00000000000E+00 0. -1.
         21   -1    0    0  502  503 -0.00000000000E+00 -0.00000000000E+00 -0.20411288335E+03  0.20411288335E+03  0.00000000000E+00 0. -1.
         -6    2    1    2    0  503  0.15630857782E+02 -0.23335134583E+02 -0.84658249875E+02  0.19404387602E+03  0.17232862307E+03 0.  0.
        -24    2    3    3    0    0 -0.21743151514E+02 -0.50723861247E+02 -0.10567149992E+03  0.14294979030E+03  0.78882836620E+02 0.  0.
          6    2    1    2  501    0 -0.15630857782E+02  0.23335134583E+02  0.53837617957E+02  0.18336125876E+03  0.17301447883E+03 0.  0.
         24    2    5    5    0    0 -0.12881161534E+02  0.82542841035E+02  0.41770825231E+02  0.12269157260E+03  0.79556113637E+02 0.  0.
          5    1    5    5  501    0 -0.27496962481E+01 -0.59207706451E+02  0.12066792726E+02  0.60669686165E+02  0.47000000000E+01 0. -1.
        -13    1    6    6    0    0  0.20770285162E+02  0.14969813377E+02 -0.13677388469E+02  0.29027073803E+02  0.00000000000E+00 0.  1.
         14    1    6    6    0    0 -0.33651446695E+02  0.67573027657E+02  0.55448213700E+02  0.93664498792E+02  0.00000000000E+00 0. -1.
         -5    1    3    3    0  503  0.37374009296E+02  0.27388726664E+02  0.21013250042E+02  0.51094085729E+02  0.47000000000E+01 0.  1.
         11    1    4    4    0    0  0.28696951863E+02 -0.27064241800E+02 -0.33334774042E+02  0.51644897046E+02  0.00000000000E+00 0. -1.
        -12    1    4    4    0    0 -0.50440103377E+02 -0.23659619448E+02 -0.72336725874E+02  0.91304893249E+02  0.00000000000E+00 0.  1.
</event>
<event>
12    1  0.9962621E-001  0.1924490E+03  0.7818608E-02  0.1157067E+00
         21   -1    0    0  503  502  0.00000000000E+00  0.00000000000E+00  0.73436754438E+02  0.73436754438E+02  0.00000000000E+00 0.  1.
         21   -1    0    0  501  503 -0.00000000000E+00 -0.00000000000E+00 -0.50176184914E+03  0.50176184914E+03  0.00000000000E+00 0.  1.
          6    2    1    2  501    0 -0.42499409152E+02  0.69870835591E+02 -0.17895821874E+03  0.26020583225E+03  0.17027300913E+03 0.  0.
         24    2    3    3    0    0 -0.31501765277E+02 -0.22458983188E+02 -0.56348334968E+02  0.10625448537E+03  0.81351789574E+02 0.  0.
         -6    2    1    2    0  502  0.42499409152E+02 -0.69870835591E+02 -0.24936687596E+03  0.31499277133E+03  0.17420813333E+03 0.  0.
        -24    2    5    5    0    0  0.63934199414E+02  0.45947538303E+01 -0.90515979508E+02  0.13818702610E+03  0.82424620220E+02 0.  0.
          5    1    3    3  501    0 -0.10997643876E+02  0.92329818779E+02 -0.12260988377E+03  0.15395134688E+03  0.47000000000E+01 0. -1.
        -13    1    4    4    0    0  0.24189187966E+02  0.20715230997E+01 -0.14896318698E+01  0.24323384335E+02  0.00000000000E+00 0.  1.
         14    1    4    4    0    0 -0.55690953243E+02 -0.24530506288E+02 -0.54858703098E+02  0.81931101039E+02  0.00000000000E+00 0. -1.
         -5    1    5    5    0  502 -0.21434790262E+02 -0.74465589421E+02 -0.15885089646E+03  0.17680574523E+03  0.47000000000E+01 0.  1.
         13    1    6    6    0    0  0.56900970441E+02 -0.32660089201E+02 -0.48459323744E+02  0.81564133794E+02  0.00000000000E+00 0. -1.
        -14    1    6    6    0    0  0.70332289734E+01  0.37254843031E+02 -0.42056655764E+02  0.56622892306E+02  0.00000000000E+00 0.  1.
</event>
<event>
12    1  0.9962621E-001  0.2216618E+03  0.7818608E-02  0.1132768E+00
         21   -1    0    0  501  502  0.00000000000E+00  0.00000000000E+00  0.80897121368E+03  0.80897121368E+03  0.00000000000E+00 0. -1.
         21   -1    0    0  502  503 -0.00000000000E+00 -0.00000000000E+00 -0.73538378370E+02  0.73538378370E+02  0.00000000000E+00 0. -1.
         -6    2    1    2    0  503 -0.13530125567E+03  0.30177777496E+02  0.55351678353E+03  0.59625059005E+03  0.17296476072E+03 0.  0.
        -24    2    3    3    0    0 -0.11468440104E+03  0.47131873967E+02  0.24690469871E+03  0.28844292829E+03  0.82846045478E+02 0.  0.
          6    2    1    2  501    0  0.13530125567E+03 -0.30177777496E+02  0.18191605179E+03  0.28625900200E+03  0.17214423687E+03 0.  0.
         24    2    5    5    0    0  0.57787642469E+02  0.77374208694E+01  0.17290412936E+03  0.19937271284E+03  0.80339040146E+02 0.  0.
          5    1    5    5  501    0  0.77513613202E+02 -0.37915198366E+02  0.90119224275E+01  0.86886289163E+02  0.47000000000E+01 0. -1.
        -11    1    6    6    0    0  0.56281722955E+02 -0.27348169394E+02  0.92997690555E+02  0.11208980844E+03  0.00000000000E+00 0.  1.
         12    1    6    6    0    0  0.15059195146E+01  0.35085590263E+02  0.79906438804E+02  0.87282904398E+02  0.00000000000E+00 0. -1.
         -5    1    3    3    0  503 -0.20616854635E+02 -0.16954096471E+02  0.30661208482E+03  0.30780766176E+03  0.47000000000E+01 0.  1.
         13    1    4    4    0    0 -0.93402992915E+01  0.38855030059E+02  0.42478589110E+02  0.58321394741E+02  0.00000000000E+00 0. -1.
        -14    1    4    4    0    0 -0.10534410174E+03  0.82768439087E+01  0.20442610960E+03  0.23012153355E+03  0.00000000000E+00 0.  1.
</event>
<event>
12    1  0.9962621E-001  0.3459480E+03  0.7818608E-02  0.1064427E+00
         21   -1    0    0  501  502  0.00000000000E+00  0.00000000000E+00  0.84425163095E+03  0.84425163095E+03  0.00000000000E+00 0. -1.
         21   -1    0    0  502  503 -0.00000000000E+00 -0.00000000000E+00 -0.16637985411E+03  0.16637985411E+03  0.00000000000E+00 0. -1.
         -6    2    1    2    0  503  0.17980353907E+03  0.23872528764E+03  0.14189572087E+03  0.37270489993E+03  0.17162596309E+03 0.  0.
        -24    2    3    3    0    0  0.52360807880E+02  0.72827567395E+02  0.10682430978E+03  0.16053563450E+03  0.79465388754E+02 0.  0.
          6    2    1    2  501    0 -0.17980353907E+03 -0.23872528764E+03  0.53597605597E+03  0.63792658513E+03  0.17424385162E+03 0.  0.
         24    2    5    5    0    0 -0.99441729210E+02 -0.31270606434E+02  0.15023092162E+03  0.19259876890E+03  0.60485102588E+02 0.  0.
          5    1    5    5  501    0 -0.80361809857E+02 -0.20745468121E+03  0.38574513435E+03  0.44532781624E+03  0.47000000000E+01 0. -1.
        -13    1    6    6    0    0 -0.74282290637E+02 -0.48844693623E+01  0.13267677776E+03  0.15213429626E+03  0.00000000000E+00 0.  1.
         14    1    6    6    0    0 -0.25159438573E+02 -0.26386137072E+02  0.17554143861E+02  0.40464472634E+02  0.00000000000E+00 0. -1.
         -5    1    3    3    0  503  0.12744273119E+03  0.16589772025E+03  0.35071411094E+02  0.21216926543E+03  0.47000000000E+01 0.  1.
         11    1    4    4    0    0  0.70186199044E+02  0.50618149196E+02  0.58530903612E+02  0.10447088705E+03  0.00000000000E+00 0. -1.
        -12    1    4    4    0    0 -0.17825391164E+02  0.22209418199E+02  0.48293406164E+02  0.56064747443E+02  0.00000000000E+00 0.  1.
</event>
<event>
12    1  0.9962621E-001  0.3606369E+03  0.7818608E-02  0.1058347E+00
         21   -1    0    0  501  502  0.00000000000E+00  0.00000000000E+00  0.58671249013E+03  0.58671249013E+03  0.00000000000E+00 0.  1.
         21   -1    0    0  502  503 -0.00000000000E+00 -0.00000000000E+00 -0.30260402965E+03  0.30260402965E+03  0.00000000000E+00 0. -1.
         -6    2    1    2    0  503 -0.39447929006E+02 -0.31495649379E+03 -0.88015310123E+02  0.37122183758E+03  0.17118769171E+03 0.  0.
        -24    2    3    3    0    0 -0.46131699325E+02 -0.12573848322E+03  0.15051308307E+02  0.15559960740E+03  0.77758575718E+02 0.  0.
          6    2    1    2  501    0  0.39447929006E+02  0.31495649379E+03  0.37212377061E+03  0.51809468220E+03  0.17085744640E+03 0.  0.
         24    2    5    5    0    0  0.86567143648E+02  0.20509362776E+03  0.28595954033E+03  0.37066186937E+03  0.77846619658E+02 0.  0.
          5    1    5    5  501    0 -0.47119214642E+02  0.10986286602E+03  0.86164230284E+02  0.14743281283E+03  0.47000000000E+01 0. -1.
        -13    1    6    6    0    0  0.80048340971E+02  0.21177161156E+03  0.27668845906E+03  0.35750728067E+03  0.00000000000E+00 0.  1.
         14    1    6    6    0    0  0.65188026772E+01 -0.66779837993E+01  0.92710812694E+01  0.13154588700E+02  0.00000000000E+00 0. -1.
         -5    1    3    3    0  503  0.66837703187E+01 -0.18921801057E+03 -0.10306661843E+03  0.21562223017E+03  0.47000000000E+01 0.  1.
         11    1    4    4    0    0  0.22521232043E+01  0.19028030126E+01  0.18814319741E+02  0.19043931987E+02  0.00000000000E+00 0. -1.
        -12    1    4    4    0    0 -0.48383822529E+02 -0.12764128623E+03 -0.37630114336E+01  0.13655567542E+03  0.00000000000E+00 0.  1.
</event>
<event>
12    1  0.9962621E-001  0.2676664E+03  0.7818608E-02  0.1102852E+00
         21   -1    0    0  501  502  0.00000000000E+00  0.00000000000E+00  0.21727402359E+03  0.21727402359E+03  0.00000000000E+00 0.  1.
         21   -1    0    0  502  503 -0.00000000000E+00 -0.00000000000E+00 -0.44647704983E+03  0.44647704983E+03  0.00000000000E+00 0.  1.
         -6    2    1    2    0  503  0.13527676295E+03  0.15137507919E+03  0.56748276895E+02  0.27207080270E+03  0.17201144601E+03 0.  0.
        -24    2    3    3    0    0  0.93273823266E+02  0.73043507711E+02 -0.34194755779E+02  0.14481984112E+03  0.75948304348E+02 0.  0.
          6    2    1    2  501    0 -0.13527676295E+03 -0.15137507919E+03 -0.28595130313E+03  0.39168027072E+03  0.17444503292E+03 0.  0.
         24    2    5    5    0    0 -0.37077024650E+02 -0.47302261811E+02 -0.20075131786E+03  0.22508054860E+03  0.82145918982E+02 0.  0.
          5    1    5    5  501    0 -0.98199738304E+02 -0.10407281738E+03 -0.85199985270E+02  0.16659972212E+03  0.47000000000E+01 0. -1.
        -13    1    6    6    0    0 -0.56623972053E+01 -0.34846264600E+02 -0.18760099300E+02  0.39978321931E+02  0.00000000000E+00 0.  1.
         14    1    6    6    0    0 -0.31414627445E+02 -0.12455997210E+02 -0.18199121856E+03  0.18510222667E+03  0.00000000000E+00 0. -1.
         -5    1    3    3    0  503  0.42002939689E+02  0.78331571477E+02  0.90943032674E+02  0.12725096159E+03  0.47000000000E+01 0.  1.
         11    1    4    4    0    0 -0.17794036834E+01  0.17651804264E+02 -0.29843360353E+02  0.34718563168E+02  0.00000000000E+00 0. -1.
        -12    1    4    4    0    0  0.95053226949E+02  0.55391703447E+02 -0.43513954255E+01  0.11010127795E+03  0.00000000000E+00 0.  1.
</event>
<event>
12    1  0.9962621E-001  0.1792412E+03  0.7818608E-02  0.1170227E+00
         21   -1    0    0  501  502  0.00000000000E+00  0.00000000000E+00  0.87438221853E+02  0.87438221853E+02  0.00000000000E+00 0.  1.
         21   -1    0    0  502  503 -0.00000000000E+00 -0.00000000000E+00 -0.38091726915E+03  0.38091726915E+03  0.00000000000E+00 0.  1.
         -6    2    1    2    0  503  0.10778565061E+02 -0.47445795746E+02 -0.21202728200E+03  0.27763818567E+03  0.17251119625E+03 0.  0.
        -24    2    3    3    0    0 -0.16430204629E+02 -0.11700827972E+02 -0.21729159145E+03  0.23216486577E+03  0.79234009014E+02 0.  0.
          6    2    1    2  501    0 -0.10778565061E+02  0.47445795746E+02 -0.81451765291E+02  0.19071730533E+03  0.16544310044E+03 0.  0.
         24    2    5    5    0    0  0.11527467768E+02  0.67096023514E+02 -0.10195277778E+01  0.10483875513E+03  0.79720551031E+02 0.  0.
          5    1    5    5  501    0 -0.22306032829E+02 -0.19650227769E+02 -0.80432237513E+02  0.85878550194E+02  0.47000000000E+01 0. -1.
        -13    1    6    6    0    0  0.38048991451E+02  0.56941015512E+02 -0.19193208373E+02  0.71122318899E+02  0.00000000000E+00 0.  1.
         14    1    6    6    0    0 -0.26521523683E+02  0.10155008003E+02  0.18173680595E+02  0.33716436235E+02  0.00000000000E+00 0. -1.
         -5    1    3    3    0  503  0.27208769690E+02 -0.35744967774E+02  0.52643094445E+01  0.45473319904E+02  0.47000000000E+01 0.  1.
         13    1    4    4    0    0  0.14903985129E+02  0.20715741217E+02 -0.14302963359E+03  0.14528849504E+03  0.00000000000E+00 0. -1.
        -14    1    4    4    0    0 -0.31334189758E+02 -0.32416569189E+02 -0.74261957857E+02  0.86876370726E+02  0.00000000000E+00 0.  1.
</event>
<event>
12    1  0.9962621E-001  0.2055537E+03  0.7818608E-02  0.1145466E+00
         21   -1    0    0  501  502  0.00000000000E+00  0.00000000000E+00  0.69646440206E+03  0.69646440206E+03  0.00000000000E+00 0. -1.
         21   -1    0    0  502  503 -0.00000000000E+00 -0.00000000000E+00 -0.14673164688E+03  0.14673164688E+03  0.00000000000E+00 0. -1.
         -6    2    1    2    0  503  0.11074318103E+03 -0.27345469595E+02  0.59819780931E+03  0.63200611280E+03  0.16905407626E+03 0.  0.
        -24    2    3    3    0    0  0.44823509957E+02  0.43607211334E+02  0.23099198387E+03  0.25221420372E+03  0.79649055364E+02 0.  0.
          6    2    1    2  501    0 -0.11074318103E+03  0.27345469595E+02 -0.48465054122E+02  0.21118993614E+03  0.17099854036E+03 0.  0.
         24    2    5    5    0    0 -0.14958721092E+02 -0.36477222361E+02 -0.22437734291E+02  0.93090358874E+02  0.81289678972E+02 0.  0.
          5    1    5    5  501    0 -0.95784459937E+02  0.63822691956E+02 -0.26027319830E+02  0.11809957727E+03  0.47000000000E+01 0. -1.
        -13    1    6    6    0    0 -0.62611412960E+01  0.10992553518E+01  0.28498416959E+02  0.29198801719E+02  0.00000000000E+00 0.  1.
         14    1    6    6    0    0 -0.86975797959E+01 -0.37576477713E+02 -0.50936151250E+02  0.63891557156E+02  0.00000000000E+00 0. -1.
         -5    1    3    3    0  503  0.65919671072E+02 -0.70952680929E+02  0.36720582544E+03  0.37979190908E+03  0.47000000000E+01 0.  1.
         13    1    4    4    0    0 -0.18856707865E+00 -0.63184749136E+01  0.13431710847E+03  0.13446577375E+03  0.00000000000E+00 0. -1.
        -14    1    4    4    0    0  0.45012077036E+02  0.49925686248E+02  0.96674875400E+02  0.11774842997E+03  0.00000000000E+00 0.  1.
</event>
<event>
12    1  0.9962621E-001  0.1841700E+03  0.7818608E-02  0.1167522E+00
         21   -1    0    0  501  502  0.00000000000E+00  0.00000000000E+00  0.80822368356E+02  0.80822368356E+02  0.00000000000E+00 0. -1.
         21   -1    0    0  502  503 -0.00000000000E+00 -0.00000000000E+00 -0.39256589129E+03  0.39256589129E+03  0.00000000000E+00 0. -1.
         -6    2    1    2    0  503  0.62990927417E+02  0.22745196502E+02 -0.19273163512E+03  0.26657848438E+03  0.17156166313E+03 0.  0.
        -24    2    3    3    0    0  0.25545696918E+02 -0.49126109012E+02 -0.70363473443E+02  0.11973269167E+03  0.79491772169E+02 0.  0.
          6    2    1    2  501    0 -0.62990927417E+02 -0.22745196502E+02 -0.11901188782E+03  0.20680977527E+03  0.15531018255E+03 0.  0.
         24    2    5    5    0    0  0.78911774100E+01 -0.46922157331E+02 -0.44937410057E+02  0.10136824420E+03  0.77409240916E+02 0.  0.
          5    1    5    5  501    0 -0.70882104828E+02  0.24176960829E+02 -0.74074477761E+02  0.10544153107E+03  0.47000000000E+01 0. -1.
        -11    1    6    6    0    0  0.47853198121E+01  0.91076482151E+01 -0.44060332825E+02  0.45245568516E+02  0.00000000000E+00 0.  1.
         12    1    6    6    0    0  0.31058575980E+01 -0.56029805546E+02 -0.87707723185E+00  0.56122675679E+02  0.00000000000E+00 0. -1.
         -5    1    3    3    0  503  0.37445230499E+02  0.71871305514E+02 -0.12236816168E+03  0.14684579271E+03  0.47000000000E+01 0.  1.
         11    1    4    4    0    0  0.40853852902E+02 -0.58673604332E+02 -0.72185953544E+02  0.10159941452E+03  0.00000000000E+00 0. -1.
        -12    1    4    4    0    0 -0.15308155983E+02  0.95474953199E+01  0.18224801016E+01  0.18133277150E+02  0.00000000000E+00 0.  1.
</event>
<event>
12    1  0.9962621E-001  0.2175537E+03  0.7818608E-02  0.1135840E+00
         21   -1    0    0  501  502  0.00000000000E+00  0.00000000000E+00  0.19603918635E+03  0.19603918635E+03  0.00000000000E+00 0. -1.
         21   -1    0    0  502  503 -0.00000000000E+00 -0.00000000000E+00 -0.38193763339E+03  0.38193763339E+03  0.00000000000E+00 0. -1.
         -6    2    1    2    0  503 -0.11192667817E+03  0.69426990098E+02 -0.26875503468E+03  0.34577288474E+03  0.17315291194E+03 0.  0.
        -24    2    3    3    0    0 -0.38103340081E+02  0.87468680493E+02 -0.22855977839E+03  0.25967331176E+03  0.78025777477E+02 0.  0.
          6    2    1    2  501    0  0.11192667817E+03 -0.69426990098E+02  0.82856587643E+02  0.23220393500E+03  0.17235360476E+03 0.  0.
         24    2    5    5    0    0  0.35765541997E+02 -0.35551643154E+02  0.11046564058E+03  0.14426982559E+03  0.77897570582E+02 0.  0.
          5    1    5    5  501    0  0.76161136172E+02 -0.33875346944E+02 -0.27609052934E+02  0.87934109409E+02  0.47000000000E+01 0. -1.
        -11    1    6    6    0    0  0.30492743704E+02 -0.19730692885E+02  0.40377048559E+01  0.36543271895E+02  0.00000000000E+00 0.  1.
         12    1    6    6    0    0  0.52727982931E+01 -0.15820950269E+02  0.10642793572E+03  0.10772655370E+03  0.00000000000E+00 0. -1.
         -5    1    3    3    0  503 -0.73823338088E+02 -0.18041690395E+02 -0.40195256296E+02  0.86099572981E+02  0.47000000000E+01 0.  1.
         11    1    4    4    0    0  0.11473834213E+02 -0.88494845831E+01 -0.20536720963E+02  0.25134023889E+02  0.00000000000E+00 0. -1.
        -12    1    4    4    0    0 -0.49577174294E+02  0.96318165076E+02 -0.20802305742E+03  0.23453928787E+03  0.00000000000E+00 0.  1.
</event>
<event>
12    1  0.9962621E-001  0.4100265E+03  0.7818608E-02  0.1040466E+00
         21   -1    0    0  503  502  0.00000000000E+00  0.00000000000E+00  0.62853441993E+03  0.62853441993E+03  0.00000000000E+00 0.  1.
         21   -1    0    0  501  503 -0.00000000000E+00 -0.00000000000E+00 -0.27428660535E+03  0.27428660535E+03  0.00000000000E+00 0.  1.
          6    2    1    2  501    0 -0.32620939770E+03 -0.17671408449E+03  0.10165684304E+03  0.42123620281E+03  0.17165484561E+03 0.  0.
         24    2    3    3    0    0 -0.14808381564E+03 -0.14792600047E+02  0.35494737203E+02  0.17154278208E+03  0.77584871244E+02 0.  0.
         -6    2    1    2    0  502  0.32620939770E+03  0.17671408449E+03  0.25259097154E+03  0.48158482247E+03  0.17458895592E+03 0.  0.
        -24    2    5    5    0    0  0.23376034599E+03  0.55899395258E+02  0.19175188211E+03  0.31767478282E+03  0.79873910642E+02 0.  0.
          5    1    3    3  501    0 -0.17812558206E+03 -0.16192148444E+03  0.66162105833E+02  0.24969342073E+03  0.47000000000E+01 0. -1.
        -13    1    4    4    0    0 -0.12332031989E+03 -0.42653130851E+02  0.25585876931E+02  0.13297303474E+03  0.00000000000E+00 0.  1.
         14    1    4    4    0    0 -0.24763495743E+02  0.27860530804E+02  0.99088602716E+01  0.38569747341E+02  0.00000000000E+00 0. -1.
         -5    1    5    5    0  502  0.92449051709E+02  0.12081468923E+03  0.60839089437E+02  0.16391003965E+03  0.47000000000E+01 0.  1.
         11    1    6    6    0    0  0.15822626299E+03  0.73580774864E+02  0.11811630411E+03  0.21071578495E+03  0.00000000000E+00 0. -1.
        -12    1    6    6    0    0  0.75534083001E+02 -0.17681379605E+02  0.73635577991E+02  0.10695899787E+03  0.00000000000E+00 0.  1.
</event>
<event>
12    1  0.9962621E-001  0.9115958E+03  0.7818608E-02  0.9411233E-01
         21   -1    0    0  501  502  0.00000000000E+00  0.00000000000E+00  0.34914159637E+04  0.34914159637E+04  0.00000000000E+00 0.  1.
         21   -1    0    0  502  503 -0.00000000000E+00 -0.00000000000E+00 -0.23868599956E+03  0.23868599956E+03  0.00000000000E+00 0.  1.
         -6    2    1    2    0  503 -0.88479199907E+03 -0.13754243738E+03  0.17271941909E+04  0.19529508082E+04  0.17041796485E+03 0.  0.
        -24    2    3    3    0    0 -0.69879935589E+03 -0.67391485357E+02  0.12477851832E+04  0.14339426137E+04  0.79758409115E+02 0.  0.
          6    2    1    2  501    0  0.88479199907E+03  0.13754243738E+03  0.15255357732E+04  0.17771511550E+04  0.17097376569E+03 0.  0.
         24    2    5    5    0    0  0.45865500220E+03  0.13553411787E+03  0.80455970977E+03  0.93963975355E+03  0.82901337224E+02 0.  0.
          5    1    5    5  501    0  0.42613699686E+03  0.20083195026E+01  0.72097606346E+03  0.83751140143E+03  0.47000000000E+01 0. -1.
        -11    1    6    6    0    0  0.31108878432E+03  0.79619027498E+02  0.60783431097E+03  0.68744306736E+03  0.00000000000E+00 0.  1.
         12    1    6    6    0    0  0.14756621789E+03  0.55915090377E+02  0.19672539880E+03  0.25219668619E+03  0.00000000000E+00 0. -1.
         -5    1    3    3    0  503 -0.18599264318E+03 -0.70150952020E+02  0.47940900770E+03  0.51900819459E+03  0.47000000000E+01 0.  1.
         11    1    4    4    0    0 -0.45790382510E+03 -0.63691997117E+02  0.75251970651E+03  0.88318655573E+03  0.00000000000E+00 0. -1.
        -12    1    4    4    0    0 -0.24089553079E+03 -0.36994882401E+01  0.49526547667E+03  0.55075605793E+03  0.00000000000E+00 0.  1.
</event>
<event>
12    1  0.9962621E-001  0.2438842E+03  0.7818608E-02  0.1117577E+00
         21   -1    0    0  501  502  0.00000000000E+00  0.00000000000E+00  0.27814351054E+03  0.27814351054E+03  0.00000000000E+00 0.  1.
         21   -1    0    0  502  503 -0.00000000000E+00 -0.00000000000E+00 -0.29548282783E+03  0.29548282783E+03  0.00000000000E+00 0.  1.
         -6    2    1    2    0  503 -0.35987149346E+02  0.16840554572E+03  0.14375076288E+03  0.28309673817E+03  0.17269620316E+03 0.  0.
        -24    2    3    3    0    0  0.28915676378E+02  0.13197771703E+03  0.13669317331E+03  0.20818837375E+03  0.80019630103E+02 0.  0.
          6    2    1    2  501    0  0.35987149346E+02 -0.16840554572E+03 -0.16109008018E+03  0.29052960020E+03  0.16971131933E+03 0.  0.
         24    2    5    5    0    0 -0.44706457369E+02 -0.75999853251E+02 -0.75300730022E+02  0.14075586162E+03  0.79795786949E+02 0.  0.
          5    1    5    5  501    0  0.80693606715E+02 -0.92405692471E+02 -0.85789350156E+02  0.14977373857E+03  0.47000000000E+01 0. -1.
        -11    1    6    6    0    0 -0.29257368757E+02 -0.24790868970E+02  0.10399527270E+02  0.39733247770E+02  0.00000000000E+00 0.  1.
         12    1    6    6    0    0 -0.15449088612E+02 -0.51208984280E+02 -0.85700257291E+02  0.10102261385E+03  0.00000000000E+00 0. -1.
         -5    1    3    3    0  503 -0.64902825724E+02  0.36427828692E+02  0.70575895776E+01  0.74908364425E+02  0.47000000000E+01 0.  1.
         11    1    4    4    0    0  0.40621104415E+02  0.62925166378E+02  0.11033585748E+03  0.13335536034E+03  0.00000000000E+00 0. -1.
        -12    1    4    4    0    0 -0.11705428037E+02  0.69052550652E+02  0.26357315830E+02  0.74833013402E+02  0.00000000000E+00 0.  1.
</event>
<event>
12    1  0.9962621E-001  0.2301676E+03  0.7818608E-02  0.1126527E+00
         21   -1    0    0  503  502  0.00000000000E+00  0.00000000000E+00  0.11677356728E+03  0.11677356728E+03  0.00000000000E+00 0. -1.
         21   -1    0    0  501  503 -0.00000000000E+00 -0.00000000000E+00 -0.46265449320E+03  0.46265449320E+03  0.00000000000E+00 0. -1.
          6    2    1    2  501    0 -0.40219501789E+01 -0.15287378434E+03 -0.13244564168E+03  0.26553036758E+03  0.17198243539E+03 0.  0.
         24    2    3    3    0    0  0.11437210282E+02 -0.16958920907E+03 -0.14639054848E+03  0.23842056323E+03  0.80764241298E+02 0.  0.
         -6    2    1    2    0  502  0.40219501789E+01  0.15287378434E+03 -0.21343528424E+03  0.31389769290E+03  0.17201910077E+03 0.  0.
        -24    2    5    5    0    0  0.20560435316E+02  0.48108791475E+02 -0.25954896440E+02  0.98444192048E+02  0.79249069276E+02 0.  0.
          5    1    3    3  501    0 -0.15459160461E+02  0.16715424733E+02  0.13944906801E+02  0.27109804350E+02  0.47000000000E+01 0. -1.
        -13    1    4    4    0    0  0.26408376444E+01 -0.12322951566E+03 -0.53776056051E+02  0.13447807166E+03  0.00000000000E+00 0.  1.
         14    1    4    4    0    0  0.87963726380E+01 -0.46359693410E+02 -0.92614492428E+02  0.10394249156E+03  0.00000000000E+00 0. -1.
         -5    1    5    5    0  502 -0.16538485137E+02  0.10476499287E+03 -0.18748038780E+03  0.21545350086E+03  0.47000000000E+01 0.  1.
         11    1    6    6    0    0  0.39633177357E+02  0.54861436459E+02 -0.28602692944E+01  0.67740291542E+02  0.00000000000E+00 0. -1.
        -12    1    6    6    0    0 -0.19072742041E+02 -0.67526449836E+01 -0.23094627146E+02  0.30703900506E+02  0.00000000000E+00 0.  1.
</event>
<event>
12    1  0.9962621E-001  0.2307458E+03  0.7818608E-02  0.1128306E+00
         21   -1    0    0  501  502  0.00000000000E+00  0.00000000000E+00  0.12616040037E+03  0.12616040037E+03  0.00000000000E+00 0. -1.
         21   -1    0    0  502  503 -0.00000000000E+00 -0.00000000000E+00 -0.40593257950E+03  0.40593257950E+03  0.00000000000E+00 0. -1.
         -6    2    1    2    0  503  0.82782995032E+02  0.12666592979E+03 -0.16800531504E+03  0.27570369276E+03  0.15776393215E+03 0.  0.
        -24    2    3    3    0    0  0.30675009952E+02  0.19277010311E+02 -0.11135700656E+03  0.14349649557E+03  0.82935528995E+02 0.  0.
          6    2    1    2  501    0 -0.82782995032E+02 -0.12666592979E+03 -0.11176686409E+03  0.25638928711E+03  0.17420204534E+03 0.  0.
         24    2    5    5    0    0 -0.10769165390E+03 -0.14510463036E+03 -0.10875804488E+03  0.22490008326E+03  0.78095384333E+02 0.  0.
          5    1    5    5  501    0  0.24908658868E+02  0.18438700576E+02 -0.30088192102E+01  0.31489203842E+02  0.47000000000E+01 0. -1.
        -11    1    6    6    0    0 -0.80253722334E+02 -0.55149002747E+02 -0.29043935479E+02  0.10161507093E+03  0.00000000000E+00 0.  1.
         12    1    6    6    0    0 -0.27437931566E+02 -0.89955627616E+02 -0.79714109398E+02  0.12328501233E+03  0.00000000000E+00 0. -1.
         -5    1    3    3    0  503  0.52107985080E+02  0.10738891948E+03 -0.56648308479E+02  0.13220719719E+03  0.47000000000E+01 0.  1.
         11    1    4    4    0    0  0.18277148809E+02  0.17386527298E+02 -0.12349398012E+03  0.12604407414E+03  0.00000000000E+00 0. -1.
        -12    1    4    4    0    0  0.12397861143E+02  0.18904830127E+01  0.12136973555E+02  0.17452421437E+02  0.00000000000E+00 0.  1.
</event>
<event>
12    1  0.9962621E-001  0.2744900E+03  0.7818608E-02  0.1098799E+00
         21   -1    0    0  503  502  0.00000000000E+00  0.00000000000E+00  0.80419081949E+02  0.80419081949E+02  0.00000000000E+00 0. -1.
         21   -1    0    0  501  503 -0.00000000000E+00 -0.00000000000E+00 -0.16623633100E+04  0.16623633100E+04  0.00000000000E+00 0.  1.
          6    2    1    2  501    0  0.18881388455E+03  0.99302925624E+02 -0.21436762675E+03  0.34793096357E+03  0.17201953952E+03 0.  0.
         24    2    3    3    0    0  0.15955162310E+03  0.82550442304E+02 -0.23635630506E+03  0.30740297797E+03  0.79755827133E+02 0.  0.
         -6    2    1    2    0  502 -0.18881388455E+03 -0.99302925624E+02 -0.13675766013E+04  0.13948514284E+04  0.17272229960E+03 0.  0.
        -24    2    5    5    0    0 -0.19449490927E+03 -0.12691681569E+03 -0.12259932010E+04  0.12504119940E+04  0.80837355029E+02 0.  0.
          5    1    3    3  501    0  0.29262261452E+02  0.16752483319E+02  0.21988678319E+02  0.40527985601E+02  0.47000000000E+01 0. -1.
        -13    1    4    4    0    0  0.70167189748E+02  0.44945313563E+02 -0.17170023645E+03  0.19085200267E+03  0.00000000000E+00 0.  1.
         14    1    4    4    0    0  0.89384433349E+02  0.37605128741E+02 -0.64656068616E+02  0.11655097529E+03  0.00000000000E+00 0. -1.
         -5    1    5    5    0  502  0.56810247154E+01  0.27613890065E+02 -0.14158340029E+03  0.14443943438E+03  0.47000000000E+01 0.  1.
         13    1    6    6    0    0 -0.18520189535E+02 -0.32745934119E+02 -0.99504451081E+02  0.10637870749E+03  0.00000000000E+00 0. -1.
        -14    1    6    6    0    0 -0.17597471973E+03 -0.94170881569E+02 -0.11264887499E+04  0.11440332865E+04  0.00000000000E+00 0.  1.
</event>
<event>
12    1  0.9962621E-001  0.1763124E+03  0.7818608E-02  0.1171775E+00
         21   -1    0    0  501  502  0.00000000000E+00  0.00000000000E+00  0.76439795197E+02  0.76439795197E+02  0.00000000000E+00 0.  1.
         21   -1    0    0  502  503 -0.00000000000E+00 -0.00000000000E+00 -0.45882040002E+03  0.45882040002E+03  0.00000000000E+00 0.  1.
         -6    2    1    2    0  503  0.32715510441E+02  0.24396417494E+02 -0.98861973378E+02  0.20213797122E+03  0.17152428347E+03 0.  0.
        -24    2    3    3    0    0  0.58599507260E+02  0.57643996912E+02 -0.25803600003E+02  0.11766904943E+03  0.80146408461E+02 0.  0.
          6    2    1    2  501    0 -0.32715510441E+02 -0.24396417494E+02 -0.28351863144E+03  0.33312222400E+03  0.17006502267E+03 0.  0.
         24    2    5    5    0    0 -0.50910543742E+02 -0.64249715856E+02 -0.12626284873E+03  0.16981020416E+03  0.78570280734E+02 0.  0.
          5    1    5    5  501    0  0.18195033301E+02  0.39853298362E+02 -0.15725578271E+03  0.16331201984E+03  0.47000000000E+01 0. -1.
        -13    1    6    6    0    0  0.86412801481E+01 -0.12914779454E+02 -0.73496743148E+02  0.75121465004E+02  0.00000000000E+00 0.  1.
         14    1    6    6    0    0 -0.59551823890E+02 -0.51334936402E+02 -0.52766105583E+02  0.94688739154E+02  0.00000000000E+00 0. -1.
         -5    1    3    3    0  503 -0.25883996818E+02 -0.33247579418E+02 -0.73058373374E+02  0.84468921791E+02  0.47000000000E+01 0.  1.
         13    1    4    4    0    0  0.10799256053E+02  0.13424100227E+02 -0.46300448404E+02  0.49402043689E+02  0.00000000000E+00 0. -1.
        -14    1    4    4    0    0  0.47800251207E+02  0.44219896685E+02  0.20496848401E+02  0.68267005740E+02  0.00000000000E+00 0.  1.
</event>
<event>
12    1  0.9962621E-001  0.1861114E+03  0.7818608E-02  0.1163145E+00
         21   -1    0    0  501  502  0.00000000000E+00  0.00000000000E+00  0.60735471296E+02  0.60735471296E+02  0.00000000000E+00 0. -1.
         21   -1    0    0  502  503 -0.00000000000E+00 -0.00000000000E+00 -0.80185314403E+03  0.80185314403E+03  0.00000000000E+00 0. -1.
         -6    2    1    2    0  503 -0.70143063310E+02  0.19277482455E+02 -0.12823837242E+03  0.22207438396E+03  0.16607312001E+03 0.  0.
        -24    2    3    3    0    0 -0.48610802614E+02  0.60765479540E+02 -0.34957267880E+02  0.11763135347E+03  0.80991796543E+02 0.  0.
          6    2    1    2  501    0  0.70143063310E+02 -0.19277482455E+02 -0.61287930031E+03  0.64051423137E+03  0.17130608037E+03 0.  0.
         24    2    5    5    0    0  0.48217213312E+02  0.17851731216E+02 -0.57511103401E+03  0.58300029092E+03  0.80579487526E+02 0.  0.
          5    1    5    5  501    0  0.21925849998E+02 -0.37129213671E+02 -0.37768266303E+02  0.57513940445E+02  0.47000000000E+01 0. -1.
        -11    1    6    6    0    0  0.98249591074E+01 -0.30695991019E+02 -0.24796053906E+03  0.25004640093E+03  0.00000000000E+00 0.  1.
         12    1    6    6    0    0  0.38392254204E+02  0.48547722235E+02 -0.32715049495E+03  0.33295388999E+03  0.00000000000E+00 0. -1.
         -5    1    3    3    0  503 -0.21532260697E+02 -0.41487997085E+02 -0.93281104544E+02  0.10444303049E+03  0.47000000000E+01 0.  1.
         13    1    4    4    0    0 -0.18190718939E+02  0.24863160591E+02 -0.57667726957E+02  0.65380775022E+02  0.00000000000E+00 0. -1.
        -14    1    4    4    0    0 -0.30420083675E+02  0.35902318949E+02  0.22710459077E+02  0.52250578448E+02  0.00000000000E+00 0.  1.
</event>
<event>
12    1  0.9962621E-001  0.3100337E+03  0.7818608E-02  0.1080373E+00
         21   -1    0    0  501  502  0.00000000000E+00  0.00000000000E+00  0.23528146379E+03  0.23528146379E+03  0.00000000000E+00 0.  1.
         21   -1    0    0  502  503 -0.00000000000E+00 -0.00000000000E+00 -0.46088695867E+03  0.46088695867E+03  0.00000000000E+00 0. -1.
         -6    2    1    2    0  503  0.25567023410E+03 -0.26870515445E+02  0.49854299798E+01  0.31007373432E+03  0.17329620018E+03 0.  0.
        -24    2    3    3    0    0  0.24354836464E+03  0.18769787668E+02  0.25180326833E+02  0.25849950775E+03  0.80745500162E+02 0.  0.
          6    2    1    2  501    0 -0.25567023410E+03  0.26870515445E+02 -0.23059092486E+03  0.38609468814E+03  0.17264889337E+03 0.  0.
         24    2    5    5    0    0 -0.15081619936E+03 -0.26698614746E+02 -0.68903638645E+02  0.18602247909E+03  0.79989432377E+02 0.  0.
          5    1    5    5  501    0 -0.10485403474E+03  0.53569130191E+02 -0.16168728622E+03  0.20007220905E+03  0.47000000000E+01 0. -1.
        -11    1    6    6    0    0 -0.28152570110E+02 -0.35495325021E+02 -0.51492143594E+00  0.45307289107E+02  0.00000000000E+00 0.  1.
         12    1    6    6    0    0 -0.12266362925E+03  0.87967102751E+01 -0.68388717209E+02  0.14071518999E+03  0.00000000000E+00 0. -1.
         -5    1    3    3    0  503  0.12121869453E+02 -0.45640303113E+02 -0.20194896853E+02  0.51574226569E+02  0.47000000000E+01 0.  1.
         13    1    4    4    0    0  0.64359829055E+02  0.41249631788E+02  0.24709584141E+01  0.76484151000E+02  0.00000000000E+00 0. -1.
        -14    1    4    4    0    0  0.17918853559E+03 -0.22479844120E+02  0.22709368419E+02  0.18201535675E+03  0.00000000000E+00 0.  1.
</event>
<event>
12    1  0.9962621E-001  0.3193348E+03  0.7818608E-02  0.1076048E+00
         21   -1    0    0  501  502  0.00000000000E+00  0.00000000000E+00  0.26883784956E+03  0.26883784956E+03  0.00000000000E+00 0. -1.
         21   -1    0    0  502  503 -0.00000000000E+00 -0.00000000000E+00 -0.38294437708E+03  0.38294437708E+03  0.00000000000E+00 0.  1.
         -6    2    1    2    0  503  0.20532136795E+03  0.17542257832E+03 -0.92601243411E+02  0.33172411162E+03  0.16892587377E+03 0.  0.
        -24    2    3    3    0    0  0.17255819830E+03  0.16141530460E+03 -0.19636589137E+02  0.25038802015E+03  0.80481877730E+02 0.  0.
          6    2    1    2  501    0 -0.20532136795E+03 -0.17542257832E+03 -0.21505284108E+02  0.32005811501E+03  0.17042527577E+03 0.  0.
         24    2    5    5    0    0 -0.14720277251E+03 -0.14046906491E+03 -0.77013040996E+02  0.23229297210E+03  0.81417454966E+02 0.  0.
          5    1    5    5  501    0 -0.58118595448E+02 -0.34953513409E+02  0.55507756888E+02  0.87765142917E+02  0.47000000000E+01 0. -1.
        -13    1    6    6    0    0 -0.98334369013E+02 -0.13898981217E+03 -0.60567441367E+02  0.18071035103E+03  0.00000000000E+00 0.  1.
         14    1    6    6    0    0 -0.48868403493E+02 -0.14792527337E+01 -0.16445599629E+02  0.51582621064E+02  0.00000000000E+00 0. -1.
         -5    1    3    3    0  503  0.32763169651E+02  0.14007273717E+02 -0.72964654273E+02  0.81336091471E+02  0.47000000000E+01 0.  1.
         13    1    4    4    0    0 -0.82890627434E+01  0.12103581327E+02  0.22798710298E+01  0.14845977705E+02  0.00000000000E+00 0. -1.
        -14    1    4    4    0    0  0.18084726105E+03  0.14931172327E+03 -0.21916460167E+02  0.23554204245E+03  0.00000000000E+00 0.  1.
</event>
<event>
12    1  0.9962621E-001  0.1828631E+03  0.7818608E-02  0.1165377E+00
         21   -1    0    0  501  502  0.00000000000E+00  0.00000000000E+00  0.67398111480E+02  0.67398111480E+02  0.00000000000E+00 0. -1.
         21   -1    0    0  502  503 -0.00000000000E+00 -0.00000000000E+00 -0.62401077296E+03  0.62401077296E+03  0.00000000000E+00 0. -1.
         -6    2    1    2    0  503 -0.25848726454E+02 -0.48362412336E+02 -0.11882774690E+03  0.21696759819E+03  0.17305440083E+03 0.  0.
        -24    2    3    3    0    0 -0.75358117455E+02 -0.63030489022E+02 -0.99935954322E+02  0.16178316109E+03  0.80838776797E+02 0.  0.
          6    2    1    2  501    0  0.25848726454E+02  0.48362412336E+02 -0.43778491458E+03  0.47444128625E+03  0.17444719280E+03 0.  0.
         24    2    5    5    0    0 -0.59363593135E+01  0.79815110003E+02 -0.18313512608E+03  0.21585248399E+03  0.81536055183E+02 0.  0.
          5    1    5    5  501    0  0.31785085767E+02 -0.31452697667E+02 -0.25464978850E+03  0.25858880226E+03  0.47000000000E+01 0. -1.
        -11    1    6    6    0    0  0.16542557126E+02  0.77748800069E+02 -0.90254509616E+02  0.12026806980E+03  0.00000000000E+00 0.  1.
         12    1    6    6    0    0 -0.22478916440E+02  0.20663099338E+01 -0.92880616460E+02  0.95584414185E+02  0.00000000000E+00 0. -1.
         -5    1    3    3    0  503  0.49509391001E+02  0.14668076686E+02 -0.18891792573E+02  0.55184437096E+02  0.47000000000E+01 0.  1.
         13    1    4    4    0    0  0.12524181415E+02 -0.30978922409E+02 -0.21784769067E+02  0.39888907193E+02  0.00000000000E+00 0. -1.
        -14    1    4    4    0    0 -0.87882298869E+02 -0.32051566612E+02 -0.78151185255E+02  0.12189425390E+03  0.00000000000E+00 0.  1.
</event>
<event>
12    1  0.9962621E-001  0.3027889E+03  0.7818608E-02  0.1083986E+00
         21   -1    0    0  503  502  0.00000000000E+00  0.00000000000E+00  0.53144016306E+02  0.53144016306E+02  0.00000000000E+00 0.  1.
         21   -1    0    0  501  503 -0.00000000000E+00 -0.00000000000E+00 -0.19232133076E+04  0.19232133076E+04  0.00000000000E+00 0. -1.
          6    2    1    2  501    0 -0.19844995198E+03 -0.14927460589E+03 -0.12554831825E+04  0.12912316183E+04  0.17139363790E+03 0.  0.
         24    2    3    3    0    0 -0.39656321421E+02 -0.52154650712E+02 -0.64103288069E+03  0.64918881115E+03  0.78931786861E+02 0.  0.
         -6    2    1    2    0  502  0.19844995198E+03  0.14927460589E+03 -0.61458610875E+03  0.68512570558E+03  0.17325084696E+03 0.  0.
        -24    2    5    5    0    0  0.17846673747E+03  0.11156191305E+03 -0.59824226902E+03  0.63918240181E+03  0.79774015315E+02 0.  0.
          5    1    3    3  501    0 -0.15879363056E+03 -0.97119955181E+02 -0.61445030185E+03  0.64204280718E+03  0.47000000000E+01 0. -1.
        -13    1    4    4    0    0 -0.32684498236E+02 -0.13588409452E+02 -0.89206896660E+02  0.95972869646E+02  0.00000000000E+00 0.  1.
         14    1    4    4    0    0 -0.69718231852E+01 -0.38566241260E+02 -0.55182598403E+03  0.55321594151E+03  0.00000000000E+00 0. -1.
         -5    1    5    5    0  502  0.19983214512E+02  0.37712692844E+02 -0.16343839730E+02  0.45943303766E+02  0.47000000000E+01 0.  1.
         11    1    6    6    0    0  0.77393627555E+02  0.72407121043E+02 -0.39344491912E+03  0.40746959291E+03  0.00000000000E+00 0. -1.
        -12    1    6    6    0    0  0.10107310991E+03  0.39154792005E+02 -0.20479734990E+03  0.23171280891E+03  0.00000000000E+00 0.  1.
</event>
<event>
12    1  0.9962621E-001  0.1769428E+03  0.7818608E-02  0.1170814E+00
         21   -1    0    0  503  502  0.00000000000E+00  0.00000000000E+00  0.87647654594E+02  0.87647654594E+02  0.00000000000E+00 0.  1.
         21   -1    0    0  501  503 -0.00000000000E+00 -0.00000000000E+00 -0.39274731217E+03  0.39274731217E+03  0.00000000000E+00 0.  1.
          6    2    1    2  501    0  0.38444002101E+02 -0.59624225673E+01 -0.80114619758E+02  0.19416598638E+03  0.17253575336E+03 0.  0.
         24    2    3    3    0    0  0.10805872211E+01 -0.64198269271E+02 -0.69959403884E+02  0.12407563738E+03  0.79861506083E+02 0.  0.
         -6    2    1    2    0  502 -0.38444002101E+02  0.59624225673E+01 -0.22498503782E+03  0.28622898039E+03  0.17261306495E+03 0.  0.
        -24    2    5    5    0    0 -0.16623931359E+02  0.17230782114E+02 -0.24534585078E+03  0.25398391691E+03  0.61155446254E+02 0.  0.
          5    1    3    3  501    0  0.37363414880E+02  0.58235846703E+02 -0.10155215874E+02  0.70090348995E+02  0.47000000000E+01 0. -1.
        -13    1    4    4    0    0  0.13522372818E+02  0.79663228536E+01 -0.43446918219E+02  0.46194713650E+02  0.00000000000E+00 0.  1.
         14    1    4    4    0    0 -0.12441785597E+02 -0.72164592124E+02 -0.26512485665E+02  0.77880923733E+02  0.00000000000E+00 0. -1.
         -5    1    5    5    0  502 -0.21820070742E+02 -0.11268359547E+02  0.20360812965E+02  0.32245063477E+02  0.47000000000E+01 0.  1.
         11    1    6    6    0    0 -0.39482878234E+02  0.54420764446E+01 -0.15585794660E+03  0.16087328363E+03  0.00000000000E+00 0. -1.
        -12    1    6    6    0    0  0.22858946874E+02  0.11788705669E+02 -0.89487904187E+02  0.93110633278E+02  0.00000000000E+00 0.  1.
</event>
<event>
12    1  0.9962621E-001  0.1833716E+03  0.7818608E-02  0.1164884E+00
         21   -1    0    0  503  502  0.00000000000E+00  0.00000000000E+00  0.17999645882E+03  0.17999645882E+03  0.00000000000E+00 0. -1.
         21   -1    0    0  501  503 -0.00000000000E+00 -0.00000000000E+00 -0.18762992367E+03  0.18762992367E+03  0.00000000000E+00 0. -1.
          6    2    1    2  501    0  0.55529622867E+01  0.62569139797E+02 -0.23395242410E+02  0.18485795548E+03  0.17227708406E+03 0.  0.
         24    2    3    3    0    0  0.18747634041E+02  0.72764038649E+02 -0.73954059329E+02  0.13141341139E+03  0.78448726563E+02 0.  0.
         -6    2    1    2    0  502 -0.55529622867E+01 -0.62569139797E+02  0.15761777560E+02  0.18276842700E+03  0.17090971778E+03 0.  0.
        -24    2    5    5    0    0 -0.55374553564E+02 -0.83144205518E+02  0.96805024254E+01  0.12832032149E+03  0.79956817633E+02 0.  0.
          5    1    3    3  501    0 -0.13194671754E+02 -0.10194898852E+02  0.50558816919E+02  0.53444544095E+02  0.47000000000E+01 0. -1.
        -11    1    4    4    0    0  0.35348655147E+02  0.64869096894E+01 -0.87945200553E+01  0.36999337846E+02  0.00000000000E+00 0.  1.
         12    1    4    4    0    0 -0.16601021106E+02  0.66277128959E+02 -0.65159539273E+02  0.94414073544E+02  0.00000000000E+00 0. -1.
         -5    1    5    5    0  502  0.49821591277E+02  0.20575065721E+02  0.60812751345E+01  0.54448105514E+02  0.47000000000E+01 0.  1.
         11    1    6    6    0    0 -0.10278540642E+02  0.65689677234E+01  0.23973478615E+02  0.26898464855E+02  0.00000000000E+00 0. -1.
        -12    1    6    6    0    0 -0.45096012922E+02 -0.89713173241E+02 -0.14292976189E+02  0.10142185663E+03  0.00000000000E+00 0.  1.
</event>
<event>
12    1  0.9962621E-001  0.1685840E+03  0.7818608E-02  0.1179497E+00
         21   -1    0    0  501  502  0.00000000000E+00  0.00000000000E+00  0.31614015353E+03  0.31614015353E+03  0.00000000000E+00 0.  1.
         21   -1    0    0  502  503 -0.00000000000E+00 -0.00000000000E+00 -0.12478583795E+03  0.12478583795E+03  0.00000000000E+00 0.  1.
         -6    2    1    2    0  503  0.18239799848E+02  0.34560870896E+02  0.21267341015E+03  0.27099934266E+03  0.16335091136E+03 0.  0.
        -24    2    3    3    0    0 -0.17394218760E+02  0.63744896285E+02  0.19599959537E+03  0.22178962087E+03  0.80055130309E+02 0.  0.
          6    2    1    2  501    0 -0.18239799848E+02 -0.34560870896E+02 -0.21319094568E+02  0.16992664882E+03  0.16399212814E+03 0.  0.
         24    2    5    5    0    0 -0.34842572025E+01 -0.13143858374E+02  0.49162204148E+02  0.94653028393E+02  0.79733132423E+02 0.  0.
          5    1    5    5  501    0 -0.14755542645E+02 -0.21417012522E+02 -0.70481298717E+02  0.75273620432E+02  0.47000000000E+01 0. -1.
        -13    1    6    6    0    0 -0.73773264970E+01 -0.45149269002E+02  0.40911171513E+02  0.61372676268E+02  0.00000000000E+00 0.  1.
         14    1    6    6    0    0  0.38930692944E+01  0.32005410629E+02  0.82510326352E+01  0.33280352125E+02  0.00000000000E+00 0. -1.
         -5    1    3    3    0  503  0.35634018608E+02 -0.29184025389E+02  0.16673814775E+02  0.49209721795E+02  0.47000000000E+01 0.  1.
         11    1    4    4    0    0  0.29502279119E+02  0.24730189542E+02  0.10847370820E+03  0.11510218121E+03  0.00000000000E+00 0. -1.
        -12    1    4    4    0    0 -0.46896497878E+02  0.39014706743E+02  0.87525887171E+02  0.10668743966E+03  0.00000000000E+00 0.  1.
</event>
<event>
12    1  0.1271793E+000  0.5710974E+03  0.7818608E-02  0.9967369E-01
         21   -1    0    0  503  502  0.00000000000E+00  0.00000000000E+00  0.68410106148E+03  0.68410106148E+03  0.00000000000E+00 0.  1.
         21   -1    0    0  501  503 -0.00000000000E+00 -0.00000000000E+00 -0.11910914349E+04  0.11910914349E+04  0.00000000000E+00 0. -1.
          6    2    1    2  501    0  0.34519506748E+03  0.42161887937E+03  0.47270689763E+03  0.74119119468E+03  0.17026585667E+03 0.  0.
         24    2    3    3    0    0  0.55463991422E+02  0.13500842093E+03  0.14856461473E+03  0.22044177232E+03  0.72246814242E+02 0.  0.
         -6    2    1    2    0  502 -0.34519506748E+03 -0.42161887937E+03 -0.97969727106E+03  0.11340013017E+04  0.17096811193E+03 0.  0.
        -24    2    5    5    0    0 -0.77452231894E+02 -0.12660017754E+03 -0.22849562183E+03  0.28367885214E+03  0.78974608422E+02 0.  0.
          5    1    3    3  501    0  0.28973107606E+03  0.28661045844E+03  0.32414228290E+03  0.52074942236E+03  0.47000000000E+01 0. -1.
        -13    1    4    4    0    0  0.13515406575E+01  0.62690483562E+02  0.25274993135E+02  0.67607312248E+02  0.00000000000E+00 0.  1.
         14    1    4    4    0    0  0.54112450765E+02  0.72317937365E+02  0.12328962160E+03  0.15283446008E+03  0.00000000000E+00 0. -1.
         -5    1    5    5    0  502 -0.26774283559E+03 -0.29501870183E+03 -0.75120164923E+03  0.85032244957E+03  0.47000000000E+01 0.  1.
         13    1    6    6    0    0 -0.88584076547E+02 -0.12895631288E+03 -0.21685993654E+03  0.26740437791E+03  0.00000000000E+00 0. -1.
        -14    1    6    6    0    0  0.11131844654E+02  0.23561353418E+01 -0.11635685290E+02  0.16274474226E+02  0.00000000000E+00 0.  1.
</event>
<event>
12    1  0.9962621E-001  0.2340967E+03  0.7818608E-02  0.1124114E+00
         21   -1    0    0  501  502  0.00000000000E+00  0.00000000000E+00  0.29101943091E+03  0.29101943091E+03  0.00000000000E+00 0. -1.
         21   -1    0    0  502  503 -0.00000000000E+00 -0.00000000000E+00 -0.21408804521E+03  0.21408804521E+03  0.00000000000E+00 0. -1.
         -6    2    1    2    0  503  0.15843969931E+03 -0.20503656842E+02  0.12850252939E+03  0.26539755743E+03  0.16852128995E+03 0.  0.
        -24    2    3    3    0    0  0.10423116249E+03  0.10329975588E+02  0.14929454074E+03  0.19949098652E+03  0.80851407999E+02 0.  0.
          6    2    1    2  501    0 -0.15843969931E+03  0.20503656842E+02 -0.51571143691E+02  0.23970991869E+03  0.17110734640E+03 0.  0.
         24    2    5    5    0    0 -0.41118923019E+02  0.36426421729E+02  0.21733345179E+02  0.10037816681E+03  0.81152868404E+02 0.  0.
          5    1    5    5  501    0 -0.11732077629E+03 -0.15922764887E+02 -0.73304488870E+02  0.13933175187E+03  0.47000000000E+01 0. -1.
        -13    1    6    6    0    0 -0.53181176257E+02  0.18869133025E+02 -0.14575984311E+02  0.58281566622E+02  0.00000000000E+00 0.  1.
         14    1    6    6    0    0  0.12062253238E+02  0.17557288704E+02  0.36309329490E+02  0.42096600193E+02  0.00000000000E+00 0. -1.
         -5    1    3    3    0  503  0.54208536820E+02 -0.30833632431E+02 -0.20792011353E+02  0.65906570910E+02  0.47000000000E+01 0.  1.
         13    1    4    4    0    0  0.18850429297E+02 -0.15861350181E+02 -0.10093654678E+01  0.24656437960E+02  0.00000000000E+00 0. -1.
        -14    1    4    4    0    0  0.85380733193E+02  0.26191325769E+02  0.15030390621E+03  0.17483454856E+03  0.00000000000E+00 0.  1.
</event>
<event>
12    1  0.9962621E-001  0.2032911E+03  0.7818608E-02  0.1147055E+00
         21   -1    0    0  501  502  0.00000000000E+00  0.00000000000E+00  0.47000973003E+02  0.47000973003E+02  0.00000000000E+00 0. -1.
         21   -1    0    0  502  503 -0.00000000000E+00 -0.00000000000E+00 -0.10950275657E+04  0.10950275657E+04  0.00000000000E+00 0. -1.
         -6    2    1    2    0  503 -0.10063104135E+03 -0.37675485451E+02 -0.26945974480E+03  0.33735866434E+03  0.17220994643E+03 0.  0.
        -24    2    3    3    0    0  0.53064224774E+01 -0.52851253901E+02 -0.12517350529E+03  0.15765429850E+03  0.79781315166E+02 0.  0.
          6    2    1    2  501    0  0.10063104135E+03  0.37675485451E+02 -0.77856684786E+03  0.80466987433E+03  0.17257236564E+03 0.  0.
         24    2    5    5    0    0  0.92680427567E+02 -0.25807676468E+02 -0.62735755925E+03  0.64041500205E+03  0.85429326828E+02 0.  0.
          5    1    5    5  501    0  0.79506137788E+01  0.63483161919E+02 -0.15120928861E+03  0.16425487228E+03  0.47000000000E+01 0. -1.
        -11    1    6    6    0    0  0.55511700396E+02  0.28642512586E+02 -0.32596672372E+03  0.33189794724E+03  0.00000000000E+00 0.  1.
         12    1    6    6    0    0  0.37168727171E+02 -0.54450189054E+02 -0.30139083553E+03  0.30851705481E+03  0.00000000000E+00 0. -1.
         -5    1    3    3    0  503 -0.10593746382E+03  0.15175768449E+02 -0.14428623951E+03  0.17970436584E+03  0.47000000000E+01 0.  1.
         13    1    4    4    0    0 -0.26589193194E+01 -0.20734684385E+02  0.64960679277E+01  0.21890543324E+02  0.00000000000E+00 0. -1.
        -14    1    4    4    0    0  0.79653417969E+01 -0.32116569516E+02 -0.13166957322E+03  0.13576375517E+03  0.00000000000E+00 0.  1.
</event>
<event>
12    1  0.9962621E-001  0.1791643E+03  0.7818608E-02  0.1168647E+00
         21   -1    0    0  501  502  0.00000000000E+00  0.00000000000E+00  0.16392870943E+04  0.16392870943E+04  0.00000000000E+00 0. -1.
         21   -1    0    0  502  503 -0.00000000000E+00 -0.00000000000E+00 -0.21337564067E+02  0.21337564067E+02  0.00000000000E+00 0. -1.
         -6    2    1    2    0  503 -0.45988602965E+02 -0.16518297329E+02  0.56953022432E+03  0.59700682940E+03  0.17223435251E+03 0.  0.
        -24    2    3    3    0    0 -0.67411435972E+02  0.19486182249E+02  0.52512400815E+03  0.53577560895E+03  0.79851526013E+02 0.  0.
          6    2    1    2  501    0  0.45988602965E+02  0.16518297329E+02  0.10484193059E+04  0.10636178290E+04  0.17237180552E+03 0.  0.
         24    2    5    5    0    0 -0.18504889024E+02  0.11476701359E+01  0.25254090175E+03  0.26496885044E+03  0.78024589604E+02 0.  0.
          5    1    5    5  501    0  0.64493491989E+02  0.15370627193E+02  0.79587840414E+03  0.79864897851E+03  0.47000000000E+01 0. -1.
        -13    1    6    6    0    0 -0.29938459619E+02  0.30175452656E+02  0.19432905096E+03  0.19892372748E+03  0.00000000000E+00 0.  1.
         14    1    6    6    0    0  0.11433570595E+02 -0.29027782520E+02  0.58211850788E+02  0.66045122960E+02  0.00000000000E+00 0. -1.
         -5    1    3    3    0  503  0.21422833006E+02 -0.36004479578E+02  0.44406216171E+02  0.61231220454E+02  0.47000000000E+01 0.  1.
         13    1    4    4    0    0  0.70215158488E+01  0.28702472212E+02  0.19593966116E+03  0.19815520284E+03  0.00000000000E+00 0. -1.
        -14    1    4    4    0    0 -0.74432951820E+02 -0.92162899633E+01  0.32918434699E+03  0.33762040611E+03  0.00000000000E+00 0.  1.
</event>
<event>
12    1  0.9962621E-001  0.2197853E+03  0.7818608E-02  0.1134149E+00
         21   -1    0    0  503  502  0.00000000000E+00  0.00000000000E+00  0.13155580382E+03  0.13155580382E+03  0.00000000000E+00 0.  1.
         21   -1    0    0  501  503 -0.00000000000E+00 -0.00000000000E+00 -0.43328053443E+03  0.43328053443E+03  0.00000000000E+00 0.  1.
          6    2    1    2  501    0  0.82791775231E+02  0.10737257331E+03 -0.39612701325E+02  0.22277160376E+03  0.17226338493E+03 0.  0.
         24    2    3    3    0    0  0.84025221384E+02  0.74675950346E+02  0.33836575460E+02  0.14222672929E+03  0.80291925480E+02 0.  0.
         -6    2    1    2    0  502 -0.82791775231E+02 -0.10737257331E+03 -0.26211202929E+03  0.34206473449E+03  0.17298040102E+03 0.  0.
        -24    2    5    5    0    0 -0.14286174300E+02 -0.48180918462E+02 -0.40911458222E+02  0.10300731042E+03  0.80070362220E+02 0.  0.
          5    1    3    3  501    0 -0.12334461526E+01  0.32696622969E+02 -0.73449276785E+02  0.80544874469E+02  0.47000000000E+01 0. -1.
        -13    1    4    4    0    0  0.54833620305E+02  0.46242256316E+02 -0.20225772905E+02  0.74526197236E+02  0.00000000000E+00 0.  1.
         14    1    4    4    0    0  0.29191601079E+02  0.28433694030E+02  0.54062348365E+02  0.67700532054E+02  0.00000000000E+00 0. -1.
         -5    1    5    5    0  502 -0.68505600932E+02 -0.59191654852E+02 -0.22120057107E+03  0.23905742407E+03  0.47000000000E+01 0.  1.
         11    1    6    6    0    0 -0.23569823200E+02 -0.61077722164E+02 -0.52020013581E+02  0.83618816802E+02  0.00000000000E+00 0. -1.
        -12    1    6    6    0    0  0.92836488997E+01  0.12896803702E+02  0.11108555359E+02  0.19388493618E+02  0.00000000000E+00 0.  1.
</event>
<event>
12    1  0.9962621E-001  0.4903983E+03  0.7818608E-02  0.1016352E+00
         21   -1    0    0  501  502  0.00000000000E+00  0.00000000000E+00  0.70086159147E+03  0.70086159147E+03  0.00000000000E+00 0.  1.
         21   -1    0    0  502  503 -0.00000000000E+00 -0.00000000000E+00 -0.35260780842E+03  0.35260780842E+03  0.00000000000E+00 0.  1.
         -6    2    1    2    0  503 -0.26283137827E+03  0.37673023411E+03  0.86199405988E+02  0.49791644221E+03  0.17171034662E+03 0.  0.
        -24    2    3    3    0    0 -0.23453018651E+03  0.22218478830E+03  0.54432918248E+02  0.33755294256E+03  0.81293037278E+02 0.  0.
          6    2    1    2  501    0  0.26283137827E+03 -0.37673023411E+03  0.26205437706E+03  0.55555295768E+03  0.17017811128E+03 0.  0.
         24    2    5    5    0    0  0.22427335230E+03 -0.36854252494E+03  0.20016578367E+03  0.48202712589E+03  0.78496368736E+02 0.  0.
          5    1    5    5  501    0  0.38558025976E+02 -0.81877091679E+01  0.61888593392E+02  0.73525831792E+02  0.47000000000E+01 0. -1.
        -13    1    6    6    0    0  0.10514260642E+02 -0.62664733450E+02  0.14284080269E+02  0.65126441975E+02  0.00000000000E+00 0.  1.
         14    1    6    6    0    0  0.21375909165E+03 -0.30587779149E+03  0.18588170340E+03  0.41690068392E+03  0.00000000000E+00 0. -1.
         -5    1    3    3    0  503 -0.28301191766E+02  0.15454544581E+03  0.31766487740E+02  0.16036349965E+03  0.47000000000E+01 0.  1.
         11    1    4    4    0    0 -0.21805877942E+03  0.22815977620E+03  0.51028932606E+02  0.31970371709E+03  0.00000000000E+00 0. -1.
        -12    1    4    4    0    0 -0.16471407086E+02 -0.59749878997E+01  0.34039856423E+01  0.17849225475E+02  0.00000000000E+00 0.  1.
</event>
<event>
12    1  0.9962621E-001  0.1861116E+03  0.7818608E-02  0.1162537E+00
         21   -1    0    0  503  502  0.00000000000E+00  0.00000000000E+00  0.16048202731E+04  0.16048202731E+04  0.00000000000E+00 0. -1.
         21   -1    0    0  501  503 -0.00000000000E+00 -0.00000000000E+00 -0.25704116594E+02  0.25704116594E+02  0.00000000000E+00 0. -1.
          6    2    1    2  501    0  0.47945657996E+02 -0.45349138497E+02  0.11221005493E+04  0.11370664088E+04  0.17162472081E+03 0.  0.
         24    2    3    3    0    0  0.57329937432E+02 -0.50504186259E+02  0.40906592308E+03  0.42393591063E+03  0.80927945398E+02 0.  0.
         -6    2    1    2    0  502 -0.47945657996E+02  0.45349138497E+02  0.45701560725E+03  0.49345798094E+03  0.17401776691E+03 0.  0.
        -24    2    5    5    0    0 -0.27732220608E+02  0.95084673829E+02  0.36714018765E+03  0.38866347930E+03  0.80356776296E+02 0.  0.
          5    1    3    3  501    0 -0.93842794356E+01  0.51550477616E+01  0.71303462621E+03  0.71313049815E+03  0.47000000000E+01 0. -1.
        -11    1    4    4    0    0  0.14563378981E+01  0.34571262576E+01 -0.28807409598E+01  0.47298319750E+01  0.00000000000E+00 0.  1.
         12    1    4    4    0    0  0.55873599534E+02 -0.53961312516E+02  0.41194666404E+03  0.41920607866E+03  0.00000000000E+00 0. -1.
         -5    1    5    5    0  502 -0.20213437389E+02 -0.49735535332E+02  0.89875419603E+02  0.10479450164E+03  0.47000000000E+01 0.  1.
         13    1    6    6    0    0 -0.53034967372E+02  0.56564352091E+02  0.18112732536E+03  0.19702624618E+03  0.00000000000E+00 0. -1.
        -14    1    6    6    0    0  0.25302746764E+02  0.38520321738E+02  0.18601286229E+03  0.19163723312E+03  0.00000000000E+00 0.  1.
</event>
<event>
12    1  0.9962621E-001  0.2283392E+03  0.7818608E-02  0.1127905E+00
         21   -1    0    0  503  502  0.00000000000E+00  0.00000000000E+00  0.50112246589E+03  0.50112246589E+03  0.00000000000E+00 0.  1.
         21   -1    0    0  501  503 -0.00000000000E+00 -0.00000000000E+00 -0.14382953279E+03  0.14382953279E+03  0.00000000000E+00 0.  1.
          6    2    1    2  501    0  0.14821381576E+03  0.27841310124E+02  0.34888851428E+03  0.41696758855E+03  0.17145349449E+03 0.  0.
         24    2    3    3    0    0  0.64141432145E+02  0.14283889344E+02  0.68999383604E+02  0.12437233087E+03  0.79933778446E+02 0.  0.
         -6    2    1    2    0  502 -0.14821381576E+03 -0.27841310124E+02  0.84044188186E+01  0.22798441012E+03  0.17077407083E+03 0.  0.
        -24    2    5    5    0    0 -0.85075538033E+02 -0.80392517802E+02 -0.14943847635E+02  0.14245486499E+03  0.79807680630E+02 0.  0.
          5    1    3    3  501    0  0.84072383617E+02  0.13557420780E+02  0.27988913068E+03  0.29259525768E+03  0.47000000000E+01 0. -1.
        -11    1    4    4    0    0  0.24677342515E+02  0.39316061354E+02  0.61483009354E+02  0.77038200610E+02  0.00000000000E+00 0.  1.
         12    1    4    4    0    0  0.39464089630E+02 -0.25032172011E+02  0.75163742503E+01  0.47334130263E+02  0.00000000000E+00 0. -1.
         -5    1    5    5    0  502 -0.63138277730E+02  0.52551207678E+02  0.23348266454E+02  0.85529545126E+02  0.47000000000E+01 0.  1.
         13    1    6    6    0    0 -0.89447796666E+02 -0.36295477601E+02 -0.17342766000E+02  0.98076712604E+02  0.00000000000E+00 0. -1.
        -14    1    6    6    0    0  0.43722586333E+01 -0.44097040201E+02  0.23989183648E+01  0.44378152388E+02  0.00000000000E+00 0.  1.
</event>
<event>
12    1  0.9962621E-001  0.2666516E+03  0.7818608E-02  0.1103352E+00
         21   -1    0    0  503  502  0.00000000000E+00  0.00000000000E+00  0.35523366358E+03  0.35523366358E+03  0.00000000000E+00 0.  1.
         21   -1    0    0  501  503 -0.00000000000E+00 -0.00000000000E+00 -0.20169837984E+03  0.20169837984E+03  0.00000000000E+00 0.  1.
          6    2    1    2  501    0 -0.17935468441E+03  0.97459320818E+02  0.10641146858E+03  0.28710008203E+03  0.17157107688E+03 0.  0.
         24    2    3    3    0    0 -0.14564156623E+03  0.90519181761E+02  0.15259869090E+02  0.18955294492E+03  0.79323812587E+02 0.  0.
         -6    2    1    2    0  502  0.17935468441E+03 -0.97459320818E+02  0.47123815157E+02  0.26983196139E+03  0.17006531509E+03 0.  0.
        -24    2    5    5    0    0  0.97659775801E+02  0.11781989164E+02  0.43436501972E+02  0.13329109506E+03  0.78762549731E+02 0.  0.
          5    1    3    3  501    0 -0.33713118180E+02  0.69401390571E+01  0.91151599493E+02  0.97547137106E+02  0.47000000000E+01 0. -1.
        -11    1    4    4    0    0 -0.15608837216E+01  0.66311926944E+00  0.19619946194E+02  0.19693104728E+02  0.00000000000E+00 0.  1.
         12    1    4    4    0    0 -0.14408068251E+03  0.89856062492E+02 -0.43600771038E+01  0.16985984019E+03  0.00000000000E+00 0. -1.
         -5    1    5    5    0  502  0.81694908609E+02 -0.10924130998E+03  0.36873131846E+01  0.13654086633E+03  0.47000000000E+01 0.  1.
         11    1    6    6    0    0  0.28410274030E+02 -0.10818099392E+02 -0.20254348312E+02  0.36529625929E+02  0.00000000000E+00 0. -1.
        -12    1    6    6    0    0  0.69249501770E+02  0.22600088556E+02  0.63690850284E+02  0.96761469130E+02  0.00000000000E+00 0.  1.
</event>
<event>
12    1  0.9962621E-001  0.1761639E+03  0.7818608E-02  0.1172178E+00
         21   -1    0    0  503  502  0.00000000000E+00  0.00000000000E+00  0.10968380980E+04  0.10968380980E+04  0.00000000000E+00 0. -1.
         21   -1    0    0  501  503 -0.00000000000E+00 -0.00000000000E+00 -0.35306534619E+02  0.35306534619E+02  0.00000000000E+00 0. -1.
          6    2    1    2  501    0 -0.29167388807E+02 -0.25029795982E+02  0.27449605020E+03  0.32616225330E+03  0.17192005888E+03 0.  0.
         24    2    3    3    0    0 -0.35572673835E+02 -0.22483471149E+02  0.53174364449E+02  0.10468338291E+03  0.79750711744E+02 0.  0.
         -6    2    1    2    0  502  0.29167388807E+02  0.25029795982E+02  0.78703551317E+03  0.80598237931E+03  0.16942688543E+03 0.  0.
        -24    2    5    5    0    0  0.23545847735E+02  0.52059861079E+02  0.23552696675E+03  0.25376322632E+03  0.75220920553E+02 0.  0.
          5    1    3    3  501    0  0.64052850279E+01 -0.25463248333E+01  0.22132168575E+03  0.22147887039E+03  0.47000000000E+01 0. -1.
        -11    1    4    4    0    0  0.23671427608E+01  0.23841476189E+02 -0.93741372889E+00  0.23977032682E+02  0.00000000000E+00 0.  1.
         12    1    4    4    0    0 -0.37939816596E+02 -0.46324947338E+02  0.54111778178E+02  0.80706350225E+02  0.00000000000E+00 0. -1.
         -5    1    5    5    0  502  0.56215410718E+01 -0.27030065097E+02  0.55150854642E+03  0.55221915298E+03  0.47000000000E+01 0.  1.
         11    1    6    6    0    0  0.31845001766E+02 -0.87769204372E+01  0.85358000143E+02  0.91526644527E+02  0.00000000000E+00 0. -1.
        -12    1    6    6    0    0 -0.82991540310E+01  0.60836781516E+02  0.15016896660E+03  0.16223658180E+03  0.00000000000E+00 0.  1.
</event>
<event>
12    1  0.9962621E-001  0.4482737E+03  0.7818608E-02  0.1028265E+00
         21   -1    0    0  503  502  0.00000000000E+00  0.00000000000E+00  0.44258530106E+03  0.44258530106E+03  0.00000000000E+00 0. -1.
         21   -1    0    0  501  503 -0.00000000000E+00 -0.00000000000E+00 -0.45621497681E+03  0.45621497681E+03  0.00000000000E+00 0. -1.
          6    2    1    2  501    0  0.16166030554E+02 -0.41373197560E+03  0.26746387773E+02  0.44907089345E+03  0.17179583786E+03 0.  0.
         24    2    3    3    0    0 -0.12412879157E+02 -0.87388891771E+02  0.24412202886E+02  0.12143679745E+03  0.79749872419E+02 0.  0.
         -6    2    1    2    0  502 -0.16166030554E+02  0.41373197560E+03 -0.40376063517E+02  0.44972938442E+03  0.17085316658E+03 0.  0.
        -24    2    5    5    0    0 -0.30315178233E+02  0.95847867653E+02 -0.19555573551E+02  0.13081546615E+03  0.81390674910E+02 0.  0.
          5    1    3    3  501    0  0.28578909710E+02 -0.32634308383E+03  0.23341848870E+01  0.32763409600E+03  0.47000000000E+01 0. -1.
        -13    1    4    4    0    0  0.24162372511E+01 -0.33616286610E+02  0.49814870872E+02  0.60144943992E+02  0.00000000000E+00 0.  1.
         14    1    4    4    0    0 -0.14829116408E+02 -0.53772605161E+02 -0.25402667986E+02  0.61291853456E+02  0.00000000000E+00 0. -1.
         -5    1    5    5    0  502  0.14149147680E+02  0.31788410795E+03 -0.20820489965E+02  0.31891391827E+03  0.47000000000E+01 0.  1.
         13    1    6    6    0    0 -0.50343203005E+02  0.94567572419E+02 -0.25020367515E+02  0.11001582901E+03  0.00000000000E+00 0. -1.
        -14    1    6    6    0    0  0.20028024772E+02  0.12802952336E+01  0.54647939638E+01  0.20799637141E+02  0.00000000000E+00 0.  1.
</event>
<event>
12    1  0.9962621E-001  0.2294877E+03  0.7818608E-02  0.1127038E+00
         21   -1    0    0  503  502  0.00000000000E+00  0.00000000000E+00  0.65959288461E+03  0.65959288461E+03  0.00000000000E+00 0.  1.
         21   -1    0    0  501  503 -0.00000000000E+00 -0.00000000000E+00 -0.82570680298E+02  0.82570680298E+02  0.00000000000E+00 0.  1.
          6    2    1    2  501    0  0.17608618660E+02  0.15098760735E+03  0.35670836322E+03  0.42403969093E+03  0.17164347371E+03 0.  0.
         24    2    3    3    0    0 -0.20489882043E+02  0.11167501137E+02  0.15535574081E+03  0.17591446769E+03  0.79157724769E+02 0.  0.
         -6    2    1    2    0  502 -0.17608618660E+02 -0.15098760735E+03  0.22031384109E+03  0.31812387398E+03  0.17192233593E+03 0.  0.
        -24    2    5    5    0    0  0.23023840247E+02 -0.14863778869E+03  0.21840394904E+03  0.27710855913E+03  0.80408825003E+02 0.  0.
          5    1    3    3  501    0  0.38098500703E+02  0.13982010622E+03  0.20135262241E+03  0.24812522324E+03  0.47000000000E+01 0. -1.
        -13    1    4    4    0    0 -0.44457978736E+02 -0.12621451707E+02  0.67619506301E+02  0.81903666272E+02  0.00000000000E+00 0.  1.
         14    1    4    4    0    0  0.23968096692E+02  0.23788952844E+02  0.87736234510E+02  0.94010801414E+02  0.00000000000E+00 0. -1.
         -5    1    5    5    0  502 -0.40632458907E+02 -0.23498186681E+01  0.19098920453E+01  0.41015314850E+02  0.47000000000E+01 0.  1.
         13    1    6    6    0    0  0.51495084480E+02 -0.10031003749E+03  0.12667111715E+03  0.16958602320E+03  0.00000000000E+00 0. -1.
        -14    1    6    6    0    0 -0.28471244232E+02 -0.48327751201E+02  0.91732831892E+02  0.10752253592E+03  0.00000000000E+00 0.  1.
</event>
<event>
12    1  0.9962621E-001  0.3160086E+03  0.7818608E-02  0.1077732E+00
         21   -1    0    0  503  502  0.00000000000E+00  0.00000000000E+00  0.40891807646E+03  0.40891807646E+03  0.00000000000E+00 0.  1.
         21   -1    0    0  501  503 -0.00000000000E+00 -0.00000000000E+00 -0.26835643709E+03  0.26835643709E+03  0.00000000000E+00 0.  1.
          6    2    1    2  501    0  0.59951347156E+02  0.25852744123E+03 -0.34242041214E+02  0.31785834754E+03  0.17155410172E+03 0.  0.
         24    2    3    3    0    0 -0.18342895952E+02  0.71280068088E+02  0.23894262142E+01  0.11156845041E+03  0.83812289253E+02 0.  0.
         -6    2    1    2    0  502 -0.59951347156E+02 -0.25852744123E+03  0.17480368058E+03  0.35941616600E+03  0.16790786683E+03 0.  0.
        -24    2    5    5    0    0 -0.29864145309E+02 -0.36223149614E+02  0.48964357119E+02  0.10215741860E+03  0.76384855587E+02 0.  0.
          5    1    3    3  501    0  0.78294243109E+02  0.18724737314E+03 -0.36631467428E+02  0.20628989713E+03  0.47000000000E+01 0.  1.
        -13    1    4    4    0    0 -0.31073863958E+02 -0.64201546608E+01 -0.63150326489E+01  0.32352481273E+02  0.00000000000E+00 0.  1.
         14    1    4    4    0    0  0.12730968006E+02  0.77700222748E+02  0.87044588631E+01  0.79215969133E+02  0.00000000000E+00 0. -1.
         -5    1    5    5    0  502 -0.30087201848E+02 -0.22230429162E+03  0.12583932347E+03  0.25725874741E+03  0.47000000000E+01 0.  1.
         11    1    6    6    0    0  0.26964603773E+01 -0.31721612315E+02 -0.11076375342E+02  0.33707828129E+02  0.00000000000E+00 0. -1.
        -12    1    6    6    0    0 -0.32560605686E+02 -0.45015372986E+01  0.60040732460E+02  0.68449590467E+02  0.00000000000E+00 0.  1.
</event>
<event>
12    1  0.9962621E-001  0.4490443E+03  0.7818608E-02  0.1028037E+00
         21   -1    0    0  501  502  0.00000000000E+00  0.00000000000E+00  0.40485170740E+03  0.40485170740E+03  0.00000000000E+00 0. -1.
         21   -1    0    0  502  503 -0.00000000000E+00 -0.00000000000E+00 -0.58319719908E+03  0.58319719908E+03  0.00000000000E+00 0. -1.
         -6    2    1    2    0  503 -0.36236953520E+03  0.20105332104E+03 -0.27838347173E+03  0.52799631094E+03  0.17189714683E+03 0.  0.
        -24    2    3    3    0    0 -0.18813910354E+03  0.14783586867E+03 -0.22484149158E+03  0.33805638835E+03  0.80477692706E+02 0.  0.
          6    2    1    2  501    0  0.36236953520E+03 -0.20105332104E+03  0.10003798006E+03  0.46005259554E+03  0.17293546563E+03 0.  0.
         24    2    5    5    0    0  0.23879083652E+03 -0.17497961803E+03  0.16325546280E+02  0.30845644017E+03  0.85087729373E+02 0.  0.
          5    1    5    5  501    0  0.12357869868E+03 -0.26073703017E+02  0.83712433776E+02  0.15159615537E+03  0.47000000000E+01 0. -1.
        -11    1    6    6    0    0  0.30352206347E+02 -0.63210061205E+02 -0.85428924489E+01  0.70638157388E+02  0.00000000000E+00 0.  1.
         12    1    6    6    0    0  0.20843863017E+03 -0.11176955682E+03  0.24868438729E+02  0.23781828278E+03  0.00000000000E+00 0. -1.
         -5    1    3    3    0  503 -0.17423043166E+03  0.53217452376E+02 -0.53541980149E+02  0.18993992259E+03  0.47000000000E+01 0.  1.
         11    1    4    4    0    0 -0.30236154799E+02  0.32050728481E+02 -0.61047507269E+01  0.44483055590E+02  0.00000000000E+00 0. -1.
        -12    1    4    4    0    0 -0.15790294874E+03  0.11578514019E+03 -0.21873674085E+03  0.29357333276E+03  0.00000000000E+00 0.  1.
</event>
<event>
12    1  0.9962621E-001  0.1817743E+03  0.7818608E-02  0.1166325E+00
         21   -1    0    0  501  502  0.00000000000E+00  0.00000000000E+00  0.23590832441E+02  0.23590832441E+02  0.00000000000E+00 0. -1.
         21   -1    0    0  502  503 -0.00000000000E+00 -0.00000000000E+00 -0.24352514483E+04  0.24352514483E+04  0.00000000000E+00 0. -1.
         -6    2    1    2    0  503  0.42393650126E+02 -0.40418379898E+02 -0.40346443628E+03  0.44252169910E+03  0.17207857455E+03 0.  0.
        -24    2    3    3    0    0  0.56459443653E+02  0.23778221867E+02 -0.31868568518E+03  0.33515048850E+03  0.83738947877E+02 0.  0.
          6    2    1    2  501    0 -0.42393650126E+02  0.40418379898E+02 -0.20081961795E+04  0.20163205816E+04  0.17107286547E+03 0.  0.
         24    2    5    5    0    0 -0.72759068098E+02  0.72481041473E+02 -0.12397562706E+04  0.12465985171E+04  0.80404409618E+02 0.  0.
          5    1    5    5  501    0  0.30365417972E+02 -0.32062661575E+02 -0.76843990896E+03  0.76972206448E+03  0.47000000000E+01 0. -1.
        -11    1    6    6    0    0  0.94607856682E+01  0.34380212491E+02 -0.50851527219E+03  0.50976395275E+03  0.00000000000E+00 0.  1.
         12    1    6    6    0    0 -0.82219853766E+02  0.38100828983E+02 -0.73124099838E+03  0.73683456436E+03  0.00000000000E+00 0. -1.
         -5    1    3    3    0  503 -0.14065793527E+02 -0.64196601765E+02 -0.84778751102E+02  0.10737121059E+03  0.47000000000E+01 0.  1.
         11    1    4    4    0    0  0.33415291628E+01  0.46002771036E+02 -0.14703199667E+03  0.15409681633E+03  0.00000000000E+00 0. -1.
        -12    1    4    4    0    0  0.53117914490E+02 -0.22224549169E+02 -0.17165368852E+03  0.18105367217E+03  0.00000000000E+00 0.  1.
</event>
<event>
12    1  0.9962621E-001  0.1920781E+03  0.7818608E-02  0.1156664E+00
         21   -1    0    0  501  502  0.00000000000E+00  0.00000000000E+00  0.83396231445E+03  0.83396231445E+03  0.00000000000E+00 0.  1.
         21   -1    0    0  502  503 -0.00000000000E+00 -0.00000000000E+00 -0.68508353676E+02  0.68508353676E+02  0.00000000000E+00 0.  1.
         -6    2    1    2    0  503 -0.56003348632E+02 -0.65994557294E+02  0.65147680782E+03  0.67912165775E+03  0.17115063028E+03 0.  0.
        -24    2    3    3    0    0 -0.21114916249E+02 -0.81637510837E+00  0.53080598193E+03  0.53752739103E+03  0.82062168488E+02 0.  0.
          6    2    1    2  501    0  0.56003348632E+02  0.65994557294E+02  0.11397715295E+03  0.22334901037E+03  0.17147108325E+03 0.  0.
         24    2    5    5    0    0  0.38353908810E+02 -0.20532346506E+02  0.17272957923E+02  0.92306272523E+02  0.79558112708E+02 0.  0.
          5    1    5    5  501    0  0.17649439821E+02  0.86526903801E+02  0.96704195026E+02  0.13104273785E+03  0.47000000000E+01 0. -1.
        -13    1    6    6    0    0  0.50067386827E+02 -0.33059779544E+02  0.33482385672E+02  0.68707804487E+02  0.00000000000E+00 0.  1.
         14    1    6    6    0    0 -0.11713478016E+02  0.12527433037E+02 -0.16209427749E+02  0.23598468037E+02  0.00000000000E+00 0. -1.
         -5    1    3    3    0  503 -0.34888432383E+02 -0.65178182186E+02  0.12067082590E+03  0.14159426673E+03  0.47000000000E+01 0.  1.
         11    1    4    4    0    0 -0.19308213549E+02 -0.31424809230E+02  0.11907399516E+03  0.12465529298E+03  0.00000000000E+00 0. -1.
        -12    1    4    4    0    0 -0.18067027000E+01  0.30608434122E+02  0.41173198677E+03  0.41287209804E+03  0.00000000000E+00 0.  1.
</event>
<event>
12    1  0.9962621E-001  0.3132006E+03  0.7818608E-02  0.1078886E+00
         21   -1    0    0  503  502  0.00000000000E+00  0.00000000000E+00  0.46368698754E+03  0.46368698754E+03  0.00000000000E+00 0.  1.
         21   -1    0    0  501  503 -0.00000000000E+00 -0.00000000000E+00 -0.45028584922E+03  0.45028584922E+03  0.00000000000E+00 0.  1.
          6    2    1    2  501    0  0.20939880650E+03 -0.15646062351E+03 -0.32630367332E+03  0.45191878653E+03  0.17154799773E+03 0.  0.
         24    2    3    3    0    0  0.30783931458E+02 -0.66727546787E+02 -0.79928394178E+02  0.13462055644E+03  0.79585991764E+02 0.  0.
         -6    2    1    2    0  502 -0.20939880650E+03  0.15646062351E+03  0.33970481164E+03  0.46205405023E+03  0.17253057531E+03 0.  0.
        -24    2    5    5    0    0 -0.20509499919E+03  0.13571302229E+03  0.35231541951E+03  0.43695219483E+03  0.79492657711E+02 0.  0.
          5    1    3    3  501    0  0.17861487504E+03 -0.89733076726E+02 -0.24637527914E+03  0.31729823009E+03  0.47000000000E+01 0. -1.
        -11    1    4    4    0    0 -0.29132847129E+01  0.13304154494E+02 -0.33475282347E+02  0.36139760415E+02  0.00000000000E+00 0.  1.
         12    1    4    4    0    0  0.33697216171E+02 -0.80031701281E+02 -0.46453111831E+02  0.98480796029E+02  0.00000000000E+00 0. -1.
         -5    1    5    5    0  502 -0.43038073093E+01  0.20747601223E+02 -0.12610607874E+02  0.25101855405E+02  0.47000000000E+01 0.  1.
         11    1    6    6    0    0 -0.51388528165E+02  0.26803321665E+02  0.14851932275E+03  0.15942768928E+03  0.00000000000E+00 0. -1.
        -12    1    6    6    0    0 -0.15370647102E+03  0.10890970062E+03  0.20379609676E+03  0.27752450554E+03  0.00000000000E+00 0.  1.
</event>
<event>
12    1  0.9962621E-001  0.1809675E+03  0.7818608E-02  0.1167102E+00
         21   -1    0    0  501  502  0.00000000000E+00  0.00000000000E+00  0.12327999726E+04  0.12327999726E+04  0.00000000000E+00 0. -1.
         21   -1    0    0  502  503 -0.00000000000E+00 -0.00000000000E+00 -0.26562713388E+02  0.26562713388E+02  0.00000000000E+00 0. -1.
         -6    2    1    2    0  503 -0.41459470288E+02 -0.34394884681E+02  0.64709758651E+03  0.67166683352E+03  0.17175317470E+03 0.  0.
        -24    2    3    3    0    0  0.69605979431E+01 -0.79320205103E+02  0.36310401562E+03  0.38005540417E+03  0.79103977256E+02 0.  0.
          6    2    1    2  501    0  0.41459470288E+02  0.34394884681E+02  0.55913967270E+03  0.58769585246E+03  0.17276384357E+03 0.  0.
         24    2    5    5    0    0  0.67887681630E+02  0.16094440022E+02  0.53873507593E+03  0.54933188240E+03  0.81622709295E+02 0.  0.
          5    1    5    5  501    0 -0.26428211341E+02  0.18300444659E+02  0.20404596774E+02  0.38363970062E+02  0.47000000000E+01 0. -1.
        -11    1    6    6    0    0  0.71595050639E+02  0.13797357153E+02  0.24633069543E+03  0.25689497825E+03  0.00000000000E+00 0.  1.
         12    1    6    6    0    0 -0.37073690095E+01  0.22970828686E+01  0.29240438050E+03  0.29243690415E+03  0.00000000000E+00 0. -1.
         -5    1    3    3    0  503 -0.48420068231E+02  0.44925320423E+02  0.28399357089E+03  0.29161142935E+03  0.47000000000E+01 0.  1.
         11    1    4    4    0    0  0.36588404444E+02 -0.32679046693E+02  0.10219954032E+03  0.11336391611E+03  0.00000000000E+00 0. -1.
        -12    1    4    4    0    0 -0.29627806501E+02 -0.46641158410E+02  0.26090447529E+03  0.26669148806E+03  0.00000000000E+00 0.  1.
</event>
<event>
12    1  0.9962621E-001  0.2059954E+03  0.7818608E-02  0.1145028E+00
         21   -1    0    0  503  502  0.00000000000E+00  0.00000000000E+00  0.75893961159E+03  0.75893961159E+03  0.00000000000E+00 0. -1.
         21   -1    0    0  501  503 -0.00000000000E+00 -0.00000000000E+00 -0.61403678952E+02  0.61403678952E+02  0.00000000000E+00 0. -1.
          6    2    1    2  501    0 -0.61316802849E+02  0.95558072087E+02  0.47605308599E+03  0.51871055172E+03  0.17188077360E+03 0.  0.
         24    2    3    3    0    0 -0.31143966865E+02  0.94751035738E+01  0.98943358896E+02  0.13069700329E+03  0.78944247028E+02 0.  0.
         -6    2    1    2    0  502  0.61316802849E+02 -0.95558072087E+02  0.22148284664E+03  0.30163273882E+03  0.17040118050E+03 0.  0.
        -24    2    5    5    0    0 -0.11930745221E+02 -0.38087173014E+01  0.12834706668E+03  0.15170105133E+03  0.79896122819E+02 0.  0.
          5    1    3    3  501    0 -0.30172835984E+02  0.86082968513E+02  0.37710972710E+03  0.38801354844E+03  0.47000000000E+01 0. -1.
        -11    1    4    4    0    0 -0.32556120515E+02 -0.24594474206E+02  0.21591082299E+02  0.46162365400E+02  0.00000000000E+00 0.  1.
         12    1    4    4    0    0  0.14121536492E+01  0.34069577780E+02  0.77352276597E+02  0.84534637887E+02  0.00000000000E+00 0. -1.
         -5    1    5    5    0  502  0.73247548070E+02 -0.91749354786E+02  0.93135779966E+02  0.14993168748E+03  0.47000000000E+01 0.  1.
         13    1    6    6    0    0  0.67442793305E+01 -0.73612186425E+01 -0.87602637696E+01  0.13282133296E+02  0.00000000000E+00 0. -1.
        -14    1    6    6    0    0 -0.18675024552E+02  0.35525013411E+01  0.13710733045E+03  0.13841891804E+03  0.00000000000E+00 0.  1.
</event>
<event>
12    1  0.9962621E-001  0.2142691E+03  0.7818608E-02  0.1138404E+00
         21   -1    0    0  503  502  0.00000000000E+00  0.00000000000E+00  0.42078566010E+03  0.42078566010E+03  0.00000000000E+00 0. -1.
         21   -1    0    0  501  503 -0.00000000000E+00 -0.00000000000E+00 -0.12215092395E+03  0.12215092395E+03  0.00000000000E+00 0. -1.
          6    2    1    2  501    0  0.53932553982E+02 -0.11257425336E+03  0.59341616515E+02  0.22233456522E+03  0.17415380714E+03 0.  0.
         24    2    3    3    0    0  0.77778638180E+02 -0.10425586027E+03 -0.49528139087E+01  0.15309804900E+03  0.80595789495E+02 0.  0.
         -6    2    1    2    0  502 -0.53932553982E+02  0.11257425336E+03  0.23929311964E+03  0.32060201883E+03  0.17303980603E+03 0.  0.
        -24    2    5    5    0    0  0.78016382793E+01 -0.40330818738E+01  0.82102358444E+02  0.11532316817E+03  0.80507791824E+02 0.  0.
          5    1    3    3  501    0 -0.23846084198E+02 -0.83183930963E+01  0.64294430424E+02  0.69236516224E+02  0.47000000000E+01 0. -1.
        -13    1    4    4    0    0  0.21598234641E+02 -0.20254891486E+02  0.33737498893E+02  0.44888341473E+02  0.00000000000E+00 0.  1.
         14    1    4    4    0    0  0.56180403540E+02 -0.84000968780E+02 -0.38690312801E+02  0.10820970752E+03  0.00000000000E+00 0. -1.
         -5    1    5    5    0  502 -0.61734192262E+02  0.11660733524E+03  0.15719076120E+03  0.20527885066E+03  0.47000000000E+01 0.  1.
         13    1    6    6    0    0  0.55478571898E+01  0.14545264785E+02  0.92576939923E+02  0.93876691743E+02  0.00000000000E+00 0. -1.
        -14    1    6    6    0    0  0.22537810895E+01 -0.18578346658E+02 -0.10474581479E+02  0.21446476422E+02  0.00000000000E+00 0.  1.
</event>
<event>
12    1  0.9962621E-001  0.2611974E+03  0.7818608E-02  0.1107896E+00
         21   -1    0    0  503  502  0.00000000000E+00  0.00000000000E+00  0.71702701417E+02  0.71702701417E+02  0.00000000000E+00 0.  1.
         21   -1    0    0  501  503 -0.00000000000E+00 -0.00000000000E+00 -0.92950548793E+03  0.92950548793E+03  0.00000000000E+00 0.  1.
          6    2    1    2  501    0 -0.19172024312E+02  0.19553601053E+03 -0.49570975400E+03  0.56031440419E+03  0.17211093341E+03 0.  0.
         24    2    3    3    0    0  0.12521816587E+02  0.16144051073E+03 -0.23684574885E+03  0.29725611061E+03  0.77752505756E+02 0.  0.
         -6    2    1    2    0  502  0.19172024312E+02 -0.19553601053E+03 -0.36209303251E+03  0.44089378516E+03  0.15707981305E+03 0.  0.
        -24    2    5    5    0    0 -0.21526643727E+02 -0.12623050832E+03 -0.31290527442E+03  0.34654782731E+03  0.76079880611E+02 0.  0.
          5    1    3    3  501    0 -0.31693840899E+02  0.34095499803E+02 -0.25886400515E+03  0.26305829358E+03  0.47000000000E+01 0. -1.
        -11    1    4    4    0    0  0.22796140963E+02  0.58373452486E+01 -0.35329052925E+02  0.42448564439E+02  0.00000000000E+00 0.  1.
         12    1    4    4    0    0 -0.10274324377E+02  0.15560316548E+03 -0.20151669592E+03  0.25480754617E+03  0.00000000000E+00 0. -1.
         -5    1    5    5    0  502  0.40698668039E+02 -0.69305502203E+02 -0.49187758092E+02  0.94345957846E+02  0.47000000000E+01 0.  1.
         13    1    6    6    0    0 -0.79382663182E+01 -0.13388731313E+02 -0.13191287728E+03  0.13282801433E+03  0.00000000000E+00 0. -1.
        -14    1    6    6    0    0 -0.13588377409E+02 -0.11284177701E+03 -0.18099239714E+03  0.21371981299E+03  0.00000000000E+00 0.  1.
</event>
<event>
12    1  0.9962621E-001  0.2141802E+03  0.7818608E-02  0.1138421E+00
         21   -1    0    0  501  502  0.00000000000E+00  0.00000000000E+00  0.53470001973E+02  0.53470001973E+02  0.00000000000E+00 0. -1.
         21   -1    0    0  502  503 -0.00000000000E+00 -0.00000000000E+00 -0.12735814574E+04  0.12735814574E+04  0.00000000000E+00 0. -1.
         -6    2    1    2    0  503  0.86323371388E+02  0.94600405411E+02 -0.23044067988E+03  0.31460459323E+03  0.17167463990E+03 0.  0.
        -24    2    3    3    0    0  0.12405012912E+02  0.10122696329E+02 -0.37211001260E+02  0.91086795837E+02  0.81583040116E+02 0.  0.
          6    2    1    2  501    0 -0.86323371388E+02 -0.94600405411E+02 -0.98967077556E+03  0.10124468662E+04  0.17087847039E+03 0.  0.
         24    2    5    5    0    0 -0.52614132999E+02 -0.74946595683E+02 -0.33297648465E+03  0.35457752753E+03  0.80415449421E+02 0.  0.
          5    1    5    5  501    0 -0.33709238389E+02 -0.19653809729E+02 -0.65669429091E+03  0.65786933863E+03  0.47000000000E+01 0. -1.
        -11    1    6    6    0    0 -0.67810240951E+02 -0.73167703848E+02 -0.31754832978E+03  0.33284934041E+03  0.00000000000E+00 0.  1.
         12    1    6    6    0    0  0.15196107952E+02 -0.17788918349E+01 -0.15428154872E+02  0.21728187126E+02  0.00000000000E+00 0. -1.
         -5    1    3    3    0  503  0.73918358476E+02  0.84477709082E+02 -0.19322967862E+03  0.22351779740E+03  0.47000000000E+01 0.  1.
         13    1    4    4    0    0 -0.33699487532E+02 -0.35996264570E+01 -0.22889894853E+02  0.40896944347E+02  0.00000000000E+00 0. -1.
        -14    1    4    4    0    0  0.46104500444E+02  0.13722322786E+02 -0.14321106408E+02  0.50189851490E+02  0.00000000000E+00 0.  1.
</event>
<event>
12    1  0.9962621E-001  0.3161309E+03  0.7818608E-02  0.1077445E+00
         21   -1    0    0  501  502  0.00000000000E+00  0.00000000000E+00  0.11192582801E+03  0.11192582801E+03  0.00000000000E+00 0. -1.
         21   -1    0    0  502  503 -0.00000000000E+00 -0.00000000000E+00 -0.89488059688E+03  0.89488059688E+03  0.00000000000E+00 0. -1.
         -6    2    1    2    0  503  0.41565524981E+02 -0.26219683351E+03 -0.41526261834E+03  0.52190207187E+03  0.17165039489E+03 0.  0.
        -24    2    3    3    0    0  0.45802720480E+02 -0.27963976499E+03 -0.36832368850E+03  0.47142868464E+03  0.79286681229E+02 0.  0.
          6    2    1    2  501    0 -0.41565524981E+02  0.26219683351E+03 -0.36769215054E+03  0.48490435302E+03  0.17163869506E+03 0.  0.
         24    2    5    5    0    0 -0.21179383276E+02  0.25250994951E+03 -0.37650250184E+03  0.46022353486E+03  0.76431193020E+02 0.  0.
          5    1    5    5  501    0 -0.20386141705E+02  0.96868839981E+01  0.88103513018E+01  0.24680818164E+02  0.47000000000E+01 0. -1.
        -13    1    6    6    0    0  0.66420830886E+01  0.14379380164E+03 -0.15264154822E+03  0.20980995424E+03  0.00000000000E+00 0.  1.
         14    1    6    6    0    0 -0.27821466365E+02  0.10871614787E+03 -0.22386095362E+03  0.25041358061E+03  0.00000000000E+00 0. -1.
         -5    1    3    3    0  503 -0.42371954988E+01  0.17442931485E+02 -0.46938929839E+02  0.50473387235E+02  0.47000000000E+01 0.  1.
         13    1    4    4    0    0  0.15666179336E+00 -0.54053238564E+02 -0.28801065344E+02  0.61247681647E+02  0.00000000000E+00 0. -1.
        -14    1    4    4    0    0  0.45646058686E+02 -0.22558652643E+03 -0.33952262315E+03  0.41018100299E+03  0.00000000000E+00 0.  1.
</event>
<event>
12    1  0.9962621E-001  0.1826967E+03  0.7818608E-02  0.1166637E+00
         21   -1    0    0  503  502  0.00000000000E+00  0.00000000000E+00  0.90118782413E+02  0.90118782413E+02  0.00000000000E+00 0.  1.
         21   -1    0    0  501  503 -0.00000000000E+00 -0.00000000000E+00 -0.35963941723E+03  0.35963941723E+03  0.00000000000E+00 0.  1.
          6    2    1    2  501    0  0.34522417067E+02  0.24326557213E+02 -0.14924658775E+03  0.23590812063E+03  0.17774847048E+03 0.  0.
         24    2    3    3    0    0  0.25452597672E+02  0.81346481575E+02 -0.12687763863E+03  0.17381147593E+03  0.82749073644E+02 0.  0.
         -6    2    1    2    0  502 -0.34522417067E+02 -0.24326557213E+02 -0.12027404707E+03  0.21385007901E+03  0.17170448809E+03 0.  0.
        -24    2    5    5    0    0 -0.33003655926E+02  0.55897158992E+01  0.58130587002E+01  0.84168398451E+02  0.77006762158E+02 0.  0.
          5    1    3    3  501    0  0.90698193950E+01 -0.57019924362E+02 -0.22368949123E+02  0.62096644700E+02  0.47000000000E+01 0. -1.
        -11    1    4    4    0    0  0.14462152362E+02  0.68121337567E+02 -0.13712414814E+03  0.15379435128E+03  0.00000000000E+00 0.  1.
         12    1    4    4    0    0  0.10990445310E+02  0.13225144008E+02  0.10246509512E+02  0.20017124651E+02  0.00000000000E+00 0. -1.
         -5    1    5    5    0  502 -0.15187611410E+01 -0.29916273112E+02 -0.12608710577E+03  0.12968168056E+03  0.47000000000E+01 0.  1.
         13    1    6    6    0    0 -0.28512103699E+02  0.62124426903E+01 -0.33595767467E+02  0.44499551607E+02  0.00000000000E+00 0. -1.
        -14    1    6    6    0    0 -0.44915522272E+01 -0.62272679112E+00  0.39408826167E+02  0.39668846844E+02  0.00000000000E+00 0.  1.
</event>
<event>
12    1  0.9962621E-001  0.3735809E+03  0.7818608E-02  0.1053727E+00
         21   -1    0    0  503  502  0.00000000000E+00  0.00000000000E+00  0.28099088853E+04  0.28099088853E+04  0.00000000000E+00 0.  1.
         21   -1    0    0  501  503 -0.00000000000E+00 -0.00000000000E+00 -0.49192399840E+02  0.49192399840E+02  0.00000000000E+00 0.  1.
          6    2    1    2  501    0 -0.24448864501E+03  0.21698334013E+03  0.14439231750E+04  0.14914679999E+04  0.18084853347E+03 0.  0.
         24    2    3    3    0    0 -0.26395616558E+03  0.17174284685E+03  0.12485136273E+04  0.12898925353E+04  0.76602952841E+02 0.  0.
         -6    2    1    2    0  502  0.24448864501E+03 -0.21698334013E+03  0.13167933104E+04  0.13676332852E+04  0.17210378531E+03 0.  0.
        -24    2    5    5    0    0  0.18256669459E+03 -0.15701117216E+03  0.11706870229E+04  0.11979272861E+04  0.80861430851E+02 0.  0.
          5    1    3    3  501    0  0.19467520566E+02  0.45240493282E+02  0.19540954771E+03  0.20157546460E+03  0.47000000000E+01 0. -1.
        -11    1    4    4    0    0 -0.17882048059E+03  0.73750629163E+02  0.70066572250E+03  0.72687576261E+03  0.00000000000E+00 0.  1.
         12    1    4    4    0    0 -0.85135684993E+02  0.97992217689E+02  0.54784790477E+03  0.56301677271E+03  0.00000000000E+00 0. -1.
         -5    1    5    5    0  502  0.61921950428E+02 -0.59972167977E+02  0.14610628755E+03  0.16970599912E+03  0.47000000000E+01 0.  1.
         11    1    6    6    0    0  0.18812449005E+03 -0.14904444587E+03  0.10608525421E+04  0.10876640965E+04  0.00000000000E+00 0. -1.
        -12    1    6    6    0    0 -0.55577954589E+01 -0.79667262850E+01  0.10983448076E+03  0.11026318961E+03  0.00000000000E+00 0.  1.
</event>
<event>
12    1  0.9962621E-001  0.1823830E+03  0.7818608E-02  0.1165593E+00
         21   -1    0    0  501  502  0.00000000000E+00  0.00000000000E+00  0.10006604889E+04  0.10006604889E+04  0.00000000000E+00 0. -1.
         21   -1    0    0  502  503 -0.00000000000E+00 -0.00000000000E+00 -0.37379955184E+02  0.37379955184E+02  0.00000000000E+00 0. -1.
         -6    2    1    2    0  503  0.30773205182E+02 -0.53351916545E+02  0.65517477480E+03  0.68000032276E+03  0.17132727825E+03 0.  0.
        -24    2    3    3    0    0 -0.44628053736E+02 -0.11598921258E+02  0.28375330449E+03  0.29868069166E+03  0.81043319314E+02 0.  0.
          6    2    1    2  501    0 -0.30773205182E+02  0.53351916545E+02  0.30810575890E+03  0.35804012131E+03  0.17166872936E+03 0.  0.
         24    2    5    5    0    0  0.23723550130E+02  0.80654913163E+02  0.23530863499E+03  0.26297771436E+03  0.81970132987E+02 0.  0.
          5    1    5    5  501    0 -0.54496755311E+02 -0.27302996618E+02  0.72797123914E+02  0.95062406944E+02  0.47000000000E+01 0. -1.
        -11    1    6    6    0    0  0.29545227153E+02  0.37552671538E+02  0.38334784483E+02  0.61259115962E+02  0.00000000000E+00 0.  1.
         12    1    6    6    0    0 -0.58216770239E+01  0.43102241626E+02  0.19697385051E+03  0.20171859840E+03  0.00000000000E+00 0. -1.
         -5    1    3    3    0  503  0.75401258918E+02 -0.41752995287E+02  0.37142147031E+03  0.38131963110E+03  0.47000000000E+01 0.  1.
         11    1    4    4    0    0 -0.75265359061E+01  0.30605125471E+02  0.57688423062E+02  0.65736417633E+02  0.00000000000E+00 0. -1.
        -12    1    4    4    0    0 -0.37101517830E+02 -0.42204046729E+02  0.22606488143E+03  0.23294427402E+03  0.00000000000E+00 0.  1.
</event>
<event>
12    1  0.9962621E-001  0.2041106E+03  0.7818608E-02  0.1146332E+00
         21   -1    0    0  503  502  0.00000000000E+00  0.00000000000E+00  0.15794218062E+03  0.15794218062E+03  0.00000000000E+00 0. -1.
         21   -1    0    0  501  503 -0.00000000000E+00 -0.00000000000E+00 -0.30545443426E+03  0.30545443426E+03  0.00000000000E+00 0. -1.
          6    2    1    2  501    0  0.87461750189E+02 -0.66349923527E+02  0.11922637276E+02  0.20445850841E+03  0.17207342120E+03 0.  0.
         24    2    3    3    0    0  0.39546185098E+02 -0.64655968066E+02 -0.54493478241E+02  0.12240997848E+03  0.79185659681E+02 0.  0.
         -6    2    1    2    0  502 -0.87461750189E+02  0.66349923527E+02 -0.15943489092E+03  0.25893810648E+03  0.17198136075E+03 0.  0.
        -24    2    5    5    0    0 -0.72327329094E+02 -0.12629888986E+02 -0.41890043672E+02  0.11643988684E+03  0.80079428434E+02 0.  0.
          5    1    3    3  501    0  0.47915565091E+02 -0.16939554618E+01  0.66416115517E+02  0.82048529928E+02  0.47000000000E+01 0. -1.
        -11    1    4    4    0    0  0.56280033991E+02 -0.71310911699E+02 -0.39855162933E+02  0.99202431249E+02  0.00000000000E+00 0.  1.
         12    1    4    4    0    0 -0.16733848893E+02  0.66549436336E+01 -0.14638315308E+02  0.23207547233E+02  0.00000000000E+00 0. -1.
         -5    1    5    5    0  502 -0.15134421095E+02  0.78979812513E+02 -0.11754484724E+03  0.14249821964E+03  0.47000000000E+01 0.  1.
         13    1    6    6    0    0 -0.59538725430E+02  0.14637523607E+02 -0.56131006255E+02  0.83125247587E+02  0.00000000000E+00 0. -1.
        -14    1    6    6    0    0 -0.12788603663E+02 -0.27267412592E+02  0.14240962583E+02  0.33314639251E+02  0.00000000000E+00 0.  1.
</event>
<event>
12    1  0.9962621E-001  0.2998701E+03  0.7818608E-02  0.1085318E+00
         21   -1    0    0  501  502  0.00000000000E+00  0.00000000000E+00  0.49215920244E+03  0.49215920244E+03  0.00000000000E+00 0.  1.
         21   -1    0    0  502  503 -0.00000000000E+00 -0.00000000000E+00 -0.26450178755E+03  0.26450178755E+03  0.00000000000E+00 0.  1.
         -6    2    1    2    0  503  0.55706367099E+02 -0.23910357879E+03 -0.96644301001E+02  0.31496686773E+03  0.17201827265E+03 0.  0.
        -24    2    3    3    0    0  0.26490876996E+02 -0.22213156465E+03 -0.12492441093E+03  0.27065604802E+03  0.87203149635E+02 0.  0.
          6    2    1    2  501    0 -0.55706367099E+02  0.23910357879E+03  0.32430171589E+03  0.44169412226E+03  0.17218703197E+03 0.  0.
         24    2    5    5    0    0 -0.69941037424E+02  0.21497999358E+03  0.33442441452E+03  0.41154230257E+03  0.80120106220E+02 0.  0.
          5    1    5    5  501    0  0.14234670324E+02  0.24123585209E+02 -0.10122698634E+02  0.30151819683E+02  0.47000000000E+01 0. -1.
        -13    1    6    6    0    0 -0.58526483858E+02  0.70750170036E+02  0.97456955589E+02  0.13389844684E+03  0.00000000000E+00 0.  1.
         14    1    6    6    0    0 -0.11414553566E+02  0.14422982355E+03  0.23696745893E+03  0.27764385574E+03  0.00000000000E+00 0. -1.
         -5    1    3    3    0  503  0.29215490103E+02 -0.16972014148E+02  0.28280109926E+02  0.44310819713E+02  0.47000000000E+01 0.  1.
         11    1    4    4    0    0  0.22193850538E+01 -0.19500434696E+03 -0.75158465940E+02  0.20899860288E+03  0.00000000000E+00 0. -1.
        -12    1    4    4    0    0  0.24271491942E+02 -0.27127217688E+02 -0.49765944986E+02  0.61657445138E+02  0.00000000000E+00 0.  1.
</event>
<event>
12    1  0.9962621E-001  0.2513499E+03  0.7818608E-02  0.1112793E+00
         21   -1    0    0  501  502  0.00000000000E+00  0.00000000000E+00  0.21711210369E+03  0.21711210369E+03  0.00000000000E+00 0. -1.
         21   -1    0    0  502  503 -0.00000000000E+00 -0.00000000000E+00 -0.29514628833E+03  0.29514628833E+03  0.00000000000E+00 0.  1.
         -6    2    1    2    0  503 -0.17756248190E+03 -0.47779027623E+02 -0.77266759432E+02  0.26090728635E+03  0.16819984987E+03 0.  0.
        -24    2    3    3    0    0 -0.14599506805E+03 -0.56623365621E+02 -0.50957008805E+00  0.17731015692E+03  0.83173713745E+02 0.  0.
          6    2    1    2  501    0  0.17756248190E+03  0.47779027623E+02 -0.76742520251E+00  0.25135110567E+03  0.17136370363E+03 0.  0.
         24    2    5    5    0    0  0.15950291486E+03  0.81739073315E+02  0.36568657036E+02  0.19754120229E+03  0.74584207231E+02 0.  0.
          5    1    5    5  501    0  0.18059567034E+02 -0.33960045692E+02 -0.37336082238E+02  0.53809903380E+02  0.47000000000E+01 0. -1.
        -13    1    6    6    0    0  0.92983033218E+02  0.12782351311E+02 -0.29388886255E+01  0.93903514512E+02  0.00000000000E+00 0.  1.
         14    1    6    6    0    0  0.66519881646E+02  0.68956722003E+02  0.39507545661E+02  0.10363768778E+03  0.00000000000E+00 0. -1.
         -5    1    3    3    0  503 -0.31567413849E+02  0.88443379980E+01 -0.76757189344E+02  0.83597129423E+02  0.47000000000E+01 0.  1.
         11    1    4    4    0    0 -0.45400257470E+02 -0.56799150665E+02  0.18277362419E+02  0.74975921946E+02  0.00000000000E+00 0. -1.
        -12    1    4    4    0    0 -0.10059481058E+03  0.17578504374E+00 -0.18786932507E+02  0.10233423498E+03  0.00000000000E+00 0.  1.
</event>
<event>
12    1  0.9962621E-001  0.1790544E+03  0.7818608E-02  0.1169066E+00
         21   -1    0    0  503  502  0.00000000000E+00  0.00000000000E+00  0.13366184675E+03  0.13366184675E+03  0.00000000000E+00 0.  1.
         21   -1    0    0  501  503 -0.00000000000E+00 -0.00000000000E+00 -0.29351070342E+03  0.29351070342E+03  0.00000000000E+00 0.  1.
          6    2    1    2  501    0  0.47129702057E+02  0.62392752013E+00  0.12723575388E+02  0.17950593031E+03  0.17273937462E+03 0.  0.
         24    2    3    3    0    0  0.40232082519E+02 -0.35940474472E+02 -0.47790739384E+02  0.10831179474E+03  0.80852655734E+02 0.  0.
         -6    2    1    2    0  502 -0.47129702057E+02 -0.62392752013E+00 -0.17257243206E+03  0.24766661986E+03  0.17127729617E+03 0.  0.
        -24    2    5    5    0    0 -0.17551402031E+01 -0.57178966276E+02 -0.13752652086E+03  0.16699674218E+03  0.75510616862E+02 0.  0.
          5    1    3    3  501    0  0.68976195382E+01  0.36564401992E+02  0.60514314772E+02  0.71194135577E+02  0.47000000000E+01 0. -1.
        -13    1    4    4    0    0 -0.23389947601E+02 -0.76147381685E+01 -0.24905937333E+02  0.35005422445E+02  0.00000000000E+00 0.  1.
         14    1    4    4    0    0  0.63622030120E+02 -0.28325736303E+02 -0.22884802051E+02  0.73306372291E+02  0.00000000000E+00 0. -1.
         -5    1    5    5    0  502 -0.45374561854E+02  0.56555038756E+02 -0.35045911199E+02  0.80669877673E+02  0.47000000000E+01 0.  1.
         11    1    6    6    0    0 -0.21839606658E+02 -0.11269364878E+02 -0.10361591203E+03  0.10649048892E+03  0.00000000000E+00 0. -1.
        -12    1    6    6    0    0  0.20084466455E+02 -0.45909601398E+02 -0.33910608828E+02  0.60506253267E+02  0.00000000000E+00 0.  1.
</event>
<event>
12    1  0.9962621E-001  0.1896054E+03  0.7818608E-02  0.1161903E+00
         21   -1    0    0  503  502  0.00000000000E+00  0.00000000000E+00  0.44560058101E+03  0.44560058101E+03  0.00000000000E+00 0. -1.
         21   -1    0    0  501  503 -0.00000000000E+00 -0.00000000000E+00 -0.75206279866E+02  0.75206279866E+02  0.00000000000E+00 0. -1.
          6    2    1    2  501    0  0.36614953110E+02 -0.12362629735E+02  0.17433408188E+03  0.24806188657E+03  0.17218837957E+03 0.  0.
         24    2    3    3    0    0 -0.21071766212E+02  0.82510334156E+01  0.28799328252E+02  0.90089942196E+02  0.82308550549E+02 0.  0.
         -6    2    1    2    0  502 -0.36614953110E+02  0.12362629735E+02  0.19606021926E+03  0.27274497430E+03  0.18562521926E+03 0.  0.
        -24    2    5    5    0    0  0.30080137943E+02  0.15968529434E+02  0.18590766188E+03  0.20502199368E+03  0.79451560813E+02 0.  0.
          5    1    3    3  501    0  0.57686719322E+02 -0.20613663150E+02  0.14553475363E+03  0.15797194438E+03  0.47000000000E+01 0. -1.
        -13    1    4    4    0    0  0.10957702465E+01  0.74813743078E+01  0.55138947644E+02  0.55654965827E+02  0.00000000000E+00 0.  1.
         14    1    4    4    0    0 -0.22167536459E+02  0.76965910773E+00 -0.26339619392E+02  0.34434976369E+02  0.00000000000E+00 0. -1.
         -5    1    5    5    0  502 -0.66695091052E+02 -0.36058996989E+01  0.10152557378E+02  0.67722980623E+02  0.47000000000E+01 0.  1.
         13    1    6    6    0    0  0.33736029094E+01 -0.27321879544E+02  0.11178546239E+03  0.11512539208E+03  0.00000000000E+00 0. -1.
        -14    1    6    6    0    0  0.26706535033E+02  0.43290408977E+02  0.74122199486E+02  0.89896601601E+02  0.00000000000E+00 0.  1.
</event>
<event>
12    1  0.9962621E-001  0.2544249E+03  0.7818608E-02  0.1111797E+00
         21   -1    0    0  501  502  0.00000000000E+00  0.00000000000E+00  0.25716380487E+03  0.25716380487E+03  0.00000000000E+00 0. -1.
         21   -1    0    0  502  503 -0.00000000000E+00 -0.00000000000E+00 -0.26708826983E+03  0.26708826983E+03  0.00000000000E+00 0.  1.
         -6    2    1    2    0  503 -0.17621793579E+03 -0.47382138083E+01  0.72253395822E+02  0.26448550753E+03  0.18345794865E+03 0.  0.
        -24    2    3    3    0    0 -0.15569132274E+03 -0.65958962054E+02  0.67682798743E+02  0.19958325628E+03  0.81621947374E+02 0.  0.
          6    2    1    2  501    0  0.17621793579E+03  0.47382138083E+01 -0.82177860781E+02  0.25976656718E+03  0.17219250000E+03 0.  0.
         24    2    5    5    0    0  0.50812832779E+02  0.16088221540E+02 -0.94078126176E+02  0.13320050201E+03  0.77787563677E+02 0.  0.
          5    1    5    5  501    0  0.12540510301E+03 -0.11350007732E+02  0.11900265395E+02  0.12656606517E+03  0.47000000000E+01 0. -1.
        -11    1    6    6    0    0  0.74518842251E+01 -0.25608629842E+02 -0.55941590385E+02  0.61974140056E+02  0.00000000000E+00 0.  1.
         12    1    6    6    0    0  0.43360948554E+02  0.41696851382E+02 -0.38136535792E+02  0.71226361952E+02  0.00000000000E+00 0. -1.
         -5    1    3    3    0  503 -0.20526613050E+02  0.61220748246E+02  0.45705970795E+01  0.64902251246E+02  0.47000000000E+01 0.  1.
         11    1    4    4    0    0 -0.81934749647E+02 -0.37466710456E+02 -0.75907274450E+01  0.90413918925E+02  0.00000000000E+00 0. -1.
        -12    1    4    4    0    0 -0.73756573088E+02 -0.28492251597E+02  0.75273526188E+02  0.10916933736E+03  0.00000000000E+00 0.  1.
</event>
<event>
12    1  0.9962621E-001  0.1753248E+03  0.7818608E-02  0.1172958E+00
         21   -1    0    0  501  502  0.00000000000E+00  0.00000000000E+00  0.65352880505E+03  0.65352880505E+03  0.00000000000E+00 0. -1.
         21   -1    0    0  502  503 -0.00000000000E+00 -0.00000000000E+00 -0.68186534562E+02  0.68186534562E+02  0.00000000000E+00 0. -1.
         -6    2    1    2    0  503 -0.11866462527E+02 -0.23262268236E+02  0.49516164571E+03  0.52455723659E+03  0.17115283526E+03 0.  0.
        -24    2    3    3    0    0 -0.53862556754E+02 -0.54951411576E+02  0.40566345508E+03  0.42063471804E+03  0.80311235685E+02 0.  0.
          6    2    1    2  501    0  0.11866462527E+02  0.23262268236E+02  0.90180624778E+02  0.19715810302E+03  0.17336904697E+03 0.  0.
         24    2    5    5    0    0  0.11836720072E+02 -0.44265962659E+02  0.30324318548E+02  0.10679809944E+03  0.91578853214E+02 0.  0.
          5    1    5    5  501    0  0.29742454421E-01  0.67528230895E+02  0.59856306230E+02  0.90360003585E+02  0.47000000000E+01 0. -1.
        -11    1    6    6    0    0 -0.35804580306E+02 -0.35677368472E+02  0.29204460883E+02  0.58375877959E+02  0.00000000000E+00 0.  1.
         12    1    6    6    0    0  0.47641300378E+02 -0.85885941873E+01  0.11198576647E+01  0.48422221479E+02  0.00000000000E+00 0. -1.
         -5    1    3    3    0  503  0.41996094227E+02  0.31689143340E+02  0.89498190630E+02  0.10392251855E+03  0.47000000000E+01 0.  1.
         13    1    4    4    0    0  0.18845711990E+02 -0.27851318568E+02  0.12181435459E+03  0.12637085815E+03  0.00000000000E+00 0. -1.
        -14    1    4    4    0    0 -0.72708268744E+02 -0.27100093008E+02  0.28384910049E+03  0.29426385988E+03  0.00000000000E+00 0.  1.
</event>
<event>
12    1  0.9962621E-001  0.1775146E+03  0.7818608E-02  0.1170799E+00
         21   -1    0    0  503  502  0.00000000000E+00  0.00000000000E+00  0.11255250516E+04  0.11255250516E+04  0.00000000000E+00 0.  1.
         21   -1    0    0  501  503 -0.00000000000E+00 -0.00000000000E+00 -0.34279711227E+02  0.34279711227E+02  0.00000000000E+00 0.  1.
          6    2    1    2  501    0  0.30071197975E+02  0.19189890343E+02  0.29320574273E+03  0.34275505805E+03  0.17389333917E+03 0.  0.
         24    2    3    3    0    0 -0.28148534933E+01  0.76623646941E+02  0.17549488689E+03  0.20763265295E+03  0.80210701113E+02 0.  0.
         -6    2    1    2    0  502 -0.30071197975E+02 -0.19189890343E+02  0.79803959761E+03  0.81704970474E+03  0.17155317495E+03 0.  0.
        -24    2    5    5    0    0 -0.51488830384E+02 -0.62671299394E+02  0.39114699618E+03  0.40725338094E+03  0.79249935277E+02 0.  0.
          5    1    3    3  501    0  0.32886051468E+02 -0.57433756599E+02  0.11771085584E+03  0.13512240510E+03  0.47000000000E+01 0. -1.
        -11    1    4    4    0    0  0.27626210558E+02  0.35719139709E+02  0.31991685256E+02  0.55340151580E+02  0.00000000000E+00 0.  1.
         12    1    4    4    0    0 -0.30441064051E+02  0.40904507233E+02  0.14350320164E+03  0.15229250137E+03  0.00000000000E+00 0. -1.
         -5    1    5    5    0  502  0.21417632409E+02  0.43481409051E+02  0.40689260142E+03  0.40979632381E+03  0.47000000000E+01 0.  1.
         13    1    6    6    0    0  0.93809534624E+00 -0.23841216805E+01  0.20083561457E+03  0.20085195578E+03  0.00000000000E+00 0. -1.
        -14    1    6    6    0    0 -0.52426925730E+02 -0.60287177713E+02  0.19031138161E+03  0.20640142516E+03  0.00000000000E+00 0.  1.
</event>
<event>
12    1  0.9962621E-001  0.1792406E+03  0.7818608E-02  0.1168934E+00
         21   -1    0    0  503  502  0.00000000000E+00  0.00000000000E+00  0.17303115931E+04  0.17303115931E+04  0.00000000000E+00 0.  1.
         21   -1    0    0  501  503 -0.00000000000E+00 -0.00000000000E+00 -0.25002017576E+02  0.25002017576E+02  0.00000000000E+00 0.  1.
          6    2    1    2  501    0  0.19965274005E+02  0.41648762111E+02  0.13064496153E+04  0.13186879090E+04  0.17318768051E+03 0.  0.
         24    2    3    3    0    0  0.55065951682E+02  0.76556368611E+02  0.75283140667E+03  0.76284097917E+03  0.79234437076E+02 0.  0.
         -6    2    1    2    0  502 -0.19965274005E+02 -0.41648762111E+02  0.39885996027E+03  0.43662570164E+03  0.17152114703E+03 0.  0.
        -24    2    5    5    0    0 -0.70768606298E+02 -0.57540307314E+02  0.31304783158E+03  0.33553499381E+03  0.79156203843E+02 0.  0.
          5    1    3    3  501    0 -0.35100677677E+02 -0.34907606500E+02  0.55361820860E+03  0.55584692988E+03  0.47000000000E+01 0. -1.
        -13    1    4    4    0    0  0.94136262302E+01  0.33458289795E+02  0.53540097368E+03  0.53652798262E+03  0.00000000000E+00 0.  1.
         14    1    4    4    0    0  0.45652325452E+02  0.43098078816E+02  0.21743043299E+03  0.22631299655E+03  0.00000000000E+00 0. -1.
         -5    1    5    5    0  502  0.50803332293E+02  0.15891545202E+02  0.85812128683E+02  0.10109070783E+03  0.47000000000E+01 0.  1.
         11    1    6    6    0    0 -0.68189680812E+01 -0.39494129998E+02  0.20350917491E+03  0.20741810167E+03  0.00000000000E+00 0. -1.
        -12    1    6    6    0    0 -0.63949638217E+02 -0.18046177315E+02  0.10953865668E+03  0.12811689213E+03  0.00000000000E+00 0.  1.
</event>
<event>
12    1  0.9962621E-001  0.2749078E+03  0.7818608E-02  0.1098564E+00
         21   -1    0    0  503  502  0.00000000000E+00  0.00000000000E+00  0.81560863685E+03  0.81560863685E+03  0.00000000000E+00 0.  1.
         21   -1    0    0  501  503 -0.00000000000E+00 -0.00000000000E+00 -0.10739205554E+03  0.10739205554E+03  0.00000000000E+00 0.  1.
          6    2    1    2  501    0  0.16989642253E+03  0.12978813179E+03  0.52564049201E+03  0.59298808505E+03  0.17212550256E+03 0.  0.
         24    2    3    3    0    0  0.18444478639E+03  0.80498008851E+02  0.46637917148E+03  0.51440586555E+03  0.81265332524E+02 0.  0.
         -6    2    1    2    0  502 -0.16989642253E+03 -0.12978813179E+03  0.18257608929E+03  0.33001260734E+03  0.17281359634E+03 0.  0.
        -24    2    5    5    0    0 -0.22069138556E+02 -0.56762359156E+02  0.11235948788E+03  0.15074149849E+03  0.79933300669E+02 0.  0.
          5    1    3    3  501    0 -0.14548363863E+02  0.49290122938E+02  0.59261320532E+02  0.78582219500E+02  0.47000000000E+01 0. -1.
        -11    1    4    4    0    0  0.83772868575E+02  0.18443769813E+02  0.28705364451E+03  0.29959616316E+03  0.00000000000E+00 0.  1.
         12    1    4    4    0    0  0.10067191781E+03  0.62054239038E+02  0.17932552697E+03  0.21480970239E+03  0.00000000000E+00 0. -1.
         -5    1    5    5    0  502 -0.14782728397E+03 -0.73025772632E+02  0.70216601412E+02  0.17927110885E+03  0.47000000000E+01 0.  1.
         11    1    6    6    0    0 -0.20384442306E+02 -0.75917014875E+02  0.74610629865E+02  0.10837741796E+03  0.00000000000E+00 0. -1.
        -12    1    6    6    0    0 -0.16846962497E+01  0.19154655718E+02  0.37748858017E+02  0.42364080525E+02  0.00000000000E+00 0.  1.
</event>
<event>
12    1  0.9962621E-001  0.2116895E+03  0.7818608E-02  0.1140567E+00
         21   -1    0    0  501  502  0.00000000000E+00  0.00000000000E+00  0.11737010858E+03  0.11737010858E+03  0.00000000000E+00 0. -1.
         21   -1    0    0  502  503 -0.00000000000E+00 -0.00000000000E+00 -0.38399432207E+03  0.38399432207E+03  0.00000000000E+00 0. -1.
         -6    2    1    2    0  503  0.12239245128E+03  0.17855408024E+02 -0.16307169390E+03  0.26721677544E+03  0.17179551799E+03 0.  0.
        -24    2    3    3    0    0  0.26557690099E+02  0.27287853657E+02 -0.14357960835E+03  0.16885365288E+03  0.80290188052E+02 0.  0.
          6    2    1    2  501    0 -0.12239245128E+03 -0.17855408024E+02 -0.10355251959E+03  0.23414765521E+03  0.16971526862E+03 0.  0.
         24    2    5    5    0    0 -0.11496847407E+03  0.50703393483E+01 -0.13474226961E+03  0.19445387943E+03  0.80083541590E+02 0.  0.
          5    1    5    5  501    0 -0.74239772084E+01 -0.22925747372E+02  0.31189750015E+02  0.39693775786E+02  0.47000000000E+01 0. -1.
        -13    1    6    6    0    0 -0.35569760203E+02  0.31986671857E+02 -0.83398632617E+02  0.96144094670E+02  0.00000000000E+00 0.  1.
         14    1    6    6    0    0 -0.79398713868E+02 -0.26916332509E+02 -0.51343636991E+02  0.98309784758E+02  0.00000000000E+00 0. -1.
         -5    1    3    3    0  503  0.95834761181E+02 -0.94324456335E+01 -0.19492085546E+02  0.98363122562E+02  0.47000000000E+01 0.  1.
         11    1    4    4    0    0  0.23935504276E+02  0.53777833390E+02 -0.11833630182E+03  0.13216824149E+03  0.00000000000E+00 0. -1.
        -12    1    4    4    0    0  0.26221858233E+01 -0.26489979733E+02 -0.25243306527E+02  0.36685411394E+02  0.00000000000E+00 0.  1.
</event>
<event>
12    1  0.9962621E-001  0.2211625E+03  0.7818608E-02  0.1133042E+00
         21   -1    0    0  501  502  0.00000000000E+00  0.00000000000E+00  0.11262180759E+04  0.11262180759E+04  0.00000000000E+00 0. -1.
         21   -1    0    0  502  503 -0.00000000000E+00 -0.00000000000E+00 -0.80797973743E+02  0.80797973743E+02  0.00000000000E+00 0. -1.
         -6    2    1    2    0  503  0.10045497723E+03 -0.95471806788E+02  0.93334030171E+03  0.95918557798E+03  0.17235656607E+03 0.  0.
        -24    2    3    3    0    0  0.32781974596E+02 -0.71138309174E+02  0.27851672929E+03  0.30040810767E+03  0.80858801432E+02 0.  0.
          6    2    1    2  501    0 -0.10045497723E+03  0.95471806788E+02  0.11207980043E+03  0.24783047165E+03  0.17219753968E+03 0.  0.
         24    2    5    5    0    0 -0.14513078070E+02 -0.69881902661E+01  0.20139663933E+02  0.85475491046E+02  0.81492265080E+02 0.  0.
          5    1    5    5  501    0 -0.85941899157E+02  0.10245999705E+03  0.91940136500E+02  0.16235498060E+03  0.47000000000E+01 0. -1.
        -13    1    6    6    0    0 -0.44206126832E+02  0.13521963962E+02  0.16986358803E+02  0.49249990297E+02  0.00000000000E+00 0.  1.
         14    1    6    6    0    0  0.29693048763E+02 -0.20510154228E+02  0.31533051307E+01  0.36225500749E+02  0.00000000000E+00 0. -1.
         -5    1    3    3    0  503  0.67673002630E+02 -0.24333497615E+02  0.65482357242E+03  0.65877747031E+03  0.47000000000E+01 0.  1.
         13    1    4    4    0    0  0.27592536934E+02 -0.14401760163E+02  0.23221750196E+02  0.38833084766E+02  0.00000000000E+00 0. -1.
        -14    1    4    4    0    0  0.51894376622E+01 -0.56736549011E+02  0.25529497909E+03  0.26157502290E+03  0.00000000000E+00 0.  1.
</event>
<event>
12    1  0.9962621E-001  0.2174797E+03  0.7818608E-02  0.1136708E+00
         21   -1    0    0  501  502  0.00000000000E+00  0.00000000000E+00  0.21702730516E+03  0.21702730516E+03  0.00000000000E+00 0.  1.
         21   -1    0    0  502  503 -0.00000000000E+00 -0.00000000000E+00 -0.21461981134E+03  0.21461981134E+03  0.00000000000E+00 0.  1.
         -6    2    1    2    0  503 -0.38920174895E+02 -0.13162349653E+03  0.19480279806E+02  0.21835037370E+03  0.16869463399E+03 0.  0.
        -24    2    3    3    0    0 -0.17344224542E+02 -0.45604199528E+02  0.69357731300E+02  0.11649414532E+03  0.79873812126E+02 0.  0.
          6    2    1    2  501    0  0.38920174895E+02  0.13162349653E+03 -0.17072785993E+02  0.21329674281E+03  0.16237147415E+03 0.  0.
         24    2    5    5    0    0  0.36576204518E+02  0.12860050472E+03 -0.63592778362E+02  0.16638371299E+03  0.75918310945E+02 0.  0.
          5    1    5    5  501    0  0.23439703773E+01  0.30229918132E+01  0.46519992369E+02  0.46913029817E+02  0.47000000000E+01 0. -1.
        -13    1    6    6    0    0  0.37659443200E+02  0.15667270156E+02 -0.15565223542E+02  0.43657452974E+02  0.00000000000E+00 0.  1.
         14    1    6    6    0    0 -0.10832386815E+01  0.11293323457E+03 -0.48027554819E+02  0.12272626002E+03  0.00000000000E+00 0. -1.
         -5    1    3    3    0  503 -0.21575950353E+02 -0.86019297007E+02 -0.49877451494E+02  0.10185622837E+03  0.47000000000E+01 0.  1.
         11    1    4    4    0    0 -0.76508090746E+01 -0.45088975632E+02  0.85899034517E+02  0.97314925546E+02  0.00000000000E+00 0. -1.
        -12    1    4    4    0    0 -0.96934154676E+01 -0.51522389556E+00 -0.16541303217E+02  0.19179219775E+02  0.00000000000E+00 0.  1.
</event>
<event>
12    1  0.9962621E-001  0.2620334E+03  0.7818608E-02  0.1105935E+00
         21   -1    0    0  501  502  0.00000000000E+00  0.00000000000E+00  0.23412757135E+03  0.23412757135E+03  0.00000000000E+00 0. -1.
         21   -1    0    0  502  503 -0.00000000000E+00 -0.00000000000E+00 -0.55322352058E+03  0.55322352058E+03  0.00000000000E+00 0. -1.
         -6    2    1    2    0  503  0.62600816258E+02  0.18756604483E+03 -0.42943058455E+03  0.50303574398E+03  0.17185589719E+03 0.  0.
        -24    2    3    3    0    0 -0.37232841823E+02  0.60334427151E+02 -0.18412129441E+03  0.20917628496E+03  0.69480497442E+02 0.  0.
          6    2    1    2  501    0 -0.62600816258E+02 -0.18756604483E+03  0.11033463532E+03  0.28431534795E+03  0.17193487709E+03 0.  0.
         24    2    5    5    0    0 -0.14283556256E+02 -0.17090371823E+03  0.32787851547E+02  0.19132188358E+03  0.78210734834E+02 0.  0.
          5    1    5    5  501    0 -0.48317260002E+02 -0.16662326600E+02  0.77546783777E+02  0.92993464372E+02  0.47000000000E+01 0. -1.
        -11    1    6    6    0    0 -0.16654120192E+02 -0.93365276657E+01 -0.13329150715E+02  0.23285118144E+02  0.00000000000E+00 0.  1.
         12    1    6    6    0    0  0.23705639360E+01 -0.16156719057E+03  0.46117002262E+02  0.16803676544E+03  0.00000000000E+00 0. -1.
         -5    1    3    3    0  503  0.99833658082E+02  0.12723161768E+03 -0.24530929014E+03  0.29385945902E+03  0.47000000000E+01 0.  1.
         13    1    4    4    0    0 -0.20828267543E+02 -0.12706564410E+02 -0.44059313889E+02  0.50363644113E+02  0.00000000000E+00 0. -1.
        -14    1    4    4    0    0 -0.16404574280E+02  0.73040991561E+02 -0.14006198052E+03  0.15881264085E+03  0.00000000000E+00 0.  1.
</event>
<event>
12    1  0.9962621E-001  0.1808936E+03  0.7818608E-02  0.1167253E+00
         21   -1    0    0  501  502  0.00000000000E+00  0.00000000000E+00  0.18998587304E+02  0.18998587304E+02  0.00000000000E+00 0.  1.
         21   -1    0    0  502  503 -0.00000000000E+00 -0.00000000000E+00 -0.18660250161E+04  0.18660250161E+04  0.00000000000E+00 0.  1.
         -6    2    1    2    0  503  0.39667284512E+02  0.34167236885E+02 -0.11929431192E+04  0.12063871186E+04  0.17180134091E+03 0.  0.
        -24    2    3    3    0    0  0.69133151438E+02  0.64901689459E+02 -0.10467812222E+04  0.10540774537E+04  0.79603576028E+02 0.  0.
          6    2    1    2  501    0 -0.39667284512E+02 -0.34167236885E+02 -0.65408330954E+03  0.67863648475E+03  0.17315198260E+03 0.  0.
         24    2    5    5    0    0 -0.20422833481E+02 -0.83077926144E+02 -0.29900605556E+03  0.31965939535E+03  0.73881485056E+02 0.  0.
          5    1    5    5  501    0 -0.19244451032E+02  0.48910689259E+02 -0.35507725398E+03  0.35897708940E+03  0.47000000000E+01 0. -1.
        -13    1    6    6    0    0 -0.10260374479E+02 -0.10257433998E+02 -0.17421764119E+03  0.17482069883E+03  0.00000000000E+00 0.  1.
         14    1    6    6    0    0 -0.10162459002E+02 -0.72820492146E+02 -0.12478841437E+03  0.14483869652E+03  0.00000000000E+00 0. -1.
         -5    1    3    3    0  503 -0.29465866926E+02 -0.30734452574E+02 -0.14616189704E+03  0.15230966494E+03  0.47000000000E+01 0.  1.
         11    1    4    4    0    0  0.51095974007E+02  0.81406680311E+02 -0.72065839889E+03  0.72703945838E+03  0.00000000000E+00 0. -1.
        -12    1    4    4    0    0  0.18037177431E+02 -0.16504990852E+02 -0.32612282329E+03  0.32703799529E+03  0.00000000000E+00 0.  1.
</event>
<event>
12    1  0.9962621E-001  0.1894601E+03  0.7818608E-02  0.1161966E+00
         21   -1    0    0  501  502  0.00000000000E+00  0.00000000000E+00  0.35024691791E+03  0.35024691791E+03  0.00000000000E+00 0. -1.
         21   -1    0    0  502  503 -0.00000000000E+00 -0.00000000000E+00 -0.13539262193E+03  0.13539262193E+03  0.00000000000E+00 0. -1.
         -6    2    1    2    0  503 -0.42338419640E+02 -0.16729956621E+02  0.24157769029E+03  0.30700962675E+03  0.18390948111E+03 0.  0.
        -24    2    3    3    0    0  0.78332745522E+01  0.23573905499E+02  0.38895371971E+02  0.94303697445E+02  0.82238969962E+02 0.  0.
          6    2    1    2  501    0  0.42338419640E+02  0.16729956621E+02 -0.26723394314E+02  0.17862991309E+03  0.17065190541E+03 0.  0.
         24    2    5    5    0    0 -0.31080735930E+02 -0.85865013320E+01 -0.49676839902E+02  0.97511196921E+02  0.77465508139E+02 0.  0.
          5    1    5    5  501    0  0.73419155570E+02  0.25316457953E+02  0.22953445588E+02  0.81118716165E+02  0.47000000000E+01 0. -1.
        -11    1    6    6    0    0  0.12043643719E+01  0.28737433657E+02 -0.19032857088E+01  0.28825563017E+02  0.00000000000E+00 0.  1.
         12    1    6    6    0    0 -0.32285100302E+02 -0.37323934989E+02 -0.47773554194E+02  0.68685633905E+02  0.00000000000E+00 0. -1.
         -5    1    3    3    0  503 -0.50171694192E+02 -0.40303862120E+02  0.20268231832E+03  0.21270592930E+03  0.47000000000E+01 0.  1.
         11    1    4    4    0    0 -0.53954456189E+01 -0.24923112105E+02 -0.67765417242E+01  0.26385485937E+02  0.00000000000E+00 0. -1.
        -12    1    4    4    0    0  0.13228720171E+02  0.48497017604E+02  0.45671913695E+02  0.67918211507E+02  0.00000000000E+00 0.  1.
</event>
<event>
12    1  0.9962621E-001  0.2037248E+03  0.7818608E-02  0.1146929E+00
         21   -1    0    0  501  502  0.00000000000E+00  0.00000000000E+00  0.14929696897E+02  0.14929696897E+02  0.00000000000E+00 0. -1.
         21   -1    0    0  502  503 -0.00000000000E+00 -0.00000000000E+00 -0.28720233081E+04  0.28720233081E+04  0.00000000000E+00 0. -1.
         -6    2    1    2    0  503 -0.59984878261E+02 -0.87508902068E+02 -0.17177767739E+04  0.17298152575E+04  0.17391890784E+03 0.  0.
        -24    2    3    3    0    0 -0.87038317400E+01 -0.11768942715E+03 -0.11329704122E+04  0.11419707368E+04  0.80923734498E+02 0.  0.
          6    2    1    2  501    0  0.59984878261E+02  0.87508902068E+02 -0.11393168372E+04  0.11571377475E+04  0.17224667602E+03 0.  0.
         24    2    5    5    0    0  0.27339797045E+02  0.70184196118E+02 -0.10882813606E+04  0.10939510666E+04  0.81849437112E+02 0.  0.
          5    1    5    5  501    0  0.32645081217E+02  0.17324705949E+02 -0.51035476642E+02  0.63186680875E+02  0.47000000000E+01 0. -1.
        -13    1    6    6    0    0  0.56557385563E+02  0.40490534716E+02 -0.67133554405E+03  0.67492935480E+03  0.00000000000E+00 0.  1.
         14    1    6    6    0    0 -0.29217588518E+02  0.29693661402E+02 -0.41694581655E+03  0.41902171178E+03  0.00000000000E+00 0. -1.
         -5    1    3    3    0  503 -0.51281046521E+02  0.30180525086E+02 -0.58480636174E+03  0.58784452074E+03  0.47000000000E+01 0.  1.
         13    1    4    4    0    0 -0.12157231381E+02 -0.32521233073E+02 -0.10758284541E+03  0.11304643958E+03  0.00000000000E+00 0. -1.
        -14    1    4    4    0    0  0.34533996414E+01 -0.85168194081E+02 -0.10253875668E+04  0.10289242972E+04  0.00000000000E+00 0.  1.
</event>
<event>
12    1  0.9962621E-001  0.2347212E+03  0.7818608E-02  0.1123804E+00
         21   -1    0    0  501  502  0.00000000000E+00  0.00000000000E+00  0.54486502271E+02  0.54486502271E+02  0.00000000000E+00 0. -1.
         21   -1    0    0  502  503 -0.00000000000E+00 -0.00000000000E+00 -0.10082833148E+04  0.10082833148E+04  0.00000000000E+00 0. -1.
         -6    2    1    2    0  503 -0.10693969650E+03 -0.11478820311E+03 -0.52741231890E+03  0.57728483597E+03  0.17458979766E+03 0.  0.
        -24    2    3    3    0    0 -0.54286883416E+02 -0.86925394962E+02 -0.15667786266E+03  0.20176548647E+03  0.75221465566E+02 0.  0.
          6    2    1    2  501    0  0.10693969650E+03  0.11478820311E+03 -0.42638449366E+03  0.48548498114E+03  0.17111253670E+03 0.  0.
         24    2    5    5    0    0  0.86187708541E+02  0.14964559063E+03 -0.36345579672E+03  0.41046636100E+03  0.80996255733E+02 0.  0.
          5    1    5    5  501    0  0.20751987961E+02 -0.34857387520E+02 -0.62928696938E+02  0.75018620138E+02  0.47000000000E+01 0. -1.
        -11    1    6    6    0    0  0.56610833134E+02  0.62935651846E+02 -0.97220896806E+02  0.12890921409E+03  0.00000000000E+00 0.  1.
         12    1    6    6    0    0  0.29576875407E+02  0.86709938783E+02 -0.26623489992E+03  0.28155714691E+03  0.00000000000E+00 0. -1.
         -5    1    3    3    0  503 -0.52652813086E+02 -0.27862808147E+02 -0.37073445624E+03  0.37551934950E+03  0.47000000000E+01 0.  1.
         11    1    4    4    0    0 -0.23810047287E+02 -0.43660822211E+02 -0.13624344949E+03  0.14503607578E+03  0.00000000000E+00 0. -1.
        -12    1    4    4    0    0 -0.30476836128E+02 -0.43264572750E+02 -0.20434413169E+02  0.56729410690E+02  0.00000000000E+00 0.  1.
</event>
<event>
12    1  0.9962621E-001  0.2795892E+03  0.7818608E-02  0.1095946E+00
         21   -1    0    0  503  502  0.00000000000E+00  0.00000000000E+00  0.62597917010E+02  0.62597917010E+02  0.00000000000E+00 0. -1.
         21   -1    0    0  501  503 -0.00000000000E+00 -0.00000000000E+00 -0.22948286877E+04  0.22948286877E+04  0.00000000000E+00 0.  1.
          6    2    1    2  501    0  0.19708532593E+03  0.10088818718E+03 -0.32015336758E+03  0.42505094167E+03  0.17073099377E+03 0.  0.
         24    2    3    3    0    0  0.20434063789E+03  0.46587625388E+02 -0.26625068797E+03  0.34805237395E+03  0.79533156833E+02 0.  0.
         -6    2    1    2    0  502 -0.19708532593E+03 -0.10088818718E+03 -0.19120774031E+04  0.19323756631E+04  0.17033688857E+03 0.  0.
        -24    2    5    5    0    0 -0.21565570652E+03 -0.98642120755E+02 -0.15771482868E+04  0.15968916742E+04  0.80178854220E+02 0.  0.
          5    1    3    3  501    0 -0.72553119533E+01  0.54300561788E+02 -0.53902679606E+02  0.76998567719E+02  0.47000000000E+01 0. -1.
        -13    1    4    4    0    0  0.13145757672E+03  0.81858458292E+01 -0.21142403514E+03  0.24909481164E+03  0.00000000000E+00 0.  1.
         14    1    4    4    0    0  0.72883061167E+02  0.38401779559E+02 -0.54826652829E+02  0.98957562313E+02  0.00000000000E+00 0. -1.
         -5    1    5    5    0  502  0.18570380588E+02 -0.22460664214E+01 -0.33492911631E+03  0.33548398889E+03  0.47000000000E+01 0.  1.
         11    1    6    6    0    0 -0.14784697964E+03 -0.65991088942E+02 -0.12868984962E+04  0.12970432887E+04  0.00000000000E+00 0. -1.
        -12    1    6    6    0    0 -0.67808726878E+02 -0.32651031813E+02 -0.29024979060E+03  0.29984838546E+03  0.00000000000E+00 0.  1.
</event>
<event>
12    1  0.9962621E-001  0.2545945E+03  0.7818608E-02  0.1110476E+00
         21   -1    0    0  503  502  0.00000000000E+00  0.00000000000E+00  0.83197815290E+03  0.83197815290E+03  0.00000000000E+00 0. -1.
         21   -1    0    0  501  503 -0.00000000000E+00 -0.00000000000E+00 -0.78771490712E+02  0.78771490712E+02  0.00000000000E+00 0. -1.
          6    2    1    2  501    0 -0.60071219144E+02  0.17750377519E+03  0.42627263185E+03  0.49637759377E+03  0.17194829850E+03 0.  0.
         24    2    3    3    0    0 -0.19418983588E+02  0.10409132439E+03  0.37556849688E+03  0.39821960128E+03  0.79467315630E+02 0.  0.
         -6    2    1    2    0  502  0.60071219144E+02 -0.17750377519E+03  0.32693403034E+03  0.41437204984E+03  0.17234324449E+03 0.  0.
        -24    2    5    5    0    0  0.33354062482E+02 -0.11837029669E+02  0.12768824461E+03  0.15383366464E+03  0.78153053752E+02 0.  0.
          5    1    3    3  501    0 -0.40652235556E+02  0.73412450795E+02  0.50704134968E+02  0.98157992493E+02  0.47000000000E+01 0. -1.
        -11    1    4    4    0    0 -0.11738024109E+02  0.57557692304E+02  0.81901697462E+02  0.10078966812E+03  0.00000000000E+00 0.  1.
         12    1    4    4    0    0 -0.76809594788E+01  0.46533632090E+02  0.29366679942E+03  0.29742993316E+03  0.00000000000E+00 0. -1.
         -5    1    5    5    0  502  0.26717156662E+02 -0.16566674552E+03  0.19924578573E+03  0.26053838520E+03  0.47000000000E+01 0.  1.
         13    1    6    6    0    0 -0.20686132795E+02  0.12733834273E+01  0.72826464478E+02  0.75718105653E+02  0.00000000000E+00 0. -1.
        -14    1    6    6    0    0  0.54040195277E+02 -0.13110413097E+02  0.54861780131E+02  0.78115558990E+02  0.00000000000E+00 0.  1.
</event>
<event>
12    1  0.9962621E-001  0.1909384E+03  0.7818608E-02  0.1157920E+00
         21   -1    0    0  503  502  0.00000000000E+00  0.00000000000E+00  0.29225855977E+03  0.29225855977E+03  0.00000000000E+00 0.  1.
         21   -1    0    0  501  503 -0.00000000000E+00 -0.00000000000E+00 -0.24002582378E+03  0.24002582378E+03  0.00000000000E+00 0.  1.
          6    2    1    2  501    0 -0.78249891504E+02 -0.16662257044E+02  0.21121178526E+03  0.28382552602E+03  0.17188901843E+03 0.  0.
         24    2    3    3    0    0 -0.86605065429E+02 -0.46524466337E+02  0.21746313756E+03  0.25184537779E+03  0.80441996445E+02 0.  0.
         -6    2    1    2    0  502  0.78249891504E+02  0.16662257044E+02 -0.15897904927E+03  0.24845885753E+03  0.17336894026E+03 0.  0.
        -24    2    5    5    0    0  0.10747204961E+03  0.49606186771E+02 -0.97107215522E+02  0.17237041661E+03  0.79187966268E+02 0.  0.
          5    1    3    3  501    0  0.83551739249E+01  0.29862209293E+02 -0.62513522975E+01  0.31980148229E+02  0.47000000000E+01 0. -1.
        -11    1    4    4    0    0  0.60974704190E+01 -0.32609803256E+02  0.52305839876E+02  0.61939319491E+02  0.00000000000E+00 0.  1.
         12    1    4    4    0    0 -0.92702535848E+02 -0.13914663081E+02  0.16515729768E+03  0.18990605830E+03  0.00000000000E+00 0. -1.
         -5    1    5    5    0  502 -0.29222158106E+02 -0.32943929727E+02 -0.61871833749E+02  0.76088440921E+02  0.47000000000E+01 0.  1.
         13    1    6    6    0    0  0.23401661262E+02  0.27467870209E+02  0.69791611331E+01  0.36753643816E+02  0.00000000000E+00 0. -1.
        -14    1    6    6    0    0  0.84070388349E+02  0.22138316562E+02 -0.10408637666E+03  0.13561677279E+03  0.00000000000E+00 0.  1.
</event>
<event>
12    1  0.9962621E-001  0.4968364E+03  0.7818608E-02  0.1014628E+00
         21   -1    0    0  501  502  0.00000000000E+00  0.00000000000E+00  0.24495113676E+03  0.24495113676E+03  0.00000000000E+00 0.  1.
         21   -1    0    0  502  503 -0.00000000000E+00 -0.00000000000E+00 -0.10855175124E+04  0.10855175124E+04  0.00000000000E+00 0.  1.
         -6    2    1    2    0  503  0.45437381053E+01  0.46548770161E+03 -0.59917834941E+03  0.77837078242E+03  0.17362872637E+03 0.  0.
        -24    2    3    3    0    0  0.12376501776E+02  0.12529886456E+03 -0.24710153455E+03  0.28870766292E+03  0.80249380034E+02 0.  0.
          6    2    1    2  501    0 -0.45437381053E+01 -0.46548770161E+03 -0.24138802626E+03  0.55209786677E+03  0.17275540326E+03 0.  0.
         24    2    5    5    0    0  0.16836950946E+02 -0.34856249107E+03 -0.10906952777E+03  0.37416834767E+03  0.79539282179E+02 0.  0.
          5    1    5    5  501    0 -0.21380689051E+02 -0.11692521055E+03 -0.13231849849E+03  0.17792951910E+03  0.47000000000E+01 0. -1.
        -11    1    6    6    0    0  0.40912547686E+01 -0.12807085362E+03 -0.80855002620E+02  0.15151373985E+03  0.00000000000E+00 0.  1.
         12    1    6    6    0    0  0.12745696177E+02 -0.22049163744E+03 -0.28214525155E+02  0.22265460782E+03  0.00000000000E+00 0. -1.
         -5    1    3    3    0  503 -0.78327636704E+01  0.34018883705E+03 -0.35207681486E+03  0.48966311950E+03  0.47000000000E+01 0.  1.
         13    1    4    4    0    0 -0.20258479285E+02  0.10158013405E+03 -0.20879086330E+03  0.23307199363E+03  0.00000000000E+00 0. -1.
        -14    1    4    4    0    0  0.32634981061E+02  0.23718730510E+02 -0.38310671247E+02  0.55635669289E+02  0.00000000000E+00 0.  1.
</event>
<event>
12    1  0.9962621E-001  0.2074129E+03  0.7818608E-02  0.1143858E+00
         21   -1    0    0  501  502  0.00000000000E+00  0.00000000000E+00  0.34375450947E+03  0.34375450947E+03  0.00000000000E+00 0. -1.
         21   -1    0    0  502  503 -0.00000000000E+00 -0.00000000000E+00 -0.24021158461E+03  0.24021158461E+03  0.00000000000E+00 0. -1.
         -6    2    1    2    0  503  0.39486853452E+02  0.10293962661E+03 -0.15083302438E+03  0.25645802415E+03  0.17568249368E+03 0.  0.
        -24    2    3    3    0    0 -0.43426644683E+02  0.79744839959E+02 -0.84291638967E+02  0.14754295506E+03  0.80116978356E+02 0.  0.
          6    2    1    2  501    0 -0.39486853452E+02 -0.10293962661E+03  0.25437594924E+03  0.32750806992E+03  0.17435204040E+03 0.  0.
         24    2    5    5    0    0 -0.34501732210E+02  0.15186128239E+02  0.10802864351E+03  0.13931091456E+03  0.79475499872E+02 0.  0.
          5    1    5    5  501    0 -0.49851212416E+01 -0.11812575485E+03  0.14634730573E+03  0.18819715536E+03  0.47000000000E+01 0. -1.
        -11    1    6    6    0    0 -0.44687416457E+02 -0.15452287321E+02  0.33088124745E+02  0.57711024702E+02  0.00000000000E+00 0.  1.
         12    1    6    6    0    0  0.10185684246E+02  0.30638415560E+02  0.74940518768E+02  0.81599889858E+02  0.00000000000E+00 0. -1.
         -5    1    3    3    0  503  0.82913498135E+02  0.23194786655E+02 -0.66541385415E+02  0.10891506909E+03  0.47000000000E+01 0.  1.
         11    1    4    4    0    0 -0.14813512997E-02 -0.15720539076E+02 -0.15755530056E+02  0.22256955730E+02  0.00000000000E+00 0. -1.
        -12    1    4    4    0    0 -0.43425163332E+02  0.95465379034E+02 -0.68536108911E+02  0.12528599933E+03  0.00000000000E+00 0.  1.
</event>
<event>
12    1  0.9962621E-001  0.2013604E+03  0.7818608E-02  0.1150211E+00
         21   -1    0    0  503  502  0.00000000000E+00  0.00000000000E+00  0.45286184997E+03  0.45286184997E+03  0.00000000000E+00 0. -1.
         21   -1    0    0  501  503 -0.00000000000E+00 -0.00000000000E+00 -0.91230137795E+02  0.91230137795E+02  0.00000000000E+00 0. -1.
          6    2    1    2  501    0 -0.87280491327E+02 -0.21792355833E+02  0.12022509118E+03  0.23452095951E+03  0.18014776425E+03 0.  0.
         24    2    3    3    0    0 -0.60568365388E+02 -0.85579938079E+02  0.87443121463E+02  0.15784540370E+03  0.79223855563E+02 0.  0.
         -6    2    1    2    0  502  0.87280491327E+02  0.21792355833E+02  0.24140662099E+03  0.30957102825E+03  0.17165160626E+03 0.  0.
        -24    2    5    5    0    0 -0.48151757392E+01 -0.28265161967E+02  0.13070616578E+03  0.15704546395E+03  0.82201403124E+02 0.  0.
          5    1    3    3  501    0 -0.26712125939E+02  0.63787582246E+02  0.32781969716E+02  0.76675555815E+02  0.47000000000E+01 0. -1.
        -11    1    4    4    0    0 -0.86666084996E+01  0.14175453372E+02  0.22565170422E+02  0.28022142983E+02  0.00000000000E+00 0.  1.
         12    1    4    4    0    0 -0.51901756888E+02 -0.99755391451E+02  0.64877951041E+02  0.12982326072E+03  0.00000000000E+00 0. -1.
         -5    1    5    5    0  502  0.92095667066E+02  0.50057517799E+02  0.11070045521E+03  0.15252556430E+03  0.47000000000E+01 0.  1.
         11    1    6    6    0    0 -0.14548501684E+02  0.77971256391E+01 -0.42260367991E+01  0.17038587281E+02  0.00000000000E+00 0. -1.
        -12    1    6    6    0    0  0.97333259453E+01 -0.36062287606E+02  0.13493220258E+03  0.14000687667E+03  0.00000000000E+00 0.  1.
</event>
<event>
12    1  0.9962621E-001  0.2031440E+03  0.7818608E-02  0.1147266E+00
         21   -1    0    0  501  502  0.00000000000E+00  0.00000000000E+00  0.98014471944E+03  0.98014471944E+03  0.00000000000E+00 0. -1.
         21   -1    0    0  502  503 -0.00000000000E+00 -0.00000000000E+00 -0.42132675128E+02  0.42132675128E+02  0.00000000000E+00 0. -1.
         -6    2    1    2    0  503  0.72275209781E+02  0.74133417097E+02  0.43627424907E+03  0.48125120796E+03  0.17477996248E+03 0.  0.
        -24    2    3    3    0    0  0.94271703252E+02  0.98090554143E+02  0.27428088516E+03  0.31595834637E+03  0.78043333054E+02 0.  0.
          6    2    1    2  501    0 -0.72275209781E+02 -0.74133417097E+02  0.50173779525E+03  0.54102618661E+03  0.17392254006E+03 0.  0.
         24    2    5    5    0    0 -0.46846098212E+02 -0.11375510063E+03  0.43691958342E+03  0.46077652552E+03  0.79255941444E+02 0.  0.
          5    1    5    5  501    0 -0.25429111568E+02  0.39621683534E+02  0.64818211827E+02  0.80249661093E+02  0.47000000000E+01 0. -1.
        -11    1    6    6    0    0 -0.25117510983E+02 -0.80468027126E+02  0.15839486913E+03  0.17942944941E+03  0.00000000000E+00 0.  1.
         12    1    6    6    0    0 -0.21728587230E+02 -0.33287073505E+02  0.27852471429E+03  0.28134707611E+03  0.00000000000E+00 0. -1.
         -5    1    3    3    0  503 -0.21996493471E+02 -0.23957137046E+02  0.16199336391E+03  0.16529286158E+03  0.47000000000E+01 0.  1.
         11    1    4    4    0    0  0.42789353827E+02  0.80035606468E+02  0.10861777650E+03  0.14154309759E+03  0.00000000000E+00 0. -1.
        -12    1    4    4    0    0  0.51482349425E+02  0.18054947675E+02  0.16566310866E+03  0.17441524879E+03  0.00000000000E+00 0.  1.
</event>
<event>
12    1  0.9962621E-001  0.2004421E+03  0.7818608E-02  0.1149425E+00
         21   -1    0    0  503  502  0.00000000000E+00  0.00000000000E+00  0.54022200275E+03  0.54022200275E+03  0.00000000000E+00 0. -1.
         21   -1    0    0  501  503 -0.00000000000E+00 -0.00000000000E+00 -0.89917708005E+02  0.89917708005E+02  0.00000000000E+00 0. -1.
          6    2    1    2  501    0  0.10312126367E+02 -0.10369859384E+03  0.35646352704E+03  0.40881836430E+03  0.17089900693E+03 0.  0.
         24    2    3    3    0    0 -0.29648556976E+02 -0.12249804134E+03  0.31374614864E+03  0.34719742746E+03  0.78896139229E+02 0.  0.
         -6    2    1    2    0  502 -0.10312126367E+02  0.10369859384E+03  0.93840767703E+02  0.22132134645E+03  0.17122298443E+03 0.  0.
        -24    2    5    5    0    0 -0.28160226219E+02  0.12919400346E+03  0.56963558318E+02  0.17283847161E+03  0.95625317895E+02 0.  0.
          5    1    3    3  501    0  0.39960683344E+02  0.18799447508E+02  0.42717378394E+02  0.61620936838E+02  0.47000000000E+01 0. -1.
        -11    1    4    4    0    0  0.17837862341E+02 -0.59829915325E+02  0.19524199319E+03  0.20498108207E+03  0.00000000000E+00 0.  1.
         12    1    4    4    0    0 -0.47486419318E+02 -0.62668126019E+02  0.11850415546E+03  0.14221634540E+03  0.00000000000E+00 0. -1.
         -5    1    5    5    0  502  0.17848099852E+02 -0.25495409624E+02  0.36877209385E+02  0.48482874835E+02  0.47000000000E+01 0.  1.
         13    1    6    6    0    0  0.32711253615E+02  0.37543996936E+02  0.34409299649E+02  0.60527495581E+02  0.00000000000E+00 0. -1.
        -14    1    6    6    0    0 -0.60871479834E+02  0.91650006524E+02  0.22554258669E+02  0.11231097603E+03  0.00000000000E+00 0.  1.
</event>
<event>
12    1  0.9962621E-001  0.2247572E+03  0.7818608E-02  0.1130728E+00
         21   -1    0    0  503  502  0.00000000000E+00  0.00000000000E+00  0.62823549767E+03  0.62823549767E+03  0.00000000000E+00 0.  1.
         21   -1    0    0  501  503 -0.00000000000E+00 -0.00000000000E+00 -0.82685202419E+02  0.82685202419E+02  0.00000000000E+00 0.  1.
          6    2    1    2  501    0  0.11497953940E+03  0.87284921398E+02  0.33878129120E+03  0.40552063619E+03  0.16980951423E+03 0.  0.
         24    2    3    3    0    0  0.13166914060E+02  0.19570406936E+01  0.79273957788E+02  0.11395108359E+03  0.80766895661E+02 0.  0.
         -6    2    1    2    0  502 -0.11497953940E+03 -0.87284921398E+02  0.20676900405E+03  0.30540006391E+03  0.17226963172E+03 0.  0.
        -24    2    5    5    0    0 -0.10546278956E+03 -0.50068015246E+02  0.22284771979E+03  0.26349204879E+03  0.78343777220E+02 0.  0.
          5    1    3    3  501    0  0.10181262534E+03  0.85327880704E+02  0.25950733341E+03  0.29156955259E+03  0.47000000000E+01 0. -1.
        -13    1    4    4    0    0 -0.19720623310E+02 -0.30034764595E+02  0.36699770642E+02  0.51360132722E+02  0.00000000000E+00 0.  1.
         14    1    4    4    0    0  0.32887537370E+02  0.31991805289E+02  0.42574187146E+02  0.62590950872E+02  0.00000000000E+00 0. -1.
         -5    1    5    5    0  502 -0.95167498411E+01 -0.37216906152E+02 -0.16078715738E+02  0.41908015114E+02  0.47000000000E+01 0.  1.
         13    1    6    6    0    0 -0.64711554173E+02 -0.68960678427E+01  0.54173948073E+02  0.84675602419E+02  0.00000000000E+00 0. -1.
        -14    1    6    6    0    0 -0.40751235382E+02 -0.43171947403E+02  0.16867377172E+03  0.17881644637E+03  0.00000000000E+00 0.  1.
</event>
<event>
12    1  0.9962621E-001  0.2118289E+03  0.7818608E-02  0.1140363E+00
         21   -1    0    0  503  502  0.00000000000E+00  0.00000000000E+00  0.47907291920E+03  0.47907291920E+03  0.00000000000E+00 0. -1.
         21   -1    0    0  501  503 -0.00000000000E+00 -0.00000000000E+00 -0.93136418960E+02  0.93136418960E+02  0.00000000000E+00 0. -1.
          6    2    1    2  501    0 -0.22744830901E+02 -0.12026579909E+03  0.18998827804E+03  0.28364881784E+03  0.17140570674E+03 0.  0.
         24    2    3    3    0    0 -0.76705519675E+02 -0.83132337398E+02  0.15904074617E+03  0.21105067985E+03  0.80334975286E+02 0.  0.
         -6    2    1    2    0  502  0.22744830901E+02  0.12026579909E+03  0.19594822220E+03  0.28856052032E+03  0.17288805148E+03 0.  0.
        -24    2    5    5    0    0  0.66309037931E+02  0.12841708492E+03  0.16954165838E+03  0.23675627139E+03  0.80133151110E+02 0.  0.
          5    1    3    3  501    0  0.53960688774E+02 -0.37133461691E+02  0.30947531875E+02  0.72598137987E+02  0.47000000000E+01 0. -1.
        -13    1    4    4    0    0 -0.67934902750E+02 -0.16828419978E+02  0.64018451008E+02  0.94850982072E+02  0.00000000000E+00 0.  1.
         14    1    4    4    0    0 -0.87706169251E+01 -0.66303917420E+02  0.95022295159E+02  0.11619969778E+03  0.00000000000E+00 0. -1.
         -5    1    5    5    0  502 -0.43564207030E+02 -0.81512858282E+01  0.26406563820E+02  0.51804248933E+02  0.47000000000E+01 0.  1.
         11    1    6    6    0    0 -0.26704984250E+01  0.71873739351E+02  0.10231762475E+03  0.12506743103E+03  0.00000000000E+00 0. -1.
        -12    1    6    6    0    0  0.68979536356E+02  0.56543345566E+02  0.67224033634E+02  0.11168884036E+03  0.00000000000E+00 0.  1.
</event>
<event>
12    1  0.9962621E-001  0.2240578E+03  0.7818608E-02  0.1131307E+00
         21   -1    0    0  501  502  0.00000000000E+00  0.00000000000E+00  0.46348992291E+03  0.46348992291E+03  0.00000000000E+00 0. -1.
         21   -1    0    0  502  503 -0.00000000000E+00 -0.00000000000E+00 -0.11600186077E+03  0.11600186077E+03  0.00000000000E+00 0. -1.
         -6    2    1    2    0  503 -0.11268420281E+03  0.82434458962E+02  0.94851240083E+02  0.24330773068E+03  0.17523904953E+03 0.  0.
        -24    2    3    3    0    0  0.95162088716E+01  0.12455089478E+02  0.40216367974E+02  0.92188201774E+02  0.81459319959E+02 0.  0.
          6    2    1    2  501    0  0.11268420281E+03 -0.82434458962E+02  0.25263682206E+03  0.33618405300E+03  0.17234031462E+03 0.  0.
         24    2    5    5    0    0  0.30322453047E+02 -0.49845095298E+02  0.22170948917E+03  0.24224729572E+03  0.78260270979E+02 0.  0.
          5    1    5    5  501    0  0.82361749758E+02 -0.32589363664E+02  0.30927332892E+02  0.93936757274E+02  0.47000000000E+01 0. -1.
        -11    1    6    6    0    0  0.40923171378E+02 -0.20282336016E+02  0.19717040242E+03  0.20239132071E+03  0.00000000000E+00 0.  1.
         12    1    6    6    0    0 -0.10600718331E+02 -0.29562759282E+02  0.24539086749E+02  0.39855975010E+02  0.00000000000E+00 0. -1.
         -5    1    3    3    0  503 -0.12220041168E+03  0.69979369485E+02  0.54634872109E+02  0.15111952891E+03  0.47000000000E+01 0.  1.
         11    1    4    4    0    0 -0.25927474837E+02 -0.18544035987E+02  0.30482380207E+02  0.44105450062E+02  0.00000000000E+00 0. -1.
        -12    1    4    4    0    0  0.35443683708E+02  0.30999125464E+02  0.97339877666E+01  0.48082751712E+02  0.00000000000E+00 0.  1.
</event>
<event>
12    1  0.9962621E-001  0.1942673E+03  0.7818608E-02  0.1156344E+00
         21   -1    0    0  503  502  0.00000000000E+00  0.00000000000E+00  0.24714949149E+03  0.24714949149E+03  0.00000000000E+00 0.  1.
         21   -1    0    0  501  503 -0.00000000000E+00 -0.00000000000E+00 -0.18764585415E+03  0.18764585415E+03  0.00000000000E+00 0.  1.
          6    2    1    2  501    0  0.47552048689E+02  0.58323102369E+02  0.13154033756E+03  0.23461167340E+03  0.17910051727E+03 0.  0.
         24    2    3    3    0    0  0.52153323508E+02  0.10187398490E+03  0.64239406031E+02  0.15417936345E+03  0.80909189063E+02 0.  0.
         -6    2    1    2    0  502 -0.47552048689E+02 -0.58323102369E+02 -0.72036700219E+02  0.20018367225E+03  0.17094278239E+03 0.  0.
        -24    2    5    5    0    0 -0.61892740643E+02 -0.10191573548E+03 -0.69852709567E+02  0.15400106814E+03  0.67966164160E+02 0.  0.
          5    1    3    3  501    0 -0.46012748197E+01 -0.43550882529E+02  0.67300931529E+02  0.80432309949E+02  0.47000000000E+01 0. -1.
        -11    1    4    4    0    0  0.15386964904E+02  0.35843834371E+02  0.68126642401E+02  0.78503366528E+02  0.00000000000E+00 0.  1.
         12    1    4    4    0    0  0.36766358605E+02  0.66030150528E+02 -0.38872363702E+01  0.75675996923E+02  0.00000000000E+00 0. -1.
         -5    1    5    5    0  502  0.14340691955E+02  0.43592633111E+02 -0.21839906523E+01  0.46182604111E+02  0.47000000000E+01 0.  1.
         11    1    6    6    0    0 -0.12107156622E+02 -0.77869358068E+02 -0.24603022455E+02  0.82556216490E+02  0.00000000000E+00 0. -1.
        -12    1    6    6    0    0 -0.49785584022E+02 -0.24046377413E+02 -0.45249687112E+02  0.71444851647E+02  0.00000000000E+00 0.  1.
</event>
<event>
12    1  0.9962621E-001  0.1843837E+03  0.7818608E-02  0.1163761E+00
         21   -1    0    0  503  502  0.00000000000E+00  0.00000000000E+00  0.38520954567E+03  0.38520954567E+03  0.00000000000E+00 0. -1.
         21   -1    0    0  501  503 -0.00000000000E+00 -0.00000000000E+00 -0.10326312940E+03  0.10326312940E+03  0.00000000000E+00 0. -1.
          6    2    1    2  501    0  0.10585963074E+02 -0.64618317528E+02  0.23473776336E+03  0.29814138426E+03  0.17175237373E+03 0.  0.
         24    2    3    3    0    0  0.34238813618E+02 -0.41896748124E+01  0.21182834749E+03  0.22916305770E+03  0.80340578038E+02 0.  0.
         -6    2    1    2    0  502 -0.10585963074E+02  0.64618317528E+02  0.47208652902E+02  0.19033129081E+03  0.17236517566E+03 0.  0.
        -24    2    5    5    0    0 -0.12692294537E+02  0.88623171738E+02 -0.19374647443E+02  0.11936583765E+03  0.76535386098E+02 0.  0.
          5    1    3    3  501    0 -0.23652850544E+02 -0.60428642715E+02  0.22909415872E+02  0.68978326559E+02  0.47000000000E+01 0. -1.
        -11    1    4    4    0    0  0.12064688489E+02 -0.27013041032E+01 -0.33745481182E+01  0.12815667255E+02  0.00000000000E+00 0.  1.
         12    1    4    4    0    0  0.22174125129E+02 -0.14883707092E+01  0.21520289561E+03  0.21634739044E+03  0.00000000000E+00 0. -1.
         -5    1    5    5    0  502  0.21063314624E+01 -0.24004854211E+02  0.66583300344E+02  0.70965453163E+02  0.47000000000E+01 0.  1.
         11    1    6    6    0    0 -0.26381861426E+02  0.91541379710E+02  0.24199160260E+00  0.95267441298E+02  0.00000000000E+00 0. -1.
        -12    1    6    6    0    0  0.13689566889E+02 -0.29182079714E+01 -0.19616639045E+02  0.24098396354E+02  0.00000000000E+00 0.  1.
</event>
<event>
12    1  0.9962621E-001  0.3845586E+03  0.7818608E-02  0.1049274E+00
         21   -1    0    0  503  502  0.00000000000E+00  0.00000000000E+00  0.11659120566E+04  0.11659120566E+04  0.00000000000E+00 0. -1.
         21   -1    0    0  501  503 -0.00000000000E+00 -0.00000000000E+00 -0.36989073337E+03  0.36989073337E+03  0.00000000000E+00 0. -1.
          6    2    1    2  501    0  0.32764915579E+03  0.10380722436E+03  0.10205099273E+04  0.10905158323E+04  0.17220441234E+03 0.  0.
         24    2    3    3    0    0  0.99168741824E+02  0.13162077539E+02  0.23482137361E+03  0.26726105058E+03  0.79244633957E+02 0.  0.
         -6    2    1    2    0  502 -0.32764915579E+03 -0.10380722436E+03 -0.22448860411E+03  0.44528695766E+03  0.17249762944E+03 0.  0.
        -24    2    5    5    0    0 -0.27251597803E+03 -0.19204926922E+02 -0.16807606520E+03  0.32952132991E+03  0.75504673179E+02 0.  0.
          5    1    3    3  501    0  0.22848041397E+03  0.90645146820E+02  0.78568855371E+03  0.82325478173E+03  0.47000000000E+01 0. -1.
        -11    1    4    4    0    0  0.47921628306E+02  0.25709876742E+02  0.19125895027E+03  0.19884030346E+03  0.00000000000E+00 0.  1.
         12    1    4    4    0    0  0.51247113519E+02 -0.12547799202E+02  0.43562423342E+02  0.68420747119E+02  0.00000000000E+00 0. -1.
         -5    1    5    5    0  502 -0.55133177763E+02 -0.84602297437E+02 -0.56412538908E+02  0.11576562775E+03  0.47000000000E+01 0.  1.
         13    1    6    6    0    0 -0.10098018599E+03  0.13506375188E+02 -0.97987145751E+02  0.14135381447E+03  0.00000000000E+00 0. -1.
        -14    1    6    6    0    0 -0.17153579203E+03 -0.32711302110E+02 -0.70088919450E+02  0.18816751543E+03  0.00000000000E+00 0.  1.
</event>
<event>
12    1  0.9962621E-001  0.1804429E+03  0.7818608E-02  0.1167533E+00
         21   -1    0    0  501  502  0.00000000000E+00  0.00000000000E+00  0.10306251933E+03  0.10306251933E+03  0.00000000000E+00 0.  1.
         21   -1    0    0  502  503 -0.00000000000E+00 -0.00000000000E+00 -0.33378370795E+03  0.33378370795E+03  0.00000000000E+00 0.  1.
         -6    2    1    2    0  503  0.26726551015E+02 -0.45147239319E+02 -0.16767664203E+03  0.24632316229E+03  0.17264721906E+03 0.  0.
        -24    2    3    3    0    0  0.50587224836E+02 -0.90241800431E+02 -0.11981910644E+03  0.17621406937E+03  0.77408850364E+02 0.  0.
          6    2    1    2  501    0 -0.26726551015E+02  0.45147239319E+02 -0.63044546589E+02  0.19052306499E+03  0.17196465245E+03 0.  0.
         24    2    5    5    0    0 -0.20124571868E+02  0.18750866277E+01 -0.94907446849E+02  0.13617787440E+03  0.95543056614E+02 0.  0.
          5    1    5    5  501    0 -0.66019791465E+01  0.43272152691E+02  0.31862900259E+02  0.54345190589E+02  0.47000000000E+01 0. -1.
        -13    1    6    6    0    0  0.16057592770E+02 -0.23744370130E+02  0.28812410336E+01  0.28808730419E+02  0.00000000000E+00 0.  1.
         14    1    6    6    0    0 -0.36182164638E+02  0.25619456758E+02 -0.97788687882E+02  0.10736914399E+03  0.00000000000E+00 0. -1.
         -5    1    3    3    0  503 -0.23860673821E+02  0.45094561112E+02 -0.47857535589E+02  0.70109092917E+02  0.47000000000E+01 0.  1.
         11    1    4    4    0    0  0.66917074880E+01 -0.26367711851E+02 -0.88561140219E+02  0.92645079385E+02  0.00000000000E+00 0. -1.
        -12    1    4    4    0    0  0.43895517348E+02 -0.63874088580E+02 -0.31257966224E+02  0.83568989988E+02  0.00000000000E+00 0.  1.
</event>
<event>
12    1  0.9962621E-001  0.2103045E+03  0.7818608E-02  0.1142154E+00
         21   -1    0    0  503  502  0.00000000000E+00  0.00000000000E+00  0.10582354976E+03  0.10582354976E+03  0.00000000000E+00 0. -1.
         21   -1    0    0  501  503 -0.00000000000E+00 -0.00000000000E+00 -0.46312645179E+03  0.46312645179E+03  0.00000000000E+00 0. -1.
          6    2    1    2  501    0 -0.29018364701E+02  0.11062485196E+03 -0.27366193168E+03  0.34262322209E+03  0.17152229039E+03 0.  0.
         24    2    3    3    0    0 -0.29433991982E+02  0.81175772993E+02 -0.28677325381E+03  0.31004381500E+03  0.80202257547E+02 0.  0.
         -6    2    1    2    0  502  0.29018364701E+02 -0.11062485196E+03 -0.83640970343E+02  0.22632677946E+03  0.17648817474E+03 0.  0.
        -24    2    5    5    0    0  0.33592680493E+02 -0.11062963193E+03  0.18889331967E+01  0.14054578631E+03  0.79888461848E+02 0.  0.
          5    1    3    3  501    0  0.41562728178E+00  0.29449078964E+02  0.13111322132E+02  0.32579407083E+02  0.47000000000E+01 0. -1.
        -13    1    4    4    0    0 -0.22464937710E+02  0.63191673177E+02 -0.89549795712E+02  0.11187951956E+03  0.00000000000E+00 0.  1.
         14    1    4    4    0    0 -0.69690542721E+01  0.17984099816E+02 -0.19722345810E+03  0.19816429544E+03  0.00000000000E+00 0. -1.
         -5    1    5    5    0  502 -0.45743157928E+01  0.47799698477E-02 -0.85529903540E+02  0.85780993159E+02  0.47000000000E+01 0.  1.
         11    1    6    6    0    0  0.55030912384E+02 -0.10093378563E+03  0.10617070509E+02  0.11545021692E+03  0.00000000000E+00 0. -1.
        -12    1    6    6    0    0 -0.21438231891E+02 -0.96958462945E+01 -0.87281373121E+01  0.25095569388E+02  0.00000000000E+00 0.  1.
</event>
<event>
12    1  0.9962621E-001  0.2149918E+03  0.7818608E-02  0.1138538E+00
         21   -1    0    0  501  502  0.00000000000E+00  0.00000000000E+00  0.12853994203E+03  0.12853994203E+03  0.00000000000E+00 0. -1.
         21   -1    0    0  502  503 -0.00000000000E+00 -0.00000000000E+00 -0.38792167820E+03  0.38792167820E+03  0.00000000000E+00 0. -1.
         -6    2    1    2    0  503 -0.40568076985E+02  0.11474530675E+03 -0.20930750032E+03  0.30005182833E+03  0.17722645318E+03 0.  0.
        -24    2    3    3    0    0  0.16460313548E+02  0.49819342685E+02 -0.27295923327E+02  0.98512943016E+02  0.78783397259E+02 0.  0.
          6    2    1    2  501    0  0.40568076985E+02 -0.11474530675E+03 -0.50074235863E+02  0.21640979190E+03  0.17179497851E+03 0.  0.
         24    2    5    5    0    0 -0.37818301120E+02 -0.44111343533E+02 -0.52339874447E+02  0.11076508474E+03  0.78443655020E+02 0.  0.
          5    1    5    5  501    0  0.78386378105E+02 -0.70633963216E+02  0.22656385838E+01  0.10564470716E+03  0.47000000000E+01 0. -1.
        -11    1    6    6    0    0 -0.29409392624E+02 -0.14546828621E+02  0.15499560597E+02  0.36287173714E+02  0.00000000000E+00 0.  1.
         12    1    6    6    0    0 -0.84089084964E+01 -0.29564514912E+02 -0.67839435044E+02  0.74477911028E+02  0.00000000000E+00 0. -1.
         -5    1    3    3    0  503 -0.57028390533E+02  0.64925964064E+02 -0.18201157699E+03  0.20153888532E+03  0.47000000000E+01 0.  1.
         13    1    4    4    0    0  0.45109799155E+02  0.19349557631E+02 -0.28336078695E+02  0.56676562317E+02  0.00000000000E+00 0. -1.
        -14    1    4    4    0    0 -0.28649485606E+02  0.30469785054E+02  0.10401553680E+01  0.41836380698E+02  0.00000000000E+00 0.  1.
</event>
<event>
12    1  0.1081416E+000  0.1868896E+03  0.7818608E-02  0.1161476E+00
         21   -1    0    0  501  502  0.00000000000E+00  0.00000000000E+00  0.27504801829E+03  0.27504801829E+03  0.00000000000E+00 0. -1.
         21   -1    0    0  502  503 -0.00000000000E+00 -0.00000000000E+00 -0.47542054979E+03  0.47542054979E+03  0.00000000000E+00 0. -1.
         -6    2    1    2    0  503 -0.46504568725E+02 -0.55837945347E+02  0.22134698115E+03  0.28919307265E+03  0.17134058524E+03 0.  0.
        -24    2    3    3    0    0 -0.27254488390E+02 -0.57178047380E+02  0.23904736675E+03  0.26258940529E+03  0.88302978332E+02 0.  0.
          6    2    1    2  501    0  0.46504568725E+02  0.55837945347E+02 -0.42171951265E+03  0.46127549543E+03  0.17218357727E+03 0.  0.
         24    2    5    5    0    0  0.57093055569E+02 -0.25090740185E+02 -0.26076573471E+03  0.28074910725E+03  0.83259417400E+02 0.  0.
          5    1    5    5  501    0 -0.10588486845E+02  0.80928685533E+02 -0.16095377794E+03  0.18052638818E+03  0.47000000000E+01 0. -1.
        -13    1    6    6    0    0 -0.37701882391E+01  0.13264117722E+01  0.52418927551E+01  0.65917469007E+01  0.00000000000E+00 0.  1.
         14    1    6    6    0    0  0.60863243809E+02 -0.26417151957E+02 -0.26600762746E+03  0.27415736035E+03  0.00000000000E+00 0. -1.
         -5    1    3    3    0  503 -0.19250080334E+02  0.13401020325E+01 -0.17700385600E+02  0.26603667355E+02  0.47000000000E+01 0.  1.
         11    1    4    4    0    0  0.28981964055E+02 -0.39931416518E+02  0.96490886025E+02  0.10837418213E+03  0.00000000000E+00 0. -1.
        -12    1    4    4    0    0 -0.56236452445E+02 -0.17246630862E+02  0.14255648072E+03  0.15421522316E+03  0.00000000000E+00 0.  1.
</event>
<event>
12    1  0.9962621E-001  0.6027123E+03  0.7818608E-02  0.9899861E-01
         21   -1    0    0  501  502  0.00000000000E+00  0.00000000000E+00  0.88800650863E+03  0.88800650863E+03  0.00000000000E+00 0.  1.
         21   -1    0    0  502  503 -0.00000000000E+00 -0.00000000000E+00 -0.50480685618E+03  0.50480685618E+03  0.00000000000E+00 0.  1.
         -6    2    1    2    0  503  0.19522140360E+03 -0.54386002008E+03  0.49502151629E+03  0.77994130444E+03  0.17136808022E+03 0.  0.
        -24    2    3    3    0    0  0.20162326511E+03 -0.53013700212E+03  0.50273457952E+03  0.76230933356E+03  0.81708509533E+02 0.  0.
          6    2    1    2  501    0 -0.19522140360E+03  0.54386002008E+03 -0.11182186384E+03  0.61287206037E+03  0.17091786121E+03 0.  0.
         24    2    5    5    0    0 -0.17010403173E+03  0.36094617160E+03 -0.21910177343E+02  0.40745891643E+03  0.79531077567E+02 0.  0.
          5    1    5    5  501    0 -0.25117371867E+02  0.18291384848E+03 -0.89911686500E+02  0.20541314394E+03  0.47000000000E+01 0. -1.
        -13    1    6    6    0    0 -0.90591001530E+02  0.14675900786E+03 -0.43802302403E+02  0.17794262458E+03  0.00000000000E+00 0.  1.
         14    1    6    6    0    0 -0.79513030202E+02  0.21418716375E+03  0.21892125060E+02  0.22951629185E+03  0.00000000000E+00 0. -1.
         -5    1    3    3    0  503 -0.64018615094E+01 -0.13723017959E+02 -0.77130632360E+01  0.17631970881E+02  0.47000000000E+01 0.  1.
         13    1    4    4    0    0  0.99435968616E+02 -0.29534505679E+03  0.22385377566E+03  0.38370135171E+03  0.00000000000E+00 0. -1.
        -14    1    4    4    0    0  0.10218729649E+03 -0.23479194533E+03  0.27888080387E+03  0.37860798185E+03  0.00000000000E+00 0.  1.
</event>
<event>
12    1  0.9962621E-001  0.3135368E+03  0.7818608E-02  0.1078718E+00
         21   -1    0    0  501  502  0.00000000000E+00  0.00000000000E+00  0.13072113395E+03  0.13072113395E+03  0.00000000000E+00 0. -1.
         21   -1    0    0  502  503 -0.00000000000E+00 -0.00000000000E+00 -0.76348717998E+03  0.76348717998E+03  0.00000000000E+00 0. -1.
         -6    2    1    2    0  503  0.20905598257E+03 -0.15795451324E+03 -0.37353024807E+03  0.48738092876E+03  0.17135136824E+03 0.  0.
        -24    2    3    3    0    0  0.91372115076E+02 -0.98109958869E+02 -0.10578634419E+03  0.18881811892E+03  0.80542560005E+02 0.  0.
          6    2    1    2  501    0 -0.20905598257E+03  0.15795451324E+03 -0.25923579796E+03  0.40682738516E+03  0.17219550016E+03 0.  0.
         24    2    5    5    0    0 -0.51250460985E+02  0.84420714444E+02 -0.16731990132E+03  0.20989992577E+03  0.79426460850E+02 0.  0.
          5    1    5    5  501    0 -0.15780552158E+03  0.73533798800E+02 -0.91915896641E+02  0.19692745939E+03  0.47000000000E+01 0. -1.
        -11    1    6    6    0    0  0.17423774680E+02  0.14262788427E+02 -0.61791116314E+02  0.65765926688E+02  0.00000000000E+00 0.  1.
         12    1    6    6    0    0 -0.68674235664E+02  0.70157926018E+02 -0.10552878500E+03  0.14413399908E+03  0.00000000000E+00 0. -1.
         -5    1    3    3    0  503  0.11768386749E+03 -0.59844554375E+02 -0.26774390388E+03  0.29856280985E+03  0.47000000000E+01 0.  1.
         11    1    4    4    0    0 -0.63630458701E+01 -0.66520038513E+01  0.87121586595E+01  0.12674352705E+02  0.00000000000E+00 0. -1.
        -12    1    4    4    0    0  0.97735160946E+02 -0.91457955018E+02 -0.11449850285E+03  0.17614376621E+03  0.00000000000E+00 0.  1.
</event>
<event>
12    1  0.9962621E-001  0.1804101E+03  0.7818608E-02  0.1167448E+00
         21   -1    0    0  503  502  0.00000000000E+00  0.00000000000E+00  0.36602344540E+02  0.36602344540E+02  0.00000000000E+00 0.  1.
         21   -1    0    0  501  503 -0.00000000000E+00 -0.00000000000E+00 -0.91912542745E+03  0.91912542745E+03  0.00000000000E+00 0.  1.
          6    2    1    2  501    0  0.45979735206E+02  0.24148377621E+02 -0.35407721048E+03  0.39738958490E+03  0.17277306217E+03 0.  0.
         24    2    3    3    0    0  0.63208105112E+02  0.46436095154E+01 -0.35645548224E+03  0.37083776980E+03  0.80270249955E+02 0.  0.
         -6    2    1    2    0  502 -0.45979735206E+02 -0.24148377621E+02 -0.52844587243E+03  0.55833818709E+03  0.17259551236E+03 0.  0.
        -24    2    5    5    0    0 -0.10584165312E+02 -0.26359491325E+02 -0.51193828461E+03  0.51893862050E+03  0.80060210222E+02 0.  0.
          5    1    3    3  501    0 -0.17228369905E+02  0.19504768105E+02  0.23782717626E+01  0.26551815098E+02  0.47000000000E+01 0. -1.
        -13    1    4    4    0    0  0.22540182496E+02 -0.37659677774E+01 -0.29939085932E+03  0.30026176744E+03  0.00000000000E+00 0.  1.
         14    1    4    4    0    0  0.40667922616E+02  0.84095772927E+01 -0.57064622924E+02  0.70576002363E+02  0.00000000000E+00 0. -1.
         -5    1    5    5    0  502 -0.35395569894E+02  0.22111137041E+01 -0.16507587823E+02  0.39399566593E+02  0.47000000000E+01 0.  1.
         11    1    6    6    0    0 -0.27458591947E+02 -0.45045021812E+02 -0.23452241678E+03  0.24038259553E+03  0.00000000000E+00 0. -1.
        -12    1    6    6    0    0  0.16874426635E+02  0.18685530487E+02 -0.27741586783E+03  0.27855602498E+03  0.00000000000E+00 0.  1.
</event>
<event>
12    1  0.9962621E-001  0.1747145E+03  0.7818608E-02  0.1173142E+00
         21   -1    0    0  503  502  0.00000000000E+00  0.00000000000E+00  0.99928033996E+02  0.99928033996E+02  0.00000000000E+00 0.  1.
         21   -1    0    0  501  503 -0.00000000000E+00 -0.00000000000E+00 -0.30491995213E+03  0.30491995213E+03  0.00000000000E+00 0.  1.
          6    2    1    2  501    0  0.32893077300E+02 -0.36190507666E+01 -0.10870945461E+03  0.20535994771E+03  0.17105528504E+03 0.  0.
         24    2    3    3    0    0 -0.37816722875E+02  0.41420453360E+01 -0.18800392086E+02  0.90617453500E+02  0.80067515683E+02 0.  0.
         -6    2    1    2    0  502 -0.32893077300E+02  0.36190507666E+01 -0.96282463531E+02  0.19948803842E+03  0.17155206973E+03 0.  0.
        -24    2    5    5    0    0 -0.60229516541E+02  0.22070269773E+02 -0.13174753321E+02  0.10995195693E+03  0.88324216592E+02 0.  0.
          5    1    3    3  501    0  0.70709800175E+02 -0.77610961026E+01 -0.89909062522E+02  0.11474249421E+03  0.47000000000E+01 0. -1.
        -11    1    4    4    0    0  0.28240192826E+01  0.26541695036E+02  0.17314246010E+02  0.31815401541E+02  0.00000000000E+00 0.  1.
         12    1    4    4    0    0 -0.40640742158E+02 -0.22399649700E+02 -0.36114638096E+02  0.58802051959E+02  0.00000000000E+00 0. -1.
         -5    1    5    5    0  502  0.27336439241E+02 -0.18451219007E+02 -0.83107710210E+02  0.89536081495E+02  0.47000000000E+01 0.  1.
         11    1    6    6    0    0 -0.49082044387E+02 -0.13696865187E+02 -0.39237902750E+02  0.64313794861E+02  0.00000000000E+00 0. -1.
        -12    1    6    6    0    0 -0.11147472153E+02  0.35767134960E+02  0.26063149429E+02  0.45638162067E+02  0.00000000000E+00 0.  1.
</event>
<event>
12    1  0.9962621E-001  0.1854093E+03  0.7818608E-02  0.1162933E+00
         21   -1    0    0  503  502  0.00000000000E+00  0.00000000000E+00  0.67968348819E+03  0.67968348819E+03  0.00000000000E+00 0.  1.
         21   -1    0    0  501  503 -0.00000000000E+00 -0.00000000000E+00 -0.51046093826E+02  0.51046093826E+02  0.00000000000E+00 0.  1.
          6    2    1    2  501    0 -0.60065804200E+02  0.28608905297E+02  0.26827776433E+03  0.32546959727E+03  0.17184623829E+03 0.  0.
         24    2    3    3    0    0 -0.18055123879E+01  0.69751160516E+02  0.19892168020E+03  0.22587389870E+03  0.81121507585E+02 0.  0.
         -6    2    1    2    0  502  0.60065804200E+02 -0.28608905297E+02  0.36035963003E+03  0.40525998475E+03  0.17306132435E+03 0.  0.
        -24    2    5    5    0    0  0.10608435002E+03 -0.10785229175E+02  0.21758562087E+03  0.25412462263E+03  0.76587276572E+02 0.  0.
          5    1    3    3  501    0 -0.58260291812E+02 -0.41142255219E+02  0.69356084136E+02  0.99595698568E+02  0.47000000000E+01 0. -1.
        -11    1    4    4    0    0 -0.51088566684E+01  0.19925512549E+02  0.16316595664E+03  0.16445745916E+03  0.00000000000E+00 0.  1.
         12    1    4    4    0    0  0.33033442805E+01  0.49825647967E+02  0.35755723559E+02  0.61416439542E+02  0.00000000000E+00 0. -1.
         -5    1    5    5    0  502 -0.46018545818E+02 -0.17823676121E+02  0.14277400916E+03  0.15113536212E+03  0.47000000000E+01 0.  1.
         13    1    6    6    0    0  0.16015859229E+02  0.22718723095E+02  0.19484749324E+02  0.33945597390E+02  0.00000000000E+00 0. -1.
        -14    1    6    6    0    0  0.90068490789E+02 -0.33503952270E+02  0.19810087154E+03  0.22017902524E+03  0.00000000000E+00 0.  1.
</event>
<event>
12    1  0.9962621E-001  0.2448381E+03  0.7818608E-02  0.1116716E+00
         21   -1    0    0  503  502  0.00000000000E+00  0.00000000000E+00  0.17081679408E+04  0.17081679408E+04  0.00000000000E+00 0. -1.
         21   -1    0    0  501  503 -0.00000000000E+00 -0.00000000000E+00 -0.41962410109E+02  0.41962410109E+02  0.00000000000E+00 0.  1.
          6    2    1    2  501    0  0.92959427271E+02 -0.14646342743E+03  0.47760954932E+03  0.53670903923E+03  0.17277939834E+03 0.  0.
         24    2    3    3    0    0 -0.72992474631E+01 -0.98743844792E+02  0.19751274012E+03  0.23536990644E+03  0.81142371472E+02 0.  0.
         -6    2    1    2    0  502 -0.92959427271E+02  0.14646342743E+03  0.11885959814E+04  0.12134213117E+04  0.17186588382E+03 0.  0.
        -24    2    5    5    0    0 -0.39724794334E+02  0.16568340684E+03  0.93266342072E+03  0.95126315454E+03  0.77533749173E+02 0.  0.
          5    1    3    3  501    0  0.10025867473E+03 -0.47719582635E+02  0.28009680920E+03  0.30133913279E+03  0.47000000000E+01 0. -1.
        -11    1    4    4    0    0  0.12498282286E+02 -0.95082724757E+02  0.11166890890E+03  0.14719672830E+03  0.00000000000E+00 0.  1.
         12    1    4    4    0    0 -0.19797529749E+02 -0.36611200357E+01  0.85843831221E+02  0.88173178137E+02  0.00000000000E+00 0. -1.
         -5    1    5    5    0  502 -0.53234632936E+02 -0.19219979408E+02  0.25593256063E+03  0.26215815712E+03  0.47000000000E+01 0.  1.
         13    1    6    6    0    0 -0.12715166162E+02  0.12756296036E+03  0.80851636475E+03  0.81861633038E+03  0.00000000000E+00 0. -1.
        -14    1    6    6    0    0 -0.27009628172E+02  0.38120446475E+02  0.12414705597E+03  0.13264682416E+03  0.00000000000E+00 0.  1.
</event>
<event>
12    1  0.9962621E-001  0.1895529E+03  0.7818608E-02  0.1159066E+00
         21   -1    0    0  503  502  0.00000000000E+00  0.00000000000E+00  0.39679565501E+02  0.39679565501E+02  0.00000000000E+00 0. -1.
         21   -1    0    0  501  503 -0.00000000000E+00 -0.00000000000E+00 -0.90449336777E+03  0.90449336777E+03  0.00000000000E+00 0. -1.
          6    2    1    2  501    0  0.23410618988E+02  0.72593358421E+02 -0.45952997206E+03  0.49675223641E+03  0.17256052964E+03 0.  0.
         24    2    3    3    0    0 -0.47691020254E+02  0.61903029412E+02 -0.22061048978E+03  0.24720397404E+03  0.79588932135E+02 0.  0.
         -6    2    1    2    0  502 -0.23410618988E+02 -0.72593358421E+02 -0.40528383020E+03  0.44742069686E+03  0.17352937556E+03 0.  0.
        -24    2    5    5    0    0 -0.40605987573E+02 -0.43532245318E+02 -0.40089695674E+03  0.41304681645E+03  0.79658019354E+02 0.  0.
          5    1    3    3  501    0  0.71101639243E+02  0.10690329009E+02 -0.23891948228E+03  0.24954826237E+03  0.47000000000E+01 0. -1.
        -13    1    4    4    0    0 -0.40332075951E+02  0.17539381767E+02 -0.18409553803E+03  0.18927618283E+03  0.00000000000E+00 0.  1.
         14    1    4    4    0    0 -0.73589443031E+01  0.44363647645E+02 -0.36514951747E+02  0.57927791212E+02  0.00000000000E+00 0. -1.
         -5    1    5    5    0  502  0.17195368584E+02 -0.29061113102E+02 -0.43868734670E+01  0.34373880408E+02  0.47000000000E+01 0.  1.
         11    1    6    6    0    0  0.13337847406E+02 -0.34121302875E+02 -0.24691567804E+03  0.24961873636E+03  0.00000000000E+00 0. -1.
        -12    1    6    6    0    0 -0.53943834979E+02 -0.94109424434E+01 -0.15398127870E+03  0.16342808009E+03  0.00000000000E+00 0.  1.
</event>
<event>
12    1  0.9962621E-001  0.2839975E+03  0.7818608E-02  0.1094131E+00
         21   -1    0    0  503  502  0.00000000000E+00  0.00000000000E+00  0.26093171700E+03  0.26093171700E+03  0.00000000000E+00 0.  1.
         21   -1    0    0  501  503 -0.00000000000E+00 -0.00000000000E+00 -0.32738103847E+03  0.32738103847E+03  0.00000000000E+00 0. -1.
          6    2    1    2  501    0 -0.22094127582E+03  0.24047785171E+02 -0.11117746689E+03  0.30081464598E+03  0.16951601328E+03 0.  0.
         24    2    3    3    0    0 -0.13156616468E+03 -0.36311439499E+02 -0.19434662803E+02  0.15914609409E+03  0.79508470094E+02 0.  0.
         -6    2    1    2    0  502  0.22094127582E+03 -0.24047785171E+02  0.44728145421E+02  0.28749810948E+03  0.17680840656E+03 0.  0.
        -24    2    5    5    0    0  0.14272430463E+03  0.54597306552E+02  0.21263291287E+02  0.17402725678E+03  0.80512517847E+02 0.  0.
          5    1    3    3  501    0 -0.89375111138E+02  0.60359224670E+02 -0.91742804087E+02  0.14166855189E+03  0.47000000000E+01 0. -1.
        -13    1    4    4    0    0  0.48564060550E+01 -0.19525804219E+02 -0.62240609889E+01  0.21061354310E+02  0.00000000000E+00 0.  1.
         14    1    4    4    0    0 -0.13642257074E+03 -0.16785635279E+02 -0.13210601814E+02  0.13808473978E+03  0.00000000000E+00 0. -1.
         -5    1    5    5    0  502  0.78216971192E+02 -0.78645091723E+02  0.23464854134E+02  0.11347085271E+03  0.47000000000E+01 0.  1.
         11    1    6    6    0    0  0.66005000513E+02 -0.16596347030E+02  0.86068610150E+01  0.68601580769E+02  0.00000000000E+00 0. -1.
        -12    1    6    6    0    0  0.76719304118E+02  0.71193653582E+02  0.12656430272E+02  0.10542567601E+03  0.00000000000E+00 0.  1.
</event>
<event>
12    1  0.9962621E-001  0.2178705E+03  0.7818608E-02  0.1137266E+00
         21   -1    0    0  501  502  0.00000000000E+00  0.00000000000E+00  0.12458220972E+03  0.12458220972E+03  0.00000000000E+00 0. -1.
         21   -1    0    0  502  503 -0.00000000000E+00 -0.00000000000E+00 -0.37390947377E+03  0.37390947377E+03  0.00000000000E+00 0. -1.
         -6    2    1    2    0  503  0.23913132451E+02 -0.13337096189E+03 -0.16043469519E+03  0.26318458621E+03  0.15864168310E+03 0.  0.
        -24    2    3    3    0    0  0.34435603508E+02 -0.36218307266E+02 -0.12963675712E+03  0.16061771199E+03  0.80590222967E+02 0.  0.
          6    2    1    2  501    0 -0.23913132451E+02  0.13337096189E+03 -0.88892568853E+02  0.23530709728E+03  0.17061034510E+03 0.  0.
         24    2    5    5    0    0 -0.15051543455E+02  0.12202117740E+02  0.31219951074E+01  0.82830257947E+02  0.80471511359E+02 0.  0.
          5    1    5    5  501    0 -0.88615889962E+01  0.12116884415E+03 -0.92014563961E+02  0.15247683933E+03  0.47000000000E+01 0. -1.
        -11    1    6    6    0    0  0.19278401088E+02  0.36087414771E+02  0.27599017524E+01  0.41007015388E+02  0.00000000000E+00 0.  1.
         12    1    6    6    0    0 -0.34329944543E+02 -0.23885297031E+02  0.36209335498E+00  0.41823242559E+02  0.00000000000E+00 0. -1.
         -5    1    3    3    0  503 -0.10522471057E+02 -0.97152654621E+02 -0.30797938074E+02  0.10256687422E+03  0.47000000000E+01 0.  1.
         13    1    4    4    0    0 -0.10844292948E+02  0.19115074183E+02 -0.42977347515E+02  0.48270458357E+02  0.00000000000E+00 0. -1.
        -14    1    4    4    0    0  0.45279896456E+02 -0.55333381449E+02 -0.86659409605E+02  0.11234725363E+03  0.00000000000E+00 0.  1.
</event>
<event>
12    1  0.9962621E-001  0.3077339E+03  0.7818608E-02  0.1081488E+00
         21   -1    0    0  503  502  0.00000000000E+00  0.00000000000E+00  0.16733091027E+04  0.16733091027E+04  0.00000000000E+00 0. -1.
         21   -1    0    0  501  503 -0.00000000000E+00 -0.00000000000E+00 -0.73617011662E+02  0.73617011662E+02  0.00000000000E+00 0. -1.
          6    2    1    2  501    0  0.20013487926E+03  0.15642187426E+03  0.12203924125E+04  0.12584914463E+04  0.17297776520E+03 0.  0.
         24    2    3    3    0    0  0.54262566889E+02  0.75673582622E+02  0.32214614002E+03  0.34489007034E+03  0.80623246116E+02 0.  0.
         -6    2    1    2    0  502 -0.20013487926E+03 -0.15642187426E+03  0.37929967854E+03  0.48843466807E+03  0.17371933167E+03 0.  0.
        -24    2    5    5    0    0 -0.48361543375E+02 -0.11721104741E+03  0.16044566411E+03  0.21919164763E+03  0.78898027517E+02 0.  0.
          5    1    3    3  501    0  0.14587231237E+03  0.80748291640E+02  0.89824627251E+03  0.91360137598E+03  0.47000000000E+01 0. -1.
        -13    1    4    4    0    0  0.18172778415E+02  0.68097006905E+02  0.28070139260E+03  0.28941445028E+03  0.00000000000E+00 0.  1.
         14    1    4    4    0    0  0.36089788474E+02  0.75765757174E+01  0.41444747423E+02  0.55475620056E+02  0.00000000000E+00 0. -1.
         -5    1    5    5    0  502 -0.15177333588E+03 -0.39210826853E+02  0.21885401442E+03  0.26924302044E+03  0.47000000000E+01 0.  1.
         11    1    6    6    0    0 -0.49007877326E+02 -0.10019870765E+03  0.16710411034E+03  0.20091126586E+03  0.00000000000E+00 0. -1.
        -12    1    6    6    0    0  0.64633395072E+00 -0.17012339762E+02 -0.66584462277E+01  0.18280381777E+02  0.00000000000E+00 0.  1.
</event>
<event>
12    1  0.9962621E-001  0.3941165E+03  0.7818608E-02  0.1045869E+00
         21   -1    0    0  501  502  0.00000000000E+00  0.00000000000E+00  0.16770990007E+03  0.16770990007E+03  0.00000000000E+00 0.  1.
         21   -1    0    0  502  503 -0.00000000000E+00 -0.00000000000E+00 -0.93010842825E+03  0.93010842825E+03  0.00000000000E+00 0.  1.
         -6    2    1    2    0  503  0.19972124402E+03  0.29315922531E+03 -0.34148363550E+03  0.52119268978E+03  0.17087960636E+03 0.  0.
        -24    2    3    3    0    0  0.20939547530E+03  0.23209365693E+03 -0.22915594242E+03  0.39288760405E+03  0.64298466591E+02 0.  0.
          6    2    1    2  501    0 -0.19972124402E+03 -0.29315922531E+03 -0.42091489268E+03  0.57662563854E+03  0.17174653839E+03 0.  0.
         24    2    5    5    0    0 -0.17803865317E+03 -0.16385981979E+03 -0.33118723024E+03  0.41768661117E+03  0.78926048419E+02 0.  0.
          5    1    5    5  501    0 -0.21682590850E+02 -0.12929940552E+03 -0.89727662445E+02  0.15893902737E+03  0.47000000000E+01 0. -1.
        -13    1    6    6    0    0 -0.95262212129E+02 -0.36081879611E+02 -0.12139375051E+03  0.15847155505E+03  0.00000000000E+00 0.  1.
         14    1    6    6    0    0 -0.82776441040E+02 -0.12777794018E+03 -0.20979347973E+03  0.25921505613E+03  0.00000000000E+00 0. -1.
         -5    1    3    3    0  503 -0.96742312807E+01  0.61065568382E+02 -0.11232769308E+03  0.12830508573E+03  0.47000000000E+01 0.  1.
         11    1    4    4    0    0  0.22371233807E+02  0.30429333271E+02 -0.50462517412E+01  0.38103557340E+02  0.00000000000E+00 0. -1.
        -12    1    4    4    0    0  0.18702424149E+03  0.20166432366E+03 -0.22410969068E+03  0.35478404671E+03  0.00000000000E+00 0.  1.
</event>
<event>
12    1  0.9962621E-001  0.2216087E+03  0.7818608E-02  0.1133997E+00
         21   -1    0    0  503  502  0.00000000000E+00  0.00000000000E+00  0.14297742465E+04  0.14297742465E+04  0.00000000000E+00 0.  1.
         21   -1    0    0  501  503 -0.00000000000E+00 -0.00000000000E+00 -0.53053142514E+02  0.53053142514E+02  0.00000000000E+00 0.  1.
          6    2    1    2  501    0  0.30678098776E+02  0.12275818780E+03  0.22885113656E+03  0.31376114477E+03  0.17338539397E+03 0.  0.
         24    2    3    3    0    0 -0.26484920114E+02  0.47640861306E+02  0.43264356740E+02  0.10549504980E+03  0.79286179809E+02 0.  0.
         -6    2    1    2    0  502 -0.30678098776E+02 -0.12275818780E+03  0.11478699674E+04  0.11690662442E+04  0.18193323749E+03 0.  0.
        -24    2    5    5    0    0  0.75071247649E+01 -0.10373364035E+03  0.10857159923E+04  0.10935331301E+04  0.78857248890E+02 0.  0.
          5    1    3    3  501    0  0.57163018890E+02  0.75117326494E+02  0.18558677982E+03  0.20826609497E+03  0.47000000000E+01 0. -1.
        -13    1    4    4    0    0  0.98615066784E+01  0.15022167721E+02 -0.19139387925E+02  0.26253209463E+02  0.00000000000E+00 0.  1.
         14    1    4    4    0    0 -0.36346426792E+02  0.32618693586E+02  0.62403744664E+02  0.79241840337E+02  0.00000000000E+00 0. -1.
         -5    1    5    5    0  502 -0.38185223541E+02 -0.19024547448E+02  0.62153975080E+02  0.75533114067E+02  0.47000000000E+01 0.  1.
         11    1    6    6    0    0 -0.97551688339E+01 -0.26133922232E+02  0.80840448914E+02  0.85517971157E+02  0.00000000000E+00 0. -1.
        -12    1    6    6    0    0  0.17262293599E+02 -0.77599718120E+02  0.10048755434E+04  0.10080151590E+04  0.00000000000E+00 0.  1.
</event>
<event>
12    1  0.9962621E-001  0.2894497E+03  0.7818608E-02  0.1090842E+00
         21   -1    0    0  503  502  0.00000000000E+00  0.00000000000E+00  0.39436207640E+03  0.39436207640E+03  0.00000000000E+00 0. -1.
         21   -1    0    0  501  503 -0.00000000000E+00 -0.00000000000E+00 -0.21649044234E+03  0.21649044234E+03  0.00000000000E+00 0. -1.
          6    2    1    2  501    0  0.22399432492E+03  0.56724988824E+02  0.41413638013E+02  0.29084953487E+03  0.17171831750E+03 0.  0.
         24    2    3    3    0    0  0.19175643178E+03  0.42897195616E+02 -0.17754642277E+02  0.22190415786E+03  0.10156539484E+03 0.  0.
         -6    2    1    2    0  502 -0.22399432492E+03 -0.56724988824E+02  0.13645799605E+03  0.32000298386E+03  0.17432711505E+03 0.  0.
        -24    2    5    5    0    0 -0.22646347764E+03 -0.88975605016E+02  0.12674480350E+03  0.28590554893E+03  0.80469700503E+02 0.  0.
          5    1    3    3  501    0  0.32237893140E+02  0.13827793208E+02  0.59168280290E+02  0.68945377014E+02  0.47000000000E+01 0. -1.
        -13    1    4    4    0    0  0.16886925658E+03 -0.37855343462E+01 -0.18382572815E+02  0.16990901999E+03  0.00000000000E+00 0.  1.
         14    1    4    4    0    0  0.22887175200E+02  0.46682729963E+02  0.62793053771E+00  0.51995137870E+02  0.00000000000E+00 0. -1.
         -5    1    5    5    0  502  0.24691527177E+01  0.32250616191E+02  0.97131925464E+01  0.34097434937E+02  0.47000000000E+01 0.  1.
         11    1    6    6    0    0 -0.95469152168E+00  0.84539254445E+01 -0.17314164033E+01  0.86820558674E+01  0.00000000000E+00 0. -1.
        -12    1    6    6    0    0 -0.22550878612E+03 -0.97429530460E+02  0.12847621991E+03  0.27722349306E+03  0.00000000000E+00 0.  1.
</event>
<event>
12    1  0.9962621E-001  0.2089363E+03  0.7818608E-02  0.1142567E+00
         21   -1    0    0  501  502  0.00000000000E+00  0.00000000000E+00  0.78860109624E+02  0.78860109624E+02  0.00000000000E+00 0.  1.
         21   -1    0    0  502  503 -0.00000000000E+00 -0.00000000000E+00 -0.63718354283E+03  0.63718354283E+03  0.00000000000E+00 0. -1.
         -6    2    1    2    0  503 -0.11610065681E+03  0.11060250917E+02 -0.14742312436E+03  0.25507352815E+03  0.17241587950E+03 0.  0.
        -24    2    3    3    0    0 -0.21936348081E+02  0.98856222379E+01 -0.13683305944E+03  0.16019183198E+03  0.79744642352E+02 0.  0.
          6    2    1    2  501    0  0.11610065681E+03 -0.11060250917E+02 -0.41090030885E+03  0.46097012431E+03  0.17335714588E+03 0.  0.
         24    2    5    5    0    0  0.61402304795E+02 -0.74021050765E+02 -0.26393594038E+03  0.29192401335E+03  0.79423484902E+02 0.  0.
          5    1    5    5  501    0  0.54698352019E+02  0.62960799848E+02 -0.14696436847E+03  0.16904611096E+03  0.47000000000E+01 0. -1.
        -13    1    6    6    0    0  0.29043966715E+02  0.27592740102E+01 -0.23505579462E+02  0.37465689123E+02  0.00000000000E+00 0.  1.
         14    1    6    6    0    0  0.32358338080E+02 -0.76780324775E+02 -0.24043036092E+03  0.25445832423E+03  0.00000000000E+00 0. -1.
         -5    1    3    3    0  503 -0.94164308733E+02  0.11746286788E+01 -0.10590064913E+02  0.94881696162E+02  0.47000000000E+01 0.  1.
         13    1    4    4    0    0  0.15020215195E+02  0.32386677267E+02 -0.87900062868E+02  0.94873203704E+02  0.00000000000E+00 0. -1.
        -14    1    4    4    0    0 -0.36956563276E+02 -0.22501055029E+02 -0.48932996575E+02  0.65318628280E+02  0.00000000000E+00 0.  1.
</event>
<event>
12    1  0.9962621E-001  0.1827200E+03  0.7818608E-02  0.1165220E+00
         21   -1    0    0  501  502  0.00000000000E+00  0.00000000000E+00  0.25564025018E+03  0.25564025018E+03  0.00000000000E+00 0. -1.
         21   -1    0    0  502  503 -0.00000000000E+00 -0.00000000000E+00 -0.25047518351E+03  0.25047518351E+03  0.00000000000E+00 0. -1.
         -6    2    1    2    0  503  0.51744654949E+02 -0.32520292292E+02  0.17770129323E+03  0.25480814117E+03  0.17208823453E+03 0.  0.
        -24    2    3    3    0    0  0.88342113389E+01 -0.14359847556E+02  0.12104006948E+02  0.82716133371E+02  0.80069989533E+02 0.  0.
          6    2    1    2  501    0 -0.51744654949E+02  0.32520292292E+02 -0.17253622657E+03  0.25130729251E+03  0.17219618772E+03 0.  0.
         24    2    5    5    0    0 -0.56389993181E+02 -0.26202951459E+02 -0.49158432185E+02  0.11450755322E+03  0.82637777642E+02 0.  0.
          5    1    5    5  501    0  0.46453382326E+01  0.58723243751E+02 -0.12337779438E+03  0.13679973929E+03  0.47000000000E+01 0. -1.
        -11    1    6    6    0    0 -0.35437179142E+02 -0.56941781605E+01 -0.69911531600E+02  0.78586510172E+02  0.00000000000E+00 0.  1.
         12    1    6    6    0    0 -0.20952814039E+02 -0.20508773298E+02  0.20753099415E+02  0.35921043048E+02  0.00000000000E+00 0. -1.
         -5    1    3    3    0  503  0.42910443610E+02 -0.18160444736E+02  0.16559728629E+03  0.17209200780E+03  0.47000000000E+01 0.  1.
         11    1    4    4    0    0  0.16186356668E+02 -0.17126855194E+00 -0.31970020889E+02  0.35834476566E+02  0.00000000000E+00 0. -1.
        -12    1    4    4    0    0 -0.73521453292E+01 -0.14188579005E+02  0.44074027836E+02  0.46881656806E+02  0.00000000000E+00 0.  1.
</event>
<event>
12    1  0.9962621E-001  0.1764724E+03  0.7818608E-02  0.1171384E+00
         21   -1    0    0  501  502  0.00000000000E+00  0.00000000000E+00  0.32212067656E+03  0.32212067656E+03  0.00000000000E+00 0.  1.
         21   -1    0    0  502  503 -0.00000000000E+00 -0.00000000000E+00 -0.99414995031E+02  0.99414995031E+02  0.00000000000E+00 0.  1.
         -6    2    1    2    0  503 -0.30170589071E+02  0.22996746511E+02  0.74558141013E+02  0.19112254541E+03  0.17184235851E+03 0.  0.
        -24    2    3    3    0    0 -0.53303581247E+01 -0.33680126981E+02 -0.88263029486E+01  0.87178519332E+02  0.79746015186E+02 0.  0.
          6    2    1    2  501    0  0.30170589071E+02 -0.22996746511E+02  0.14814754052E+03  0.23041312618E+03  0.17234674398E+03 0.  0.
         24    2    5    5    0    0 -0.38216867194E+02 -0.37942633613E+02  0.51354083144E+02  0.11086695474E+03  0.82183133396E+02 0.  0.
          5    1    5    5  501    0  0.68387456265E+02  0.14945887102E+02  0.96793457372E+02  0.11954617144E+03  0.47000000000E+01 0. -1.
        -13    1    6    6    0    0 -0.10560906639E+02  0.65951159160E+01  0.56809622204E+02  0.58158073197E+02  0.00000000000E+00 0.  1.
         14    1    6    6    0    0 -0.27655960556E+02 -0.44537749529E+02 -0.54555390604E+01  0.52708881546E+02  0.00000000000E+00 0. -1.
         -5    1    3    3    0  503 -0.24840230946E+02  0.56676873492E+02  0.83384443962E+02  0.10394402608E+03  0.47000000000E+01 0.  1.
         11    1    4    4    0    0 -0.27401490408E+02  0.14820725703E+02  0.63066004857E+01  0.31784725838E+02  0.00000000000E+00 0. -1.
        -12    1    4    4    0    0  0.22071132283E+02 -0.48500852684E+02 -0.15132903434E+02  0.55393793494E+02  0.00000000000E+00 0.  1.
</event>
<event>
12    1  0.9962621E-001  0.2057366E+03  0.7818608E-02  0.1145216E+00
         21   -1    0    0  503  502  0.00000000000E+00  0.00000000000E+00  0.95117294133E+02  0.95117294133E+02  0.00000000000E+00 0.  1.
         21   -1    0    0  501  503 -0.00000000000E+00 -0.00000000000E+00 -0.59330033925E+03  0.59330033925E+03  0.00000000000E+00 0.  1.
          6    2    1    2  501    0  0.48395161012E+02 -0.99915233320E+02 -0.42308509251E+03  0.47045566236E+03  0.17321197790E+03 0.  0.
         24    2    3    3    0    0  0.89582393243E+02 -0.29424920681E+02 -0.24345338036E+03  0.27308566899E+03  0.80096211291E+02 0.  0.
         -6    2    1    2    0  502 -0.48395161012E+02  0.99915233320E+02 -0.75097952604E+02  0.21796197101E+03  0.17187953009E+03 0.  0.
        -24    2    5    5    0    0  0.23112864450E+02  0.74420994924E+02 -0.87345801646E+02  0.14092007525E+03  0.78463300686E+02 0.  0.
          5    1    3    3  501    0 -0.41187232231E+02 -0.70490312639E+02 -0.17963171215E+03  0.19736999337E+03  0.47000000000E+01 0. -1.
        -11    1    4    4    0    0  0.10299709057E+03 -0.22521738166E+02 -0.22939904333E+03  0.25246692939E+03  0.00000000000E+00 0.  1.
         12    1    4    4    0    0 -0.13414697329E+02 -0.69031825149E+01 -0.14054337033E+02  0.20618739600E+02  0.00000000000E+00 0. -1.
         -5    1    5    5    0  502 -0.71508025463E+02  0.25494238396E+02  0.12247849042E+02  0.77041895765E+02  0.47000000000E+01 0.  1.
         11    1    6    6    0    0  0.75887341764E+01  0.42826749868E+02 -0.95365827523E+02  0.10481584064E+03  0.00000000000E+00 0. -1.
        -12    1    6    6    0    0  0.15524130274E+02  0.31594245057E+02  0.80200258765E+01  0.36104234606E+02  0.00000000000E+00 0.  1.
</event>
<event>
12    1  0.9962621E-001  0.4442584E+03  0.7818608E-02  0.1029456E+00
         21   -1    0    0  503  502  0.00000000000E+00  0.00000000000E+00  0.18810969301E+03  0.18810969301E+03  0.00000000000E+00 0. -1.
         21   -1    0    0  501  503 -0.00000000000E+00 -0.00000000000E+00 -0.11377595823E+04  0.11377595823E+04  0.00000000000E+00 0.  1.
          6    2    1    2  501    0 -0.14235532785E+03 -0.38417718931E+03 -0.28966007082E+03  0.53034752730E+03  0.17178006558E+03 0.  0.
         24    2    3    3    0    0 -0.16691792115E+03 -0.26254440647E+03 -0.21092839418E+03  0.38331480387E+03  0.75155130413E+02 0.  0.
         -6    2    1    2    0  502  0.14235532785E+03  0.38417718931E+03 -0.65998981850E+03  0.79552174804E+03  0.17149676073E+03 0.  0.
        -24    2    5    5    0    0  0.78750128638E+02  0.35575617129E+03 -0.53671390294E+03  0.65384459044E+03  0.81773459398E+02 0.  0.
          5    1    3    3  501    0  0.24562593300E+02 -0.12163278284E+03 -0.78731676650E+02  0.14703272343E+03  0.47000000000E+01 0. -1.
        -13    1    4    4    0    0 -0.98503433764E+02 -0.19456547461E+03 -0.17768317583E+03  0.28130048231E+03  0.00000000000E+00 0.  1.
         14    1    4    4    0    0 -0.68414487384E+02 -0.67978931858E+02 -0.33245218343E+02  0.10201432156E+03  0.00000000000E+00 0. -1.
         -5    1    5    5    0  502  0.63605199210E+02  0.28421018018E+02 -0.12327591555E+03  0.14167715760E+03  0.47000000000E+01 0.  1.
         11    1    6    6    0    0  0.84305795992E+01  0.30626034043E+01 -0.37629556121E+02  0.38683817105E+02  0.00000000000E+00 0. -1.
        -12    1    6    6    0    0  0.70319549039E+02  0.35269356788E+03 -0.49908434682E+03  0.61516077333E+03  0.00000000000E+00 0.  1.
</event>
<event>
12    1  0.9962621E-001  0.2969461E+03  0.7818608E-02  0.1087146E+00
         21   -1    0    0  503  502  0.00000000000E+00  0.00000000000E+00  0.70204296797E+03  0.70204296797E+03  0.00000000000E+00 0.  1.
         21   -1    0    0  501  503 -0.00000000000E+00 -0.00000000000E+00 -0.14702051619E+03  0.14702051619E+03  0.00000000000E+00 0.  1.
          6    2    1    2  501    0 -0.15899103933E+03  0.17914811636E+03  0.44296479831E+03  0.53167744336E+03  0.17056052606E+03 0.  0.
         24    2    3    3    0    0 -0.97876705202E+02  0.26259431258E+02  0.17540039904E+03  0.21747574122E+03  0.79126423434E+02 0.  0.
         -6    2    1    2    0  502  0.15899103933E+03 -0.17914811636E+03  0.11205765347E+03  0.31738604080E+03  0.17551291408E+03 0.  0.
        -24    2    5    5    0    0  0.29531173470E+01 -0.50347656198E+02  0.44753770461E+02  0.10410384674E+03  0.79316477153E+02 0.  0.
          5    1    3    3  501    0 -0.61114334130E+02  0.15288868510E+03  0.26756439927E+03  0.31420170214E+03  0.47000000000E+01 0. -1.
        -11    1    4    4    0    0 -0.11169037852E+03  0.22879721159E+02  0.15060662832E+03  0.18889303530E+03  0.00000000000E+00 0.  1.
         12    1    4    4    0    0  0.13813673316E+02  0.33797100986E+01  0.24793770723E+02  0.28582705916E+02  0.00000000000E+00 0. -1.
         -5    1    5    5    0  502  0.15603792199E+03 -0.12880046016E+03  0.67303883012E+02  0.21328219406E+03  0.47000000000E+01 0.  1.
         11    1    6    6    0    0  0.32688982716E+02 -0.54910131491E+02  0.30954386704E+02  0.71006099651E+02  0.00000000000E+00 0. -1.
        -12    1    6    6    0    0 -0.29735865369E+02  0.45624752937E+01  0.13799383757E+02  0.33097747085E+02  0.00000000000E+00 0.  1.
</event>
<event>
12    1  0.9962621E-001  0.2214775E+03  0.7818608E-02  0.1132978E+00
         21   -1    0    0  503  502  0.00000000000E+00  0.00000000000E+00  0.80595840515E+03  0.80595840515E+03  0.00000000000E+00 0. -1.
         21   -1    0    0  501  503 -0.00000000000E+00 -0.00000000000E+00 -0.71274964339E+02  0.71274964339E+02  0.00000000000E+00 0. -1.
          6    2    1    2  501    0  0.65042139068E+02 -0.12177975896E+03  0.53653176170E+03  0.58005265785E+03  0.17185448793E+03 0.  0.
         24    2    3    3    0    0  0.38013579955E+02 -0.38248078487E+02  0.43599242412E+03  0.44649243529E+03  0.79738028005E+02 0.  0.
         -6    2    1    2    0  502 -0.65042139068E+02  0.12177975896E+03  0.19815167911E+03  0.29718071164E+03  0.17318053554E+03 0.  0.
        -24    2    5    5    0    0 -0.63911794738E+02  0.99144832310E+01  0.57464083214E+02  0.11737468496E+03  0.79320119292E+02 0.  0.
          5    1    3    3  501    0  0.27028559113E+02 -0.83531680471E+02  0.10053933758E+03  0.13356022256E+03  0.47000000000E+01 0. -1.
        -13    1    4    4    0    0  0.58461339569E+02 -0.45766736508E+02  0.32360120011E+03  0.33200912504E+03  0.00000000000E+00 0.  1.
         14    1    4    4    0    0 -0.20447759614E+02  0.75186580204E+01  0.11239122401E+03  0.11448331025E+03  0.00000000000E+00 0. -1.
         -5    1    5    5    0  502 -0.11303443297E+01  0.11186527573E+03  0.14068759589E+03  0.17980602668E+03  0.47000000000E+01 0.  1.
         11    1    6    6    0    0 -0.70497277652E+02 -0.18197729957E+02  0.47016579646E+02  0.86669384985E+02  0.00000000000E+00 0. -1.
        -12    1    6    6    0    0  0.65854829141E+01  0.28112213188E+02  0.10447503568E+02  0.30705299972E+02  0.00000000000E+00 0.  1.
</event>
<event>
12    1  0.9962621E-001  0.2026374E+03  0.7818608E-02  0.1148234E+00
         21   -1    0    0  501  502  0.00000000000E+00  0.00000000000E+00  0.45248085989E+03  0.45248085989E+03  0.00000000000E+00 0.  1.
         21   -1    0    0  502  503 -0.00000000000E+00 -0.00000000000E+00 -0.96542145950E+02  0.96542145950E+02  0.00000000000E+00 0.  1.
         -6    2    1    2    0  503 -0.89847047367E+02 -0.44406581455E+02  0.10391318154E+03  0.22772763173E+03  0.17611782578E+03 0.  0.
        -24    2    3    3    0    0 -0.33302111616E+02 -0.71515267084E+02  0.79086992264E+01  0.11296195210E+03  0.80463600683E+02 0.  0.
          6    2    1    2  501    0  0.89847047367E+02  0.44406581455E+02  0.25202553239E+03  0.32129537410E+03  0.17224811188E+03 0.  0.
         24    2    5    5    0    0  0.37131507816E+01 -0.39394211658E+02  0.88400459088E+02  0.11822672640E+03  0.67802848519E+02 0.  0.
          5    1    5    5  501    0  0.86133896586E+02  0.83800793113E+02  0.16362507330E+03  0.20306864770E+03  0.47000000000E+01 0. -1.
        -11    1    6    6    0    0 -0.29787497422E+02 -0.19929697389E+02  0.24213420348E+02  0.43252486236E+02  0.00000000000E+00 0.  1.
         12    1    6    6    0    0  0.33500648204E+02 -0.19464514270E+02  0.64187038740E+02  0.74974240163E+02  0.00000000000E+00 0. -1.
         -5    1    3    3    0  503 -0.56544935751E+02  0.27108685629E+02  0.96004482318E+02  0.11476567963E+03  0.47000000000E+01 0.  1.
         11    1    4    4    0    0 -0.48813942536E+02 -0.10868002728E+02  0.14512934509E+01  0.50030198099E+02  0.00000000000E+00 0. -1.
        -12    1    4    4    0    0  0.15511830920E+02 -0.60647264356E+02  0.64574057755E+01  0.62931754002E+02  0.00000000000E+00 0.  1.
</event>
<event>
12    1  0.9962621E-001  0.2096325E+03  0.7818608E-02  0.1141927E+00
         21   -1    0    0  501  502  0.00000000000E+00  0.00000000000E+00  0.10432982649E+03  0.10432982649E+03  0.00000000000E+00 0. -1.
         21   -1    0    0  502  503 -0.00000000000E+00 -0.00000000000E+00 -0.52959913603E+03  0.52959913603E+03  0.00000000000E+00 0. -1.
         -6    2    1    2    0  503 -0.23654306146E+02 -0.11603556692E+03 -0.68921508306E+02  0.22067160851E+03  0.17297978351E+03 0.  0.
        -24    2    3    3    0    0 -0.31510166589E+02 -0.69710441422E+01 -0.65562429334E+02  0.11117202822E+03  0.83781272748E+02 0.  0.
          6    2    1    2  501    0  0.23654306146E+02  0.11603556692E+03 -0.35634780123E+03  0.41325735402E+03  0.17255174940E+03 0.  0.
         24    2    5    5    0    0 -0.36186229385E+02  0.10683790393E+03 -0.29732576266E+03  0.32857454741E+03  0.82673110229E+02 0.  0.
          5    1    5    5  501    0  0.59840535532E+02  0.91976629837E+01 -0.59022038577E+02  0.84682806607E+02  0.47000000000E+01 0. -1.
        -11    1    6    6    0    0 -0.49647730760E+02  0.50103458822E+02 -0.22427705289E+03  0.23510731637E+03  0.00000000000E+00 0.  1.
         12    1    6    6    0    0  0.13461501374E+02  0.56734445110E+02 -0.73048709765E+02  0.93467231047E+02  0.00000000000E+00 0. -1.
         -5    1    3    3    0  503  0.78558604429E+01 -0.10906452277E+03 -0.33590789714E+01  0.10949958029E+03  0.47000000000E+01 0.  1.
         13    1    4    4    0    0 -0.42222375427E+02  0.41423963161E+01  0.14053416438E+01  0.42448361795E+02  0.00000000000E+00 0. -1.
        -14    1    4    4    0    0  0.10712208838E+02 -0.11113440458E+02 -0.66967770978E+02  0.68723666424E+02  0.00000000000E+00 0.  1.
</event>
<event>
12    1  0.9962621E-001  0.2668049E+03  0.7818608E-02  0.1103176E+00
         21   -1    0    0  501  502  0.00000000000E+00  0.00000000000E+00  0.96394556815E+03  0.96394556815E+03  0.00000000000E+00 0. -1.
         21   -1    0    0  502  503 -0.00000000000E+00 -0.00000000000E+00 -0.11082935033E+03  0.11082935033E+03  0.00000000000E+00 0. -1.
         -6    2    1    2    0  503  0.18872927690E+03 -0.76658591235E+02  0.73721342457E+03  0.78388260521E+03  0.17173533655E+03 0.  0.
        -24    2    3    3    0    0  0.15134975808E+03 -0.55050037028E+02  0.71054622419E+03  0.73291803303E+03  0.79722334199E+02 0.  0.
          6    2    1    2  501    0 -0.18872927690E+03  0.76658591235E+02  0.11590279326E+03  0.29089231327E+03  0.17230670580E+03 0.  0.
         24    2    5    5    0    0 -0.18896407777E+03  0.19022652231E+02  0.74374568928E+02  0.21969793138E+03  0.81647538644E+02 0.  0.
          5    1    5    5  501    0  0.23480086621E+00  0.57635939003E+02  0.41528224329E+02  0.71194381886E+02  0.47000000000E+01 0. -1.
        -13    1    6    6    0    0 -0.84128333565E+02  0.48006830765E+02  0.46331185041E+02  0.10737230097E+03  0.00000000000E+00 0.  1.
         14    1    6    6    0    0 -0.10483574420E+03 -0.28984178533E+02  0.28043383887E+02  0.11232563041E+03  0.00000000000E+00 0. -1.
         -5    1    3    3    0  503  0.37379518820E+02 -0.21608554207E+02  0.26667200372E+02  0.50964572183E+02  0.47000000000E+01 0.  1.
         11    1    4    4    0    0  0.14684028656E+03 -0.60170084361E+02  0.55550743123E+03  0.57772918826E+03  0.00000000000E+00 0. -1.
        -12    1    4    4    0    0  0.45094715242E+01  0.51200473331E+01  0.15503879296E+03  0.15518884477E+03  0.00000000000E+00 0.  1.
</event>
<event>
12    1  0.9962621E-001  0.5041724E+03  0.7818608E-02  0.1012731E+00
         21   -1    0    0  501  502  0.00000000000E+00  0.00000000000E+00  0.23008824487E+03  0.23008824487E+03  0.00000000000E+00 0.  1.
         21   -1    0    0  502  503 -0.00000000000E+00 -0.00000000000E+00 -0.14300311491E+04  0.14300311491E+04  0.00000000000E+00 0.  1.
         -6    2    1    2    0  503  0.36818425101E+03  0.29761172522E+03 -0.99684485149E+03  0.11170897297E+04  0.17337077230E+03 0.  0.
        -24    2    3    3    0    0  0.14755973667E+03  0.94179057466E+02 -0.28252695292E+03  0.34227867094E+03  0.81790211533E+02 0.  0.
          6    2    1    2  501    0 -0.36818425101E+03 -0.29761172522E+03 -0.20309805270E+03  0.54302966418E+03  0.17175568546E+03 0.  0.
         24    2    5    5    0    0 -0.36100358820E+03 -0.31151685508E+03 -0.18259586715E+03  0.51681241475E+03  0.79921709530E+02 0.  0.
          5    1    5    5  501    0 -0.71806628192E+01  0.13905129865E+02 -0.20502185553E+02  0.26217249427E+02  0.47000000000E+01 0. -1.
        -11    1    6    6    0    0 -0.19476659906E+03 -0.18544815193E+03 -0.62566206777E+02  0.27611514879E+03  0.00000000000E+00 0.  1.
         12    1    6    6    0    0 -0.16623698914E+03 -0.12606870315E+03 -0.12002966037E+03  0.24069726596E+03  0.00000000000E+00 0. -1.
         -5    1    3    3    0  503  0.22062451435E+03  0.20343266775E+03 -0.71431789857E+03  0.77481105881E+03  0.47000000000E+01 0.  1.
         13    1    4    4    0    0  0.10681526421E+03  0.75668700882E+02 -0.26233823092E+03  0.29318356087E+03  0.00000000000E+00 0. -1.
        -14    1    4    4    0    0  0.40744472455E+02  0.18510356584E+02 -0.20188721996E+02  0.49095110066E+02  0.00000000000E+00 0.  1.
</event>
<event>
12    1  0.9962621E-001  0.2357652E+03  0.7818608E-02  0.1122836E+00
         21   -1    0    0  501  502  0.00000000000E+00  0.00000000000E+00  0.15232007897E+03  0.15232007897E+03  0.00000000000E+00 0.  1.
         21   -1    0    0  502  503 -0.00000000000E+00 -0.00000000000E+00 -0.12513329776E+04  0.12513329776E+04  0.00000000000E+00 0.  1.
         -6    2    1    2    0  503 -0.15118180848E+03 -0.47877487932E+02 -0.11411464141E+04  0.11652469145E+04  0.17446214569E+03 0.  0.
        -24    2    3    3    0    0 -0.12700015214E+03 -0.39983651955E+02 -0.11222577658E+04  0.11332166759E+04  0.83605087031E+02 0.  0.
          6    2    1    2  501    0  0.15118180848E+03  0.47877487932E+02  0.42133515481E+02  0.23840614206E+03  0.17295682230E+03 0.  0.
         24    2    5    5    0    0  0.48105793251E+02  0.63751523486E+02  0.64575780704E+02  0.13162414363E+03  0.82319254385E+02 0.  0.
          5    1    5    5  501    0  0.10307601523E+03 -0.15874035554E+02 -0.22442265223E+02  0.10678199843E+03  0.47000000000E+01 0. -1.
        -13    1    6    6    0    0  0.43749317896E+02  0.47242659574E+02 -0.45423096223E+00  0.64390046015E+02  0.00000000000E+00 0.  1.
         14    1    6    6    0    0  0.43564753549E+01  0.16508863912E+02  0.65030011667E+02  0.67234097618E+02  0.00000000000E+00 0. -1.
         -5    1    3    3    0  503 -0.24181656346E+02 -0.78938359773E+01 -0.18888648291E+02  0.32030238593E+02  0.47000000000E+01 0.  1.
         11    1    4    4    0    0 -0.40708080001E+02 -0.42476372197E+02 -0.68477404347E+03  0.68729679221E+03  0.00000000000E+00 0. -1.
        -12    1    4    4    0    0 -0.86292072135E+02  0.24927202420E+01 -0.43748372231E+03  0.44591988367E+03  0.00000000000E+00 0.  1.
</event>
<event>
12    1  0.9962621E-001  0.2839771E+03  0.7818608E-02  0.1093695E+00
         21   -1    0    0  503  502  0.00000000000E+00  0.00000000000E+00  0.12729868704E+03  0.12729868704E+03  0.00000000000E+00 0. -1.
         21   -1    0    0  501  503 -0.00000000000E+00 -0.00000000000E+00 -0.90012220239E+03  0.90012220239E+03  0.00000000000E+00 0. -1.
          6    2    1    2  501    0  0.22438522053E+03 -0.21754031562E+02 -0.66681157306E+03  0.72430123351E+03  0.17074143557E+03 0.  0.
         24    2    3    3    0    0  0.17701703324E+03 -0.11751639564E+02 -0.63973712189E+03  0.66863338895E+03  0.79585756265E+02 0.  0.
         -6    2    1    2    0  502 -0.22438522053E+03  0.21754031562E+02 -0.10601194228E+03  0.30311965591E+03  0.17268766260E+03 0.  0.
        -24    2    5    5    0    0 -0.19167139007E+03  0.64384845578E+02 -0.57086401553E+02  0.23029534993E+03  0.94306738063E+02 0.  0.
          5    1    3    3  501    0  0.47368187284E+02 -0.10002391998E+02 -0.27074451170E+02  0.55667844564E+02  0.47000000000E+01 0. -1.
        -13    1    4    4    0    0  0.78641966111E+02  0.81321921118E+01 -0.15948430040E+03  0.17800543097E+03  0.00000000000E+00 0.  1.
         14    1    4    4    0    0  0.98375067133E+02 -0.19883831676E+02 -0.48025282149E+03  0.49062795798E+03  0.00000000000E+00 0. -1.
         -5    1    5    5    0  502 -0.32713830460E+02 -0.42630814017E+02 -0.48925540729E+02  0.72824305989E+02  0.47000000000E+01 0.  1.
         13    1    6    6    0    0 -0.54375099805E+02 -0.52174750569E+01  0.19962186457E+02  0.58158081235E+02  0.00000000000E+00 0. -1.
        -14    1    6    6    0    0 -0.13729629026E+03  0.69602320635E+02 -0.77048588010E+02  0.17213726869E+03  0.00000000000E+00 0.  1.
</event>
<event>
12    1  0.9962621E-001  0.1759501E+03  0.7818608E-02  0.1171953E+00
         21   -1    0    0  503  502  0.00000000000E+00  0.00000000000E+00  0.13795150179E+03  0.13795150179E+03  0.00000000000E+00 0. -1.
         21   -1    0    0  501  503 -0.00000000000E+00 -0.00000000000E+00 -0.31008334524E+03  0.31008334524E+03  0.00000000000E+00 0. -1.
          6    2    1    2  501    0  0.31220382309E+02  0.16983756338E+02  0.32402658480E+02  0.17823344089E+03  0.17162187193E+03 0.  0.
         24    2    3    3    0    0  0.83863220308E+02 -0.25070496151E+01  0.34120520440E+02  0.12187564676E+03  0.81548380369E+02 0.  0.
         -6    2    1    2    0  502 -0.31220382309E+02 -0.16983756338E+02 -0.20453450193E+03  0.26980140614E+03  0.17232317321E+03 0.  0.
        -24    2    5    5    0    0  0.16840809263E+02 -0.60985948840E+02 -0.16059910949E+03  0.19107098134E+03  0.81933797236E+02 0.  0.
          5    1    3    3  501    0 -0.52642837999E+02  0.19490805953E+02 -0.17178619606E+01  0.56357794129E+02  0.47000000000E+01 0. -1.
        -13    1    4    4    0    0  0.34291744221E+02 -0.22043581897E+01  0.57563288170E+02  0.67039652906E+02  0.00000000000E+00 0.  1.
         14    1    4    4    0    0  0.49571476087E+02 -0.30269142534E+00 -0.23442767730E+02  0.54835993858E+02  0.00000000000E+00 0. -1.
         -5    1    5    5    0  502 -0.48061191572E+02  0.44002192502E+02 -0.43935392439E+02  0.78730424799E+02  0.47000000000E+01 0.  1.
         11    1    6    6    0    0  0.34976929692E+02 -0.27472879700E+01 -0.96066929066E+02  0.10227310527E+03  0.00000000000E+00 0. -1.
        -12    1    6    6    0    0 -0.18136120430E+02 -0.58238660870E+02 -0.64532180424E+02  0.88797876069E+02  0.00000000000E+00 0.  1.
</event>
<event>
12    1  0.9962621E-001  0.1883586E+03  0.7818608E-02  0.1159971E+00
         21   -1    0    0  501  502  0.00000000000E+00  0.00000000000E+00  0.18613657705E+03  0.18613657705E+03  0.00000000000E+00 0.  1.
         21   -1    0    0  502  503 -0.00000000000E+00 -0.00000000000E+00 -0.22753340082E+03  0.22753340082E+03  0.00000000000E+00 0.  1.
         -6    2    1    2    0  503  0.76026740677E+02 -0.90382938879E+01 -0.10412342913E+03  0.21514139071E+03  0.17199527159E+03 0.  0.
        -24    2    3    3    0    0  0.48296346912E+02  0.49363809974E+02 -0.10690874897E+03  0.15025974091E+03  0.79869808270E+02 0.  0.
          6    2    1    2  501    0 -0.76026740677E+02  0.90382938879E+01  0.62726605363E+02  0.19852858716E+03  0.17209653351E+03 0.  0.
         24    2    5    5    0    0 -0.82505475052E+02  0.58355978467E+02  0.77461484315E+02  0.14643814016E+03  0.72327544577E+02 0.  0.
          5    1    5    5  501    0  0.64787343742E+01 -0.49317684579E+02 -0.14734878952E+02  0.52090447003E+02  0.47000000000E+01 0. -1.
        -13    1    6    6    0    0 -0.14526233857E+02  0.53604907026E+02  0.27731154771E+02  0.62076682195E+02  0.00000000000E+00 0.  1.
         14    1    6    6    0    0 -0.67979241194E+02  0.47510714403E+01  0.49730329544E+02  0.84361457964E+02  0.00000000000E+00 0. -1.
         -5    1    3    3    0  503  0.27730393765E+02 -0.58402103861E+02  0.27853198373E+01  0.64881649797E+02  0.47000000000E+01 0.  1.
         13    1    4    4    0    0  0.81844998710E+01  0.44033703765E+02 -0.10933569675E+02  0.46103102404E+02  0.00000000000E+00 0. -1.
        -14    1    4    4    0    0  0.40111847041E+02  0.53301062084E+01 -0.95975179292E+02  0.10415663851E+03  0.00000000000E+00 0.  1.
</event>
<event>
12    1  0.9962621E-001  0.2084278E+03  0.7818608E-02  0.1143136E+00
         21   -1    0    0  503  502  0.00000000000E+00  0.00000000000E+00  0.81752944571E+03  0.81752944571E+03  0.00000000000E+00 0. -1.
         21   -1    0    0  501  503 -0.00000000000E+00 -0.00000000000E+00 -0.53564583289E+02  0.53564583289E+02  0.00000000000E+00 0. -1.
          6    2    1    2  501    0 -0.74938489074E+02  0.88237477494E+02  0.43764663711E+03  0.48474397881E+03  0.17332200219E+03 0.  0.
         24    2    3    3    0    0  0.24304648116E+01 -0.58108400917E+01  0.11683531471E+03  0.14156321647E+03  0.79686764713E+02 0.  0.
         -6    2    1    2    0  502  0.74938489074E+02 -0.88237477494E+02  0.32631822531E+03  0.38635005018E+03  0.17140929826E+03 0.  0.
        -24    2    5    5    0    0  0.63413805895E+02  0.13783772109E+02  0.12415803783E+03  0.15956384008E+03  0.76381264400E+02 0.  0.
          5    1    3    3  501    0 -0.77368953885E+02  0.94048317586E+02  0.32081132240E+03  0.34318076235E+03  0.47000000000E+01 0. -1.
        -11    1    4    4    0    0 -0.23381492856E+01  0.11466375414E+02  0.12227421893E+03  0.12283293256E+03  0.00000000000E+00 0.  1.
         12    1    4    4    0    0  0.47686140972E+01 -0.17277215506E+02 -0.54389042160E+01  0.18730283904E+02  0.00000000000E+00 0. -1.
         -5    1    5    5    0  502  0.11524683179E+02 -0.10202124960E+03  0.20216018748E+03  0.22678621010E+03  0.47000000000E+01 0.  1.
         11    1    6    6    0    0 -0.36209282122E+00  0.15705244230E+02  0.81057365070E+02  0.82565623837E+02  0.00000000000E+00 0. -1.
        -12    1    6    6    0    0  0.63775898716E+02 -0.19214721210E+01  0.43100672761E+02  0.76998216243E+02  0.00000000000E+00 0.  1.
</event>
<event>
12    1  0.9962621E-001  0.2101969E+03  0.7818608E-02  0.1141508E+00
         21   -1    0    0  503  502  0.00000000000E+00  0.00000000000E+00  0.14251003638E+04  0.14251003638E+04  0.00000000000E+00 0.  1.
         21   -1    0    0  501  503 -0.00000000000E+00 -0.00000000000E+00 -0.32079648341E+02  0.32079648341E+02  0.00000000000E+00 0.  1.
          6    2    1    2  501    0  0.11213252195E+03  0.39311134067E+02  0.55939242201E+03  0.59758063750E+03  0.17338877926E+03 0.  0.
         24    2    3    3    0    0  0.14058902499E+03  0.37586290259E+02  0.37472123117E+03  0.41066277752E+03  0.83963757629E+02 0.  0.
         -6    2    1    2    0  502 -0.11213252195E+03 -0.39311134067E+02  0.83362829340E+03  0.85959937459E+03  0.17278855720E+03 0.  0.
        -24    2    5    5    0    0 -0.85584996937E+02 -0.61756364549E+02  0.80059033637E+03  0.81141062009E+03  0.79395638681E+02 0.  0.
          5    1    3    3  501    0 -0.28456503034E+02  0.17248438089E+01  0.18467119085E+03  0.18691785998E+03  0.47000000000E+01 0. -1.
        -13    1    4    4    0    0  0.46052483637E+02 -0.26841649477E+02  0.10783865588E+03  0.12029331277E+03  0.00000000000E+00 0.  1.
         14    1    4    4    0    0  0.94536541349E+02  0.64427939735E+02  0.26688257529E+03  0.29036946475E+03  0.00000000000E+00 0. -1.
         -5    1    5    5    0  502 -0.26547525016E+02  0.22445230482E+02  0.33037957036E+02  0.48188754507E+02  0.47000000000E+01 0.  1.
         11    1    6    6    0    0 -0.70223271805E+02 -0.52039564123E+02  0.36047191262E+03  0.37091700409E+03  0.00000000000E+00 0. -1.
        -12    1    6    6    0    0 -0.15361725132E+02 -0.97168004260E+01  0.44011842375E+03  0.44049361600E+03  0.00000000000E+00 0.  1.
</event>
<event>
12    1  0.9962621E-001  0.4240655E+03  0.7818608E-02  0.1035761E+00
         21   -1    0    0  503  502  0.00000000000E+00  0.00000000000E+00  0.23736585266E+03  0.23736585266E+03  0.00000000000E+00 0.  1.
         21   -1    0    0  501  503 -0.00000000000E+00 -0.00000000000E+00 -0.77935302239E+03  0.77935302239E+03  0.00000000000E+00 0.  1.
          6    2    1    2  501    0  0.38141172709E+03 -0.66468553269E+02 -0.35626986078E+03  0.55376911579E+03  0.17273982104E+03 0.  0.
         24    2    3    3    0    0  0.22606573255E+03  0.16637367350E+01 -0.13637840625E+03  0.27601251598E+03  0.80469595735E+02 0.  0.
         -6    2    1    2    0  502 -0.38141172709E+03  0.66468553269E+02 -0.18571730895E+03  0.46294975926E+03  0.17302770477E+03 0.  0.
        -24    2    5    5    0    0 -0.38101362222E+03  0.61902940861E+02 -0.20347742731E+03  0.44401526406E+03  0.82116605488E+02 0.  0.
          5    1    3    3  501    0  0.15534599454E+03 -0.68132290004E+02 -0.21989145453E+03  0.27775659980E+03  0.47000000000E+01 0. -1.
        -13    1    4    4    0    0  0.48967780974E+02  0.24528467778E+02 -0.61581681788E+02  0.82412334252E+02  0.00000000000E+00 0.  1.
         14    1    4    4    0    0  0.17709795157E+03 -0.22864731043E+02 -0.74796724460E+02  0.19360018173E+03  0.00000000000E+00 0. -1.
         -5    1    5    5    0  502 -0.39810486999E+00  0.45656124075E+01  0.17760118356E+02  0.18934495192E+02  0.47000000000E+01 0.  1.
         11    1    6    6    0    0 -0.17369295235E+03  0.46789606810E+02 -0.13585451509E+03  0.22542173425E+03  0.00000000000E+00 0. -1.
        -12    1    6    6    0    0 -0.20732066986E+03  0.15113334051E+02 -0.67622912213E+02  0.21859352981E+03  0.00000000000E+00 0.  1.
</event>
<event>
12    1  0.9962621E-001  0.1896750E+03  0.7818608E-02  0.1160843E+00
         21   -1    0    0  503  502  0.00000000000E+00  0.00000000000E+00  0.34196041653E+03  0.34196041653E+03  0.00000000000E+00 0.  1.
         21   -1    0    0  501  503 -0.00000000000E+00 -0.00000000000E+00 -0.18813534691E+03  0.18813534691E+03  0.00000000000E+00 0.  1.
          6    2    1    2  501    0 -0.80755903866E+02  0.42869767029E+01  0.25901094977E+03  0.32103469643E+03  0.17157129723E+03 0.  0.
         24    2    3    3    0    0  0.21585756967E+02  0.14641474300E+02  0.84075031773E+02  0.11804283313E+03  0.78645926857E+02 0.  0.
         -6    2    1    2    0  502  0.80755903866E+02 -0.42869767029E+01 -0.10518588016E+03  0.20906106700E+03  0.16156288613E+03 0.  0.
        -24    2    5    5    0    0  0.55799659029E+02 -0.39643447961E+00 -0.13670624948E+03  0.16839690394E+03  0.80963939528E+02 0.  0.
          5    1    3    3  501    0 -0.10234166083E+03 -0.10354497597E+02  0.17493591800E+03  0.20299186331E+03  0.47000000000E+01 0. -1.
        -11    1    4    4    0    0 -0.13433134591E+02 -0.24269103832E+02  0.44422999087E+02  0.52372142916E+02  0.00000000000E+00 0.  1.
         12    1    4    4    0    0  0.35018891558E+02  0.38910578132E+02  0.39652032687E+02  0.65670690210E+02  0.00000000000E+00 0. -1.
         -5    1    5    5    0  502  0.24956244837E+02 -0.38905422233E+01  0.31520369321E+02  0.40664163059E+02  0.47000000000E+01 0.  1.
         13    1    6    6    0    0  0.64412043577E+02 -0.26917161761E+02 -0.88656944824E+02  0.11284280580E+03  0.00000000000E+00 0. -1.
        -14    1    6    6    0    0 -0.86123845482E+01  0.26520727281E+02 -0.48049304653E+02  0.55554098146E+02  0.00000000000E+00 0.  1.
</event>
<event>
12    1  0.9962621E-001  0.1922239E+03  0.7818608E-02  0.1156481E+00
         21   -1    0    0  503  502  0.00000000000E+00  0.00000000000E+00  0.14887240118E+03  0.14887240118E+03  0.00000000000E+00 0.  1.
         21   -1    0    0  501  503 -0.00000000000E+00 -0.00000000000E+00 -0.24839950981E+03  0.24839950981E+03  0.00000000000E+00 0.  1.
          6    2    1    2  501    0  0.76377358661E+02  0.36518733038E+02 -0.56192966589E+02  0.20026905695E+03  0.17257730702E+03 0.  0.
         24    2    3    3    0    0 -0.24956725013E+02  0.27160695544E+02 -0.20493292628E+02  0.92321263547E+02  0.82113940073E+02 0.  0.
         -6    2    1    2    0  502 -0.76377358661E+02 -0.36518733038E+02 -0.43334142042E+02  0.19700285403E+03  0.17252581793E+03 0.  0.
        -24    2    5    5    0    0  0.43347892374E+01 -0.54315447398E+02 -0.59786891586E+02  0.11259931839E+03  0.78327363504E+02 0.  0.
          5    1    3    3  501    0  0.10133408367E+03  0.93580374944E+01 -0.35699673960E+02  0.10794779340E+03  0.47000000000E+01 0. -1.
        -13    1    4    4    0    0 -0.16109157271E+02 -0.27031803308E+02  0.48596890617E+01  0.31840852938E+02  0.00000000000E+00 0.  1.
         14    1    4    4    0    0 -0.88475677419E+01  0.54192498852E+02 -0.25352981690E+02  0.60480410608E+02  0.00000000000E+00 0. -1.
         -5    1    5    5    0  502 -0.80712147898E+02  0.17796714360E+02  0.16452749545E+02  0.84403535637E+02  0.47000000000E+01 0.  1.
         11    1    6    6    0    0  0.70053758255E+01 -0.45919437410E+02 -0.78897291457E+02  0.91555735057E+02  0.00000000000E+00 0. -1.
        -12    1    6    6    0    0 -0.26705865881E+01 -0.83960099876E+01  0.19110399871E+02  0.21043583337E+02  0.00000000000E+00 0.  1.
</event>
<event>
12    1  0.9962621E-001  0.3226462E+03  0.7818608E-02  0.1075618E+00
         21   -1    0    0  501  502  0.00000000000E+00  0.00000000000E+00  0.12668588380E+03  0.12668588380E+03  0.00000000000E+00 0. -1.
         21   -1    0    0  502  503 -0.00000000000E+00 -0.00000000000E+00 -0.10305734379E+04  0.10305734379E+04  0.00000000000E+00 0. -1.
         -6    2    1    2    0  503 -0.16310435580E+03 -0.20368026401E+03 -0.73359266164E+03  0.80141049727E+03  0.18976804550E+03 0.  0.
        -24    2    3    3    0    0 -0.43779698515E+01 -0.63236080158E+02 -0.16264252162E+03  0.19237454861E+03  0.80854243297E+02 0.  0.
          6    2    1    2  501    0  0.16310435580E+03  0.20368026401E+03 -0.17029489248E+03  0.35584882444E+03  0.17187016794E+03 0.  0.
         24    2    5    5    0    0  0.10350994579E+03  0.47559892873E+02 -0.40551671017E+02  0.14423488940E+03  0.78632137272E+02 0.  0.
          5    1    5    5  501    0  0.59594410011E+02  0.15612037113E+03 -0.12974322146E+03  0.21161393504E+03  0.47000000000E+01 0. -1.
        -11    1    6    6    0    0  0.11244863277E+03  0.26510340687E+02 -0.34682594121E+02  0.12062493735E+03  0.00000000000E+00 0.  1.
         12    1    6    6    0    0 -0.89386869870E+01  0.21049552186E+02 -0.58690768962E+01  0.23609952052E+02  0.00000000000E+00 0. -1.
         -5    1    3    3    0  503 -0.15872638595E+03 -0.14044418385E+03 -0.57095014002E+03  0.60903594866E+03  0.47000000000E+01 0.  1.
         11    1    4    4    0    0 -0.98265711969E+01  0.18409485787E+02 -0.35363481254E+02  0.41061496257E+02  0.00000000000E+00 0. -1.
        -12    1    4    4    0    0  0.54486013454E+01 -0.81645565945E+02 -0.12727904037E+03  0.15131305235E+03  0.00000000000E+00 0.  1.
</event>
<event>
12    1  0.9962621E-001  0.1856687E+03  0.7818608E-02  0.1162482E+00
         21   -1    0    0  501  502  0.00000000000E+00  0.00000000000E+00  0.26668399095E+03  0.26668399095E+03  0.00000000000E+00 0.  1.
         21   -1    0    0  502  503 -0.00000000000E+00 -0.00000000000E+00 -0.13082598721E+03  0.13082598721E+03  0.00000000000E+00 0.  1.
         -6    2    1    2    0  503 -0.71012565836E+02 -0.85062556250E+01  0.90710141963E+02  0.20643096839E+03  0.17108557497E+03 0.  0.
        -24    2    3    3    0    0 -0.46448842710E+02 -0.47656758543E+02  0.11413558299E+03  0.15440232570E+03  0.79902973992E+02 0.  0.
          6    2    1    2  501    0  0.71012565836E+02  0.85062556250E+01  0.45147861773E+02  0.19107900978E+03  0.17134093983E+03 0.  0.
         24    2    5    5    0    0  0.10522179426E+02  0.11737295963E+02  0.85601686717E+02  0.11808497973E+03  0.79799331408E+02 0.  0.
          5    1    5    5  501    0  0.60490386411E+02 -0.32310403381E+01 -0.40453824943E+02  0.72994030046E+02  0.47000000000E+01 0. -1.
        -13    1    6    6    0    0 -0.96315558586E+01 -0.11657468534E+02 -0.96599463405E+01  0.17943745545E+02  0.00000000000E+00 0.  1.
         14    1    6    6    0    0  0.20153735284E+02  0.23394764497E+02  0.95261633057E+02  0.10014123419E+03  0.00000000000E+00 0. -1.
         -5    1    3    3    0  503 -0.24563723126E+02  0.39150502918E+02 -0.23425441029E+02  0.52028642688E+02  0.47000000000E+01 0.  1.
         13    1    4    4    0    0 -0.45789573713E+02 -0.51610607541E+01  0.18327424740E+02  0.49590484032E+02  0.00000000000E+00 0. -1.
        -14    1    4    4    0    0 -0.65926899695E+00 -0.42495697789E+02  0.95808158252E+02  0.10481184167E+03  0.00000000000E+00 0.  1.
</event>
<event>
12    1  0.9962621E-001  0.1793407E+03  0.7818608E-02  0.1169492E+00
         21   -1    0    0  503  502  0.00000000000E+00  0.00000000000E+00  0.57747261332E+03  0.57747261332E+03  0.00000000000E+00 0.  1.
         21   -1    0    0  501  503 -0.00000000000E+00 -0.00000000000E+00 -0.54389579270E+02  0.54389579270E+02  0.00000000000E+00 0.  1.
          6    2    1    2  501    0 -0.52257668093E+02 -0.11419836777E+02  0.25451097500E+03  0.30891630031E+03  0.16670983070E+03 0.  0.
         24    2    3    3    0    0 -0.98822709840E+02 -0.18655085158E+02  0.18886848504E+03  0.22797386138E+03  0.78656446941E+02 0.  0.
         -6    2    1    2    0  502  0.52257668093E+02  0.11419836777E+02  0.26857205905E+03  0.32294589228E+03  0.17117774942E+03 0.  0.
        -24    2    5    5    0    0  0.69623590621E+02  0.52687073461E+02  0.12932637054E+03  0.17660378673E+03  0.82705594074E+02 0.  0.
          5    1    3    3  501    0  0.46565041747E+02  0.72352483807E+01  0.65642489958E+02  0.80942438929E+02  0.47000000000E+01 0. -1.
        -13    1    4    4    0    0  0.89070936134E+01 -0.33385305767E+01 -0.54723452364E+00  0.95279362232E+01  0.00000000000E+00 0.  1.
         14    1    4    4    0    0 -0.10772980345E+03 -0.15316554581E+02  0.18941571957E+03  0.21844592515E+03  0.00000000000E+00 0. -1.
         -5    1    5    5    0  502 -0.17365922528E+02 -0.41267236684E+02  0.13924568851E+03  0.14634210555E+03  0.47000000000E+01 0.  1.
         13    1    6    6    0    0  0.30439936357E+02  0.56124753936E+02  0.31561712764E+02  0.71223026069E+02  0.00000000000E+00 0. -1.
        -14    1    6    6    0    0  0.39183654264E+02 -0.34376804752E+01  0.97764657775E+02  0.10538076067E+03  0.00000000000E+00 0.  1.
</event>
<event>
12    1  0.9962621E-001  0.5738065E+03  0.7818608E-02  0.9962786E-01
         21   -1    0    0  501  502  0.00000000000E+00  0.00000000000E+00  0.66634673760E+03  0.66634673760E+03  0.00000000000E+00 0.  1.
         21   -1    0    0  502  503 -0.00000000000E+00 -0.00000000000E+00 -0.49583318621E+03  0.49583318621E+03  0.00000000000E+00 0. -1.
         -6    2    1    2    0  503 -0.54525353953E+03  0.15019960648E+02  0.32916693010E+02  0.57474982777E+03  0.17812028030E+03 0.  0.
        -24    2    3    3    0    0 -0.53894686420E+03  0.41124510476E+02  0.30421696693E+02  0.54737216019E+03  0.80844630813E+02 0.  0.
          6    2    1    2  501    0  0.54525353953E+03 -0.15019960648E+02  0.13759685839E+03  0.58743009604E+03  0.16915732533E+03 0.  0.
         24    2    5    5    0    0  0.53728286016E+03  0.10780567542E+02  0.12618113217E+03  0.55773821517E+03  0.79756793397E+02 0.  0.
          5    1    5    5  501    0  0.79706793701E+01 -0.25800528190E+02  0.11415726214E+02  0.29691880868E+02  0.47000000000E+01 0. -1.
        -11    1    6    6    0    0  0.90307112216E+01 -0.11206903899E+02  0.56631426898E+01  0.15466726392E+02  0.00000000000E+00 0.  1.
         12    1    6    6    0    0  0.52825214894E+03  0.21987471441E+02  0.12051798948E+03  0.54227148878E+03  0.00000000000E+00 0. -1.
         -5    1    3    3    0  503 -0.63066753313E+01 -0.26104549828E+02  0.24949963173E+01  0.27377667579E+02  0.47000000000E+01 0.  1.
         13    1    4    4    0    0 -0.35826756132E+03 -0.64536966343E+01  0.38304756824E+02  0.36036724336E+03  0.00000000000E+00 0. -1.
        -14    1    4    4    0    0 -0.18067930288E+03  0.47578207110E+02 -0.78830601312E+01  0.18700491683E+03  0.00000000000E+00 0.  1.
</event>
<event>
12    1  0.9962621E-001  0.2032129E+03  0.7818608E-02  0.1148205E+00
         21   -1    0    0  501  502  0.00000000000E+00  0.00000000000E+00  0.60685840213E+03  0.60685840213E+03  0.00000000000E+00 0.  1.
         21   -1    0    0  502  503 -0.00000000000E+00 -0.00000000000E+00 -0.66296380023E+02  0.66296380023E+02  0.00000000000E+00 0.  1.
         -6    2    1    2    0  503 -0.90776087323E+02 -0.33379534885E+02  0.26292385946E+03  0.33230171020E+03  0.17872039434E+03 0.  0.
        -24    2    3    3    0    0 -0.39652956391E+02  0.38365560886E+02  0.20484298863E+03  0.22667779795E+03  0.79861761064E+02 0.  0.
          6    2    1    2  501    0  0.90776087323E+02  0.33379534885E+02  0.27763816265E+03  0.34085307195E+03  0.17246267979E+03 0.  0.
         24    2    5    5    0    0  0.51826945189E+02 -0.27204319958E+02  0.70473016818E+02  0.12147457075E+03  0.79771661433E+02 0.  0.
          5    1    5    5  501    0  0.38949142134E+02  0.60583854843E+02  0.20716514583E+03  0.21937850120E+03  0.47000000000E+01 0. -1.
        -11    1    6    6    0    0 -0.19108924501E+02  0.63104113147E+01  0.18743574777E+02  0.27500797842E+02  0.00000000000E+00 0.  1.
         12    1    6    6    0    0  0.70935869690E+02 -0.33514731273E+02  0.51729442041E+02  0.93973772909E+02  0.00000000000E+00 0. -1.
         -5    1    3    3    0  503 -0.51123130932E+02 -0.71745095771E+02  0.58080870830E+02  0.10562391225E+03  0.47000000000E+01 0.  1.
         11    1    4    4    0    0 -0.21192723872E+01 -0.40320542776E+01  0.14205499027E+03  0.14212800230E+03  0.00000000000E+00 0. -1.
        -12    1    4    4    0    0 -0.37533684004E+02  0.42397615164E+02  0.62787998358E+02  0.84549795649E+02  0.00000000000E+00 0.  1.
</event>
<event>
12    1  0.9962621E-001  0.2987780E+03  0.7818608E-02  0.1085905E+00
         21   -1    0    0  503  502  0.00000000000E+00  0.00000000000E+00  0.21562977563E+03  0.21562977563E+03  0.00000000000E+00 0.  1.
         21   -1    0    0  501  503 -0.00000000000E+00 -0.00000000000E+00 -0.41679945899E+03  0.41679945899E+03  0.00000000000E+00 0.  1.
          6    2    1    2  501    0  0.20969056739E+03 -0.12454443500E+03 -0.72144600133E+02  0.30736482165E+03  0.17258864364E+03 0.  0.
         24    2    3    3    0    0  0.75139491561E+02 -0.74689850669E+02 -0.94579680713E+02  0.16205517150E+03  0.78051557444E+02 0.  0.
         -6    2    1    2    0  502 -0.20969056739E+03  0.12454443500E+03 -0.12902508322E+03  0.32506441297E+03  0.17186608198E+03 0.  0.
        -24    2    5    5    0    0 -0.21174878223E+03  0.69507710715E+02 -0.76580920738E+02  0.24886889179E+03  0.80013869145E+02 0.  0.
          5    1    3    3  501    0  0.13455107583E+03 -0.49854584334E+02  0.22435080580E+02  0.14530965015E+03  0.47000000000E+01 0. -1.
        -11    1    4    4    0    0  0.28013210226E+02  0.12293193975E+02 -0.35356830499E+02  0.46754336999E+02  0.00000000000E+00 0.  1.
         12    1    4    4    0    0  0.47126281335E+02 -0.86983044644E+02 -0.59222850214E+02  0.11530083450E+03  0.00000000000E+00 0. -1.
         -5    1    5    5    0  502  0.20582148403E+01  0.55036724289E+02 -0.52444162485E+02  0.76195521178E+02  0.47000000000E+01 0.  1.
         13    1    6    6    0    0 -0.59635381389E+02  0.17598370330E+01 -0.54659001162E+02  0.80914041722E+02  0.00000000000E+00 0. -1.
        -14    1    6    6    0    0 -0.15211340084E+03  0.67747873682E+02 -0.21921919577E+02  0.16795485007E+03  0.00000000000E+00 0.  1.
</event>
<event>
12    1  0.9962621E-001  0.1799226E+03  0.7818608E-02  0.1168647E+00
         21   -1    0    0  501  502  0.00000000000E+00  0.00000000000E+00  0.15320772473E+03  0.15320772473E+03  0.00000000000E+00 0.  1.
         21   -1    0    0  502  503 -0.00000000000E+00 -0.00000000000E+00 -0.21298192311E+03  0.21298192311E+03  0.00000000000E+00 0.  1.
         -6    2    1    2    0  503  0.11020662634E+02  0.38400217293E+02 -0.10789649461E+01  0.17992584607E+03  0.17543122363E+03 0.  0.
        -24    2    3    3    0    0 -0.57579285163E+02  0.44054892400E+01  0.20500559776E+02  0.10024297300E+03  0.79332201972E+02 0.  0.
          6    2    1    2  501    0 -0.11020662634E+02 -0.38400217293E+02 -0.58695233434E+02  0.18626380177E+03  0.17220058574E+03 0.  0.
         24    2    5    5    0    0  0.39885314878E+02  0.17120083391E+02 -0.45316482856E+00  0.90932008073E+02  0.79902998289E+02 0.  0.
          5    1    5    5  501    0 -0.50905977513E+02 -0.55520300684E+02 -0.58242068605E+02  0.95331793699E+02  0.47000000000E+01 0. -1.
        -11    1    6    6    0    0  0.16368033791E+02  0.29237478887E+02 -0.34314891054E+02  0.47960967983E+02  0.00000000000E+00 0.  1.
         12    1    6    6    0    0  0.23517281088E+02 -0.12117395496E+02  0.33861726226E+02  0.42971040089E+02  0.00000000000E+00 0. -1.
         -5    1    3    3    0  503  0.68599947798E+02  0.33994728053E+02 -0.21579524722E+02  0.79682873069E+02  0.47000000000E+01 0.  1.
         13    1    4    4    0    0 -0.34771079066E+02 -0.91104666276E+01 -0.27600685289E+02  0.45319161179E+02  0.00000000000E+00 0. -1.
        -14    1    4    4    0    0 -0.22808206098E+02  0.13515955868E+02  0.48101245064E+02  0.54923811823E+02  0.00000000000E+00 0.  1.
</event>
<event>
12    1  0.9962621E-001  0.2113928E+03  0.7818608E-02  0.1142506E+00
         21   -1    0    0  501  502  0.00000000000E+00  0.00000000000E+00  0.35872124915E+03  0.35872124915E+03  0.00000000000E+00 0.  1.
         21   -1    0    0  502  503 -0.00000000000E+00 -0.00000000000E+00 -0.12554494746E+03  0.12554494746E+03  0.00000000000E+00 0.  1.
         -6    2    1    2    0  503  0.10143055822E+03 -0.25898928059E+02  0.57291682125E+02  0.20927109846E+03  0.17191027659E+03 0.  0.
        -24    2    3    3    0    0  0.11099069007E+03 -0.38219336215E+02  0.92978873973E+02  0.17004286577E+03  0.80559631644E+02 0.  0.
          6    2    1    2  501    0 -0.10143055822E+03  0.25898928059E+02  0.17588461957E+03  0.27499509815E+03  0.18365182273E+03 0.  0.
         24    2    5    5    0    0  0.19582614740E+02  0.61837391233E+01  0.42285231391E+02  0.93601153305E+02  0.80940828244E+02 0.  0.
          5    1    5    5  501    0 -0.12101317296E+03  0.19715188936E+02  0.13359938818E+03  0.18139394484E+03  0.47000000000E+01 0. -1.
        -11    1    6    6    0    0 -0.18979912278E+01  0.38119087896E+02  0.25025878604E+01  0.38248270271E+02  0.00000000000E+00 0.  1.
         12    1    6    6    0    0  0.21480605967E+02 -0.31935348773E+02  0.39782643530E+02  0.55352883034E+02  0.00000000000E+00 0. -1.
         -5    1    3    3    0  503 -0.95601318520E+01  0.12320408156E+02 -0.35687191848E+02  0.39228232693E+02  0.47000000000E+01 0.  1.
         11    1    4    4    0    0  0.79152695109E+02 -0.24692240568E+01  0.93029390895E+02  0.12217083850E+03  0.00000000000E+00 0. -1.
        -12    1    4    4    0    0  0.31837994965E+02 -0.35750112158E+02 -0.50516921740E-01  0.47872027268E+02  0.00000000000E+00 0.  1.
</event>
<event>
12    1  0.9962621E-001  0.1840447E+03  0.7818608E-02  0.1164484E+00
         21   -1    0    0  503  502  0.00000000000E+00  0.00000000000E+00  0.47100939762E+03  0.47100939762E+03  0.00000000000E+00 0. -1.
         21   -1    0    0  501  503 -0.00000000000E+00 -0.00000000000E+00 -0.78751340329E+02  0.78751340329E+02  0.00000000000E+00 0. -1.
          6    2    1    2  501    0  0.75496157096E+01  0.57226226764E+02  0.10893804479E+03  0.21191065923E+03  0.17235658433E+03 0.  0.
         24    2    3    3    0    0 -0.58624180715E+01  0.90375866107E+02  0.28347294721E+02  0.12361717002E+03  0.79217867215E+02 0.  0.
         -6    2    1    2    0  502 -0.75496157096E+01 -0.57226226764E+02  0.28332001250E+03  0.33785007872E+03  0.17475871504E+03 0.  0.
        -24    2    5    5    0    0 -0.39543359767E+02  0.63970540998E+01  0.23514480572E+03  0.25174280798E+03  0.80478333163E+02 0.  0.
          5    1    3    3  501    0  0.13412033781E+02 -0.33149639342E+02  0.80590750073E+02  0.88293489205E+02  0.47000000000E+01 0. -1.
        -13    1    4    4    0    0 -0.32105775333E+02  0.11944113138E+02  0.21905805545E+02  0.40660877573E+02  0.00000000000E+00 0.  1.
         14    1    4    4    0    0  0.26243357262E+02  0.78431752968E+02  0.64414891757E+01  0.82956292449E+02  0.00000000000E+00 0. -1.
         -5    1    5    5    0  502  0.31993744057E+02 -0.63623280864E+02  0.48175206775E+02  0.86107270741E+02  0.47000000000E+01 0.  1.
         11    1    6    6    0    0 -0.70677116978E+01  0.40517229564E+02  0.85858490076E+02  0.95201253975E+02  0.00000000000E+00 0. -1.
        -12    1    6    6    0    0 -0.32475648069E+02 -0.34120175464E+02  0.14928631565E+03  0.15654155401E+03  0.00000000000E+00 0.  1.
</event>
<event>
12    1  0.9962621E-001  0.2328096E+03  0.7818608E-02  0.1125595E+00
         21   -1    0    0  501  502  0.00000000000E+00  0.00000000000E+00  0.54482780169E+02  0.54482780169E+02  0.00000000000E+00 0. -1.
         21   -1    0    0  502  503 -0.00000000000E+00 -0.00000000000E+00 -0.12340832426E+04  0.12340832426E+04  0.00000000000E+00 0. -1.
         -6    2    1    2    0  503  0.14614610032E+03  0.26481937196E+02 -0.88108234694E+03  0.90999847680E+03  0.17242723121E+03 0.  0.
        -24    2    3    3    0    0  0.16743321904E+03  0.52166571520E+02 -0.70772387271E+03  0.73339696930E+03  0.79011395153E+02 0.  0.
          6    2    1    2  501    0 -0.14614610032E+03 -0.26481937196E+02 -0.29851811546E+03  0.37856754593E+03  0.17927728785E+03 0.  0.
         24    2    5    5    0    0 -0.71867497456E+02  0.15393371389E+02 -0.57500887729E+02  0.12286802232E+03  0.79926877490E+02 0.  0.
          5    1    5    5  501    0 -0.74278602866E+02 -0.41875308584E+02 -0.24101722773E+03  0.25569952361E+03  0.47000000000E+01 0. -1.
        -13    1    6    6    0    0 -0.40715556225E+02 -0.27315756558E+02 -0.49015106113E+02  0.69328116247E+02  0.00000000000E+00 0.  1.
         14    1    6    6    0    0 -0.31151941231E+02  0.42709127947E+02 -0.84857816153E+01  0.53539906070E+02  0.00000000000E+00 0. -1.
         -5    1    3    3    0  503 -0.21287118717E+02 -0.25684634324E+02 -0.17335847423E+03  0.17660150750E+03  0.47000000000E+01 0.  1.
         13    1    4    4    0    0 -0.98491211667E+00  0.20422113543E+02 -0.60243389128E+02  0.63618383405E+02  0.00000000000E+00 0. -1.
        -14    1    4    4    0    0  0.16841813116E+03  0.31744457977E+02 -0.64748048358E+03  0.66977858590E+03  0.00000000000E+00 0.  1.
</event>
<event>
12    1  0.9962621E-001  0.1744805E+03  0.7818608E-02  0.1173504E+00
         21   -1    0    0  501  502  0.00000000000E+00  0.00000000000E+00  0.35575328465E+03  0.35575328465E+03  0.00000000000E+00 0. -1.
         21   -1    0    0  502  503 -0.00000000000E+00 -0.00000000000E+00 -0.85103049640E+02  0.85103049640E+02  0.00000000000E+00 0. -1.
         -6    2    1    2    0  503  0.10376121503E+02 -0.27260226933E+02  0.13836654098E+03  0.22268531864E+03  0.17202519468E+03 0.  0.
        -24    2    3    3    0    0  0.36058215472E+02  0.44155763490E+02  0.69613729092E+02  0.12017262293E+03  0.79658406163E+02 0.  0.
          6    2    1    2  501    0 -0.10376121503E+02  0.27260226933E+02  0.13228369403E+03  0.21817101565E+03  0.17102290049E+03 0.  0.
         24    2    5    5    0    0 -0.24779782488E+02  0.77254010990E+02  0.59912677247E+02  0.12891577510E+03  0.80296502674E+02 0.  0.
          5    1    5    5  501    0  0.14403660986E+02 -0.49993784057E+02  0.72371016785E+02  0.89255240544E+02  0.47000000000E+01 0. -1.
        -13    1    6    6    0    0 -0.64727993273E+01  0.71976805297E+00 -0.17412017259E+02  0.18590146374E+02  0.00000000000E+00 0.  1.
         14    1    6    6    0    0 -0.18306983161E+02  0.76534242937E+02  0.77324694506E+02  0.11032562873E+03  0.00000000000E+00 0. -1.
         -5    1    3    3    0  503 -0.25682093969E+02 -0.71415990423E+02  0.68752811886E+02  0.10251269571E+03  0.47000000000E+01 0.  1.
         11    1    4    4    0    0 -0.16505187508E+02  0.26176346627E+02 -0.20881517441E+00  0.30946178136E+02  0.00000000000E+00 0. -1.
        -12    1    4    4    0    0  0.52563402980E+02  0.17979416863E+02  0.69822544266E+02  0.89226444798E+02  0.00000000000E+00 0.  1.
</event>
<event>
12    1  0.9962621E-001  0.1839821E+03  0.7818608E-02  0.1164220E+00
         21   -1    0    0  501  502  0.00000000000E+00  0.00000000000E+00  0.55949494324E+03  0.55949494324E+03  0.00000000000E+00 0.  1.
         21   -1    0    0  502  503 -0.00000000000E+00 -0.00000000000E+00 -0.60208224559E+02  0.60208224559E+02  0.00000000000E+00 0.  1.
         -6    2    1    2    0  503  0.40366521160E+02 -0.52618453898E+02  0.24501829767E+03  0.30585314838E+03  0.17062832255E+03 0.  0.
        -24    2    3    3    0    0  0.79761911525E+02 -0.78823842551E+01  0.11126945036E+03  0.15934664044E+03  0.81156433662E+02 0.  0.
          6    2    1    2  501    0 -0.40366521160E+02  0.52618453898E+02  0.25426842100E+03  0.31385001942E+03  0.17161365636E+03 0.  0.
         24    2    5    5    0    0 -0.48487469026E+02  0.98532941166E+02  0.19928655048E+03  0.24160608527E+03  0.81231743114E+02 0.  0.
          5    1    5    5  501    0  0.81209478660E+01 -0.45914487268E+02  0.54981870520E+02  0.72243934148E+02  0.47000000000E+01 0. -1.
        -11    1    6    6    0    0 -0.16028039972E+02  0.36019105048E+02  0.15135717731E+03  0.15640738192E+03  0.00000000000E+00 0.  1.
         12    1    6    6    0    0 -0.32459429055E+02  0.62513836118E+02  0.47929373167E+02  0.85198703353E+02  0.00000000000E+00 0. -1.
         -5    1    3    3    0  503 -0.39395390365E+02 -0.44736069643E+02  0.13374884732E+03  0.14650650794E+03  0.47000000000E+01 0.  1.
         11    1    4    4    0    0  0.94978729690E+02 -0.13130959455E+02  0.10467532102E+03  0.14195176653E+03  0.00000000000E+00 0. -1.
        -12    1    4    4    0    0 -0.15216818165E+02  0.52485751998E+01  0.65941293376E+01  0.17394873912E+02  0.00000000000E+00 0.  1.
</event>
<event>
12    1  0.9962621E-001  0.2123492E+03  0.7818608E-02  0.1140911E+00
         21   -1    0    0  501  502  0.00000000000E+00  0.00000000000E+00  0.75308741270E+02  0.75308741270E+02  0.00000000000E+00 0.  1.
         21   -1    0    0  502  503 -0.00000000000E+00 -0.00000000000E+00 -0.14440954129E+04  0.14440954129E+04  0.00000000000E+00 0. -1.
         -6    2    1    2    0  503  0.11181637717E+03  0.54256192801E+02 -0.93453921842E+02  0.22651367045E+03  0.16470631661E+03 0.  0.
        -24    2    3    3    0    0  0.57900640118E+02  0.92763284621E+02 -0.85273185060E+02  0.15959045119E+03  0.78994208139E+02 0.  0.
          6    2    1    2  501    0 -0.11181637717E+03 -0.54256192801E+02 -0.12753327498E+04  0.12928904837E+04  0.17217881274E+03 0.  0.
         24    2    5    5    0    0  0.39970926497E+01 -0.51686185360E+02 -0.51226931063E+03  0.52106973581E+03  0.80039892904E+02 0.  0.
          5    1    5    5  501    0 -0.11581346982E+03 -0.25700074411E+01 -0.76306343916E+03  0.77182074791E+03  0.47000000000E+01 0. -1.
        -13    1    6    6    0    0  0.42159336416E+01  0.11682978817E+02 -0.13710823064E+02  0.18500074584E+02  0.00000000000E+00 0.  1.
         14    1    6    6    0    0 -0.21884099190E+00 -0.63369164178E+02 -0.49855848756E+03  0.50256966122E+03  0.00000000000E+00 0. -1.
         -5    1    3    3    0  503  0.53915737050E+02 -0.38507091820E+02 -0.81807367818E+01  0.66923219262E+02  0.47000000000E+01 0.  1.
         13    1    4    4    0    0  0.61088178290E+02  0.86277472863E+02 -0.98517024677E+02  0.14450319028E+03  0.00000000000E+00 0. -1.
        -14    1    4    4    0    0 -0.31875381724E+01  0.64858117581E+01  0.13243839617E+02  0.15087260903E+02  0.00000000000E+00 0.  1.
</event>
<event>
12    1  0.9962621E-001  0.1969536E+03  0.7818608E-02  0.1156293E+00
         21   -1    0    0  503  502  0.00000000000E+00  0.00000000000E+00  0.37096957443E+02  0.37096957443E+02  0.00000000000E+00 0. -1.
         21   -1    0    0  501  503 -0.00000000000E+00 -0.00000000000E+00 -0.11001252850E+04  0.11001252850E+04  0.00000000000E+00 0. -1.
          6    2    1    2  501    0 -0.62683007448E+02  0.62072772608E+02 -0.75944230795E+03  0.78456570668E+03  0.17609242024E+03 0.  0.
         24    2    3    3    0    0  0.27114609326E+01  0.40666688389E+02 -0.64136911660E+03  0.64782498322E+03  0.81619443692E+02 0.  0.
         -6    2    1    2    0  502  0.62683007448E+02 -0.62072772608E+02 -0.30358601965E+03  0.35265653580E+03  0.15626891053E+03 0.  0.
        -24    2    5    5    0    0  0.43584921153E+02  0.18777365540E+02 -0.19508067660E+03  0.21591963073E+03  0.79451757345E+02 0.  0.
          5    1    3    3  501    0 -0.65394468381E+02  0.21406084219E+02 -0.11807319135E+03  0.13674072346E+03  0.47000000000E+01 0. -1.
        -13    1    4    4    0    0  0.25798285990E+02  0.35064189005E+02 -0.15843018745E+03  0.16430207913E+03  0.00000000000E+00 0.  1.
         14    1    4    4    0    0 -0.23086825057E+02  0.56024993841E+01 -0.48293892916E+03  0.48352290410E+03  0.00000000000E+00 0. -1.
         -5    1    5    5    0  502  0.19098086295E+02 -0.80850138148E+02 -0.10850534305E+03  0.13673690507E+03  0.47000000000E+01 0.  1.
         11    1    6    6    0    0  0.14452117426E+02  0.27305022274E+02 -0.16984003362E+02  0.35254564381E+02  0.00000000000E+00 0. -1.
        -12    1    6    6    0    0  0.29132803728E+02 -0.85276567338E+01 -0.17809667323E+03  0.18066506635E+03  0.00000000000E+00 0.  1.
</event>
<event>
12    1  0.9962621E-001  0.2868225E+03  0.7818608E-02  0.1092082E+00
         21   -1    0    0  501  502  0.00000000000E+00  0.00000000000E+00  0.85662577779E+03  0.85662577779E+03  0.00000000000E+00 0. -1.
         21   -1    0    0  502  503 -0.00000000000E+00 -0.00000000000E+00 -0.13568067823E+03  0.13568067823E+03  0.00000000000E+00 0. -1.
         -6    2    1    2    0  503  0.15165389700E+03  0.17163101667E+03  0.62898508077E+03  0.69110254981E+03  0.17188482239E+03 0.  0.
        -24    2    3    3    0    0  0.10407238441E+03  0.13053353049E+03  0.58692015983E+03  0.61530973165E+03  0.79124762693E+02 0.  0.
          6    2    1    2  501    0 -0.15165389700E+03 -0.17163101667E+03  0.91960018795E+02  0.30120390621E+03  0.17265873189E+03 0.  0.
         24    2    5    5    0    0 -0.13668408908E+03 -0.66189641620E+02  0.43934693705E+02  0.18428299032E+03  0.94690835583E+02 0.  0.
          5    1    5    5  501    0 -0.14969807921E+02 -0.10544137505E+03  0.48025325090E+02  0.11692091589E+03  0.47000000000E+01 0. -1.
        -11    1    6    6    0    0 -0.30732673293E+02 -0.31136625234E+01  0.52249166530E+02  0.60697343477E+02  0.00000000000E+00 0.  1.
         12    1    6    6    0    0 -0.10595141579E+03 -0.63075979096E+02 -0.83144728251E+01  0.12358564684E+03  0.00000000000E+00 0. -1.
         -5    1    3    3    0  503  0.47581512590E+02  0.41097486186E+02  0.42064920933E+02  0.75792818158E+02  0.47000000000E+01 0.  1.
         13    1    4    4    0    0  0.74474143329E+01  0.64303017756E+02  0.26327681260E+03  0.27111809627E+03  0.00000000000E+00 0. -1.
        -14    1    4    4    0    0  0.96624970081E+02  0.66230512732E+02  0.32364334723E+03  0.34419163538E+03  0.00000000000E+00 0.  1.
</event>
<event>
12    1  0.9962621E-001  0.1734450E+03  0.7818608E-02  0.1174434E+00
         21   -1    0    0  501  502  0.00000000000E+00  0.00000000000E+00  0.17599307328E+03  0.17599307328E+03  0.00000000000E+00 0.  1.
         21   -1    0    0  502  503 -0.00000000000E+00 -0.00000000000E+00 -0.34227852053E+03  0.34227852053E+03  0.00000000000E+00 0.  1.
         -6    2    1    2    0  503 -0.23247917321E+02  0.35932196940E+01  0.10041465336E+03  0.20041527745E+03  0.17184238108E+03 0.  0.
        -24    2    3    3    0    0 -0.48885980034E+02 -0.45009278623E+02  0.27443762021E+02  0.10894750123E+03  0.81857948573E+02 0.  0.
          6    2    1    2  501    0  0.23247917321E+02 -0.35932196940E+01 -0.26670010062E+03  0.31785631636E+03  0.17131934301E+03 0.  0.
         24    2    5    5    0    0 -0.10856509602E+02 -0.49552096284E+02 -0.85891161103E+02  0.12814787458E+03  0.80444466290E+02 0.  0.
          5    1    5    5  501    0  0.34104426923E+02  0.45958876590E+02 -0.18080893952E+03  0.18970844178E+03  0.47000000000E+01 0. -1.
        -11    1    6    6    0    0 -0.16900954607E+02  0.65588157163E+01  0.70192307558E+01  0.19440420022E+02  0.00000000000E+00 0.  1.
         12    1    6    6    0    0  0.60444450048E+01 -0.56110912000E+02 -0.92910391858E+02  0.10870745456E+03  0.00000000000E+00 0. -1.
         -5    1    3    3    0  503  0.25638062713E+02  0.48602498317E+02  0.72970891344E+02  0.91467776216E+02  0.47000000000E+01 0.  1.
         11    1    4    4    0    0  0.34834789441E+01 -0.14455424525E+02  0.43712250463E+02  0.46172012781E+02  0.00000000000E+00 0. -1.
        -12    1    4    4    0    0 -0.52369458979E+02 -0.30553854098E+02 -0.16268488442E+02  0.62775488450E+02  0.00000000000E+00 0.  1.
</event>
<event>
12    1  0.9962621E-001  0.1752701E+03  0.7818608E-02  0.1172739E+00
         21   -1    0    0  501  502  0.00000000000E+00  0.00000000000E+00  0.88221265115E+03  0.88221265115E+03  0.00000000000E+00 0.  1.
         21   -1    0    0  502  503 -0.00000000000E+00 -0.00000000000E+00 -0.49777632710E+02  0.49777632710E+02  0.00000000000E+00 0.  1.
         -6    2    1    2    0  503 -0.81886181642E+01 -0.29148374887E+02  0.15983334918E+03  0.23720517341E+03  0.17263520370E+03 0.  0.
        -24    2    3    3    0    0 -0.36355592443E+01  0.51308673509E+02  0.88483627904E+02  0.12946966530E+03  0.79292146877E+02 0.  0.
          6    2    1    2  501    0  0.81886181642E+01  0.29148374887E+02  0.67260166926E+03  0.69478511045E+03  0.17151286538E+03 0.  0.
         24    2    5    5    0    0 -0.34561724314E+02  0.61610395057E+02  0.30661757637E+03  0.32485562963E+03  0.80786684517E+02 0.  0.
          5    1    5    5  501    0  0.42750342478E+02 -0.32462020171E+02  0.36598409289E+03  0.36992948082E+03  0.47000000000E+01 0. -1.
        -13    1    6    6    0    0  0.91057152994E+01  0.50642544895E+01  0.41378484877E+00  0.10427460983E+02  0.00000000000E+00 0.  1.
         14    1    6    6    0    0 -0.43667439614E+02  0.56546140568E+02  0.30620379152E+03  0.31442816864E+03  0.00000000000E+00 0. -1.
         -5    1    3    3    0  503 -0.45530589200E+01 -0.80457048396E+02  0.71349721279E+02  0.10773550811E+03  0.47000000000E+01 0.  1.
         13    1    4    4    0    0 -0.41456546117E+01 -0.17951468842E+02  0.17973696976E+01  0.18511407930E+02  0.00000000000E+00 0. -1.
        -14    1    4    4    0    0  0.51009536747E+00  0.69260142351E+02  0.86686258206E+02  0.11095825737E+03  0.00000000000E+00 0.  1.
</event>
<event>
12    1  0.9962621E-001  0.1793558E+03  0.7818608E-02  0.1168478E+00
         21   -1    0    0  503  502  0.00000000000E+00  0.00000000000E+00  0.10048947430E+03  0.10048947430E+03  0.00000000000E+00 0. -1.
         21   -1    0    0  501  503 -0.00000000000E+00 -0.00000000000E+00 -0.34339643674E+03  0.34339643674E+03  0.00000000000E+00 0. -1.
          6    2    1    2  501    0 -0.73000238235E+01 -0.51089550510E+02 -0.63153887521E+02  0.18995742282E+03  0.17155750189E+03 0.  0.
         24    2    3    3    0    0 -0.16298110149E+02 -0.48633974852E+02  0.28246505769E+02  0.97962220209E+02  0.78535594451E+02 0.  0.
         -6    2    1    2    0  502  0.73000238235E+01  0.51089550510E+02 -0.17975307492E+03  0.25392848822E+03  0.17177041848E+03 0.  0.
        -24    2    5    5    0    0  0.41820565896E+01 -0.28786246396E+02 -0.14379848540E+03  0.16615214084E+03  0.77989691138E+02 0.  0.
          5    1    3    3  501    0  0.89980863259E+01 -0.24555756574E+01 -0.91400393290E+02  0.91995202609E+02  0.47000000000E+01 0. -1.
        -13    1    4    4    0    0  0.14773167551E+02 -0.79262003998E+00 -0.18867428072E+02  0.23976124960E+02  0.00000000000E+00 0.  1.
         14    1    4    4    0    0 -0.31071277700E+02 -0.47841354812E+02  0.47113933842E+02  0.73986095249E+02  0.00000000000E+00 0. -1.
         -5    1    5    5    0  502  0.31179672339E+01  0.79875796906E+02 -0.35954589520E+02  0.87776347376E+02  0.47000000000E+01 0.  1.
         11    1    6    6    0    0 -0.36614609847E+01  0.25446394183E+02 -0.67378069984E+02  0.72116084116E+02  0.00000000000E+00 0. -1.
        -12    1    6    6    0    0  0.78435175743E+01 -0.54232640579E+02 -0.76420415415E+02  0.94036056725E+02  0.00000000000E+00 0.  1.
</event>
<event>
12    1  0.9962621E-001  0.1801253E+03  0.7818608E-02  0.1168764E+00
         21   -1    0    0  503  502  0.00000000000E+00  0.00000000000E+00  0.33933874541E+02  0.33933874541E+02  0.00000000000E+00 0.  1.
         21   -1    0    0  501  503 -0.00000000000E+00 -0.00000000000E+00 -0.10321208782E+04  0.10321208782E+04  0.00000000000E+00 0.  1.
          6    2    1    2  501    0 -0.22785363308E+02  0.42319322027E+02 -0.33937390682E+03  0.38421317667E+03  0.17359440862E+03 0.  0.
         24    2    3    3    0    0  0.11940464675E+02 -0.39725163503E+02 -0.18774355824E+03  0.20828411897E+03  0.80087247695E+02 0.  0.
         -6    2    1    2    0  502  0.22785363308E+02 -0.42319322027E+02 -0.65881309680E+03  0.68184157602E+03  0.16900633266E+03 0.  0.
        -24    2    5    5    0    0  0.53402913887E+02  0.22419226533E+02 -0.29637670552E+03  0.31236797507E+03  0.79875574160E+02 0.  0.
          5    1    3    3  501    0 -0.34725827983E+02  0.82044485529E+02 -0.15163034857E+03  0.17592905770E+03  0.47000000000E+01 0. -1.
        -13    1    4    4    0    0 -0.15203582565E+02 -0.25004209299E+02 -0.17034633486E+03  0.17284164199E+03  0.00000000000E+00 0.  1.
         14    1    4    4    0    0  0.27144047240E+02 -0.14720954204E+02 -0.17397223378E+02  0.35442476980E+02  0.00000000000E+00 0. -1.
         -5    1    5    5    0  502 -0.30617550579E+02 -0.64738548560E+02 -0.36243639128E+03  0.36947360095E+03  0.47000000000E+01 0.  1.
         13    1    6    6    0    0  0.33077608162E+02 -0.17848550283E+02 -0.22366881427E+03  0.22680484427E+03  0.00000000000E+00 0. -1.
        -14    1    6    6    0    0  0.20325305725E+02  0.40267776817E+02 -0.72707891253E+02  0.85563130804E+02  0.00000000000E+00 0.  1.
</event>
<event>
12    1  0.9962621E-001  0.1874352E+03  0.7818608E-02  0.1160990E+00
         21   -1    0    0  501  502  0.00000000000E+00  0.00000000000E+00  0.44851040307E+03  0.44851040307E+03  0.00000000000E+00 0. -1.
         21   -1    0    0  502  503 -0.00000000000E+00 -0.00000000000E+00 -0.89945103921E+02  0.89945103921E+02  0.00000000000E+00 0. -1.
         -6    2    1    2    0  503  0.65326540607E+02  0.37225916577E+02  0.27713985692E+03  0.33409786862E+03  0.17076756058E+03 0.  0.
        -24    2    3    3    0    0 -0.26712715682E+02 -0.80540103766E+00  0.10580329574E+03  0.13586590092E+03  0.80938172668E+02 0.  0.
          6    2    1    2  501    0 -0.65326540607E+02 -0.37225916577E+02  0.81425442223E+02  0.20435763837E+03  0.17169337770E+03 0.  0.
         24    2    5    5    0    0 -0.17409669273E+02 -0.49130454423E+02 -0.13679129001E+02  0.97097608312E+02  0.80770841482E+02 0.  0.
          5    1    5    5  501    0 -0.47916871334E+02  0.11904537846E+02  0.95104571224E+02  0.10726003006E+03  0.47000000000E+01 0. -1.
        -13    1    6    6    0    0 -0.34515216848E+02 -0.28872288053E+02  0.24019884018E+02  0.51008470274E+02  0.00000000000E+00 0.  1.
         14    1    6    6    0    0  0.17105547574E+02 -0.20258166370E+02 -0.37699013019E+02  0.46089138038E+02  0.00000000000E+00 0. -1.
         -5    1    3    3    0  503  0.92039256289E+02  0.38031317615E+02  0.17133656119E+03  0.19823196770E+03  0.47000000000E+01 0.  1.
         11    1    4    4    0    0 -0.30922033984E+02  0.18550774737E+01  0.10511437589E+01  0.30995457754E+02  0.00000000000E+00 0. -1.
        -12    1    4    4    0    0  0.42093183025E+01 -0.26604785114E+01  0.10475215198E+03  0.10487044317E+03  0.00000000000E+00 0.  1.
</event>
<event>
12    1  0.9962621E-001  0.1915030E+03  0.7818608E-02  0.1157747E+00
         21   -1    0    0  501  502  0.00000000000E+00  0.00000000000E+00  0.95117020242E+02  0.95117020242E+02  0.00000000000E+00 0. -1.
         21   -1    0    0  502  503 -0.00000000000E+00 -0.00000000000E+00 -0.38949123416E+03  0.38949123416E+03  0.00000000000E+00 0. -1.
         -6    2    1    2    0  503 -0.42936350193E+02  0.71118514505E+02 -0.11024085359E+03  0.22096704768E+03  0.17254569565E+03 0.  0.
        -24    2    3    3    0    0 -0.56553564464E+02  0.44725037886E+01 -0.76484405401E+01  0.97782582410E+02  0.79275632047E+02 0.  0.
          6    2    1    2  501    0  0.42936350193E+02 -0.71118514505E+02 -0.18413336033E+03  0.26364120672E+03  0.16941138752E+03 0.  0.
         24    2    5    5    0    0  0.10689485231E+02 -0.10332784389E+03 -0.89579139640E+02  0.15857031708E+03  0.79556362303E+02 0.  0.
          5    1    5    5  501    0  0.32246864962E+02  0.32209329386E+02 -0.94554220689E+02  0.10507088964E+03  0.47000000000E+01 0. -1.
        -13    1    6    6    0    0  0.26816354339E+02 -0.11005659049E+03 -0.79596770581E+02  0.13844571448E+03  0.00000000000E+00 0.  1.
         14    1    6    6    0    0 -0.16126869108E+02  0.67287465965E+01 -0.99823690587E+01  0.20124602605E+02  0.00000000000E+00 0. -1.
         -5    1    3    3    0  503  0.13617214271E+02  0.66646010716E+02 -0.10259241305E+03  0.12318446527E+03  0.47000000000E+01 0.  1.
         13    1    4    4    0    0 -0.54927610736E+02  0.25804486416E+02  0.19015927665E+02  0.63596536425E+02  0.00000000000E+00 0. -1.
        -14    1    4    4    0    0 -0.16259537277E+01 -0.21331982627E+02 -0.26664368205E+02  0.34186045985E+02  0.00000000000E+00 0.  1.
</event>
<event>
12    1  0.9962621E-001  0.2691657E+03  0.7818608E-02  0.1101887E+00
         21   -1    0    0  501  502  0.00000000000E+00  0.00000000000E+00  0.62771668277E+02  0.62771668277E+02  0.00000000000E+00 0.  1.
         21   -1    0    0  502  503 -0.00000000000E+00 -0.00000000000E+00 -0.11511701860E+04  0.11511701860E+04  0.00000000000E+00 0.  1.
         -6    2    1    2    0  503 -0.12735267365E+03 -0.16247518498E+03 -0.52703565318E+03  0.59138385680E+03  0.17132249456E+03 0.  0.
        -24    2    3    3    0    0 -0.13759438682E+03 -0.17147413488E+03 -0.52734663142E+03  0.57695955455E+03  0.80325983934E+02 0.  0.
          6    2    1    2  501    0  0.12735267365E+03  0.16247518498E+03 -0.56136286452E+03  0.62255799745E+03  0.17272320430E+03 0.  0.
         24    2    5    5    0    0  0.14295496269E+02  0.13973170594E+02 -0.16074691275E+03  0.18057382981E+03  0.79798040964E+02 0.  0.
          5    1    5    5  501    0  0.11305717738E+03  0.14850201439E+03 -0.40061595177E+03  0.44198416764E+03  0.47000000000E+01 0. -1.
        -11    1    6    6    0    0  0.13577286191E+02 -0.32504012997E+02 -0.59074616614E+02  0.68779821818E+02  0.00000000000E+00 0.  1.
         12    1    6    6    0    0  0.71821007888E+00  0.46477183591E+02 -0.10167229614E+03  0.11179400799E+03  0.00000000000E+00 0. -1.
         -5    1    3    3    0  503  0.10241713171E+02  0.89989498970E+01  0.31097824615E+00  0.14424302250E+02  0.47000000000E+01 0.  1.
         13    1    4    4    0    0 -0.86905181156E+02 -0.48685751534E+02 -0.25999017601E+03  0.27842001461E+03  0.00000000000E+00 0. -1.
        -14    1    4    4    0    0 -0.50689205668E+02 -0.12278838335E+03 -0.26735645541E+03  0.29853953994E+03  0.00000000000E+00 0.  1.
</event>
<event>
12    1  0.9962621E-001  0.3810028E+03  0.7818608E-02  0.1050596E+00
         21   -1    0    0  503  502  0.00000000000E+00  0.00000000000E+00  0.21663595869E+03  0.21663595869E+03  0.00000000000E+00 0.  1.
         21   -1    0    0  501  503 -0.00000000000E+00 -0.00000000000E+00 -0.74033763077E+03  0.74033763077E+03  0.00000000000E+00 0.  1.
          6    2    1    2  501    0 -0.33335361331E+03 -0.65715693534E+02 -0.11391812854E+03  0.39766877883E+03  0.17239470338E+03 0.  0.
         24    2    3    3    0    0 -0.30401681535E+03 -0.71781172560E+02 -0.14286940244E+03  0.35574379808E+03  0.92537684046E+02 0.  0.
         -6    2    1    2    0  502  0.33335361331E+03  0.65715693534E+02 -0.40978354354E+03  0.55930481063E+03  0.17162789619E+03 0.  0.
        -24    2    5    5    0    0  0.26491893684E+03  0.71797015578E+02 -0.39644733202E+03  0.48916044549E+03  0.82283654686E+02 0.  0.
          5    1    3    3  501    0 -0.29336797964E+02  0.60654790263E+01  0.28951273893E+02  0.41924980747E+02  0.47000000000E+01 0. -1.
        -13    1    4    4    0    0 -0.33362509773E+02  0.89218594718E+01  0.81345500692E+01  0.35479959690E+02  0.00000000000E+00 0.  1.
         14    1    4    4    0    0 -0.27065430558E+03 -0.80703032032E+02 -0.15100395251E+03  0.32026383839E+03  0.00000000000E+00 0. -1.
         -5    1    5    5    0  502  0.68434676479E+02 -0.60813220440E+01 -0.13336211516E+02  0.70144365135E+02  0.47000000000E+01 0.  1.
         11    1    6    6    0    0  0.11541089918E+03  0.31385991768E+02 -0.10515286747E+03  0.15925414175E+03  0.00000000000E+00 0. -1.
        -12    1    6    6    0    0  0.14950803766E+03  0.40411023810E+02 -0.29129446455E+03  0.32990630374E+03  0.00000000000E+00 0.  1.
</event>
<event>
12    1  0.9962621E-001  0.1830128E+03  0.7818608E-02  0.1164976E+00
         21   -1    0    0  501  502  0.00000000000E+00  0.00000000000E+00  0.23402480511E+02  0.23402480511E+02  0.00000000000E+00 0. -1.
         21   -1    0    0  502  503 -0.00000000000E+00 -0.00000000000E+00 -0.15584671163E+04  0.15584671163E+04  0.00000000000E+00 0. -1.
         -6    2    1    2    0  503  0.63310506192E+02  0.41554360302E+01 -0.99476484877E+03  0.10114157752E+04  0.17140384518E+03 0.  0.
        -24    2    3    3    0    0  0.19434909133E+02  0.68065002784E+02 -0.61775790034E+03  0.62649262716E+03  0.76535143242E+02 0.  0.
          6    2    1    2  501    0 -0.63310506192E+02 -0.41554360302E+01 -0.54029978705E+03  0.57045382164E+03  0.17166308540E+03 0.  0.
         24    2    5    5    0    0  0.27852349694E+02 -0.26206135259E+02 -0.26730689891E+03  0.28176002780E+03  0.80456324470E+02 0.  0.
          5    1    5    5  501    0 -0.91162855886E+02  0.22050699228E+02 -0.27299288814E+03  0.28869379384E+03  0.47000000000E+01 0. -1.
        -11    1    6    6    0    0  0.39148804148E+02 -0.23928538136E+02 -0.67480386231E+02  0.81601509358E+02  0.00000000000E+00 0.  1.
         12    1    6    6    0    0 -0.11296454454E+02 -0.22775971226E+01 -0.19982651268E+03  0.20015851844E+03  0.00000000000E+00 0. -1.
         -5    1    3    3    0  503  0.43875597059E+02 -0.63909566754E+02 -0.37700694842E+03  0.38492314804E+03  0.47000000000E+01 0.  1.
         13    1    4    4    0    0  0.58470386212E+01 -0.69026191326E+01 -0.82559450805E+01  0.12247229919E+02  0.00000000000E+00 0. -1.
        -14    1    4    4    0    0  0.13587870512E+02  0.74967621916E+02 -0.60950195526E+03  0.61424539724E+03  0.00000000000E+00 0.  1.
</event>
<event>
12    1  0.9962621E-001  0.1947366E+03  0.7818608E-02  0.1154469E+00
         21   -1    0    0  503  502  0.00000000000E+00  0.00000000000E+00  0.14159486974E+03  0.14159486974E+03  0.00000000000E+00 0. -1.
         21   -1    0    0  501  503 -0.00000000000E+00 -0.00000000000E+00 -0.54405243837E+03  0.54405243837E+03  0.00000000000E+00 0. -1.
          6    2    1    2  501    0 -0.43481607277E+02  0.80185211168E+02  0.43883117575E+02  0.19867465518E+03  0.17095488393E+03 0.  0.
         24    2    3    3    0    0 -0.40578813992E+02  0.37081119923E+02 -0.42610584984E+02  0.10187775712E+03  0.74443037577E+02 0.  0.
         -6    2    1    2    0  502  0.43481607277E+02 -0.80185211168E+02 -0.44634068621E+03  0.48697265293E+03  0.17205242885E+03 0.  0.
        -24    2    5    5    0    0  0.60564737539E+02 -0.11492687185E+03 -0.38936956011E+03  0.41793197263E+03  0.78627006200E+02 0.  0.
          5    1    3    3  501    0 -0.29027932848E+01  0.43104091245E+02  0.86493702559E+02  0.96796898056E+02  0.47000000000E+01 0. -1.
        -11    1    4    4    0    0  0.34368093728E+01  0.31564051403E+02 -0.47621549594E+02  0.57235591946E+02  0.00000000000E+00 0.  1.
         12    1    4    4    0    0 -0.44015623365E+02  0.55170685206E+01  0.50109646106E+01  0.44642165176E+02  0.00000000000E+00 0. -1.
         -5    1    5    5    0  502 -0.17083130262E+02  0.34741660682E+02 -0.56971126107E+02  0.69040680301E+02  0.47000000000E+01 0.  1.
         13    1    6    6    0    0  0.41659081007E+02 -0.57103288576E+02 -0.30985081973E+03  0.31781094236E+03  0.00000000000E+00 0. -1.
        -14    1    6    6    0    0  0.18905656531E+02 -0.57823583274E+02 -0.79518740376E+02  0.10012103027E+03  0.00000000000E+00 0.  1.
</event>
<event>
12    1  0.9962621E-001  0.4908790E+03  0.7818608E-02  0.1016197E+00
         21   -1    0    0  503  502  0.00000000000E+00  0.00000000000E+00  0.12109850311E+03  0.12109850311E+03  0.00000000000E+00 0. -1.
         21   -1    0    0  501  503 -0.00000000000E+00 -0.00000000000E+00 -0.19901062111E+04  0.19901062111E+04  0.00000000000E+00 0.  1.
          6    2    1    2  501    0  0.82053565576E+01 -0.45944509759E+03 -0.95709961763E+03  0.10756402104E+04  0.17264141639E+03 0.  0.
         24    2    3    3    0    0 -0.45658995404E+02 -0.16550318791E+03 -0.37159757343E+03  0.41826820887E+03  0.85950502616E+02 0.  0.
         -6    2    1    2    0  502 -0.82053565576E+01  0.45944509759E+03 -0.91190809036E+03  0.10355645038E+04  0.17222180652E+03 0.  0.
        -24    2    5    5    0    0  0.76764834755E+01  0.17435959594E+03 -0.26870197351E+03  0.33181584492E+03  0.86260114045E+02 0.  0.
          5    1    3    3  501    0  0.53864351961E+02 -0.29394190967E+03 -0.58550204420E+03  0.65737200156E+03  0.47000000000E+01 0. -1.
        -13    1    4    4    0    0 -0.30581590714E+02 -0.16866801609E+03 -0.36081378434E+03  0.39946303998E+03  0.00000000000E+00 0.  1.
         14    1    4    4    0    0 -0.15077404690E+02  0.31648281820E+01 -0.10783789091E+02  0.18805168884E+02  0.00000000000E+00 0. -1.
         -5    1    5    5    0  502 -0.15881840033E+02  0.28508550165E+03 -0.64320611685E+03  0.70374865886E+03  0.47000000000E+01 0.  1.
         13    1    6    6    0    0 -0.29696570054E+01  0.17977148406E+03 -0.23387773008E+03  0.29500067453E+03  0.00000000000E+00 0. -1.
        -14    1    6    6    0    0  0.10646140481E+02 -0.54118881249E+01 -0.34824243429E+02  0.36815170386E+02  0.00000000000E+00 0.  1.
</event>
<event>
12    1  0.9962621E-001  0.1872290E+03  0.7818608E-02  0.1160990E+00
         21   -1    0    0  501  502  0.00000000000E+00  0.00000000000E+00  0.44266678568E+02  0.44266678568E+02  0.00000000000E+00 0. -1.
         21   -1    0    0  502  503 -0.00000000000E+00 -0.00000000000E+00 -0.79598398502E+03  0.79598398502E+03  0.00000000000E+00 0. -1.
         -6    2    1    2    0  503  0.58677312000E+02 -0.45127360875E+02 -0.34536776726E+03  0.39284186969E+03  0.17194863848E+03 0.  0.
        -24    2    3    3    0    0  0.11771402506E+00 -0.13801335087E+02 -0.30245741521E+03  0.31363369637E+03  0.81823693273E+02 0.  0.
          6    2    1    2  501    0 -0.58677312000E+02  0.45127360875E+02 -0.40634953919E+03  0.44740879389E+03  0.17197434464E+03 0.  0.
         24    2    5    5    0    0 -0.92565457826E+02  0.72503789852E+02 -0.28609398614E+03  0.31941909380E+03  0.79709629624E+02 0.  0.
          5    1    5    5  501    0  0.33888145826E+02 -0.27376428976E+02 -0.12025555305E+03  0.12798970009E+03  0.47000000000E+01 0. -1.
        -13    1    6    6    0    0 -0.99337133408E+02  0.56545033293E+02 -0.18967386204E+03  0.22145288620E+03  0.00000000000E+00 0.  1.
         14    1    6    6    0    0  0.67716755820E+01  0.15958756559E+02 -0.96420124102E+02  0.97966207608E+02  0.00000000000E+00 0. -1.
         -5    1    3    3    0  503  0.58559597975E+02 -0.31326025788E+02 -0.42910352057E+02  0.79208173318E+02  0.47000000000E+01 0.  1.
         13    1    4    4    0    0 -0.32714269436E+02 -0.29802544896E+02 -0.20067292761E+03  0.20549462032E+03  0.00000000000E+00 0. -1.
        -14    1    4    4    0    0  0.32831983461E+02  0.16001209810E+02 -0.10178448760E+03  0.10813907605E+03  0.00000000000E+00 0.  1.
</event>
<event>
12    1  0.9962621E-001  0.3141884E+03  0.7818608E-02  0.1079314E+00
         21   -1    0    0  503  502  0.00000000000E+00  0.00000000000E+00  0.60349911851E+03  0.60349911851E+03  0.00000000000E+00 0.  1.
         21   -1    0    0  501  503 -0.00000000000E+00 -0.00000000000E+00 -0.16388021191E+03  0.16388021191E+03  0.00000000000E+00 0.  1.
          6    2    1    2  501    0 -0.13663080082E+03  0.20951505462E+03  0.28033593452E+03  0.41512175561E+03  0.17655962718E+03 0.  0.
         24    2    3    3    0    0 -0.54621435416E+02  0.59748232149E+02  0.41352149067E+02  0.12136849718E+03  0.80417407463E+02 0.  0.
         -6    2    1    2    0  502  0.13663080082E+03 -0.20951505462E+03  0.15928297208E+03  0.35225757481E+03  0.19013100739E+03 0.  0.
        -24    2    5    5    0    0  0.16359390824E+03 -0.21902287804E+03  0.14553862531E+03  0.32018882154E+03  0.81273624668E+02 0.  0.
          5    1    3    3  501    0 -0.82009365402E+02  0.14976682248E+03  0.23898378545E+03  0.29375325843E+03  0.47000000000E+01 0. -1.
        -13    1    4    4    0    0 -0.34910783762E+02  0.77654727254E+02  0.20574505467E+02  0.87591836166E+02  0.00000000000E+00 0.  1.
         14    1    4    4    0    0 -0.19710651654E+02 -0.17906495105E+02  0.20777643601E+02  0.33776661013E+02  0.00000000000E+00 0. -1.
         -5    1    5    5    0  502 -0.26963107426E+02  0.95078234114E+01  0.13744346765E+02  0.32068753266E+02  0.47000000000E+01 0.  1.
         13    1    6    6    0    0  0.52148190546E+02 -0.36427899063E+02  0.66792544041E+02  0.92237029152E+02  0.00000000000E+00 0. -1.
        -14    1    6    6    0    0  0.11144571770E+03 -0.18259497897E+03  0.78746081272E+02  0.22795179239E+03  0.00000000000E+00 0.  1.
</event>
<event>
12    1  0.9962621E-001  0.3408434E+03  0.7818608E-02  0.1066928E+00
         21   -1    0    0  501  502  0.00000000000E+00  0.00000000000E+00  0.17889797551E+04  0.17889797551E+04  0.00000000000E+00 0. -1.
         21   -1    0    0  502  503 -0.00000000000E+00 -0.00000000000E+00 -0.86318410381E+02  0.86318410381E+02  0.00000000000E+00 0. -1.
         -6    2    1    2    0  503  0.23386007984E+03 -0.16981045895E+03  0.13231043131E+04  0.13651631287E+04  0.17186976366E+03 0.  0.
        -24    2    3    3    0    0  0.22566498567E+03 -0.95458610179E+02  0.92649268743E+03  0.96153182588E+03  0.78215857139E+02 0.  0.
          6    2    1    2  501    0 -0.23386007984E+03  0.16981045895E+03  0.37955703159E+03  0.51013503677E+03  0.18068781530E+03 0.  0.
         24    2    5    5    0    0 -0.22933008007E+03  0.19324036130E+03  0.31988377991E+03  0.44569538913E+03  0.79903844592E+02 0.  0.
          5    1    5    5  501    0 -0.45299997723E+01 -0.23429902350E+02  0.59673251677E+02  0.64439647639E+02  0.47000000000E+01 0. -1.
        -13    1    6    6    0    0 -0.63989728137E+02  0.47978264015E+02  0.14089925969E+03  0.16201605015E+03  0.00000000000E+00 0.  1.
         14    1    6    6    0    0 -0.16534035193E+03  0.14526209729E+03  0.17898452022E+03  0.28367933898E+03  0.00000000000E+00 0. -1.
         -5    1    3    3    0  503  0.81950941672E+01 -0.74351848773E+02  0.39661162565E+03  0.40363130279E+03  0.47000000000E+01 0.  1.
         13    1    4    4    0    0  0.15649528384E+03 -0.29074372855E+02  0.51602007524E+03  0.54001186198E+03  0.00000000000E+00 0. -1.
        -14    1    4    4    0    0  0.69169701836E+02 -0.66384237323E+02  0.41047261218E+03  0.42151996390E+03  0.00000000000E+00 0.  1.
</event>
<event>
12    1  0.9962621E-001  0.1833566E+03  0.7818608E-02  0.1164968E+00
         21   -1    0    0  503  502  0.00000000000E+00  0.00000000000E+00  0.94497606362E+03  0.94497606362E+03  0.00000000000E+00 0. -1.
         21   -1    0    0  501  503 -0.00000000000E+00 -0.00000000000E+00 -0.37329363546E+02  0.37329363546E+02  0.00000000000E+00 0. -1.
          6    2    1    2  501    0 -0.56949401265E+02  0.16808711760E+02  0.57099831488E+03  0.59971551618E+03  0.17347581286E+03 0.  0.
         24    2    3    3    0    0 -0.79597887336E+02 -0.41443720121E+02  0.34800294724E+03  0.36807932787E+03  0.79516883196E+02 0.  0.
         -6    2    1    2    0  502  0.56949401265E+02 -0.16808711760E+02  0.33664838519E+03  0.38258991099E+03  0.17180552274E+03 0.  0.
        -24    2    5    5    0    0  0.36981088160E+02 -0.59911852810E+02  0.12265510200E+03  0.16333702151E+03  0.81717057947E+02 0.  0.
          5    1    3    3  501    0  0.22648486071E+02  0.58252431882E+02  0.22299536764E+03  0.23163618831E+03  0.47000000000E+01 0. -1.
        -11    1    4    4    0    0 -0.55915501634E+02 -0.25552367011E+02  0.92978458647E+02  0.11146506428E+03  0.00000000000E+00 0.  1.
         12    1    4    4    0    0 -0.23682385702E+02 -0.15891353110E+02  0.25502448859E+03  0.25661426359E+03  0.00000000000E+00 0. -1.
         -5    1    5    5    0  502  0.19968313105E+02  0.43103141050E+02  0.21399328318E+03  0.21925288948E+03  0.47000000000E+01 0.  1.
         11    1    6    6    0    0  0.39401165753E+01 -0.36853374862E+02  0.11690221800E+03  0.12263696152E+03  0.00000000000E+00 0. -1.
        -12    1    6    6    0    0  0.33040971584E+02 -0.23058477949E+02  0.57528839985E+01  0.40700059986E+02  0.00000000000E+00 0.  1.
</event>
<event>
12    1  0.9962621E-001  0.2369925E+03  0.7818608E-02  0.1121885E+00
         21   -1    0    0  503  502  0.00000000000E+00  0.00000000000E+00  0.83167771215E+03  0.83167771215E+03  0.00000000000E+00 0. -1.
         21   -1    0    0  501  503 -0.00000000000E+00 -0.00000000000E+00 -0.67421964333E+02  0.67421964333E+02  0.00000000000E+00 0.  1.
          6    2    1    2  501    0  0.13260271662E+03 -0.95626758724E+02  0.38805158908E+03  0.45469712315E+03  0.17157354275E+03 0.  0.
         24    2    3    3    0    0  0.14142549713E+03 -0.68057758960E+02  0.38715970598E+03  0.42535812761E+03  0.80024177544E+02 0.  0.
         -6    2    1    2    0  502 -0.13260271662E+03  0.95626758724E+02  0.37620415874E+03  0.44440255334E+03  0.17098568046E+03 0.  0.
        -24    2    5    5    0    0 -0.10482969115E+03  0.11160971663E+03  0.20085428603E+03  0.26608692377E+03  0.83748515182E+02 0.  0.
          5    1    3    3  501    0 -0.88227805102E+01 -0.27568999764E+02  0.89188309817E+00  0.29338995542E+02  0.47000000000E+01 0. -1.
        -11    1    4    4    0    0  0.75941897682E+02  0.70018119058E+01  0.15568492581E+03  0.17336087597E+03  0.00000000000E+00 0.  1.
         12    1    4    4    0    0  0.65483599446E+02 -0.75059570866E+02  0.23147478017E+03  0.25199725164E+03  0.00000000000E+00 0. -1.
         -5    1    5    5    0  502 -0.27773025470E+02 -0.15982957902E+02  0.17534987271E+03  0.17831562957E+03  0.47000000000E+01 0.  1.
         11    1    6    6    0    0 -0.39329750755E+02 -0.54885807461E+01  0.36670454889E+02  0.54052530698E+02  0.00000000000E+00 0. -1.
        -12    1    6    6    0    0 -0.65499940394E+02  0.11709829737E+03  0.16418383114E+03  0.21203439307E+03  0.00000000000E+00 0.  1.
</event>
<event>
12    1  0.9962621E-001  0.2934094E+03  0.7818608E-02  0.1088880E+00
         21   -1    0    0  503  502  0.00000000000E+00  0.00000000000E+00  0.46127477326E+03  0.46127477326E+03  0.00000000000E+00 0.  1.
         21   -1    0    0  501  503 -0.00000000000E+00 -0.00000000000E+00 -0.21936271868E+03  0.21936271868E+03  0.00000000000E+00 0.  1.
          6    2    1    2  501    0  0.23077126890E+03  0.41798965120E+02  0.25571426425E+03  0.38920284760E+03  0.17631375331E+03 0.  0.
         24    2    3    3    0    0  0.11623905107E+03  0.91781780271E+02  0.13722051051E+03  0.21692757251E+03  0.79326483777E+02 0.  0.
         -6    2    1    2    0  502 -0.23077126890E+03 -0.41798965120E+02 -0.13802209670E+02  0.29143464433E+03  0.17245613613E+03 0.  0.
        -24    2    5    5    0    0 -0.51953914578E+02  0.99981860445E+01  0.28479960563E+02  0.10046746653E+03  0.80519753560E+02 0.  0.
          5    1    3    3  501    0  0.11453221783E+03 -0.49982815151E+02  0.11849375374E+03  0.17227527509E+03  0.47000000000E+01 0. -1.
        -11    1    4    4    0    0  0.92494300122E+02  0.59096217563E+02  0.49612566304E+02  0.12045316609E+03  0.00000000000E+00 0.  1.
         12    1    4    4    0    0  0.23744750949E+02  0.32685562708E+02  0.87607944206E+02  0.96474406425E+02  0.00000000000E+00 0. -1.
         -5    1    5    5    0  502 -0.17881735432E+03 -0.51797151164E+02 -0.42282170233E+02  0.19096717780E+03  0.47000000000E+01 0.  1.
         11    1    6    6    0    0 -0.62646860746E+02 -0.14566568266E+02  0.34531095022E+02  0.73001442423E+02  0.00000000000E+00 0. -1.
        -12    1    6    6    0    0  0.10692946168E+02  0.24564754311E+02 -0.60511344590E+01  0.27466024109E+02  0.00000000000E+00 0.  1.
</event>
<event>
12    1  0.9962621E-001  0.2372801E+03  0.7818608E-02  0.1121771E+00
         21   -1    0    0  503  502  0.00000000000E+00  0.00000000000E+00  0.83822792513E+02  0.83822792513E+02  0.00000000000E+00 0. -1.
         21   -1    0    0  501  503 -0.00000000000E+00 -0.00000000000E+00 -0.13688345656E+04  0.13688345656E+04  0.00000000000E+00 0. -1.
          6    2    1    2  501    0 -0.14264707375E+03  0.79239438739E+02 -0.12260967477E+03  0.26628453833E+03  0.17101826425E+03 0.  0.
         24    2    3    3    0    0 -0.41437494269E+02 -0.35810519508E+01 -0.83498775922E+01  0.92560608176E+02  0.82266979195E+02 0.  0.
         -6    2    1    2    0  502  0.14264707375E+03 -0.79239438739E+02 -0.11624020983E+04  0.11863728197E+04  0.17226361497E+03 0.  0.
        -24    2    5    5    0    0  0.37977730722E+02  0.22090762189E+02 -0.45464679744E+03  0.46376425568E+03  0.80269948429E+02 0.  0.
          5    1    3    3  501    0 -0.10120957948E+03  0.82820490689E+02 -0.11425979718E+03  0.17372393016E+03  0.47000000000E+01 0. -1.
        -13    1    4    4    0    0 -0.52676040419E+02 -0.11097689965E+02 -0.33925786395E+02  0.63630833243E+02  0.00000000000E+00 0.  1.
         14    1    4    4    0    0  0.11238546150E+02  0.75166380140E+01  0.25575908802E+02  0.28929774933E+02  0.00000000000E+00 0. -1.
         -5    1    5    5    0  502  0.10466934303E+03 -0.10133020093E+03 -0.70775530083E+03  0.72260856405E+03  0.47000000000E+01 0.  1.
         13    1    6    6    0    0  0.38994987855E+02  0.11919309726E+02 -0.88141589517E+02  0.97116521894E+02  0.00000000000E+00 0. -1.
        -14    1    6    6    0    0 -0.10172571331E+01  0.10171452463E+02 -0.36650520792E+03  0.36664773378E+03  0.00000000000E+00 0.  1.
</event>
<event>
12    1  0.9962621E-001  0.2159413E+03  0.7818608E-02  0.1137040E+00
         21   -1    0    0  503  502  0.00000000000E+00  0.00000000000E+00  0.21036077861E+04  0.21036077861E+04  0.00000000000E+00 0. -1.
         21   -1    0    0  501  503 -0.00000000000E+00 -0.00000000000E+00 -0.24555672420E+02  0.24555672420E+02  0.00000000000E+00 0. -1.
          6    2    1    2  501    0 -0.83022205553E+02 -0.99064058893E+02  0.13759537517E+04  0.13927955298E+04  0.17298637754E+03 0.  0.
         24    2    3    3    0    0  0.13974918567E+02 -0.83299151595E+02  0.78921323711E+03  0.79786402469E+03  0.81212198940E+02 0.  0.
         -6    2    1    2    0  502  0.83022205553E+02  0.99064058893E+02  0.70309836201E+03  0.73536792869E+03  0.17237258917E+03 0.  0.
        -24    2    5    5    0    0  0.11631845150E+03  0.91356572933E+02  0.65418793706E+03  0.67551506741E+03  0.80515487523E+02 0.  0.
          5    1    3    3  501    0 -0.96997124120E+02 -0.15764907297E+02  0.58674051457E+03  0.59493150515E+03  0.47000000000E+01 0. -1.
        -13    1    4    4    0    0 -0.79963669352E+00 -0.69426642313E+02  0.28836508505E+03  0.29660600189E+03  0.00000000000E+00 0.  1.
         14    1    4    4    0    0  0.14774555260E+02 -0.13872509283E+02  0.50084815206E+03  0.50125802280E+03  0.00000000000E+00 0. -1.
         -5    1    5    5    0  502 -0.33296245942E+02  0.77074859596E+01  0.48910424955E+02  0.59852861276E+02  0.47000000000E+01 0.  1.
         11    1    6    6    0    0  0.90619851686E+02  0.24308190339E+02  0.42967032563E+03  0.43979476391E+03  0.00000000000E+00 0. -1.
        -12    1    6    6    0    0  0.25698599810E+02  0.67048382594E+02  0.22451761143E+03  0.23572030350E+03  0.00000000000E+00 0.  1.
</event>
<event>
12    1  0.9962621E-001  0.2121154E+03  0.7818608E-02  0.1140030E+00
         21   -1    0    0  503  502  0.00000000000E+00  0.00000000000E+00  0.11958423065E+04  0.11958423065E+04  0.00000000000E+00 0. -1.
         21   -1    0    0  501  503 -0.00000000000E+00 -0.00000000000E+00 -0.37558229065E+02  0.37558229065E+02  0.00000000000E+00 0. -1.
          6    2    1    2  501    0  0.43853419698E+01 -0.12382714818E+03  0.60074735738E+03  0.63687714373E+03  0.17135552210E+03 0.  0.
         24    2    3    3    0    0  0.67514371347E+02 -0.93685962173E+02  0.43266867526E+03  0.45476097524E+03  0.79184040041E+02 0.  0.
         -6    2    1    2    0  502 -0.43853419698E+01  0.12382714818E+03  0.55753672009E+03  0.59652339187E+03  0.17216436610E+03 0.  0.
        -24    2    5    5    0    0  0.21545070299E+02  0.94525083731E+02  0.53812555255E+03  0.55259298456E+03  0.79879376376E+02 0.  0.
          5    1    3    3  501    0 -0.63129029377E+02 -0.30141186003E+02  0.16807868212E+03  0.18211616849E+03  0.47000000000E+01 0. -1.
        -13    1    4    4    0    0  0.19355065977E+02  0.10706650006E+02  0.11055092776E+03  0.11274199999E+03  0.00000000000E+00 0.  1.
         14    1    4    4    0    0  0.48159305370E+02 -0.10439261218E+03  0.32211774750E+03  0.34201897524E+03  0.00000000000E+00 0. -1.
         -5    1    5    5    0  502 -0.25930412269E+02  0.29302064444E+02  0.19411167535E+02  0.43930407308E+02  0.47000000000E+01 0.  1.
         11    1    6    6    0    0  0.57281851981E+01 -0.79310851663E+01  0.16624565326E+03  0.16653327429E+03  0.00000000000E+00 0. -1.
        -12    1    6    6    0    0  0.15816885101E+02  0.10245616890E+03  0.37187989929E+03  0.38605971028E+03  0.00000000000E+00 0.  1.
</event>
<event>
12    1  0.9962621E-001  0.1781564E+03  0.7818608E-02  0.1169664E+00
         21   -1    0    0  501  502  0.00000000000E+00  0.00000000000E+00  0.27905469385E+03  0.27905469385E+03  0.00000000000E+00 0.  1.
         21   -1    0    0  502  503 -0.00000000000E+00 -0.00000000000E+00 -0.14889598442E+03  0.14889598442E+03  0.00000000000E+00 0.  1.
         -6    2    1    2    0  503  0.20131658692E+02  0.43743209193E+02  0.16933605709E+03  0.24579344386E+03  0.17152540563E+03 0.  0.
        -24    2    3    3    0    0 -0.45700823637E+02  0.55155790816E+02  0.12773632554E+03  0.16694681796E+03  0.80149514191E+02 0.  0.
          6    2    1    2  501    0 -0.20131658692E+02 -0.43743209193E+02 -0.39177347661E+02  0.18215723441E+03  0.17125315018E+03 0.  0.
         24    2    5    5    0    0  0.47191697425E+02 -0.52312636443E+02 -0.35105759192E+02  0.11400639293E+03  0.82470449632E+02 0.  0.
          5    1    5    5  501    0 -0.67323356117E+02  0.85694272500E+01 -0.40715884694E+01  0.68150841484E+02  0.47000000000E+01 0. -1.
        -11    1    6    6    0    0  0.13445480544E+02 -0.97222885254E+00  0.24780599153E+02  0.28210003020E+02  0.00000000000E+00 0.  1.
         12    1    6    6    0    0  0.33746216882E+02 -0.51340407591E+02 -0.59886358345E+02  0.85796389908E+02  0.00000000000E+00 0. -1.
         -5    1    3    3    0  503  0.65832482328E+02 -0.11412581623E+02  0.41599731556E+02  0.78846625891E+02  0.47000000000E+01 0.  1.
         13    1    4    4    0    0  0.87905042297E+01  0.27913285666E+02  0.91492990415E+02  0.96059313845E+02  0.00000000000E+00 0. -1.
        -14    1    4    4    0    0 -0.54491327866E+02  0.27242505150E+02  0.36243335123E+02  0.70887504120E+02  0.00000000000E+00 0.  1.
</event>
<event>
12    1  0.9962621E-001  0.2923857E+03  0.7818608E-02  0.1089132E+00
         21   -1    0    0  503  502  0.00000000000E+00  0.00000000000E+00  0.18227276449E+03  0.18227276449E+03  0.00000000000E+00 0.  1.
         21   -1    0    0  501  503 -0.00000000000E+00 -0.00000000000E+00 -0.48659379387E+03  0.48659379387E+03  0.00000000000E+00 0.  1.
          6    2    1    2  501    0 -0.14204893729E+03  0.18825560846E+03 -0.21615630589E+03  0.36347763274E+03  0.17255250280E+03 0.  0.
         24    2    3    3    0    0 -0.11268683393E+03  0.20063824456E+03 -0.22364302375E+03  0.33040795275E+03  0.78734906140E+02 0.  0.
         -6    2    1    2    0  502  0.14204893729E+03 -0.18825560846E+03 -0.88164723493E+02  0.30538892563E+03  0.17283316442E+03 0.  0.
        -24    2    5    5    0    0  0.20924869725E+02 -0.11610349634E+03 -0.90909076409E+01  0.14367397462E+03  0.81496591001E+02 0.  0.
          5    1    3    3  501    0 -0.29362103359E+02 -0.12382636094E+02  0.74867178647E+01  0.33069679991E+02  0.47000000000E+01 0. -1.
        -13    1    4    4    0    0 -0.73445646241E+02  0.10548218866E+03 -0.72574825464E+02  0.14760711490E+03  0.00000000000E+00 0.  1.
         14    1    4    4    0    0 -0.39241187685E+02  0.95156055896E+02 -0.15106819829E+03  0.18280083785E+03  0.00000000000E+00 0. -1.
         -5    1    5    5    0  502  0.12112406756E+03 -0.72152112120E+02 -0.79073815852E+02  0.16171495101E+03  0.47000000000E+01 0.  1.
         13    1    6    6    0    0 -0.15494219613E+02 -0.67076152538E+01  0.18575785791E+02  0.25102246145E+02  0.00000000000E+00 0. -1.
        -14    1    6    6    0    0  0.36419089338E+02 -0.10939588109E+03 -0.27666693432E+02  0.11857172847E+03  0.00000000000E+00 0.  1.
</event>
<event>
12    1  0.9962621E-001  0.2126071E+03  0.7818608E-02  0.1139961E+00
         21   -1    0    0  501  502  0.00000000000E+00  0.00000000000E+00  0.63687294849E+03  0.63687294849E+03  0.00000000000E+00 0. -1.
         21   -1    0    0  502  503 -0.00000000000E+00 -0.00000000000E+00 -0.83186737119E+02  0.83186737119E+02  0.00000000000E+00 0. -1.
         -6    2    1    2    0  503  0.11504391992E+03 -0.42783217756E+02  0.13346213783E+03  0.24911375997E+03  0.17082159097E+03 0.  0.
        -24    2    3    3    0    0  0.14723129711E+03 -0.59789304083E+02  0.12710464540E+03  0.21186135155E+03  0.58973092729E+02 0.  0.
          6    2    1    2  501    0 -0.11504391992E+03  0.42783217756E+02  0.42022407355E+03  0.47094592564E+03  0.17359805776E+03 0.  0.
         24    2    5    5    0    0 -0.10190516311E+03  0.93593512980E+02  0.30817333253E+03  0.34712439442E+03  0.79875743378E+02 0.  0.
          5    1    5    5  501    0 -0.13138756810E+02 -0.50810295223E+02  0.11205074102E+03  0.12382153122E+03  0.47000000000E+01 0. -1.
        -13    1    6    6    0    0 -0.54846329438E+02  0.35622349383E+02  0.62903613078E+02  0.90741039043E+02  0.00000000000E+00 0.  1.
         14    1    6    6    0    0 -0.47058833668E+02  0.57971163596E+02  0.24526971945E+03  0.25638335537E+03  0.00000000000E+00 0. -1.
         -5    1    3    3    0  503 -0.32187377198E+02  0.17006086327E+02  0.63574924248E+01  0.37252408419E+02  0.47000000000E+01 0.  1.
         11    1    4    4    0    0  0.10119280291E+03 -0.10043005625E+02  0.78132309354E+02  0.12824002140E+03  0.00000000000E+00 0. -1.
        -12    1    4    4    0    0  0.46038494200E+02 -0.49746298458E+02  0.48972336047E+02  0.83621330152E+02  0.00000000000E+00 0.  1.
</event>
<event>
12    1  0.9962621E-001  0.2999442E+03  0.7818608E-02  0.1085499E+00
         21   -1    0    0  503  502  0.00000000000E+00  0.00000000000E+00  0.53270137415E+03  0.53270137415E+03  0.00000000000E+00 0. -1.
         21   -1    0    0  501  503 -0.00000000000E+00 -0.00000000000E+00 -0.28334163152E+03  0.28334163152E+03  0.00000000000E+00 0. -1.
          6    2    1    2  501    0  0.22666821320E+03  0.89056197048E+02 -0.13558422831E+03  0.32916504176E+03  0.17509156645E+03 0.  0.
         24    2    3    3    0    0  0.22015887147E+03  0.11992511133E+03 -0.10062309354E+03  0.28184028773E+03  0.80355334742E+02 0.  0.
         -6    2    1    2    0  502 -0.22666821320E+03 -0.89056197048E+02  0.38494397095E+03  0.48687796391E+03  0.17192674562E+03 0.  0.
        -24    2    5    5    0    0 -0.17227034023E+03 -0.36972842800E+02  0.16391660408E+03  0.25332499074E+03  0.79125448570E+02 0.  0.
          5    1    3    3  501    0  0.65093417349E+01 -0.30868914287E+02 -0.34961134776E+02  0.47324754029E+02  0.47000000000E+01 0. -1.
        -13    1    4    4    0    0  0.79435722462E+02  0.60959310872E+02 -0.19748146398E+01  0.10014974527E+03  0.00000000000E+00 0.  1.
         14    1    4    4    0    0  0.14072314901E+03  0.58965800463E+02 -0.98648278899E+02  0.18169054246E+03  0.00000000000E+00 0. -1.
         -5    1    5    5    0  502 -0.54397872979E+02 -0.52083354248E+02  0.22102736687E+03  0.23355297317E+03  0.47000000000E+01 0.  1.
         13    1    6    6    0    0 -0.26867932074E+02  0.94717483595E+01 -0.11357246034E+01  0.28511219920E+02  0.00000000000E+00 0. -1.
        -14    1    6    6    0    0 -0.14540240815E+03 -0.46444591159E+02  0.16505232869E+03  0.22481377082E+03  0.00000000000E+00 0.  1.
</event>
<event>
12    1  0.9962621E-001  0.1827441E+03  0.7818608E-02  0.1165502E+00
         21   -1    0    0  503  502  0.00000000000E+00  0.00000000000E+00  0.18962104662E+03  0.18962104662E+03  0.00000000000E+00 0.  1.
         21   -1    0    0  501  503 -0.00000000000E+00 -0.00000000000E+00 -0.22019164305E+03  0.22019164305E+03  0.00000000000E+00 0.  1.
          6    2    1    2  501    0 -0.41419807843E+02 -0.46868859435E+02  0.77714466867E+02  0.19858229533E+03  0.17170643317E+03 0.  0.
         24    2    3    3    0    0  0.39087558328E+02 -0.14166403643E+01  0.25831707173E+02  0.92463253783E+02  0.79701518923E+02 0.  0.
         -6    2    1    2    0  502  0.41419807843E+02  0.46868859435E+02 -0.10828506329E+03  0.21123039434E+03  0.17023611278E+03 0.  0.
        -24    2    5    5    0    0  0.74335318894E+01  0.84065123600E+02 -0.10013121187E+03  0.15997413312E+03  0.91887220403E+02 0.  0.
          5    1    3    3  501    0 -0.80507366170E+02 -0.45452219071E+02  0.51882759694E+02  0.10611904155E+03  0.47000000000E+01 0. -1.
        -11    1    4    4    0    0  0.18894744421E+02 -0.47806078179E+01  0.54132765437E+02  0.57534527648E+02  0.00000000000E+00 0.  1.
         12    1    4    4    0    0  0.20192813906E+02  0.33639674536E+01 -0.28301058264E+02  0.34928726134E+02  0.00000000000E+00 0. -1.
         -5    1    5    5    0  502  0.33986275953E+02 -0.37196264165E+02 -0.81538514151E+01  0.51256261216E+02  0.47000000000E+01 0.  1.
         13    1    6    6    0    0 -0.17303819736E+02  0.76093914918E+02 -0.27348207612E+02  0.82689966288E+02  0.00000000000E+00 0. -1.
        -14    1    6    6    0    0  0.24737351625E+02  0.79712086816E+01 -0.72783004263E+02  0.77284166831E+02  0.00000000000E+00 0.  1.
</event>
<event>
12    1  0.9962621E-001  0.2103116E+03  0.7818608E-02  0.1141457E+00
         21   -1    0    0  503  502  0.00000000000E+00  0.00000000000E+00  0.69915042608E+03  0.69915042608E+03  0.00000000000E+00 0.  1.
         21   -1    0    0  501  503 -0.00000000000E+00 -0.00000000000E+00 -0.15309333796E+03  0.15309333796E+03  0.00000000000E+00 0.  1.
          6    2    1    2  501    0 -0.38506266543E+02  0.11461125490E+03  0.59963247137E+03  0.63521541354E+03  0.17123390016E+03 0.  0.
         24    2    3    3    0    0  0.41059403640E+02  0.57710296751E+02  0.16228371996E+03  0.18703639209E+03  0.60251582739E+02 0.  0.
         -6    2    1    2    0  502  0.38506266543E+02 -0.11461125490E+03 -0.53575383258E+02  0.21702835050E+03  0.17208286062E+03 0.  0.
        -24    2    5    5    0    0  0.82067133562E+02 -0.53224071773E+02 -0.61198629193E+02  0.14122505726E+03  0.81433582485E+02 0.  0.
          5    1    3    3  501    0 -0.79565670184E+02  0.56900958146E+02  0.43734875141E+03  0.44817902145E+03  0.47000000000E+01 0. -1.
        -13    1    4    4    0    0  0.20851930674E+02  0.38537152774E+02  0.15057326180E+03  0.15681907513E+03  0.00000000000E+00 0.  1.
         14    1    4    4    0    0  0.20207472966E+02  0.19173143977E+02  0.11710458163E+02  0.30217316956E+02  0.00000000000E+00 0. -1.
         -5    1    5    5    0  502 -0.43560867019E+02 -0.61387183125E+02  0.76232459352E+01  0.75803293240E+02  0.47000000000E+01 0.  1.
         11    1    6    6    0    0  0.77131171022E+02 -0.33587671598E+02 -0.82419939177E+01  0.84529756243E+02  0.00000000000E+00 0. -1.
        -12    1    6    6    0    0  0.49359625400E+01 -0.19636400174E+02 -0.52956635276E+02  0.56695301020E+02  0.00000000000E+00 0.  1.
</event>
<event>
12    1  0.9962621E-001  0.2403185E+03  0.7818608E-02  0.1119896E+00
         21   -1    0    0  501  502  0.00000000000E+00  0.00000000000E+00  0.19998517811E+03  0.19998517811E+03  0.00000000000E+00 0.  1.
         21   -1    0    0  502  503 -0.00000000000E+00 -0.00000000000E+00 -0.32000536247E+03  0.32000536247E+03  0.00000000000E+00 0.  1.
         -6    2    1    2    0  503  0.14286268806E+03  0.86548632024E+02 -0.14390153165E+03  0.27848834812E+03  0.17014022417E+03 0.  0.
        -24    2    3    3    0    0  0.95368241288E+01  0.35579029668E+01 -0.33696668360E+02  0.86575740417E+02  0.79096673016E+02 0.  0.
          6    2    1    2  501    0 -0.14286268806E+03 -0.86548632024E+02  0.23881347288E+02  0.24150219246E+03  0.17277898272E+03 0.  0.
         24    2    5    5    0    0 -0.20666182891E+02 -0.33615659918E+02  0.54630399509E+02  0.10474883922E+03  0.80191864050E+02 0.  0.
          5    1    5    5  501    0 -0.12219650517E+03 -0.52932972107E+02 -0.30749052221E+02  0.13675335324E+03  0.47000000000E+01 0. -1.
        -11    1    6    6    0    0  0.96153429291E+01  0.14748023369E+02 -0.85864375238E+01  0.19587902447E+02  0.00000000000E+00 0.  1.
         12    1    6    6    0    0 -0.30281525821E+02 -0.48363683286E+02  0.63216837032E+02  0.85160936769E+02  0.00000000000E+00 0. -1.
         -5    1    3    3    0  503  0.13332586393E+03  0.82990729057E+02 -0.11020486329E+03  0.19191260770E+03  0.47000000000E+01 0.  1.
         11    1    4    4    0    0  0.15654557264E+02 -0.67461382456E+01 -0.57474430803E+02  0.59949026184E+02  0.00000000000E+00 0. -1.
        -12    1    4    4    0    0 -0.61177331352E+01  0.10304041212E+02  0.23777762443E+02  0.26626714233E+02  0.00000000000E+00 0.  1.
</event>
<event>
12    1  0.9962621E-001  0.1795175E+03  0.7818608E-02  0.1168473E+00
         21   -1    0    0  503  502  0.00000000000E+00  0.00000000000E+00  0.15562893338E+03  0.15562893338E+03  0.00000000000E+00 0. -1.
         21   -1    0    0  501  503 -0.00000000000E+00 -0.00000000000E+00 -0.21445848339E+03  0.21445848339E+03  0.00000000000E+00 0. -1.
          6    2    1    2  501    0 -0.18517956737E+02  0.45390502711E+02  0.70134519885E+01  0.17965442747E+03  0.17269427421E+03 0.  0.
         24    2    3    3    0    0 -0.16324990571E+02  0.13862675882E+02 -0.62315158086E+02  0.10331728619E+03  0.79577657653E+02 0.  0.
         -6    2    1    2    0  502  0.18517956737E+02 -0.45390502711E+02 -0.65843001990E+02  0.19043298930E+03  0.17183192382E+03 0.  0.
        -24    2    5    5    0    0 -0.31586094085E+02  0.19604571431E+02 -0.10324729722E+02  0.91240529266E+02  0.82681398007E+02 0.  0.
          5    1    3    3  501    0 -0.21929661657E+01  0.31527826829E+02  0.69328610075E+02  0.76337141288E+02  0.47000000000E+01 0. -1.
        -13    1    4    4    0    0 -0.27631511563E+02  0.42035315809E+02 -0.48809857793E+02  0.70091871313E+02  0.00000000000E+00 0.  1.
         14    1    4    4    0    0  0.11306520992E+02 -0.28172639927E+02 -0.13505300293E+02  0.33225414872E+02  0.00000000000E+00 0. -1.
         -5    1    5    5    0  502  0.50104050822E+02 -0.64995074142E+02 -0.55518272268E+02  0.99192460032E+02  0.47000000000E+01 0.  1.
         13    1    6    6    0    0  0.70675880518E+01  0.17503530721E+02 -0.38824486839E+02  0.43170188404E+02  0.00000000000E+00 0. -1.
        -14    1    6    6    0    0 -0.38653682137E+02  0.21010407104E+01  0.28499757117E+02  0.48070340862E+02  0.00000000000E+00 0.  1.
</event>
<event>
12    1  0.9962621E-001  0.2107241E+03  0.7818608E-02  0.1141251E+00
         21   -1    0    0  501  502  0.00000000000E+00  0.00000000000E+00  0.58356559239E+03  0.58356559239E+03  0.00000000000E+00 0. -1.
         21   -1    0    0  502  503 -0.00000000000E+00 -0.00000000000E+00 -0.13615298796E+03  0.13615298796E+03  0.00000000000E+00 0. -1.
         -6    2    1    2    0  503  0.30761717051E+00 -0.11906644546E+03  0.46403285269E+03  0.50963822958E+03  0.17386121940E+03 0.  0.
        -24    2    3    3    0    0 -0.56061492240E+02 -0.48867827620E+02  0.33546699777E+03  0.35261405471E+03  0.79168235409E+02 0.  0.
          6    2    1    2  501    0 -0.30761717051E+00  0.11906644546E+03 -0.16620248264E+02  0.21008035077E+03  0.17228060850E+03 0.  0.
         24    2    5    5    0    0 -0.28750454156E+02  0.14503024525E+03 -0.26997204382E+02  0.16991961007E+03  0.79268305080E+02 0.  0.
          5    1    5    5  501    0  0.28442836985E+02 -0.25963799794E+02  0.10376956118E+02  0.40160740703E+02  0.47000000000E+01 0. -1.
        -13    1    6    6    0    0 -0.10484504044E+02  0.21445981967E+02  0.25033325501E+02  0.34590784224E+02  0.00000000000E+00 0.  1.
         14    1    6    6    0    0 -0.18265950111E+02  0.12358426328E+03 -0.52030529883E+02  0.13532882585E+03  0.00000000000E+00 0. -1.
         -5    1    3    3    0  503  0.56369109411E+02 -0.70198617836E+02  0.12856585492E+03  0.15702417487E+03  0.47000000000E+01 0.  1.
         11    1    4    4    0    0  0.20307838622E+02 -0.67347136909E+01  0.67426183509E+02  0.70739344785E+02  0.00000000000E+00 0. -1.
        -12    1    4    4    0    0 -0.76369330862E+02 -0.42133113929E+02  0.26804081426E+03  0.28187470993E+03  0.00000000000E+00 0.  1.
</event>
<event>
12    1  0.9962621E-001  0.3906229E+03  0.7818608E-02  0.1047079E+00
         21   -1    0    0  503  502  0.00000000000E+00  0.00000000000E+00  0.41973686608E+03  0.41973686608E+03  0.00000000000E+00 0.  1.
         21   -1    0    0  501  503 -0.00000000000E+00 -0.00000000000E+00 -0.45683654599E+03  0.45683654599E+03  0.00000000000E+00 0.  1.
          6    2    1    2  501    0  0.22893318466E+03 -0.26621446996E+03  0.17956454073E+03  0.42988605050E+03  0.17110828464E+03 0.  0.
         24    2    3    3    0    0  0.11610923746E+03 -0.14167926252E+03  0.16908940119E+03  0.26145185118E+03  0.78812920498E+02 0.  0.
         -6    2    1    2    0  502 -0.22893318466E+03  0.26621446996E+03 -0.21666422064E+03  0.44668736157E+03  0.17118898163E+03 0.  0.
        -24    2    5    5    0    0 -0.22500282432E+03  0.27996932053E+03 -0.18555931970E+03  0.41212946075E+03  0.80058353082E+02 0.  0.
          5    1    3    3  501    0  0.11282394720E+03 -0.12453520744E+03  0.10475139541E+02  0.16843419932E+03  0.47000000000E+01 0. -1.
        -11    1    4    4    0    0  0.79838134509E+02 -0.36341216151E+02  0.67568450707E+02  0.11072627170E+03  0.00000000000E+00 0.  1.
         12    1    4    4    0    0  0.36271102950E+02 -0.10533804637E+03  0.10152095049E+03  0.15072557948E+03  0.00000000000E+00 0. -1.
         -5    1    5    5    0  502 -0.39303603384E+01 -0.13754850575E+02 -0.31104900943E+02  0.34557900825E+02  0.47000000000E+01 0.  1.
         11    1    6    6    0    0 -0.88272483770E+02  0.72010278835E+02 -0.91320932707E+02  0.14600350817E+03  0.00000000000E+00 0. -1.
        -12    1    6    6    0    0 -0.13673034055E+03  0.20795904170E+03 -0.94238386992E+02  0.26612595258E+03  0.00000000000E+00 0.  1.
</event>
<event>
12    1  0.9962621E-001  0.1765358E+03  0.7818608E-02  0.1171763E+00
         21   -1    0    0  501  502  0.00000000000E+00  0.00000000000E+00  0.39312221172E+03  0.39312221172E+03  0.00000000000E+00 0.  1.
         21   -1    0    0  502  503 -0.00000000000E+00 -0.00000000000E+00 -0.12271994031E+03  0.12271994031E+03  0.00000000000E+00 0.  1.
         -6    2    1    2    0  503  0.13999444720E+02 -0.26556671464E+02 -0.20587801959E+02  0.17548924802E+03  0.17167229633E+03 0.  0.
        -24    2    3    3    0    0  0.23565350503E+01  0.51511859547E+02 -0.80668947275E+01  0.95432293306E+02  0.79895074214E+02 0.  0.
          6    2    1    2  501    0 -0.13999444720E+02  0.26556671464E+02  0.29099007337E+03  0.34035290401E+03  0.17396446539E+03 0.  0.
         24    2    5    5    0    0 -0.60493448447E+02 -0.25611564038E+02  0.19229201738E+03  0.21932971022E+03  0.82546304118E+02 0.  0.
          5    1    5    5  501    0  0.46494003728E+02  0.52168235502E+02  0.98698055990E+02  0.12102319379E+03  0.47000000000E+01 0. -1.
        -13    1    6    6    0    0 -0.29277620572E+02  0.17745490465E+02  0.21618990907E+02  0.40490273722E+02  0.00000000000E+00 0.  1.
         14    1    6    6    0    0 -0.31215827875E+02 -0.43357054503E+02  0.17067302647E+03  0.17883943650E+03  0.00000000000E+00 0. -1.
         -5    1    3    3    0  503  0.11642909669E+02 -0.78068531011E+02 -0.12520907232E+02  0.80056954712E+02  0.47000000000E+01 0.  1.
         11    1    4    4    0    0 -0.14856240811E+01 -0.18708209760E+02 -0.15999152983E+02  0.24661246674E+02  0.00000000000E+00 0. -1.
        -12    1    4    4    0    0  0.38421591315E+01  0.70220069307E+02  0.79322582557E+01  0.70771046632E+02  0.00000000000E+00 0.  1.
</event>
<event>
12    1  0.9962621E-001  0.1820240E+03  0.7818608E-02  0.1165951E+00
         21   -1    0    0  501  502  0.00000000000E+00  0.00000000000E+00  0.17520397687E+03  0.17520397687E+03  0.00000000000E+00 0. -1.
         21   -1    0    0  502  503 -0.00000000000E+00 -0.00000000000E+00 -0.19068011692E+03  0.19068011692E+03  0.00000000000E+00 0. -1.
         -6    2    1    2    0  503  0.54930916859E+02  0.21819134679E+02  0.10886851543E+02  0.18196087631E+03  0.17174910977E+03 0.  0.
        -24    2    3    3    0    0 -0.28007703680E+02  0.60189431832E+01 -0.28776396704E+02  0.88559997893E+02  0.78702814925E+02 0.  0.
          6    2    1    2  501    0 -0.54930916859E+02 -0.21819134679E+02 -0.26362991595E+02  0.18392321747E+03  0.17216057137E+03 0.  0.
         24    2    5    5    0    0 -0.67750229862E+02 -0.38416831023E+02  0.45032044405E+02  0.10936344631E+03  0.62181442678E+02 0.  0.
          5    1    5    5  501    0  0.12819313003E+02  0.16597696344E+02 -0.71395036000E+02  0.74559771158E+02  0.47000000000E+01 0. -1.
        -13    1    6    6    0    0 -0.57499019727E+02 -0.81147076069E+01  0.52360499741E+01  0.58304390645E+02  0.00000000000E+00 0.  1.
         14    1    6    6    0    0 -0.10251210135E+02 -0.30302123416E+02  0.39795994431E+02  0.51059055666E+02  0.00000000000E+00 0. -1.
         -5    1    3    3    0  503  0.82938620539E+02  0.15800191496E+02  0.39663248247E+02  0.93400878420E+02  0.47000000000E+01 0.  1.
         13    1    4    4    0    0 -0.44374005008E+02  0.87695134101E+01  0.10050159853E+02  0.46335325606E+02  0.00000000000E+00 0. -1.
        -14    1    4    4    0    0  0.16366301328E+02 -0.27505702269E+01 -0.38826556557E+02  0.42224672287E+02  0.00000000000E+00 0.  1.
</event>
<event>
12    1  0.9962621E-001  0.1842782E+03  0.7818608E-02  0.1163756E+00
         21   -1    0    0  503  502  0.00000000000E+00  0.00000000000E+00  0.25575079854E+02  0.25575079854E+02  0.00000000000E+00 0. -1.
         21   -1    0    0  501  503 -0.00000000000E+00 -0.00000000000E+00 -0.13355343887E+04  0.13355343887E+04  0.00000000000E+00 0. -1.
          6    2    1    2  501    0  0.12557589887E+02  0.64861285831E+02 -0.59989882715E+03  0.62752624404E+03  0.17188922211E+03 0.  0.
         24    2    3    3    0    0  0.36362526711E+02  0.10406723290E+03 -0.40343290359E+03  0.42572255125E+03  0.79557278938E+02 0.  0.
         -6    2    1    2    0  502 -0.12557589887E+02 -0.64861285831E+02 -0.71006048174E+03  0.73358322456E+03  0.17202842836E+03 0.  0.
        -24    2    5    5    0    0  0.46873284382E+02 -0.52993566849E+02 -0.58497088095E+03  0.59450637604E+03  0.79003016828E+02 0.  0.
          5    1    3    3  501    0 -0.23804936824E+02 -0.39205947070E+02 -0.19646592356E+03  0.20180369279E+03  0.47000000000E+01 0. -1.
        -13    1    4    4    0    0 -0.11293131868E+02  0.25620225218E+02 -0.20720746399E+03  0.20909056387E+03  0.00000000000E+00 0.  1.
         14    1    4    4    0    0  0.47655658579E+02  0.78447007683E+02 -0.19622543960E+03  0.21663198738E+03  0.00000000000E+00 0. -1.
         -5    1    5    5    0  502 -0.59430874269E+02 -0.11867718982E+02 -0.12508960079E+03  0.13907684853E+03  0.47000000000E+01 0.  1.
         13    1    6    6    0    0  0.19959775688E+01 -0.50538013009E+02 -0.17752947555E+03  0.18459357891E+03  0.00000000000E+00 0. -1.
        -14    1    6    6    0    0  0.44877306813E+02 -0.24555538398E+01 -0.40744140540E+03  0.40991279712E+03  0.00000000000E+00 0.  1.
</event>
<event>
12    1  0.9962621E-001  0.1862544E+03  0.7818608E-02  0.1162007E+00
         21   -1    0    0  503  502  0.00000000000E+00  0.00000000000E+00  0.67151292808E+03  0.67151292808E+03  0.00000000000E+00 0. -1.
         21   -1    0    0  501  503 -0.00000000000E+00 -0.00000000000E+00 -0.58405087678E+02  0.58405087678E+02  0.00000000000E+00 0. -1.
          6    2    1    2  501    0  0.85942013166E+01  0.69117534059E+02  0.43230479760E+03  0.47072087399E+03  0.17274145240E+03 0.  0.
         24    2    3    3    0    0  0.28906427245E+01  0.62859897516E+02  0.44392387289E+03  0.45559534900E+03  0.80864049975E+02 0.  0.
         -6    2    1    2    0  502 -0.85942013166E+01 -0.69117534059E+02  0.18080304281E+03  0.25919714176E+03  0.17216946361E+03 0.  0.
        -24    2    5    5    0    0 -0.37865177664E+02  0.93495451280E+01  0.44878717245E+02  0.99474304162E+02  0.79748681829E+02 0.  0.
          5    1    3    3  501    0  0.57035585921E+01  0.62576365432E+01 -0.11619075291E+02  0.15125524994E+02  0.47000000000E+01 0. -1.
        -13    1    4    4    0    0 -0.32886097827E+02  0.10910785608E+02  0.97447936395E+02  0.10342456662E+03  0.00000000000E+00 0.  1.
         14    1    4    4    0    0  0.35776740552E+02  0.51949111909E+02  0.34647593649E+03  0.35217078238E+03  0.00000000000E+00 0. -1.
         -5    1    5    5    0  502  0.29270976347E+02 -0.78467079187E+02  0.13592432556E+03  0.15972283760E+03  0.47000000000E+01 0.  1.
         11    1    6    6    0    0  0.26513219870E+01 -0.37040114940E+01 -0.20753007993E+02  0.21247036268E+02  0.00000000000E+00 0. -1.
        -12    1    6    6    0    0 -0.40516499651E+02  0.13053556622E+02  0.65631725238E+02  0.78227267894E+02  0.00000000000E+00 0.  1.
</event>
<event>
12    1  0.9962621E-001  0.3516130E+03  0.7818608E-02  0.1061964E+00
         21   -1    0    0  503  502  0.00000000000E+00  0.00000000000E+00  0.46925642976E+02  0.46925642976E+02  0.00000000000E+00 0.  1.
         21   -1    0    0  501  503 -0.00000000000E+00 -0.00000000000E+00 -0.27232442607E+04  0.27232442607E+04  0.00000000000E+00 0.  1.
          6    2    1    2  501    0 -0.30635990502E+03 -0.13139785517E+01 -0.15891684891E+04  0.16276019822E+04  0.17255030550E+03 0.  0.
         24    2    3    3    0    0 -0.17192417674E+03  0.62882848304E+02 -0.83950761135E+03  0.86326716083E+03  0.83336584294E+02 0.  0.
         -6    2    1    2    0  502  0.30635990502E+03  0.13139785517E+01 -0.10871501287E+04  0.11425679215E+04  0.17235989953E+03 0.  0.
        -24    2    5    5    0    0  0.22668305357E+03 -0.60151056672E+02 -0.83383209917E+03  0.86995378889E+03  0.80871928445E+02 0.  0.
          5    1    3    3  501    0 -0.13443572828E+03 -0.64196826855E+02 -0.74966087771E+03  0.76433482138E+03  0.47000000000E+01 0. -1.
        -11    1    4    4    0    0 -0.62675734513E+02  0.35236481916E+02 -0.17375698955E+03  0.18804613469E+03  0.00000000000E+00 0.  1.
         12    1    4    4    0    0 -0.10924844223E+03  0.27646366387E+02 -0.66575062181E+03  0.67522102614E+03  0.00000000000E+00 0. -1.
         -5    1    5    5    0  502  0.79676851455E+02  0.61465035223E+02 -0.25331802954E+03  0.27261413262E+03  0.47000000000E+01 0.  1.
         11    1    6    6    0    0  0.23351998198E+03 -0.59995381185E+02 -0.81516034883E+03  0.85006906898E+03  0.00000000000E+00 0. -1.
        -12    1    6    6    0    0 -0.68369284102E+01 -0.15567548693E+00 -0.18671750346E+02  0.19884719910E+02  0.00000000000E+00 0.  1.
</event>
<event>
12    1  0.9962621E-001  0.4182920E+03  0.7818608E-02  0.1037969E+00
         21   -1    0    0  503  502  0.00000000000E+00  0.00000000000E+00  0.12295598867E+03  0.12295598867E+03  0.00000000000E+00 0.  1.
         21   -1    0    0  501  503 -0.00000000000E+00 -0.00000000000E+00 -0.15978533384E+04  0.15978533384E+04  0.00000000000E+00 0. -1.
          6    2    1    2  501    0 -0.65809899477E+02 -0.37115911835E+03 -0.43817536217E+03  0.60288239049E+03  0.17140447703E+03 0.  0.
         24    2    3    3    0    0 -0.95771510996E+02 -0.25037864391E+03 -0.35969126290E+03  0.45568366424E+03  0.80050918837E+02 0.  0.
         -6    2    1    2    0  502  0.65809899477E+02  0.37115911835E+03 -0.10367219876E+04  0.11179269366E+04  0.18132325290E+03 0.  0.
        -24    2    5    5    0    0  0.70146882214E+02  0.38453601427E+03 -0.10215130137E+04  0.10966865587E+04  0.80274776228E+02 0.  0.
          5    1    3    3  501    0  0.29961611520E+02 -0.12078047444E+03 -0.78484099278E+02  0.14719872625E+03  0.47000000000E+01 0. -1.
        -11    1    4    4    0    0 -0.45317405832E+02 -0.86991681656E+02 -0.74567338649E+02  0.12321326204E+03  0.00000000000E+00 0.  1.
         12    1    4    4    0    0 -0.50454105165E+02 -0.16338696225E+03 -0.28512392425E+03  0.33247040220E+03  0.00000000000E+00 0. -1.
         -5    1    5    5    0  502 -0.43369827373E+01 -0.13376895924E+02 -0.15208973930E+02  0.21240377865E+02  0.47000000000E+01 0.  1.
         13    1    6    6    0    0  0.80633644930E+02  0.32846858125E+03 -0.92066997120E+03  0.98082954148E+03  0.00000000000E+00 0. -1.
        -14    1    6    6    0    0 -0.10486762716E+02  0.56067433018E+02 -0.10084304246E+03  0.11585701727E+03  0.00000000000E+00 0.  1.
</event>
<event>
12    1  0.9962621E-001  0.2006263E+03  0.7818608E-02  0.1149498E+00
         21   -1    0    0  501  502  0.00000000000E+00  0.00000000000E+00  0.17740538747E+04  0.17740538747E+04  0.00000000000E+00 0.  1.
         21   -1    0    0  502  503 -0.00000000000E+00 -0.00000000000E+00 -0.22699996904E+02  0.22699996904E+02  0.00000000000E+00 0.  1.
         -6    2    1    2    0  503  0.90115796727E+02  0.43701204047E+02  0.95513655955E+03  0.97597990415E+03  0.17383979365E+03 0.  0.
        -24    2    3    3    0    0  0.12218236951E+03  0.30935378400E+01  0.74973904437E+03  0.76411325531E+03  0.82597402521E+02 0.  0.
          6    2    1    2  501    0 -0.90115796727E+02 -0.43701204047E+02  0.79621731822E+03  0.82077396743E+03  0.17227082087E+03 0.  0.
         24    2    5    5    0    0  0.16390523568E+02 -0.49934200079E+02  0.36944558923E+03  0.38084369435E+03  0.76090751933E+02 0.  0.
          5    1    5    5  501    0 -0.10650632029E+03  0.62329960313E+01  0.42677172900E+03  0.43993027308E+03  0.47000000000E+01 0. -1.
        -11    1    6    6    0    0 -0.11184013425E+02  0.16305435611E+02  0.10453311922E+03  0.10638666458E+03  0.00000000000E+00 0.  1.
         12    1    6    6    0    0  0.27574536993E+02 -0.66239635690E+02  0.26491247000E+03  0.27445702977E+03  0.00000000000E+00 0. -1.
         -5    1    3    3    0  503 -0.32066572780E+02  0.40607666207E+02  0.20539751518E+03  0.21186664883E+03  0.47000000000E+01 0.  1.
         13    1    4    4    0    0  0.75329738263E+02  0.15606794123E+02  0.23897460911E+03  0.25105179801E+03  0.00000000000E+00 0. -1.
        -14    1    4    4    0    0  0.46852631243E+02 -0.12513256282E+02  0.51076443526E+03  0.51306145730E+03  0.00000000000E+00 0.  1.
</event>
<event>
12    1  0.9962621E-001  0.2439099E+03  0.7818608E-02  0.1117734E+00
         21   -1    0    0  503  502  0.00000000000E+00  0.00000000000E+00  0.29552480749E+03  0.29552480749E+03  0.00000000000E+00 0.  1.
         21   -1    0    0  501  503 -0.00000000000E+00 -0.00000000000E+00 -0.26057344534E+03  0.26057344534E+03  0.00000000000E+00 0.  1.
          6    2    1    2  501    0  0.12767057060E+03 -0.11701519424E+03 -0.11808661173E+03  0.26815263707E+03  0.16723952469E+03 0.  0.
         24    2    3    3    0    0  0.15572461908E+03 -0.10242225739E+03 -0.12053457045E+03  0.23608916964E+03  0.80430327310E+02 0.  0.
         -6    2    1    2    0  502 -0.12767057060E+03  0.11701519424E+03  0.15303797388E+03  0.28794561576E+03  0.17175484246E+03 0.  0.
        -24    2    5    5    0    0 -0.11468654800E+03  0.24296420426E+02  0.54705530011E+02  0.15209012129E+03  0.79971180086E+02 0.  0.
          5    1    3    3  501    0 -0.28054048481E+02 -0.14592936845E+02  0.24479587164E+01  0.32063467433E+02  0.47000000000E+01 0. -1.
        -11    1    4    4    0    0  0.28652228762E+02 -0.63348091373E+02 -0.33387286852E+02  0.77127438807E+02  0.00000000000E+00 0.  1.
         12    1    4    4    0    0  0.12707239032E+03 -0.39074166019E+02 -0.87147283597E+02  0.15896173083E+03  0.00000000000E+00 0. -1.
         -5    1    5    5    0  502 -0.12984022599E+02  0.92718773812E+02  0.98332443866E+02  0.13585549447E+03  0.47000000000E+01 0.  1.
         13    1    6    6    0    0 -0.10984517542E+03  0.45810658533E+02  0.39885304293E+02  0.12552058197E+03  0.00000000000E+00 0. -1.
        -14    1    6    6    0    0 -0.48413725755E+01 -0.21514238107E+02  0.14820225717E+02  0.26569539327E+02  0.00000000000E+00 0.  1.
</event>
<event>
12    1  0.9962621E-001  0.1941698E+03  0.7818608E-02  0.1155706E+00
         21   -1    0    0  501  502  0.00000000000E+00  0.00000000000E+00  0.22829236340E+04  0.22829236340E+04  0.00000000000E+00 0.  1.
         21   -1    0    0  502  503 -0.00000000000E+00 -0.00000000000E+00 -0.16152852553E+02  0.16152852553E+02  0.00000000000E+00 0.  1.
         -6    2    1    2    0  503 -0.16724033220E+02  0.85996740612E+02  0.11107492448E+04  0.11268616115E+04  0.16845792976E+03 0.  0.
        -24    2    3    3    0    0 -0.72026295538E+02  0.46249135055E+02  0.58028587097E+03  0.59202360492E+03  0.80209020685E+02 0.  0.
          6    2    1    2  501    0  0.16724033220E+02 -0.85996740612E+02  0.11560215367E+04  0.11722148750E+04  0.17328239173E+03 0.  0.
         24    2    5    5    0    0 -0.20233836491E+02  0.12136595436E+02  0.65130785861E+03  0.65670151671E+03  0.80611725375E+02 0.  0.
          5    1    5    5  501    0  0.36957869710E+02 -0.98133336048E+02  0.50471367807E+03  0.51551335832E+03  0.47000000000E+01 0. -1.
        -13    1    6    6    0    0  0.19254793148E+02 -0.44280407141E+01  0.48434356772E+02  0.52309095956E+02  0.00000000000E+00 0.  1.
         14    1    6    6    0    0 -0.39488629639E+02  0.16564636150E+02  0.60287350184E+03  0.60439242075E+03  0.00000000000E+00 0. -1.
         -5    1    3    3    0  503  0.55302262319E+02  0.39747605557E+02  0.53046337381E+03  0.53483800662E+03  0.47000000000E+01 0.  1.
         11    1    4    4    0    0 -0.55418868626E+02  0.37648774563E+02  0.56161403871E+03  0.56559615425E+03  0.00000000000E+00 0. -1.
        -12    1    4    4    0    0 -0.16607426912E+02  0.86003604924E+01  0.18671832258E+02  0.26427450674E+02  0.00000000000E+00 0.  1.
</event>
<event>
12    1  0.9962621E-001  0.2586740E+03  0.7818608E-02  0.1108227E+00
         21   -1    0    0  501  502  0.00000000000E+00  0.00000000000E+00  0.90257126551E+02  0.90257126551E+02  0.00000000000E+00 0.  1.
         21   -1    0    0  502  503 -0.00000000000E+00 -0.00000000000E+00 -0.97820566956E+03  0.97820566956E+03  0.00000000000E+00 0.  1.
         -6    2    1    2    0  503 -0.10709590281E+02  0.19298150294E+03 -0.17693021055E+03  0.31185237443E+03  0.16908887672E+03 0.  0.
        -24    2    3    3    0    0  0.28426459740E+02  0.57807728065E+02 -0.26236544238E+02  0.10561403926E+03  0.79474348052E+02 0.  0.
          6    2    1    2  501    0  0.10709590281E+02 -0.19298150294E+03 -0.71101833245E+03  0.75661042168E+03  0.17191772832E+03 0.  0.
         24    2    5    5    0    0  0.52917366233E+02 -0.15736787548E+03 -0.40678020704E+03  0.44736496292E+03  0.84263736709E+02 0.  0.
          5    1    5    5  501    0 -0.42207775952E+02 -0.35613627459E+02 -0.30423812541E+03  0.30924545876E+03  0.47000000000E+01 0. -1.
        -11    1    6    6    0    0  0.15321454448E+02 -0.43514728163E+02 -0.38594235340E+02  0.60148096686E+02  0.00000000000E+00 0.  1.
         12    1    6    6    0    0  0.37595911785E+02 -0.11385314732E+03 -0.36818597170E+03  0.38721686623E+03  0.00000000000E+00 0. -1.
         -5    1    3    3    0  503 -0.39136050021E+02  0.13517377487E+03 -0.15069366632E+03  0.20623833517E+03  0.47000000000E+01 0.  1.
         11    1    4    4    0    0  0.43947148877E+02  0.68542614027E+02 -0.29225028224E+02  0.86507480062E+02  0.00000000000E+00 0. -1.
        -12    1    4    4    0    0 -0.15520689137E+02 -0.10734885963E+02  0.29884839862E+01  0.19106559200E+02  0.00000000000E+00 0.  1.
</event>
<event>
12    1  0.9962621E-001  0.2199276E+03  0.7818608E-02  0.1134914E+00
         21   -1    0    0  501  502  0.00000000000E+00  0.00000000000E+00  0.41015421253E+03  0.41015421253E+03  0.00000000000E+00 0. -1.
         21   -1    0    0  502  503 -0.00000000000E+00 -0.00000000000E+00 -0.12421813875E+03  0.12421813875E+03  0.00000000000E+00 0. -1.
         -6    2    1    2    0  503 -0.84293103991E+02 -0.98241299337E+02  0.21350033612E+03  0.30282306201E+03  0.17135557501E+03 0.  0.
        -24    2    3    3    0    0 -0.56467112751E+02 -0.13367870114E+03  0.18741006026E+03  0.25054603332E+03  0.81192697711E+02 0.  0.
          6    2    1    2  501    0  0.84293103991E+02  0.98241299337E+02  0.72435737663E+02  0.23154928926E+03  0.17779611073E+03 0.  0.
         24    2    5    5    0    0  0.29637594930E+02  0.82581785223E+02 -0.14642352155E+02  0.12744775815E+03  0.91270993737E+02 0.  0.
          5    1    5    5  501    0  0.54655509061E+02  0.15659514114E+02  0.87078089818E+02  0.10410153111E+03  0.47000000000E+01 0. -1.
        -11    1    6    6    0    0 -0.25572126688E+01 -0.15132582002E+02  0.13872557814E+02  0.20687731509E+02  0.00000000000E+00 0.  1.
         12    1    6    6    0    0  0.32194807599E+02  0.97714367225E+02 -0.28514909969E+02  0.10676002664E+03  0.00000000000E+00 0. -1.
         -5    1    3    3    0  503 -0.27825991240E+02  0.35437401804E+02  0.26090275853E+02  0.52277028696E+02  0.47000000000E+01 0.  1.
         13    1    4    4    0    0 -0.69762834931E+02 -0.62066765834E+02  0.10896287917E+03  0.14349928779E+03  0.00000000000E+00 0. -1.
        -14    1    4    4    0    0  0.13295722181E+02 -0.71611935306E+02  0.78447181097E+02  0.10704674553E+03  0.00000000000E+00 0.  1.
</event>
<event>
12    1  0.9962621E-001  0.2862989E+03  0.7818608E-02  0.1092443E+00
         21   -1    0    0  501  502  0.00000000000E+00  0.00000000000E+00  0.53495700188E+03  0.53495700188E+03  0.00000000000E+00 0.  1.
         21   -1    0    0  502  503 -0.00000000000E+00 -0.00000000000E+00 -0.15544198100E+03  0.15544198100E+03  0.00000000000E+00 0. -1.
         -6    2    1    2    0  503 -0.16442440096E+03 -0.15801090732E+03  0.14375114351E+03  0.32036146953E+03  0.17310184699E+03 0.  0.
        -24    2    3    3    0    0 -0.19185066890E+02 -0.12600292626E+03  0.71584788141E+02  0.15498599413E+03  0.51492448635E+02 0.  0.
          6    2    1    2  501    0  0.16442440096E+03  0.15801090732E+03  0.23576387736E+03  0.37003751336E+03  0.17129017764E+03 0.  0.
         24    2    5    5    0    0  0.11178168743E+03  0.54367215135E+02  0.59268806203E+02  0.15864718632E+03  0.78773083056E+02 0.  0.
          5    1    5    5  501    0  0.52642713535E+02  0.10364369218E+03  0.17649507116E+03  0.21139032703E+03  0.47000000000E+01 0. -1.
        -11    1    6    6    0    0  0.34390577179E+02  0.33736700337E+02  0.61988096147E+02  0.78507329672E+02  0.00000000000E+00 0.  1.
         12    1    6    6    0    0  0.77391110249E+02  0.20630514798E+02 -0.27192899445E+01  0.80139856652E+02  0.00000000000E+00 0. -1.
         -5    1    3    3    0  503 -0.14523933407E+03 -0.32007981058E+02  0.72166355373E+02  0.16537547539E+03  0.47000000000E+01 0.  1.
         11    1    4    4    0    0 -0.16784430860E+02 -0.78935275482E+02  0.16282918814E+02  0.82326352280E+02  0.00000000000E+00 0. -1.
        -12    1    4    4    0    0 -0.24006360303E+01 -0.47067650780E+02  0.55301869326E+02  0.72659641853E+02  0.00000000000E+00 0.  1.
</event>
<event>
12    1  0.9962621E-001  0.2763785E+03  0.7818608E-02  0.1097729E+00
         21   -1    0    0  501  502  0.00000000000E+00  0.00000000000E+00  0.10468658168E+04  0.10468658168E+04  0.00000000000E+00 0. -1.
         21   -1    0    0  502  503 -0.00000000000E+00 -0.00000000000E+00 -0.10274714341E+03  0.10274714341E+03  0.00000000000E+00 0. -1.
         -6    2    1    2    0  503  0.24353848049E+02 -0.21485579978E+03  0.16194494913E+03  0.32004633036E+03  0.17160233803E+03 0.  0.
        -24    2    3    3    0    0 -0.39474385555E+02 -0.13302002400E+03  0.14184542243E+03  0.21422941972E+03  0.80756216552E+02 0.  0.
          6    2    1    2  501    0 -0.24353848049E+02  0.21485579978E+03  0.78217372431E+03  0.82956662989E+03  0.17213057200E+03 0.  0.
         24    2    5    5    0    0 -0.44062735735E+02  0.17385350385E+03  0.74563081903E+03  0.77102517064E+03  0.79673897773E+02 0.  0.
          5    1    5    5  501    0  0.19708887686E+02  0.41002295930E+02  0.36542905276E+02  0.58541459252E+02  0.47000000000E+01 0. -1.
        -13    1    6    6    0    0  0.65329172086E+01  0.12716734745E+03  0.47392818799E+03  0.49073632496E+03  0.00000000000E+00 0.  1.
         14    1    6    6    0    0 -0.50595652944E+02  0.46686156404E+02  0.27170263104E+03  0.28028884568E+03  0.00000000000E+00 0. -1.
         -5    1    3    3    0  503  0.63828233604E+02 -0.81835775789E+02  0.20099526696E+02  0.10581691064E+03  0.47000000000E+01 0.  1.
         13    1    4    4    0    0 -0.64583937328E+02 -0.95141634125E+02  0.10514441480E+03  0.15581515802E+03  0.00000000000E+00 0. -1.
        -14    1    4    4    0    0  0.25109551773E+02 -0.37878389870E+02  0.36701007626E+02  0.58414261702E+02  0.00000000000E+00 0.  1.
</event>
<event>
12    1  0.9962621E-001  0.1772824E+03  0.7818608E-02  0.1171673E+00
         21   -1    0    0  501  502  0.00000000000E+00  0.00000000000E+00  0.60531968278E+03  0.60531968278E+03  0.00000000000E+00 0.  1.
         21   -1    0    0  502  503 -0.00000000000E+00 -0.00000000000E+00 -0.56347178872E+02  0.56347178872E+02  0.00000000000E+00 0.  1.
         -6    2    1    2    0  503 -0.20245025688E+02  0.24409980210E+02  0.37753273121E+03  0.41504844109E+03  0.16949494718E+03 0.  0.
        -24    2    3    3    0    0 -0.28816141548E+02 -0.17919360168E+02  0.88668358149E+02  0.12293552952E+03  0.78099892439E+02 0.  0.
          6    2    1    2  501    0  0.20245025688E+02 -0.24409980210E+02  0.17143977270E+03  0.24661842056E+03  0.17442288123E+03 0.  0.
         24    2    5    5    0    0  0.51796672749E+02  0.18163464080E+02  0.66927984147E+02  0.12934605153E+03  0.96115759633E+02 0.  0.
          5    1    5    5  501    0 -0.31551647061E+02 -0.42573444290E+02  0.10451178856E+03  0.11727236903E+03  0.47000000000E+01 0. -1.
        -11    1    6    6    0    0  0.50306233232E+02 -0.32263075249E+02  0.42218356104E+02  0.73171119430E+02  0.00000000000E+00 0.  1.
         12    1    6    6    0    0  0.14904395170E+01  0.50426539329E+02  0.24709628043E+02  0.56174932102E+02  0.00000000000E+00 0. -1.
         -5    1    3    3    0  503  0.85711158598E+01  0.42329340378E+02  0.28886437306E+03  0.29211291157E+03  0.47000000000E+01 0.  1.
         13    1    4    4    0    0 -0.11727468244E+02  0.31098463561E+02  0.35310580189E+02  0.48492112973E+02  0.00000000000E+00 0. -1.
        -14    1    4    4    0    0 -0.17088673305E+02 -0.49017823729E+02  0.53357777960E+02  0.74443416547E+02  0.00000000000E+00 0.  1.
</event>
<event>
12    1  0.9962621E-001  0.2892387E+03  0.7818608E-02  0.1090762E+00
         21   -1    0    0  503  502  0.00000000000E+00  0.00000000000E+00  0.39073684194E+03  0.39073684194E+03  0.00000000000E+00 0.  1.
         21   -1    0    0  501  503 -0.00000000000E+00 -0.00000000000E+00 -0.34857596560E+03  0.34857596560E+03  0.00000000000E+00 0.  1.
          6    2    1    2  501    0 -0.22390865459E+02  0.23125975514E+03 -0.20858576164E+03  0.35651666806E+03  0.17208628488E+03 0.  0.
         24    2    3    3    0    0  0.95476579688E-01  0.66510418510E+02 -0.20838773532E+02  0.10568006578E+03  0.79437880988E+02 0.  0.
         -6    2    1    2    0  502  0.22390865459E+02 -0.23125975514E+03  0.25074663797E+03  0.38279613948E+03  0.17226892565E+03 0.  0.
        -24    2    5    5    0    0  0.10336221436E+02 -0.17953282529E+03  0.26201428151E+03  0.32829807067E+03  0.82397006350E+02 0.  0.
          5    1    3    3  501    0 -0.22486342038E+02  0.16474933663E+03 -0.18774698811E+03  0.25083660228E+03  0.47000000000E+01 0. -1.
        -11    1    4    4    0    0  0.22065901722E+02  0.62509144489E+02 -0.38986577184E+02  0.76904163503E+02  0.00000000000E+00 0.  1.
         12    1    4    4    0    0 -0.21970425142E+02  0.40012740207E+01  0.18147803652E+02  0.28775902282E+02  0.00000000000E+00 0. -1.
         -5    1    5    5    0  502  0.12054644023E+02 -0.51726929846E+02 -0.11267643539E+02  0.54498068816E+02  0.47000000000E+01 0.  1.
         11    1    6    6    0    0 -0.35645723743E+02 -0.80819587989E+02  0.12991516858E+03  0.15709988686E+03  0.00000000000E+00 0. -1.
        -12    1    6    6    0    0  0.45981945178E+02 -0.98713237305E+02  0.13209911293E+03  0.17119818381E+03  0.00000000000E+00 0.  1.
</event>
<event>
12    1  0.9962621E-001  0.1765933E+03  0.7818608E-02  0.1171584E+00
         21   -1    0    0  501  502  0.00000000000E+00  0.00000000000E+00  0.18986968991E+03  0.18986968991E+03  0.00000000000E+00 0.  1.
         21   -1    0    0  502  503 -0.00000000000E+00 -0.00000000000E+00 -0.16490774733E+03  0.16490774733E+03  0.00000000000E+00 0.  1.
         -6    2    1    2    0  503 -0.48710689253E+02  0.12280179985E+02 -0.85671191087E+01  0.17502934433E+03  0.16744653409E+03 0.  0.
        -24    2    3    3    0    0 -0.26307668939E+02 -0.36767941335E+01  0.58250158814E+02  0.10261968357E+03  0.80200412678E+02 0.  0.
          6    2    1    2  501    0  0.48710689253E+02 -0.12280179985E+02  0.33529061683E+02  0.17974809291E+03  0.16929750400E+03 0.  0.
         24    2    5    5    0    0 -0.15132775772E+02  0.60839334219E+01  0.67180569258E+02  0.10513078493E+03  0.79203774572E+02 0.  0.
          5    1    5    5  501    0  0.63843465025E+02 -0.18364113407E+02 -0.33651507574E+02  0.74617307977E+02  0.47000000000E+01 0. -1.
        -11    1    6    6    0    0 -0.18416174012E+02  0.35534870292E+02  0.10829048236E+02  0.41462642916E+02  0.00000000000E+00 0.  1.
         12    1    6    6    0    0  0.32833982400E+01 -0.29450936870E+02  0.56351521022E+02  0.63668142018E+02  0.00000000000E+00 0. -1.
         -5    1    3    3    0  503 -0.22403020314E+02  0.15956974119E+02 -0.66817277923E+02  0.72409660759E+02  0.47000000000E+01 0.  1.
         11    1    4    4    0    0  0.48616384207E+01  0.34607083343E+02  0.27372184135E+02  0.44390564425E+02  0.00000000000E+00 0. -1.
        -12    1    4    4    0    0 -0.31169307360E+02 -0.38283877477E+02  0.30877974679E+02  0.58229119144E+02  0.00000000000E+00 0.  1.
</event>
<event>
12    1  0.9962621E-001  0.1762733E+03  0.7818608E-02  0.1171762E+00
         21   -1    0    0  503  502  0.00000000000E+00  0.00000000000E+00  0.42086752705E+03  0.42086752705E+03  0.00000000000E+00 0. -1.
         21   -1    0    0  501  503 -0.00000000000E+00 -0.00000000000E+00 -0.81151924533E+02  0.81151924533E+02  0.00000000000E+00 0. -1.
          6    2    1    2  501    0  0.17443683453E+02  0.28236011894E+02  0.24729870883E+03  0.30298894766E+03  0.17188396248E+03 0.  0.
         24    2    3    3    0    0  0.50419594424E+02  0.21383189790E+02  0.50711832657E+02  0.10348240201E+03  0.71676643667E+02 0.  0.
         -6    2    1    2    0  502 -0.17443683453E+02 -0.28236011894E+02  0.92416893690E+02  0.19903050392E+03  0.17312049212E+03 0.  0.
        -24    2    5    5    0    0 -0.50215051763E+02 -0.35299773730E+02 -0.82082108416E+00  0.99837657562E+02  0.78735371158E+02 0.  0.
          5    1    3    3  501    0 -0.32975910971E+02  0.68528221046E+01  0.19658687617E+03  0.19950654565E+03  0.47000000000E+01 0. -1.
        -13    1    4    4    0    0 -0.17808349172E+02 -0.19470502536E+01  0.12793548729E+02  0.22013704687E+02  0.00000000000E+00 0.  1.
         14    1    4    4    0    0  0.68227943597E+02  0.23330240043E+02  0.37918283927E+02  0.81468697326E+02  0.00000000000E+00 0. -1.
         -5    1    5    5    0  502  0.32771368310E+02  0.70637618354E+01  0.93237714774E+02  0.99192846357E+02  0.47000000000E+01 0.  1.
         13    1    6    6    0    0 -0.43587095635E+02  0.99125636265E+01 -0.21593138492E+02  0.49642295006E+02  0.00000000000E+00 0. -1.
        -14    1    6    6    0    0 -0.66279561279E+01 -0.45212337356E+02  0.20772317408E+02  0.50195362556E+02  0.00000000000E+00 0.  1.
</event>
<event>
12    1  0.9962621E-001  0.1910427E+03  0.7818608E-02  0.1157646E+00
         21   -1    0    0  501  502  0.00000000000E+00  0.00000000000E+00  0.10597062001E+03  0.10597062001E+03  0.00000000000E+00 0.  1.
         21   -1    0    0  502  503 -0.00000000000E+00 -0.00000000000E+00 -0.36747389776E+03  0.36747389776E+03  0.00000000000E+00 0.  1.
         -6    2    1    2    0  503 -0.21926324165E+01 -0.82688714268E+02 -0.19113130621E+03  0.26985296020E+03  0.17160190211E+03 0.  0.
        -24    2    3    3    0    0 -0.55971146242E+01  0.11720681370E+02 -0.14219542443E+03  0.16335631702E+03  0.79353925644E+02 0.  0.
          6    2    1    2  501    0  0.21926324165E+01  0.82688714268E+02 -0.70371971533E+02  0.20359155758E+03  0.17220649475E+03 0.  0.
         24    2    5    5    0    0 -0.11996864329E+02  0.15835798680E+01 -0.86917954889E+02  0.11947708671E+03  0.81077807612E+02 0.  0.
          5    1    5    5  501    0  0.14189496745E+02  0.81105134400E+02  0.16545983356E+02  0.84114470867E+02  0.47000000000E+01 0. -1.
        -13    1    6    6    0    0 -0.32498004503E+02  0.17250891815E+02 -0.86133673820E+02  0.93662817226E+02  0.00000000000E+00 0.  1.
         14    1    6    6    0    0  0.20501140174E+02 -0.15667311947E+02 -0.78428106940E+00  0.25814269482E+02  0.00000000000E+00 0. -1.
         -5    1    3    3    0  503  0.34044822077E+01 -0.94409395638E+02 -0.48935881779E+02  0.10649664318E+03  0.47000000000E+01 0.  1.
         11    1    4    4    0    0  0.15793827794E+02 -0.18321517211E+02 -0.11504510458E+03  0.11756061873E+03  0.00000000000E+00 0. -1.
        -12    1    4    4    0    0 -0.21390942418E+02  0.30042198581E+02 -0.27150319858E+02  0.45795698286E+02  0.00000000000E+00 0.  1.
</event>
<event>
12    1  0.9962621E-001  0.2014441E+03  0.7818608E-02  0.1148551E+00
         21   -1    0    0  503  502  0.00000000000E+00  0.00000000000E+00  0.49392058058E+02  0.49392058058E+02  0.00000000000E+00 0.  1.
         21   -1    0    0  501  503 -0.00000000000E+00 -0.00000000000E+00 -0.85651165180E+03  0.85651165180E+03  0.00000000000E+00 0.  1.
          6    2    1    2  501    0  0.60979524669E+02  0.86028170652E+02 -0.49576864479E+03  0.53513200207E+03  0.17164021062E+03 0.  0.
         24    2    3    3    0    0 -0.20356760615E+02 -0.59974701053E+00 -0.17041259489E+03  0.18872380841E+03  0.78495005987E+02 0.  0.
         -6    2    1    2    0  502 -0.60979524669E+02 -0.86028170652E+02 -0.31135094895E+03  0.37077170780E+03  0.17150188720E+03 0.  0.
        -24    2    5    5    0    0 -0.28707000990E+02 -0.60765683973E+02 -0.31479325020E+03  0.32937547058E+03  0.69834447053E+02 0.  0.
          5    1    3    3  501    0  0.81336285284E+02  0.86627917662E+02 -0.32535604991E+03  0.34640819366E+03  0.47000000000E+01 0. -1.
        -13    1    4    4    0    0 -0.26775946013E+02  0.97256932851E+01 -0.17378674394E+03  0.17610614062E+03  0.00000000000E+00 0.  1.
         14    1    4    4    0    0  0.64191853973E+01 -0.10325440296E+02  0.33741490574E+01  0.12617667785E+02  0.00000000000E+00 0. -1.
         -5    1    5    5    0  502 -0.32272523678E+02 -0.25262486679E+02  0.34423012453E+01  0.41396237216E+02  0.47000000000E+01 0.  1.
         11    1    6    6    0    0 -0.33733588549E+01 -0.25367897103E+02 -0.25007058090E+03  0.25137662020E+03  0.00000000000E+00 0. -1.
        -12    1    6    6    0    0 -0.25333642136E+02 -0.35397786869E+02 -0.64722669301E+02  0.77998850380E+02  0.00000000000E+00 0.  1.
</event>
<event>
12    1  0.9962621E-001  0.1898058E+03  0.7818608E-02  0.1158806E+00
         21   -1    0    0  503  502  0.00000000000E+00  0.00000000000E+00  0.22500875489E+03  0.22500875489E+03  0.00000000000E+00 0. -1.
         21   -1    0    0  501  503 -0.00000000000E+00 -0.00000000000E+00 -0.21338235298E+03  0.21338235298E+03  0.00000000000E+00 0. -1.
          6    2    1    2  501    0  0.79190122113E+02 -0.68943014469E+01  0.11597414789E+03  0.22179309576E+03  0.17153299250E+03 0.  0.
         24    2    3    3    0    0  0.38336573440E+02 -0.21416119528E+02  0.14398941243E+03  0.16995835175E+03  0.78895800877E+02 0.  0.
         -6    2    1    2    0  502 -0.79190122113E+02  0.68943014469E+01 -0.10434774597E+03  0.21659801211E+03  0.17235904365E+03 0.  0.
        -24    2    5    5    0    0 -0.83734217635E+01 -0.22886883143E+01 -0.11900050613E+03  0.14354922205E+03  0.79811693419E+02 0.  0.
          5    1    3    3  501    0  0.40853548673E+02  0.14521818082E+02 -0.28015264545E+02  0.51834744015E+02  0.47000000000E+01 0. -1.
        -13    1    4    4    0    0 -0.17565420140E+02 -0.92554226797E+01  0.62573087495E+01  0.20817318426E+02  0.00000000000E+00 0.  1.
         14    1    4    4    0    0  0.55901993580E+02 -0.12160696849E+02  0.13773210369E+03  0.14914103332E+03  0.00000000000E+00 0. -1.
         -5    1    5    5    0  502 -0.70816700350E+02  0.91829897612E+01  0.14652760150E+02  0.73048790061E+02  0.47000000000E+01 0.  1.
         13    1    6    6    0    0 -0.43359577580E+02 -0.74870796490E+01 -0.76543232876E+02  0.88289160312E+02  0.00000000000E+00 0. -1.
        -14    1    6    6    0    0  0.34986155816E+02  0.51983913348E+01 -0.42457273250E+02  0.55260061736E+02  0.00000000000E+00 0.  1.
</event>
<event>
12    1  0.9962621E-001  0.2726153E+03  0.7818608E-02  0.1099935E+00
         21   -1    0    0  503  502  0.00000000000E+00  0.00000000000E+00  0.59661989593E+03  0.59661989593E+03  0.00000000000E+00 0.  1.
         21   -1    0    0  501  503 -0.00000000000E+00 -0.00000000000E+00 -0.12413847494E+03  0.12413847494E+03  0.00000000000E+00 0.  1.
          6    2    1    2  501    0  0.17241804145E+03 -0.11981451928E+03  0.23004954686E+03  0.35594019791E+03  0.17229953693E+03 0.  0.
         24    2    3    3    0    0  0.37406704648E+02 -0.10226805957E+03  0.11419754909E+03  0.17711146783E+03  0.80432420434E+02 0.  0.
         -6    2    1    2    0  502 -0.17241804145E+03  0.11981451928E+03  0.24243187413E+03  0.36481817297E+03  0.17388382815E+03 0.  0.
        -24    2    5    5    0    0 -0.18847928554E+03  0.78014973673E+02  0.23340745216E+03  0.31889763545E+03  0.74872464743E+02 0.  0.
          5    1    3    3  501    0  0.13501133680E+03 -0.17546459713E+02  0.11585199777E+03  0.17882873008E+03  0.47000000000E+01 0. -1.
        -13    1    4    4    0    0  0.45174534249E+02 -0.27271701291E+02  0.76181590928E+02  0.92672104930E+02  0.00000000000E+00 0.  1.
         14    1    4    4    0    0 -0.77678296006E+01 -0.74996358275E+02  0.38015958166E+02  0.84439362897E+02  0.00000000000E+00 0. -1.
         -5    1    5    5    0  502  0.16061244091E+02  0.41799545606E+02  0.90244219712E+01  0.45920537525E+02  0.47000000000E+01 0.  1.
         13    1    6    6    0    0 -0.62672633480E+02 -0.10391865629E+02  0.67539537110E+02  0.92722375572E+02  0.00000000000E+00 0. -1.
        -14    1    6    6    0    0 -0.12580665206E+03  0.88406839302E+02  0.16586791505E+03  0.22617525988E+03  0.00000000000E+00 0.  1.
</event>
<event>
12    1  0.9962621E-001  0.2465081E+03  0.7818608E-02  0.1115575E+00
         21   -1    0    0  501  502  0.00000000000E+00  0.00000000000E+00  0.89516007032E+03  0.89516007032E+03  0.00000000000E+00 0.  1.
         21   -1    0    0  502  503 -0.00000000000E+00 -0.00000000000E+00 -0.88902388142E+02  0.88902388142E+02  0.00000000000E+00 0.  1.
         -6    2    1    2    0  503 -0.71132536603E+02  0.16161037482E+03  0.64296612293E+03  0.68860123566E+03  0.17201300969E+03 0.  0.
        -24    2    3    3    0    0 -0.32915737188E+02  0.21022925745E+02  0.15433210779E+03  0.17868884579E+03  0.81153527047E+02 0.  0.
          6    2    1    2  501    0  0.71132536603E+02 -0.16161037482E+03  0.16329155925E+03  0.29546122280E+03  0.17162590086E+03 0.  0.
         24    2    5    5    0    0  0.61518220250E+02 -0.48753396810E+02  0.22223886943E+02  0.11448799071E+03  0.80325672998E+02 0.  0.
          5    1    5    5  501    0  0.96143163527E+01 -0.11285697801E+03  0.14106767230E+03  0.18097323209E+03  0.47000000000E+01 0. -1.
        -11    1    6    6    0    0  0.71203854721E+02 -0.48621621105E+02  0.39378301131E+02  0.94787665685E+02  0.00000000000E+00 0.  1.
         12    1    6    6    0    0 -0.96856344701E+01 -0.13177570429E+00 -0.17154414188E+02  0.19700325025E+02  0.00000000000E+00 0. -1.
         -5    1    3    3    0  503 -0.38216799415E+02  0.14058744907E+03  0.48863401514E+03  0.50991238988E+03  0.47000000000E+01 0.  1.
         13    1    4    4    0    0 -0.60182235826E+02  0.13155901256E+02  0.10209397129E+03  0.11923991874E+03  0.00000000000E+00 0. -1.
        -14    1    4    4    0    0  0.27266498637E+02  0.78670244895E+01  0.52238136500E+02  0.59448927049E+02  0.00000000000E+00 0.  1.
</event>
<event>
12    1  0.9962621E-001  0.5229175E+03  0.7818608E-02  0.1007998E+00
         21   -1    0    0  501  502  0.00000000000E+00  0.00000000000E+00  0.12458783981E+03  0.12458783981E+03  0.00000000000E+00 0. -1.
         21   -1    0    0  502  503 -0.00000000000E+00 -0.00000000000E+00 -0.24470849212E+04  0.24470849212E+04  0.00000000000E+00 0.  1.
         -6    2    1    2    0  503  0.43585459967E+03  0.23197403442E+03 -0.74704750688E+03  0.91187863971E+03  0.17222511812E+03 0.  0.
        -24    2    3    3    0    0  0.36932535561E+03  0.13566364379E+03 -0.52571985901E+03  0.66145929267E+03  0.79631546222E+02 0.  0.
          6    2    1    2  501    0 -0.43585459967E+03 -0.23197403442E+03 -0.15754495745E+04  0.16597941213E+04  0.17056957106E+03 0.  0.
         24    2    5    5    0    0 -0.14769771260E+03 -0.68367918626E+02 -0.71241495972E+03  0.73532011462E+03  0.81681145508E+02 0.  0.
          5    1    5    5  501    0 -0.28815688707E+03 -0.16360611580E+03 -0.86303461480E+03  0.92447400668E+03  0.47000000000E+01 0. -1.
        -11    1    6    6    0    0 -0.36296473565E+02 -0.58032434445E+02 -0.22238448122E+03  0.23268015585E+03  0.00000000000E+00 0.  1.
         12    1    6    6    0    0 -0.11140123904E+03 -0.10335484180E+02 -0.49003047850E+03  0.50263995877E+03  0.00000000000E+00 0. -1.
         -5    1    3    3    0  503  0.66529244059E+02  0.96310390629E+02 -0.22132764787E+03  0.25041934704E+03  0.47000000000E+01 0.  1.
         11    1    4    4    0    0  0.17617459527E+03  0.10704309863E+03 -0.26617877986E+03  0.33667024792E+03  0.00000000000E+00 0. -1.
        -12    1    4    4    0    0  0.19315076034E+03  0.28620545167E+02 -0.25954107915E+03  0.32478904475E+03  0.00000000000E+00 0.  1.
</event>
<event>
12    1  0.9962621E-001  0.1956962E+03  0.7818608E-02  0.1153755E+00
         21   -1    0    0  503  502  0.00000000000E+00  0.00000000000E+00  0.27097321654E+03  0.27097321654E+03  0.00000000000E+00 0. -1.
         21   -1    0    0  501  503 -0.00000000000E+00 -0.00000000000E+00 -0.15887094204E+03  0.15887094204E+03  0.00000000000E+00 0. -1.
          6    2    1    2  501    0  0.29807741990E+02  0.85154665315E+02  0.12947819728E+03  0.23337803952E+03  0.17193279865E+03 0.  0.
         24    2    3    3    0    0  0.18221757331E+02  0.35019739569E+02  0.15249150562E+03  0.17681437468E+03  0.80319668858E+02 0.  0.
         -6    2    1    2    0  502 -0.29807741990E+02 -0.85154665315E+02 -0.17375922776E+02  0.19646611906E+03  0.17365827000E+03 0.  0.
        -24    2    5    5    0    0 -0.62488997782E+01 -0.10373973309E+03 -0.58471777574E+02  0.14536442562E+03  0.83131741792E+02 0.  0.
          5    1    3    3  501    0  0.11585984659E+02  0.50134925745E+02 -0.23013308340E+02  0.56563664846E+02  0.47000000000E+01 0. -1.
        -11    1    4    4    0    0  0.35765834562E+02  0.58686572110E+01  0.22995814606E+02  0.42923694492E+02  0.00000000000E+00 0.  1.
         12    1    4    4    0    0 -0.17544077231E+02  0.29151082358E+02  0.12949569102E+03  0.13389068019E+03  0.00000000000E+00 0. -1.
         -5    1    5    5    0  502 -0.23558842212E+02  0.18585067777E+02  0.41095854798E+02  0.51101693438E+02  0.47000000000E+01 0.  1.
         11    1    6    6    0    0 -0.82679955975E+01 -0.15730904309E+02 -0.54410088667E+02  0.57238787988E+02  0.00000000000E+00 0. -1.
        -12    1    6    6    0    0  0.20190958193E+01 -0.88008828783E+02 -0.40616889071E+01  0.88125637634E+02  0.00000000000E+00 0.  1.
</event>
<event>
12    1  0.9962621E-001  0.1793363E+03  0.7818608E-02  0.1170660E+00
         21   -1    0    0  503  502  0.00000000000E+00  0.00000000000E+00  0.87592047541E+02  0.87592047541E+02  0.00000000000E+00 0. -1.
         21   -1    0    0  501  503 -0.00000000000E+00 -0.00000000000E+00 -0.35098142344E+03  0.35098142344E+03  0.00000000000E+00 0. -1.
          6    2    1    2  501    0  0.22742430244E+02  0.49344843629E+02 -0.11964931926E+03  0.21558630393E+03  0.17090746946E+03 0.  0.
         24    2    3    3    0    0  0.27919617102E+02  0.47390800741E+02 -0.13363872152E+01  0.97050817954E+02  0.79947997602E+02 0.  0.
         -6    2    1    2    0  502 -0.22742430244E+02 -0.49344843629E+02 -0.14374005664E+03  0.22298716705E+03  0.16158570809E+03 0.  0.
        -24    2    5    5    0    0 -0.33212017825E+02 -0.68906004270E+02 -0.16037854426E+03  0.19485923538E+03  0.79986052545E+02 0.  0.
          5    1    3    3  501    0 -0.51771868581E+01  0.19540428876E+01 -0.11831293204E+03  0.11853548598E+03  0.47000000000E+01 0. -1.
        -13    1    4    4    0    0  0.47581942985E+02  0.29180623748E+02 -0.25129671743E+02  0.61213156285E+02  0.00000000000E+00 0.  1.
         14    1    4    4    0    0 -0.19662325882E+02  0.18210176993E+02  0.23793284528E+02  0.35837661668E+02  0.00000000000E+00 0. -1.
         -5    1    5    5    0  502  0.10469587581E+02  0.19561160641E+02  0.16638487619E+02  0.28127931669E+02  0.47000000000E+01 0.  1.
         11    1    6    6    0    0 -0.36515043273E+02  0.14767067251E+01 -0.32747585370E+02  0.49070697933E+02  0.00000000000E+00 0. -1.
        -12    1    6    6    0    0  0.33030254482E+01 -0.70382710995E+02 -0.12763095889E+03  0.14578853745E+03  0.00000000000E+00 0.  1.
</event>
<event>
12    1  0.9962621E-001  0.1749739E+03  0.7818608E-02  0.1172966E+00
         21   -1    0    0  503  502  0.00000000000E+00  0.00000000000E+00  0.80011699783E+02  0.80011699783E+02  0.00000000000E+00 0.  1.
         21   -1    0    0  501  503 -0.00000000000E+00 -0.00000000000E+00 -0.38190229233E+03  0.38190229233E+03  0.00000000000E+00 0.  1.
          6    2    1    2  501    0 -0.21719422577E+02  0.11663347832E+02 -0.13908843706E+03  0.22352056760E+03  0.17322841516E+03 0.  0.
         24    2    3    3    0    0  0.27750782882E+02  0.56087927902E+02 -0.11156027635E+03  0.15140445169E+03  0.81004019182E+02 0.  0.
         -6    2    1    2    0  502  0.21719422577E+02 -0.11663347832E+02 -0.16280215548E+03  0.23839342451E+03  0.17239233167E+03 0.  0.
        -24    2    5    5    0    0  0.52431679723E+02 -0.35794666159E+02 -0.41820156257E+02  0.11117590449E+03  0.81122235582E+02 0.  0.
          5    1    3    3  501    0 -0.49470205460E+02 -0.44424580070E+02 -0.27528160707E+02  0.72116115914E+02  0.47000000000E+01 0. -1.
        -13    1    4    4    0    0 -0.15067695959E+02  0.56812454000E+02 -0.55319268994E+02  0.80715004262E+02  0.00000000000E+00 0.  1.
         14    1    4    4    0    0  0.42818478842E+02 -0.72452609783E+00 -0.56241007360E+02  0.70689447425E+02  0.00000000000E+00 0. -1.
         -5    1    5    5    0  502 -0.30712257146E+02  0.24131318326E+02 -0.12098199922E+03  0.12721752002E+03  0.47000000000E+01 0.  1.
         13    1    6    6    0    0  0.49436962217E+02  0.15117543984E+02 -0.16717510721E+02  0.54332573417E+02  0.00000000000E+00 0. -1.
        -14    1    6    6    0    0  0.29947175058E+01 -0.50912210143E+02 -0.25102645537E+02  0.56843331073E+02  0.00000000000E+00 0.  1.
</event>
<event>
12    1  0.9962621E-001  0.1861335E+03  0.7818608E-02  0.1163162E+00
         21   -1    0    0  501  502  0.00000000000E+00  0.00000000000E+00  0.74457074256E+02  0.74457074256E+02  0.00000000000E+00 0. -1.
         21   -1    0    0  502  503 -0.00000000000E+00 -0.00000000000E+00 -0.47739235063E+03  0.47739235063E+03  0.00000000000E+00 0. -1.
         -6    2    1    2    0  503  0.72540534506E+02 -0.71090009974E+01 -0.26126452200E+03  0.31793426816E+03  0.16586253757E+03 0.  0.
        -24    2    3    3    0    0  0.40823324129E+02 -0.73523641420E+02 -0.16603056754E+03  0.19748310802E+03  0.66039071420E+02 0.  0.
          6    2    1    2  501    0 -0.72540534506E+02  0.71090009974E+01 -0.14167075437E+03  0.23391515673E+03  0.17126888469E+03 0.  0.
         24    2    5    5    0    0 -0.58738776254E+00 -0.39899305401E+01  0.98018376895E+01  0.65788782374E+02  0.64929371583E+02 0.  0.
          5    1    5    5  501    0 -0.71953146744E+02  0.11098931537E+02 -0.15147259206E+03  0.16812637435E+03  0.47000000000E+01 0. -1.
        -11    1    6    6    0    0 -0.32143385221E+02 -0.77147909949E+01  0.22752364546E+01  0.33134452077E+02  0.00000000000E+00 0.  1.
         12    1    6    6    0    0  0.31555997458E+02  0.37248604549E+01  0.75266012349E+01  0.32654330297E+02  0.00000000000E+00 0. -1.
         -5    1    3    3    0  503  0.31717210377E+02  0.66414640423E+02 -0.95233954460E+02  0.12045116014E+03  0.47000000000E+01 0.  1.
         13    1    4    4    0    0 -0.16769077451E+02 -0.31311237062E+02 -0.54508231916E+02  0.65059533286E+02  0.00000000000E+00 0. -1.
        -14    1    4    4    0    0  0.57592401580E+02 -0.42212404359E+02 -0.11152233562E+03  0.13242357473E+03  0.00000000000E+00 0.  1.
</event>
<event>
12    1  0.9962621E-001  0.3474311E+03  0.7818608E-02  0.1064637E+00
         21   -1    0    0  501  502  0.00000000000E+00  0.00000000000E+00  0.22149714215E+04  0.22149714215E+04  0.00000000000E+00 0. -1.
         21   -1    0    0  502  503 -0.00000000000E+00 -0.00000000000E+00 -0.56773261218E+02  0.56773261218E+02  0.00000000000E+00 0. -1.
         -6    2    1    2    0  503 -0.18687841137E+03 -0.22670541521E+03  0.77549155236E+03  0.84605679063E+03  0.16764861846E+03 0.  0.
        -24    2    3    3    0    0 -0.15202663499E+03 -0.22276850418E+03  0.55011564036E+03  0.61791968866E+03  0.80371759126E+02 0.  0.
          6    2    1    2  501    0  0.18687841137E+03  0.22670541521E+03  0.13827066079E+04  0.14256878921E+04  0.18544410513E+03 0.  0.
         24    2    5    5    0    0  0.17708083145E+03  0.24899844454E+03  0.11764377425E+04  0.12179334539E+04  0.77448628040E+02 0.  0.
          5    1    5    5  501    0  0.97975799200E+01 -0.22293029333E+02  0.20626886540E+03  0.20775443813E+03  0.47000000000E+01 0. -1.
        -11    1    6    6    0    0  0.17505114697E+02  0.51281727629E+02  0.12513729488E+03  0.13636563790E+03  0.00000000000E+00 0.  1.
         12    1    6    6    0    0  0.15957571675E+03  0.19771671691E+03  0.10513004476E+04  0.10815678160E+04  0.00000000000E+00 0. -1.
         -5    1    3    3    0  503 -0.34851776386E+02 -0.39369110243E+01  0.22537591201E+03  0.22813710198E+03  0.47000000000E+01 0.  1.
         13    1    4    4    0    0  0.24051410381E+01 -0.46801124461E+02  0.79504005640E+02  0.92287685348E+02  0.00000000000E+00 0. -1.
        -14    1    4    4    0    0 -0.15443177602E+03 -0.17596737972E+03  0.47061163472E+03  0.52563200331E+03  0.00000000000E+00 0.  1.
</event>
<event>
12    1  0.9962621E-001  0.4376103E+03  0.7818608E-02  0.1031518E+00
         21   -1    0    0  501  502  0.00000000000E+00  0.00000000000E+00  0.15576875075E+04  0.15576875075E+04  0.00000000000E+00 0.  1.
         21   -1    0    0  502  503 -0.00000000000E+00 -0.00000000000E+00 -0.12685807063E+03  0.12685807063E+03  0.00000000000E+00 0. -1.
         -6    2    1    2    0  503 -0.37648748105E+03 -0.14155500307E+03  0.86547806446E+03  0.96961553934E+03  0.17123484393E+03 0.  0.
        -24    2    3    3    0    0 -0.35924835867E+03 -0.15818334213E+03  0.73780231608E+03  0.83962755633E+03  0.80875353535E+02 0.  0.
          6    2    1    2  501    0  0.37648748105E+03  0.14155500307E+03  0.56535137245E+03  0.71493003883E+03  0.17240111316E+03 0.  0.
         24    2    5    5    0    0  0.17455942052E+03  0.35744542635E+02  0.36626708940E+03  0.41222979615E+03  0.63507168355E+02 0.  0.
          5    1    5    5  501    0  0.20192806052E+03  0.10581046044E+03  0.19908428305E+03  0.30270024268E+03  0.47000000000E+01 0. -1.
        -11    1    6    6    0    0  0.13426847333E+03  0.54087048582E+02  0.28701623539E+03  0.32145256436E+03  0.00000000000E+00 0.  1.
         12    1    6    6    0    0  0.40290947187E+02 -0.18342505947E+02  0.79250854018E+02  0.90777231794E+02  0.00000000000E+00 0. -1.
         -5    1    3    3    0  503 -0.17239122379E+02  0.16628339054E+02  0.12767574839E+03  0.12998798301E+03  0.47000000000E+01 0.  1.
         13    1    4    4    0    0 -0.37022327373E+02  0.82673264356E+01  0.77159827417E+02  0.85980465093E+02  0.00000000000E+00 0. -1.
        -14    1    4    4    0    0 -0.32222603129E+03 -0.16645066856E+03  0.66064248866E+03  0.75364709124E+03  0.00000000000E+00 0.  1.
</event>
<event>
12    1  0.9962621E-001  0.3022977E+03  0.7818608E-02  0.1084153E+00
         21   -1    0    0  503  502  0.00000000000E+00  0.00000000000E+00  0.37307019089E+03  0.37307019089E+03  0.00000000000E+00 0. -1.
         21   -1    0    0  501  503 -0.00000000000E+00 -0.00000000000E+00 -0.24788858935E+03  0.24788858935E+03  0.00000000000E+00 0. -1.
          6    2    1    2  501    0 -0.18979655908E+03 -0.15925556543E+03  0.26822348630E+02  0.30348533659E+03  0.17320173839E+03 0.  0.
         24    2    3    3    0    0 -0.16531102809E+03 -0.58714268430E+02  0.46069635686E+02  0.19812575378E+03  0.79726417540E+02 0.  0.
         -6    2    1    2    0  502  0.18979655908E+03  0.15925556543E+03  0.98359252914E+02  0.31747344365E+03  0.17242324619E+03 0.  0.
        -24    2    5    5    0    0  0.80821473379E+02  0.15456875989E+03  0.54945136322E+02  0.19998126957E+03  0.80931625960E+02 0.  0.
          5    1    3    3  501    0 -0.24485530986E+02 -0.10054129700E+03 -0.19247287056E+02  0.10535958281E+03  0.47000000000E+01 0. -1.
        -13    1    4    4    0    0 -0.11034014967E+03 -0.23456091577E+02 -0.83541444174E+01  0.11311467009E+03  0.00000000000E+00 0.  1.
         14    1    4    4    0    0 -0.54970878423E+02 -0.35258176853E+02  0.54423780103E+02  0.85011083691E+02  0.00000000000E+00 0. -1.
         -5    1    5    5    0  502  0.10897508570E+03  0.46868055408E+01  0.43414116593E+02  0.11749217408E+03  0.47000000000E+01 0.  1.
         13    1    6    6    0    0  0.38263164043E+02  0.72531823004E+01  0.10909946502E+02  0.40443853782E+02  0.00000000000E+00 0. -1.
        -14    1    6    6    0    0  0.42558309336E+02  0.14731557759E+03  0.44035189820E+02  0.15953741579E+03  0.00000000000E+00 0.  1.
</event>
<event>
12    1  0.9962621E-001  0.3086519E+03  0.7818608E-02  0.1081083E+00
         21   -1    0    0  503  502  0.00000000000E+00  0.00000000000E+00  0.78344536076E+02  0.78344536076E+02  0.00000000000E+00 0. -1.
         21   -1    0    0  501  503 -0.00000000000E+00 -0.00000000000E+00 -0.12597778927E+04  0.12597778927E+04  0.00000000000E+00 0. -1.
          6    2    1    2  501    0  0.25267986372E+03 -0.37210648137E+02 -0.46120939607E+03  0.55454821518E+03  0.17198217951E+03 0.  0.
         24    2    3    3    0    0  0.26990505948E+03 -0.43876174454E+02 -0.40468905845E+03  0.49490112661E+03  0.79875097951E+02 0.  0.
         -6    2    1    2    0  502 -0.25267986372E+03  0.37210648137E+02 -0.72022396052E+03  0.78357421356E+03  0.17330392086E+03 0.  0.
        -24    2    5    5    0    0 -0.18909078683E+03 -0.39634296198E+02 -0.48390996634E+03  0.52702965600E+03  0.79153014336E+02 0.  0.
          5    1    3    3  501    0 -0.17225195760E+02  0.66655263179E+01 -0.56520337618E+02  0.59647088567E+02  0.47000000000E+01 0. -1.
        -11    1    4    4    0    0  0.15443990198E+03 -0.63105694496E+02 -0.21734230874E+03  0.27399213706E+03  0.00000000000E+00 0.  1.
         12    1    4    4    0    0  0.11546515750E+03  0.19229520042E+02 -0.18734674971E+03  0.22090898955E+03  0.00000000000E+00 0. -1.
         -5    1    5    5    0  502 -0.63589076892E+02  0.76844944335E+02 -0.23631399418E+03  0.25654455756E+03  0.47000000000E+01 0.  1.
         11    1    6    6    0    0  0.47919527541E+01  0.49387699537E+01 -0.51919974943E+01  0.86203884967E+01  0.00000000000E+00 0. -1.
        -12    1    6    6    0    0 -0.19388273959E+03 -0.44573066152E+02 -0.47871796885E+03  0.51840926750E+03  0.00000000000E+00 0.  1.
</event>
<event>
12    1  0.9962621E-001  0.1866525E+03  0.7818608E-02  0.1161928E+00
         21   -1    0    0  503  502  0.00000000000E+00  0.00000000000E+00  0.64708587904E+02  0.64708587904E+02  0.00000000000E+00 0.  1.
         21   -1    0    0  501  503 -0.00000000000E+00 -0.00000000000E+00 -0.54635147244E+03  0.54635147244E+03  0.00000000000E+00 0.  1.
          6    2    1    2  501    0  0.55498090936E+02  0.45676989599E+02 -0.19470056881E+03  0.26971735504E+03  0.17225769835E+03 0.  0.
         24    2    3    3    0    0  0.92524177567E+02  0.62919471792E+02 -0.12530251718E+03  0.18905501034E+03  0.86726540096E+02 0.  0.
         -6    2    1    2    0  502 -0.55498090936E+02 -0.45676989599E+02 -0.28694231573E+03  0.34134270530E+03  0.17033063269E+03 0.  0.
        -24    2    5    5    0    0  0.57198720110E+01 -0.23135711934E+01 -0.53955251298E+02  0.96530354235E+02  0.79805204083E+02 0.  0.
          5    1    3    3  501    0 -0.37026086631E+02 -0.17242482193E+02 -0.69398051623E+02  0.80662344699E+02  0.47000000000E+01 0. -1.
        -13    1    4    4    0    0  0.40980382965E+02 -0.12278035306E+02 -0.13638979012E+02  0.44901711409E+02  0.00000000000E+00 0.  1.
         14    1    4    4    0    0  0.51543794602E+02  0.75197507098E+02 -0.11166353817E+03  0.14415329893E+03  0.00000000000E+00 0. -1.
         -5    1    5    5    0  502 -0.61217962947E+02 -0.43363418405E+02 -0.23298706443E+03  0.24481235107E+03  0.47000000000E+01 0.  1.
         13    1    6    6    0    0  0.78954906845E+01 -0.19720290575E+02  0.14593860231E+02  0.25772260086E+02  0.00000000000E+00 0. -1.
        -14    1    6    6    0    0 -0.21756186735E+01  0.17406719382E+02 -0.68549111528E+02  0.70758094149E+02  0.00000000000E+00 0.  1.
</event>
<event>
12    1  0.9962621E-001  0.2222894E+03  0.7818608E-02  0.1132802E+00
         21   -1    0    0  501  502  0.00000000000E+00  0.00000000000E+00  0.11165766912E+04  0.11165766912E+04  0.00000000000E+00 0. -1.
         21   -1    0    0  502  503 -0.00000000000E+00 -0.00000000000E+00 -0.61269247756E+02  0.61269247756E+02  0.00000000000E+00 0. -1.
         -6    2    1    2    0  503  0.77750234065E+02 -0.10970062619E+03  0.84112100854E+03  0.86915770512E+03  0.17283298032E+03 0.  0.
        -24    2    3    3    0    0  0.10246139166E+03 -0.11381898640E+03  0.81344738177E+03  0.83153428398E+03  0.79369541224E+02 0.  0.
          6    2    1    2  501    0 -0.77750234065E+02  0.10970062619E+03  0.21418643490E+03  0.30868823382E+03  0.17701206321E+03 0.  0.
         24    2    5    5    0    0 -0.25465126431E+02  0.82294709041E+02  0.22016144943E+03  0.24916842558E+03  0.78695290126E+02 0.  0.
          5    1    5    5  501    0 -0.52285107635E+02  0.27405917151E+02 -0.59750145336E+01  0.59519808248E+02  0.47000000000E+01 0. -1.
        -11    1    6    6    0    0 -0.28329919733E+02  0.42204119973E+02  0.40292120232E+02  0.64863140901E+02  0.00000000000E+00 0.  1.
         12    1    6    6    0    0  0.28647933021E+01  0.40090589068E+02  0.17986932920E+03  0.18430528467E+03  0.00000000000E+00 0. -1.
         -5    1    3    3    0  503 -0.24711157590E+02  0.41183602085E+01  0.27673626765E+02  0.37623421144E+02  0.47000000000E+01 0.  1.
         11    1    4    4    0    0  0.36669451157E+02 -0.88623720585E+02  0.35599006937E+03  0.36868379675E+03  0.00000000000E+00 0. -1.
        -12    1    4    4    0    0  0.65791940498E+02 -0.25195265816E+02  0.45745731241E+03  0.46285048723E+03  0.00000000000E+00 0.  1.
</event>
<event>
12    1  0.9962621E-001  0.1726714E+03  0.7818608E-02  0.1175431E+00
         21   -1    0    0  501  502  0.00000000000E+00  0.00000000000E+00  0.37907428587E+03  0.37907428587E+03  0.00000000000E+00 0.  1.
         21   -1    0    0  502  503 -0.00000000000E+00 -0.00000000000E+00 -0.78053924622E+02  0.78053924622E+02  0.00000000000E+00 0.  1.
         -6    2    1    2    0  503 -0.16636833035E+02  0.13356858189E+02  0.14941214656E+03  0.22834054756E+03  0.17134826013E+03 0.  0.
        -24    2    3    3    0    0  0.14661736724E+02 -0.46410184912E+02  0.55489091033E+02  0.11260235046E+03  0.85037511242E+02 0.  0.
          6    2    1    2  501    0  0.16636833035E+02 -0.13356858189E+02  0.15160821470E+03  0.22878766293E+03  0.17001045283E+03 0.  0.
         24    2    5    5    0    0 -0.16685318932E+02  0.47662173651E+02  0.52242321681E+02  0.10742309334E+03  0.79122551415E+02 0.  0.
          5    1    5    5  501    0  0.33322151967E+02 -0.61019031839E+02  0.99365893014E+02  0.12136456959E+03  0.47000000000E+01 0. -1.
        -13    1    6    6    0    0 -0.27776032674E+02  0.84680951745E+01  0.59351500398E+02  0.66074331071E+02  0.00000000000E+00 0.  1.
         14    1    6    6    0    0  0.11090713742E+02  0.39194078476E+02 -0.71091787162E+01  0.41348762266E+02  0.00000000000E+00 0. -1.
         -5    1    3    3    0  503 -0.31298569759E+02  0.59767043101E+02  0.93923055523E+02  0.11573819710E+03  0.47000000000E+01 0.  1.
         13    1    4    4    0    0  0.42116722918E+02 -0.32758172156E+02  0.61433549545E+02  0.81369510273E+02  0.00000000000E+00 0. -1.
        -14    1    4    4    0    0 -0.27454986194E+02 -0.13652012756E+02 -0.59444585121E+01  0.31232840188E+02  0.00000000000E+00 0.  1.
</event>
<event>
12    1  0.9962621E-001  0.2088301E+03  0.7818608E-02  0.1146492E+00
         21   -1    0    0  503  502  0.00000000000E+00  0.00000000000E+00  0.32157551875E+03  0.32157551875E+03  0.00000000000E+00 0.  1.
         21   -1    0    0  501  503 -0.00000000000E+00 -0.00000000000E+00 -0.12651144869E+03  0.12651144869E+03  0.00000000000E+00 0.  1.
          6    2    1    2  501    0  0.76789846841E+01 -0.83210565384E+02  0.58611662602E+02  0.19862900703E+03  0.17039715503E+03 0.  0.
         24    2    3    3    0    0  0.25512395397E+02  0.20883669892E+02  0.38342301408E+02  0.90988041970E+02  0.75641798744E+02 0.  0.
         -6    2    1    2    0  502 -0.76789846841E+01  0.83210565384E+02  0.13645240745E+03  0.24945796041E+03  0.19138194668E+03 0.  0.
        -24    2    5    5    0    0 -0.35691143938E+02  0.11868790256E+03  0.14137382372E+03  0.20374545822E+03  0.78517372239E+02 0.  0.
          5    1    3    3  501    0 -0.17833410713E+02 -0.10409423528E+03  0.20269361194E+02  0.10764096506E+03  0.47000000000E+01 0. -1.
        -11    1    4    4    0    0 -0.96651945165E+01  0.40122360675E+02  0.27008400922E+02  0.49322140378E+02  0.00000000000E+00 0.  1.
         12    1    4    4    0    0  0.35177589914E+02 -0.19238690783E+02  0.11333900486E+02  0.41665901591E+02  0.00000000000E+00 0. -1.
         -5    1    5    5    0  502  0.28012159254E+02 -0.35477337172E+02 -0.49214162638E+01  0.45712502195E+02  0.47000000000E+01 0.  1.
         13    1    6    6    0    0 -0.17993348872E+02  0.17398602042E+02 -0.43423091230E+01  0.25403299100E+02  0.00000000000E+00 0. -1.
        -14    1    6    6    0    0 -0.17697795065E+02  0.10128930051E+03  0.14571613284E+03  0.17834215912E+03  0.00000000000E+00 0.  1.
</event>
<event>
12    1  0.9962621E-001  0.1890580E+03  0.7818608E-02  0.1159567E+00
         21   -1    0    0  503  502  0.00000000000E+00  0.00000000000E+00  0.91544816288E+02  0.91544816288E+02  0.00000000000E+00 0. -1.
         21   -1    0    0  501  503 -0.00000000000E+00 -0.00000000000E+00 -0.45904891116E+03  0.45904891116E+03  0.00000000000E+00 0. -1.
          6    2    1    2  501    0  0.38010608270E+02 -0.67763705650E+02 -0.75103964809E+02  0.20239728825E+03  0.17113541602E+03 0.  0.
         24    2    3    3    0    0  0.42666761023E+02  0.50880499667E+01 -0.91909079901E+02  0.12734024362E+03  0.76953998783E+02 0.  0.
         -6    2    1    2    0  502 -0.38010608270E+02  0.67763705650E+02 -0.29240013006E+03  0.34819643920E+03  0.17235486087E+03 0.  0.
        -24    2    5    5    0    0  0.13005947564E+02 -0.22892084373E+02 -0.14365873183E+03  0.16662756857E+03  0.80210430602E+02 0.  0.
          5    1    3    3  501    0 -0.46561527535E+01 -0.72851755616E+02  0.16805115091E+02  0.75057044627E+02  0.47000000000E+01 0. -1.
        -11    1    4    4    0    0  0.74012806399E+00 -0.35929186526E+01 -0.83655728988E+02  0.83736120321E+02  0.00000000000E+00 0.  1.
         12    1    4    4    0    0  0.41926632959E+02  0.86809686193E+01 -0.82533509130E+01  0.43604123300E+02  0.00000000000E+00 0. -1.
         -5    1    5    5    0  502 -0.51016555834E+02  0.90655790023E+02 -0.14874139823E+03  0.18156887063E+03  0.47000000000E+01 0.  1.
         13    1    6    6    0    0 -0.26552514123E+02 -0.27902856885E+02 -0.10167261437E+03  0.10872408170E+03  0.00000000000E+00 0. -1.
        -14    1    6    6    0    0  0.39558461687E+02  0.50107725115E+01 -0.41986117457E+02  0.57903486867E+02  0.00000000000E+00 0.  1.
</event>
<event>
12    1  0.9962621E-001  0.3138929E+03  0.7818608E-02  0.1078508E+00
         21   -1    0    0  503  502  0.00000000000E+00  0.00000000000E+00  0.33980942192E+04  0.33980942192E+04  0.00000000000E+00 0.  1.
         21   -1    0    0  501  503 -0.00000000000E+00 -0.00000000000E+00 -0.30958362745E+02  0.30958362745E+02  0.00000000000E+00 0.  1.
          6    2    1    2  501    0 -0.38650184298E+02 -0.25982358438E+03  0.12509842379E+04  0.12897636670E+04  0.17183312073E+03 0.  0.
         24    2    3    3    0    0 -0.86621717502E+02 -0.20685096111E+03  0.10522141978E+04  0.10784842651E+04  0.75385342915E+02 0.  0.
         -6    2    1    2    0  502  0.38650184298E+02  0.25982358438E+03  0.21161516186E+04  0.21392889150E+04  0.17163116658E+03 0.  0.
        -24    2    5    5    0    0  0.64350449843E+01  0.35314225371E+02  0.62910334074E+03  0.63503596484E+03  0.78810906562E+02 0.  0.
          5    1    3    3  501    0  0.47971533204E+02 -0.52972623271E+02  0.19877004008E+03  0.21127940186E+03  0.47000000000E+01 0. -1.
        -13    1    4    4    0    0  0.91665800643E+01 -0.61200233666E+02  0.24963596855E+03  0.25719177978E+03  0.00000000000E+00 0.  1.
         14    1    4    4    0    0 -0.95788297566E+02 -0.14565072744E+03  0.80257822928E+03  0.82129248534E+03  0.00000000000E+00 0. -1.
         -5    1    5    5    0  502  0.32215139313E+02  0.22450935901E+03  0.14870482778E+04  0.15042529502E+04  0.47000000000E+01 0.  1.
         11    1    6    6    0    0 -0.81332810963E+01  0.48086328733E+02  0.58287748305E+03  0.58491418646E+03  0.00000000000E+00 0. -1.
        -12    1    6    6    0    0  0.14568326081E+02 -0.12772103362E+02  0.46225857686E+02  0.50121778379E+02  0.00000000000E+00 0.  1.
</event>
<event>
12    1  0.9962621E-001  0.1841191E+03  0.7818608E-02  0.1163944E+00
         21   -1    0    0  501  502  0.00000000000E+00  0.00000000000E+00  0.38984319207E+03  0.38984319207E+03  0.00000000000E+00 0. -1.
         21   -1    0    0  502  503 -0.00000000000E+00 -0.00000000000E+00 -0.98516015428E+02  0.98516015428E+02  0.00000000000E+00 0.  1.
         -6    2    1    2    0  503  0.15983060079E+01  0.63366840126E+02  0.61626920244E+02  0.19415900773E+03  0.17286391172E+03 0.  0.
        -24    2    3    3    0    0 -0.81625108212E+01  0.11117753725E+03  0.55090953724E+02  0.14470251004E+03  0.74004944821E+02 0.  0.
          6    2    1    2  501    0 -0.15983060079E+01 -0.63366840126E+02  0.22970025640E+03  0.29420019977E+03  0.17255039480E+03 0.  0.
         24    2    5    5    0    0 -0.37024857423E+01 -0.53888390086E+01  0.30302488647E+02  0.86480590752E+02  0.80733535610E+02 0.  0.
          5    1    5    5  501    0  0.21041797344E+01 -0.57978001117E+02  0.19939776775E+03  0.20771960902E+03  0.47000000000E+01 0. -1.
        -11    1    6    6    0    0  0.19459925731E+02 -0.36682688620E+02  0.10651765602E+02  0.42869201815E+02  0.00000000000E+00 0.  1.
         12    1    6    6    0    0 -0.23162411473E+02  0.31293849611E+02  0.19650723045E+02  0.43611388936E+02  0.00000000000E+00 0. -1.
         -5    1    3    3    0  503  0.97608168291E+01 -0.47810697129E+02  0.65359665200E+01  0.49456497687E+02  0.47000000000E+01 0.  1.
         11    1    4    4    0    0  0.24835230859E+02  0.78073916073E+02  0.15357864418E+02  0.83355798012E+02  0.00000000000E+00 0. -1.
        -12    1    4    4    0    0 -0.32997741680E+02  0.33103621182E+02  0.39733089306E+02  0.61346712032E+02  0.00000000000E+00 0.  1.
</event>
<event>
12    1  0.9962621E-001  0.4427760E+03  0.7818608E-02  0.1029926E+00
         21   -1    0    0  503  502  0.00000000000E+00  0.00000000000E+00  0.79777141113E+03  0.79777141113E+03  0.00000000000E+00 0. -1.
         21   -1    0    0  501  503 -0.00000000000E+00 -0.00000000000E+00 -0.24765281615E+03  0.24765281615E+03  0.00000000000E+00 0.  1.
          6    2    1    2  501    0  0.36410223101E+03  0.18430226803E+03  0.22693877412E+03  0.49754576388E+03  0.17179295482E+03 0.  0.
         24    2    3    3    0    0  0.11892470751E+03  0.57626469828E+02  0.13724495723E+03  0.20732886798E+03  0.81762981417E+02 0.  0.
         -6    2    1    2    0  502 -0.36410223101E+03 -0.18430226803E+03  0.32317982086E+03  0.54787846340E+03  0.17084452999E+03 0.  0.
        -24    2    5    5    0    0 -0.23492258336E+03 -0.17769639040E+03  0.27166221551E+03  0.40856883471E+03  0.79771586611E+02 0.  0.
          5    1    3    3  501    0  0.24517752350E+03  0.12667579820E+03  0.89693816892E+02  0.29021689590E+03  0.47000000000E+01 0. -1.
        -13    1    4    4    0    0  0.16126986695E+02  0.47884128689E+02  0.31559068892E+02  0.59573016623E+02  0.00000000000E+00 0.  1.
         14    1    4    4    0    0  0.10279772081E+03  0.97423411387E+01  0.10568588834E+03  0.14775585135E+03  0.00000000000E+00 0. -1.
         -5    1    5    5    0  502 -0.12917964765E+03 -0.66058776312E+01  0.51517605350E+02  0.13930962869E+03  0.47000000000E+01 0.  1.
         11    1    6    6    0    0 -0.16331332180E+03 -0.74653375385E+02  0.15426230246E+03  0.23673028005E+03  0.00000000000E+00 0. -1.
        -12    1    6    6    0    0 -0.71609261563E+02 -0.10304301501E+03  0.11739991305E+03  0.17183855466E+03  0.00000000000E+00 0.  1.
</event>
<event>
12    1  0.9962621E-001  0.2848120E+03  0.7818608E-02  0.1094200E+00
         21   -1    0    0  501  502  0.00000000000E+00  0.00000000000E+00  0.68722862633E+03  0.68722862633E+03  0.00000000000E+00 0. -1.
         21   -1    0    0  502  503 -0.00000000000E+00 -0.00000000000E+00 -0.15503997294E+03  0.15503997294E+03  0.00000000000E+00 0.  1.
         -6    2    1    2    0  503  0.27081756261E+02  0.21320343646E+03  0.48344086337E+02  0.28082099127E+03  0.17416702218E+03 0.  0.
        -24    2    3    3    0    0  0.35904682360E+00  0.20760210941E+03  0.83432978988E+02  0.23611306746E+03  0.75429131619E+02 0.  0.
          6    2    1    2  501    0 -0.27081756261E+02 -0.21320343646E+03  0.48384456705E+03  0.56144760800E+03  0.18689228080E+03 0.  0.
         24    2    5    5    0    0  0.30306016798E+02 -0.58773132355E+02  0.10189676816E+03  0.14545687926E+03  0.80012602883E+02 0.  0.
          5    1    5    5  501    0 -0.57387773059E+02 -0.15443030411E+03  0.38194779889E+03  0.41599072874E+03  0.47000000000E+01 0. -1.
        -11    1    6    6    0    0 -0.23018548625E+02 -0.58348455616E+01  0.77035893023E+01  0.24964861139E+02  0.00000000000E+00 0.  1.
         12    1    6    6    0    0  0.53324565424E+02 -0.52938286794E+02  0.94193178860E+02  0.12049201812E+03  0.00000000000E+00 0. -1.
         -5    1    3    3    0  503  0.26722709437E+02  0.56013270536E+01 -0.35088892651E+02  0.44707923816E+02  0.47000000000E+01 0.  1.
         11    1    4    4    0    0  0.53635652871E+01  0.48314008218E+02  0.56420346901E+02  0.74473262095E+02  0.00000000000E+00 0. -1.
        -12    1    4    4    0    0 -0.50045184635E+01  0.15928810119E+03  0.27012632087E+02  0.16163980536E+03  0.00000000000E+00 0.  1.
</event>
<event>
12    1  0.9962621E-001  0.2794285E+03  0.7818608E-02  0.1096912E+00
         21   -1    0    0  503  502  0.00000000000E+00  0.00000000000E+00  0.23202991061E+03  0.23202991061E+03  0.00000000000E+00 0. -1.
         21   -1    0    0  501  503 -0.00000000000E+00 -0.00000000000E+00 -0.42012232601E+03  0.42012232601E+03  0.00000000000E+00 0.  1.
          6    2    1    2  501    0  0.16178533610E+03 -0.15006642771E+03  0.58972744485E+02  0.27916232104E+03  0.16049731834E+03 0.  0.
         24    2    3    3    0    0  0.10137958633E+03 -0.56039019566E+02  0.88601129949E+02  0.16344741572E+03  0.73801796991E+02 0.  0.
         -6    2    1    2    0  502 -0.16178533610E+03  0.15006642771E+03 -0.24706515989E+03  0.37298991557E+03  0.17142303284E+03 0.  0.
        -24    2    5    5    0    0 -0.17328779923E+03  0.82665489971E+02 -0.16375526685E+03  0.26511118113E+03  0.81276726977E+02 0.  0.
          5    1    3    3  501    0  0.60405749773E+02 -0.94027408148E+02 -0.29628385464E+02  0.11571490532E+03  0.47000000000E+01 0. -1.
        -13    1    4    4    0    0  0.18571420074E+01 -0.17981514992E+02 -0.78665859911E+01  0.19714640067E+02  0.00000000000E+00 0.  1.
         14    1    4    4    0    0  0.99522444318E+02 -0.38057504574E+02  0.96467715940E+02  0.14373277565E+03  0.00000000000E+00 0. -1.
         -5    1    5    5    0  502  0.11502463128E+02  0.67400937742E+02 -0.83309893037E+02  0.10787873444E+03  0.47000000000E+01 0.  1.
         11    1    6    6    0    0 -0.14881063928E+03  0.75707900308E+02 -0.95677659330E+02  0.19243312352E+03  0.00000000000E+00 0. -1.
        -12    1    6    6    0    0 -0.24477159944E+02  0.69575896636E+01 -0.68077607521E+02  0.72678057615E+02  0.00000000000E+00 0.  1.
</event>
<event>
12    1  0.9962621E-001  0.2828496E+03  0.7818608E-02  0.1094389E+00
         21   -1    0    0  501  502  0.00000000000E+00  0.00000000000E+00  0.41945096871E+03  0.41945096871E+03  0.00000000000E+00 0.  1.
         21   -1    0    0  502  503 -0.00000000000E+00 -0.00000000000E+00 -0.23743273456E+03  0.23743273456E+03  0.00000000000E+00 0. -1.
         -6    2    1    2    0  503 -0.61556684118E+02 -0.21395829855E+03  0.23880473089E+03  0.37017775827E+03  0.17446058106E+03 0.  0.
        -24    2    3    3    0    0 -0.49216975077E+02 -0.23110382606E+03  0.24299833390E+03  0.34813430484E+03  0.79485941368E+02 0.  0.
          6    2    1    2  501    0  0.61556684118E+02  0.21395829855E+03 -0.56786496744E+02  0.28670594500E+03  0.17148823228E+03 0.  0.
         24    2    5    5    0    0  0.10290208873E+03  0.16635743667E+03 -0.70522834405E+02  0.22200616520E+03  0.77779371386E+02 0.  0.
          5    1    5    5  501    0 -0.41345404612E+02  0.47600861877E+02  0.13736337661E+02  0.64699779801E+02  0.47000000000E+01 0. -1.
        -11    1    6    6    0    0  0.61425634830E+02  0.40728473319E+02 -0.47599788752E+02  0.87736292618E+02  0.00000000000E+00 0.  1.
         12    1    6    6    0    0  0.41476453901E+02  0.12562896335E+03 -0.22923045653E+02  0.13426987258E+03  0.00000000000E+00 0. -1.
         -5    1    3    3    0  503 -0.12339709041E+02  0.17145527511E+02 -0.41936030049E+01  0.22043453427E+02  0.47000000000E+01 0.  1.
         13    1    4    4    0    0 -0.66319836583E+02 -0.20258306158E+03  0.18990523825E+03  0.28548593149E+03  0.00000000000E+00 0. -1.
        -14    1    4    4    0    0  0.17102861506E+02 -0.28520764478E+02  0.53093095647E+02  0.62648373350E+02  0.00000000000E+00 0.  1.
</event>
<event>
12    1  0.9962621E-001  0.2052860E+03  0.7818608E-02  0.1145494E+00
         21   -1    0    0  503  502  0.00000000000E+00  0.00000000000E+00  0.12516825313E+03  0.12516825313E+03  0.00000000000E+00 0.  1.
         21   -1    0    0  501  503 -0.00000000000E+00 -0.00000000000E+00 -0.57021914766E+03  0.57021914766E+03  0.00000000000E+00 0.  1.
          6    2    1    2  501    0  0.10453191914E+03 -0.32509025183E+02  0.73780005453E+00  0.20460241845E+03  0.17285209414E+03 0.  0.
         24    2    3    3    0    0  0.75416086176E+02  0.52972949046E+02 -0.11670344295E+02  0.11332837125E+03  0.64910734156E+02 0.  0.
         -6    2    1    2    0  502 -0.10453191914E+03  0.32509025183E+02 -0.44578869458E+03  0.49078498235E+03  0.17366225796E+03 0.  0.
        -24    2    5    5    0    0 -0.52275822348E+02  0.42349653522E+02 -0.11978809684E+03  0.16044270932E+03  0.82863864705E+02 0.  0.
          5    1    3    3  501    0  0.29115832966E+02 -0.85481974229E+02  0.12408144350E+02  0.91274047207E+02  0.47000000000E+01 0. -1.
        -11    1    4    4    0    0  0.57676194499E+02  0.55094915475E+02  0.15065394152E+02  0.81172404326E+02  0.00000000000E+00 0.  1.
         12    1    4    4    0    0  0.17739891677E+02 -0.21219664297E+01 -0.26735738447E+02  0.32155966920E+02  0.00000000000E+00 0. -1.
         -5    1    5    5    0  502 -0.52256096794E+02 -0.98406283393E+01 -0.32600059775E+03  0.33034227303E+03  0.47000000000E+01 0.  1.
         13    1    6    6    0    0 -0.22847825602E+02 -0.55282522122E+01 -0.96986185205E+02  0.99794312603E+02  0.00000000000E+00 0. -1.
        -14    1    6    6    0    0 -0.29427996746E+02  0.47877905735E+02 -0.22801911632E+02  0.60648396715E+02  0.00000000000E+00 0.  1.
</event>
<event>
12    1  0.9962621E-001  0.1901015E+03  0.7818608E-02  0.1158924E+00
         21   -1    0    0  503  502  0.00000000000E+00  0.00000000000E+00  0.42705133542E+03  0.42705133542E+03  0.00000000000E+00 0.  1.
         21   -1    0    0  501  503 -0.00000000000E+00 -0.00000000000E+00 -0.83932675075E+02  0.83932675075E+02  0.00000000000E+00 0.  1.
          6    2    1    2  501    0 -0.50643223488E+02  0.48287807718E+02  0.19016003564E+03  0.26888550457E+03  0.17675442556E+03 0.  0.
         24    2    3    3    0    0  0.16962181008E+02  0.25227261786E+02  0.17725958363E+03  0.19614767976E+03  0.78286793038E+02 0.  0.
         -6    2    1    2    0  502  0.50643223488E+02 -0.48287807718E+02  0.15295862471E+03  0.24209850593E+03  0.17412322430E+03 0.  0.
        -24    2    5    5    0    0  0.86359217666E+02 -0.23416076066E+02  0.15637557384E+03  0.19818949983E+03  0.82580449574E+02 0.  0.
          5    1    3    3  501    0 -0.67605404496E+02  0.23060545932E+02  0.12900452003E+02  0.72737824807E+02  0.47000000000E+01 0. -1.
        -13    1    4    4    0    0  0.93271840907E+01  0.14345410062E+01  0.16981153997E+03  0.17007355285E+03  0.00000000000E+00 0.  1.
         14    1    4    4    0    0  0.76349969172E+01  0.23792720780E+02  0.74480436655E+01  0.26074126917E+02  0.00000000000E+00 0. -1.
         -5    1    5    5    0  502 -0.35715994178E+02 -0.24871731652E+02 -0.34169491339E+01  0.43909006102E+02  0.47000000000E+01 0.  1.
         13    1    6    6    0    0  0.70951357720E+02 -0.31648689698E+02  0.54677482280E+02  0.95001904141E+02  0.00000000000E+00 0. -1.
        -14    1    6    6    0    0  0.15407859946E+02  0.82326136322E+01  0.10169809156E+03  0.10318759568E+03  0.00000000000E+00 0.  1.
</event>
<event>
12    1  0.9962621E-001  0.3140495E+03  0.7818608E-02  0.1078421E+00
         21   -1    0    0  501  502  0.00000000000E+00  0.00000000000E+00  0.21208159818E+03  0.21208159818E+03  0.00000000000E+00 0.  1.
         21   -1    0    0  502  503 -0.00000000000E+00 -0.00000000000E+00 -0.47559189082E+03  0.47559189082E+03  0.00000000000E+00 0.  1.
         -6    2    1    2    0  503 -0.13905294585E+03 -0.22274707083E+03 -0.80532847349E+02  0.32420709831E+03  0.17225772488E+03 0.  0.
        -24    2    3    3    0    0 -0.63827932261E+02 -0.98816656213E+02 -0.10016185159E+03  0.17783449792E+03  0.88056661627E+02 0.  0.
          6    2    1    2  501    0  0.13905294585E+03  0.22274707083E+03 -0.18297744529E+03  0.36346639069E+03  0.17226459985E+03 0.  0.
         24    2    5    5    0    0  0.93284426616E+02  0.82104596461E+02 -0.15216015367E+03  0.21231461792E+03  0.80508605788E+02 0.  0.
          5    1    5    5  501    0  0.45768519229E+02  0.14064247437E+03 -0.30817291615E+02  0.15115177277E+03  0.47000000000E+01 0. -1.
        -11    1    6    6    0    0 -0.38459547556E+01 -0.12128845297E+02 -0.13966528815E+02  0.18893495795E+02  0.00000000000E+00 0.  1.
         12    1    6    6    0    0  0.97130381372E+02  0.94233441758E+02 -0.13819362486E+03  0.19342112212E+03  0.00000000000E+00 0. -1.
         -5    1    3    3    0  503 -0.75225013584E+02 -0.12393041462E+03  0.19629004239E+02  0.14637260038E+03  0.47000000000E+01 0.  1.
         11    1    4    4    0    0 -0.79884394245E+02 -0.82543815298E+02 -0.55308489268E+02  0.12749128156E+03  0.00000000000E+00 0. -1.
        -12    1    4    4    0    0  0.16056461985E+02 -0.16272840916E+02 -0.44853362320E+02  0.50343216368E+02  0.00000000000E+00 0.  1.
</event>
<event>
12    1  0.9962621E-001  0.4108193E+03  0.7818608E-02  0.1040157E+00
         21   -1    0    0  503  502  0.00000000000E+00  0.00000000000E+00  0.15671251524E+04  0.15671251524E+04  0.00000000000E+00 0. -1.
         21   -1    0    0  501  503 -0.00000000000E+00 -0.00000000000E+00 -0.10777353709E+03  0.10777353709E+03  0.00000000000E+00 0. -1.
          6    2    1    2  501    0  0.11385003860E+03  0.35498889026E+03  0.68721336750E+03  0.80027308911E+03  0.17086796419E+03 0.  0.
         24    2    3    3    0    0  0.96310142650E+02  0.33194071973E+03  0.68432841300E+03  0.77078955002E+03  0.79692337075E+02 0.  0.
         -6    2    1    2    0  502 -0.11385003860E+03 -0.35498889026E+03  0.77213824783E+03  0.87462560041E+03  0.17260800571E+03 0.  0.
        -24    2    5    5    0    0  0.20206767841E+01 -0.10583516714E+03  0.29833702446E+03  0.32689091126E+03  0.81532336928E+02 0.  0.
          5    1    3    3  501    0  0.17539895947E+02  0.23048170525E+02  0.28849544933E+01  0.29483539082E+02  0.47000000000E+01 0. -1.
        -11    1    4    4    0    0  0.59635829599E+02  0.15139292501E+03  0.24189083387E+03  0.29152602873E+03  0.00000000000E+00 0.  1.
         12    1    4    4    0    0  0.36674313051E+02  0.18054779472E+03  0.44243757913E+03  0.47926352129E+03  0.00000000000E+00 0. -1.
         -5    1    5    5    0  502 -0.11587071538E+03 -0.24915372312E+03  0.47380122337E+03  0.54773468915E+03  0.47000000000E+01 0.  1.
         13    1    6    6    0    0  0.65469341001E+00 -0.37096669384E+02  0.24278138425E+02  0.44339818541E+02  0.00000000000E+00 0. -1.
        -14    1    6    6    0    0  0.13659833741E+01 -0.68738497754E+02  0.27405888604E+03  0.28255109272E+03  0.00000000000E+00 0.  1.
</event>
<event>
12    1  0.1099112E+000  0.2234900E+03  0.7818608E-02  0.1132769E+00
         21   -1    0    0  503  502  0.00000000000E+00  0.00000000000E+00  0.33411545358E+03  0.33411545358E+03  0.00000000000E+00 0.  1.
         21   -1    0    0  501  503 -0.00000000000E+00 -0.00000000000E+00 -0.12974681838E+04  0.12974681838E+04  0.00000000000E+00 0.  1.
          6    2    1    2  501    0  0.11300678162E+03  0.61676414990E+02  0.28836172835E+03  0.36007396202E+03  0.17299207752E+03 0.  0.
         24    2    3    3    0    0  0.29536860378E+02 -0.24533554505E+02  0.83344663301E+02  0.12247456481E+03  0.81113283167E+02 0.  0.
         -6    2    1    2    0  502 -0.11300678162E+03 -0.61676414990E+02 -0.12517144585E+04  0.12715096753E+04  0.18268348550E+03 0.  0.
        -24    2    5    5    0    0 -0.33353472633E+02 -0.89806076885E+02 -0.53580890480E+03  0.55062218106E+03  0.83162601173E+02 0.  0.
          5    1    3    3  501    0  0.83469921239E+02  0.86209969495E+02  0.20501706505E+03  0.23759939721E+03  0.47000000000E+01 0. -1.
        -13    1    4    4    0    0  0.51506975312E+02 -0.26254240635E+02  0.30820338502E+02  0.65514478724E+02  0.00000000000E+00 0.  1.
         14    1    4    4    0    0 -0.21970114934E+02  0.17206861301E+01  0.52524324798E+02  0.56960086082E+02  0.00000000000E+00 0. -1.
         -5    1    5    5    0  502 -0.79653308985E+02  0.28129661895E+02 -0.71590555375E+03  0.72088749427E+03  0.47000000000E+01 0.  1.
         13    1    6    6    0    0 -0.51672974475E+02 -0.92423077317E+02 -0.40967247487E+03  0.42313550806E+03  0.00000000000E+00 0. -1.
        -14    1    6    6    0    0  0.18319501842E+02  0.26170004321E+01 -0.12613642992E+03  0.12748667300E+03  0.00000000000E+00 0.  1.
</event>
<event>
12    1  0.9962621E-001  0.2146690E+03  0.7818608E-02  0.1137972E+00
         21   -1    0    0  503  502  0.00000000000E+00  0.00000000000E+00  0.22966993255E+03  0.22966993255E+03  0.00000000000E+00 0. -1.
         21   -1    0    0  501  503 -0.00000000000E+00 -0.00000000000E+00 -0.20566343650E+03  0.20566343650E+03  0.00000000000E+00 0. -1.
          6    2    1    2  501    0 -0.99482154403E+02  0.81487467867E+02 -0.22829342022E+02  0.21561454361E+03  0.17155624761E+03 0.  0.
         24    2    3    3    0    0 -0.11815314288E+03  0.10987242573E+03 -0.28789442544E+02  0.18080183843E+03  0.76343681279E+02 0.  0.
         -6    2    1    2    0  502  0.99482154403E+02 -0.81487467867E+02  0.46835838070E+02  0.21971882545E+03  0.17188909234E+03 0.  0.
        -24    2    5    5    0    0  0.26764283063E+02  0.53310362542E+01  0.63698330973E+02  0.10512486777E+03  0.79050703090E+02 0.  0.
          5    1    3    3  501    0  0.18670988478E+02 -0.28384957858E+02  0.59601005216E+01  0.34812705175E+02  0.47000000000E+01 0. -1.
        -13    1    4    4    0    0 -0.81784385269E+02  0.59902144709E+02  0.18413500350E+02  0.10303402161E+03  0.00000000000E+00 0.  1.
         14    1    4    4    0    0 -0.36368757613E+02  0.49970281016E+02 -0.47202942894E+02  0.77767816821E+02  0.00000000000E+00 0. -1.
         -5    1    5    5    0  502  0.72717871340E+02 -0.86818504121E+02 -0.16862492903E+02  0.11459395768E+03  0.47000000000E+01 0.  1.
         11    1    6    6    0    0  0.54200924835E+02  0.11071163692E+02  0.46255096499E+02  0.72109949873E+02  0.00000000000E+00 0. -1.
        -12    1    6    6    0    0 -0.27436641772E+02 -0.57401274380E+01  0.17443234473E+02  0.33014917895E+02  0.00000000000E+00 0.  1.
</event>
<event>
12    1  0.9962621E-001  0.1862064E+03  0.7818608E-02  0.1162755E+00
         21   -1    0    0  503  502  0.00000000000E+00  0.00000000000E+00  0.36345156765E+03  0.36345156765E+03  0.00000000000E+00 0. -1.
         21   -1    0    0  501  503 -0.00000000000E+00 -0.00000000000E+00 -0.12945736994E+03  0.12945736994E+03  0.00000000000E+00 0. -1.
          6    2    1    2  501    0  0.39952019002E+02 -0.49447497806E+02  0.24589493885E+03  0.30632266827E+03  0.17125430589E+03 0.  0.
         24    2    3    3    0    0  0.74422182951E+02 -0.82543432994E+02  0.17662886032E+03  0.22204092195E+03  0.75844163102E+02 0.  0.
         -6    2    1    2    0  502 -0.39952019002E+02  0.49447497806E+02 -0.11900741145E+02  0.18658626931E+03  0.17501882583E+03 0.  0.
        -24    2    5    5    0    0 -0.13285991879E+02 -0.90307428985E+01  0.51762740402E+02  0.95999788419E+02  0.79237025342E+02 0.  0.
          5    1    3    3  501    0 -0.34470163949E+02  0.33095935188E+02  0.69266078527E+02  0.84281746323E+02  0.47000000000E+01 0. -1.
        -11    1    4    4    0    0  0.17165099292E+02 -0.25757876112E+02  0.11890868141E+03  0.12287140974E+03  0.00000000000E+00 0.  1.
         12    1    4    4    0    0  0.57257083659E+02 -0.56785556881E+02  0.57720178909E+02  0.99169512214E+02  0.00000000000E+00 0. -1.
         -5    1    5    5    0  502 -0.26666027123E+02  0.58478240704E+02 -0.63663481547E+02  0.90586480896E+02  0.47000000000E+01 0.  1.
         11    1    6    6    0    0 -0.33262103249E+02 -0.32768144982E+02  0.17720512833E+02  0.49941319697E+02  0.00000000000E+00 0. -1.
        -12    1    6    6    0    0  0.19976111370E+02  0.23737402083E+02  0.34042227569E+02  0.46058468722E+02  0.00000000000E+00 0.  1.
</event>
<event>
12    1  0.9962621E-001  0.8281400E+03  0.7818608E-02  0.9520307E-01
         21   -1    0    0  501  502  0.00000000000E+00  0.00000000000E+00  0.15523327395E+04  0.15523327395E+04  0.00000000000E+00 0. -1.
         21   -1    0    0  502  503 -0.00000000000E+00 -0.00000000000E+00 -0.47899707514E+03  0.47899707514E+03  0.00000000000E+00 0. -1.
         -6    2    1    2    0  503  0.21633425616E+03  0.78054996466E+03  0.25260977904E+03  0.86539375564E+03  0.17039921983E+03 0.  0.
        -24    2    3    3    0    0  0.20188373778E+03  0.78275172562E+03  0.24510937965E+03  0.84830541974E+03  0.78013906574E+02 0.  0.
          6    2    1    2  501    0 -0.21633425616E+03 -0.78054996466E+03  0.82072588528E+03  0.11659360590E+04  0.17250262932E+03 0.  0.
         24    2    5    5    0    0 -0.18209197707E+03 -0.68471491391E+03  0.63807890358E+03  0.95679758677E+03  0.79529449966E+02 0.  0.
          5    1    5    5  501    0 -0.34242279084E+02 -0.95835050743E+02  0.18264698170E+03  0.20913847220E+03  0.47000000000E+01 0. -1.
        -13    1    6    6    0    0 -0.50816667565E+02 -0.84868134045E+02  0.89138566113E+02  0.13315636615E+03  0.00000000000E+00 0.  1.
         14    1    6    6    0    0 -0.13127530951E+03 -0.59984677987E+03  0.54894033746E+03  0.82364122062E+03  0.00000000000E+00 0. -1.
         -5    1    3    3    0  503  0.14450518381E+02 -0.22017609679E+01  0.75003993849E+01  0.17088335898E+02  0.47000000000E+01 0. -1.
         13    1    4    4    0    0  0.81459472863E+01  0.87223528925E+02  0.47930892795E+02  0.99858254238E+02  0.00000000000E+00 0. -1.
        -14    1    4    4    0    0  0.19373779049E+03  0.69552819670E+03  0.19717848686E+03  0.74844716550E+03  0.00000000000E+00 0.  1.
</event>
<event>
12    1  0.9962621E-001  0.2019843E+03  0.7818608E-02  0.1148567E+00
         21   -1    0    0  501  502  0.00000000000E+00  0.00000000000E+00  0.73821168977E+02  0.73821168977E+02  0.00000000000E+00 0. -1.
         21   -1    0    0  502  503 -0.00000000000E+00 -0.00000000000E+00 -0.59976781155E+03  0.59976781155E+03  0.00000000000E+00 0. -1.
         -6    2    1    2    0  503  0.79209223465E+02 -0.68153420454E+02 -0.36217519919E+03  0.41355293314E+03  0.17010633088E+03 0.  0.
        -24    2    3    3    0    0  0.54187972240E+02 -0.12024250467E+02 -0.79095287074E+02  0.12384122579E+03  0.77457509854E+02 0.  0.
          6    2    1    2  501    0 -0.79209223465E+02  0.68153420454E+02 -0.16377144339E+03  0.26003604739E+03  0.17285447773E+03 0.  0.
         24    2    5    5    0    0  0.17246921160E+02  0.16163607916E+02 -0.11642432051E+03  0.14057656267E+03  0.75156031400E+02 0.  0.
          5    1    5    5  501    0 -0.96456144624E+02  0.51989812538E+02 -0.47347122876E+02  0.11945948471E+03  0.47000000000E+01 0. -1.
        -11    1    6    6    0    0  0.21725169424E+02 -0.22597239742E+02 -0.84615119227E+02  0.90234896976E+02  0.00000000000E+00 0.  1.
         12    1    6    6    0    0 -0.44782482648E+01  0.38760847658E+02 -0.31809201286E+02  0.50341665697E+02  0.00000000000E+00 0. -1.
         -5    1    3    3    0  503  0.25021251224E+02 -0.56129169986E+02 -0.28307991211E+03  0.28971170735E+03  0.47000000000E+01 0.  1.
         11    1    4    4    0    0  0.17733291798E+02  0.15713391038E+02 -0.74060185143E+02  0.77757901973E+02  0.00000000000E+00 0. -1.
        -12    1    4    4    0    0  0.36454680443E+02 -0.27737641505E+02 -0.50351019310E+01  0.46083323816E+02  0.00000000000E+00 0.  1.
</event>
<event>
12    1  0.9962621E-001  0.1882456E+03  0.7818608E-02  0.1161040E+00
         21   -1    0    0  501  502  0.00000000000E+00  0.00000000000E+00  0.36998941659E+02  0.36998941659E+02  0.00000000000E+00 0. -1.
         21   -1    0    0  502  503 -0.00000000000E+00 -0.00000000000E+00 -0.11948492950E+04  0.11948492950E+04  0.00000000000E+00 0. -1.
         -6    2    1    2    0  503 -0.65157425226E+02 -0.37646964467E+02 -0.28715419256E+03  0.34103501297E+03  0.16788259520E+03 0.  0.
        -24    2    3    3    0    0 -0.10448177069E+03 -0.32363212200E+02 -0.25680905959E+03  0.29086291635E+03  0.81771175302E+02 0.  0.
          6    2    1    2  501    0  0.65157425226E+02  0.37646964467E+02 -0.87069616075E+03  0.89081322366E+03  0.17255031471E+03 0.  0.
         24    2    5    5    0    0  0.15481683665E+01  0.60218319769E+02 -0.70149897317E+03  0.70858978410E+03  0.79812467183E+02 0.  0.
          5    1    5    5  501    0  0.63609256859E+02 -0.22571355302E+02 -0.16919718758E+03  0.18222343956E+03  0.47000000000E+01 0. -1.
        -13    1    6    6    0    0  0.31986252292E+02  0.47610111435E+02 -0.28053175895E+03  0.28633531187E+03  0.00000000000E+00 0.  1.
         14    1    6    6    0    0 -0.30438083926E+02  0.12608208334E+02 -0.42096721422E+03  0.42225447223E+03  0.00000000000E+00 0. -1.
         -5    1    3    3    0  503  0.39324345463E+02 -0.52837522671E+01 -0.30345132975E+02  0.50172096621E+02  0.47000000000E+01 0.  1.
         11    1    4    4    0    0 -0.18713378159E+02 -0.16786348362E+02 -0.15415038228E+03  0.15618678679E+03  0.00000000000E+00 0. -1.
        -12    1    4    4    0    0 -0.85768392530E+02 -0.15576863839E+02 -0.10265867731E+03  0.13467612956E+03  0.00000000000E+00 0.  1.
</event>
<event>
12    1  0.9962621E-001  0.1751379E+03  0.7818608E-02  0.1172653E+00
         21   -1    0    0  501  502  0.00000000000E+00  0.00000000000E+00  0.20439017154E+03  0.20439017154E+03  0.00000000000E+00 0.  1.
         21   -1    0    0  502  503 -0.00000000000E+00 -0.00000000000E+00 -0.15018135930E+03  0.15018135930E+03  0.00000000000E+00 0.  1.
         -6    2    1    2    0  503 -0.37868891673E+02 -0.31237868577E+01  0.35225120700E+02  0.17864516857E+03  0.17096630114E+03 0.  0.
        -24    2    3    3    0    0 -0.73653806278E+02 -0.13857897424E+02 -0.20735416930E+02  0.11119553540E+03  0.79483111905E+02 0.  0.
          6    2    1    2  501    0  0.37868891673E+02  0.31237868577E+01  0.18983691539E+02  0.17592636226E+03  0.17072168401E+03 0.  0.
         24    2    5    5    0    0  0.71902209366E+02  0.21830579603E+02  0.54766506439E+02  0.12291022651E+03  0.80380667044E+02 0.  0.
          5    1    5    5  501    0 -0.34033317693E+02 -0.18706792746E+02 -0.35782814900E+02  0.53016135753E+02  0.47000000000E+01 0. -1.
        -13    1    6    6    0    0  0.66948345972E+02  0.13262402731E+02  0.10168069355E+01  0.68256913576E+02  0.00000000000E+00 0.  1.
         14    1    6    6    0    0  0.49538633944E+01  0.85681768724E+01  0.53749699504E+02  0.54653312930E+02  0.00000000000E+00 0. -1.
         -5    1    3    3    0  503  0.35784914605E+02  0.10734110566E+02  0.55960537630E+02  0.67449633170E+02  0.47000000000E+01 0.  1.
         11    1    4    4    0    0 -0.66469987103E+01  0.25555613410E+02 -0.20544062401E+02  0.33456396527E+02  0.00000000000E+00 0. -1.
        -12    1    4    4    0    0 -0.67006807568E+02 -0.39413510834E+02 -0.19135452923E+00  0.77739138877E+02  0.00000000000E+00 0.  1.
</event>
<event>
12    1  0.9962621E-001  0.1761796E+03  0.7818608E-02  0.1172036E+00
         21   -1    0    0  501  502  0.00000000000E+00  0.00000000000E+00  0.12807946527E+03  0.12807946527E+03  0.00000000000E+00 0.  1.
         21   -1    0    0  502  503 -0.00000000000E+00 -0.00000000000E+00 -0.38339404166E+03  0.38339404166E+03  0.00000000000E+00 0.  1.
         -6    2    1    2    0  503 -0.13538579673E+02  0.30414143016E+02 -0.28466209763E+03  0.33477118202E+03  0.17300555266E+03 0.  0.
        -24    2    3    3    0    0 -0.64110205700E+02  0.41408549399E+02 -0.24863542232E+03  0.27153845581E+03  0.78030592147E+02 0.  0.
          6    2    1    2  501    0  0.13538579673E+02 -0.30414143016E+02  0.29347521231E+02  0.17670232491E+03  0.17103836233E+03 0.  0.
         24    2    5    5    0    0  0.58417463316E+02  0.26809354173E+02  0.24231719916E+02  0.10364820626E+03  0.77617220512E+02 0.  0.
          5    1    5    5  501    0 -0.44878883643E+02 -0.57223497189E+02  0.51158013151E+01  0.73054118643E+02  0.47000000000E+01 0. -1.
        -13    1    6    6    0    0  0.25749755968E+01 -0.22053239200E+02 -0.67965908321E+01  0.23220023804E+02  0.00000000000E+00 0.  1.
         14    1    6    6    0    0  0.55842487719E+02  0.48862593373E+02  0.31028310748E+02  0.80428182459E+02  0.00000000000E+00 0. -1.
         -5    1    3    3    0  503  0.50571626027E+02 -0.10994406383E+02 -0.36026675300E+02  0.63232726210E+02  0.47000000000E+01 0.  1.
         13    1    4    4    0    0 -0.42871687912E+02  0.24565966228E+02 -0.47349793894E+02  0.68435891921E+02  0.00000000000E+00 0. -1.
        -14    1    4    4    0    0 -0.21238517788E+02  0.16842583171E+02 -0.20128562843E+03  0.20310256389E+03  0.00000000000E+00 0.  1.
</event>
<event>
12    1  0.9962621E-001  0.2152030E+03  0.7818608E-02  0.1137569E+00
         21   -1    0    0  503  502  0.00000000000E+00  0.00000000000E+00  0.15055680201E+04  0.15055680201E+04  0.00000000000E+00 0.  1.
         21   -1    0    0  501  503 -0.00000000000E+00 -0.00000000000E+00 -0.41045451475E+02  0.41045451475E+02  0.00000000000E+00 0.  1.
          6    2    1    2  501    0 -0.32059838562E+02 -0.12494652564E+03  0.11197852862E+04  0.11402194130E+04  0.17187715121E+03 0.  0.
         24    2    3    3    0    0 -0.30596639261E+02 -0.39424079781E+02  0.88997767750E+03  0.89496473576E+03  0.80069965699E+02 0.  0.
         -6    2    1    2    0  502  0.32059838562E+02  0.12494652564E+03  0.34473728248E+03  0.40639405861E+03  0.17225814764E+03 0.  0.
        -24    2    5    5    0    0  0.72258452197E+02  0.11563742977E+03  0.17843777322E+03  0.23498751095E+03  0.69179421144E+02 0.  0.
          5    1    3    3  501    0 -0.14631993005E+01 -0.85522445857E+02  0.22980760866E+03  0.24525467721E+03  0.47000000000E+01 0. -1.
        -13    1    4    4    0    0 -0.27521868871E+02 -0.14516713031E+02  0.10324549659E+03  0.10783237357E+03  0.00000000000E+00 0.  1.
         14    1    4    4    0    0 -0.30747703905E+01 -0.24907366750E+02  0.78673218091E+03  0.78713236219E+03  0.00000000000E+00 0. -1.
         -5    1    5    5    0  502 -0.40198613635E+02  0.93090958662E+01  0.16629950926E+03  0.17140654767E+03  0.47000000000E+01 0.  1.
         13    1    6    6    0    0 -0.74435371752E+01  0.30789946228E+02  0.65682141277E+02  0.72921675221E+02  0.00000000000E+00 0. -1.
        -14    1    6    6    0    0  0.79701989372E+02  0.84847483545E+02  0.11275563194E+03  0.16206583572E+03  0.00000000000E+00 0.  1.
</event>
<event>
12    1  0.9962621E-001  0.1895986E+03  0.7818608E-02  0.1161272E+00
         21   -1    0    0  503  502  0.00000000000E+00  0.00000000000E+00  0.34043011236E+02  0.34043011236E+02  0.00000000000E+00 0.  1.
         21   -1    0    0  501  503 -0.00000000000E+00 -0.00000000000E+00 -0.11179638309E+04  0.11179638309E+04  0.00000000000E+00 0.  1.
          6    2    1    2  501    0 -0.99480967685E+01  0.52643832663E+02 -0.71657571857E+03  0.73861835533E+03  0.17089756184E+03 0.  0.
         24    2    3    3    0    0 -0.11940522362E+02  0.48723462891E+02 -0.72330395807E+03  0.72930716498E+03  0.78764035058E+02 0.  0.
         -6    2    1    2    0  502  0.99480967685E+01 -0.52643832663E+02 -0.36734510109E+03  0.41338848680E+03  0.18187160300E+03 0.  0.
        -24    2    5    5    0    0  0.91459387875E+01 -0.86745110801E+02 -0.35904963766E+03  0.37797033691E+03  0.79602580585E+02 0.  0.
          5    1    3    3  501    0  0.19924255935E+01  0.39203697719E+01  0.67282395049E+01  0.93111903497E+01  0.47000000000E+01 0. -1.
        -13    1    4    4    0    0 -0.39545291501E+02  0.13884143015E+02 -0.21389279931E+03  0.21796038426E+03  0.00000000000E+00 0.  1.
         14    1    4    4    0    0  0.27604769139E+02  0.34839319876E+02 -0.50941115876E+03  0.51134678072E+03  0.00000000000E+00 0. -1.
         -5    1    5    5    0  502  0.80215798092E+00  0.34101278138E+02 -0.82954634298E+01  0.35418149889E+02  0.47000000000E+01 0.  1.
         13    1    6    6    0    0  0.39937465731E+02 -0.21330952245E+02 -0.12149806004E+03  0.12966028415E+03  0.00000000000E+00 0. -1.
        -14    1    6    6    0    0 -0.30791526944E+02 -0.65414158556E+02 -0.23755157762E+03  0.24831005276E+03  0.00000000000E+00 0.  1.
</event>
<event>
12    1  0.9962621E-001  0.2261493E+03  0.7818608E-02  0.1129498E+00
         21   -1    0    0  503  502  0.00000000000E+00  0.00000000000E+00  0.16188153221E+03  0.16188153221E+03  0.00000000000E+00 0. -1.
         21   -1    0    0  501  503 -0.00000000000E+00 -0.00000000000E+00 -0.31787171745E+03  0.31787171745E+03  0.00000000000E+00 0. -1.
          6    2    1    2  501    0  0.14282417367E+03 -0.30566568800E+02 -0.55159406882E+02  0.23214398650E+03  0.17179991440E+03 0.  0.
         24    2    3    3    0    0  0.10148935713E+03  0.24162385174E+02 -0.85343858522E+02  0.15706391869E+03  0.80632437010E+02 0.  0.
         -6    2    1    2    0  502 -0.14282417367E+03  0.30566568800E+02 -0.10083077837E+03  0.24760926316E+03  0.17265700572E+03 0.  0.
        -24    2    5    5    0    0 -0.12155004700E+03  0.77615738262E+02 -0.46368639620E+02  0.17241333661E+03  0.82326734122E+02 0.  0.
          5    1    3    3  501    0  0.41334816539E+02 -0.54728953973E+02  0.30184451641E+02  0.75080067809E+02  0.47000000000E+01 0. -1.
        -11    1    4    4    0    0 -0.63791756678E+01  0.14009253850E+02 -0.33680340649E+02  0.37031316772E+02  0.00000000000E+00 0.  1.
         12    1    4    4    0    0  0.10786853280E+03  0.10153131324E+02 -0.51663517873E+02  0.12003260192E+03  0.00000000000E+00 0. -1.
         -5    1    5    5    0  502 -0.21274126673E+02 -0.47049169462E+02 -0.54462138745E+02  0.75195926549E+02  0.47000000000E+01 0.  1.
         13    1    6    6    0    0 -0.11902693098E+03  0.61329712165E+02 -0.63889397020E+02  0.14835969447E+03  0.00000000000E+00 0. -1.
        -14    1    6    6    0    0 -0.25231160196E+01  0.16286026097E+02  0.17520757399E+02  0.24053642142E+02  0.00000000000E+00 0.  1.
</event>
<event>
12    1  0.9962621E-001  0.2512157E+03  0.7818608E-02  0.1113391E+00
         21   -1    0    0  503  502  0.00000000000E+00  0.00000000000E+00  0.99668639680E+02  0.99668639680E+02  0.00000000000E+00 0.  1.
         21   -1    0    0  501  503 -0.00000000000E+00 -0.00000000000E+00 -0.66177040954E+03  0.66177040954E+03  0.00000000000E+00 0.  1.
          6    2    1    2  501    0  0.28179786189E+01  0.17775431496E+03 -0.18794630313E+03  0.31374054548E+03  0.17749585778E+03 0.  0.
         24    2    3    3    0    0  0.53875430252E+02  0.59249458547E+02 -0.46058664546E+02  0.12189566975E+03  0.79524168663E+02 0.  0.
         -6    2    1    2    0  502 -0.28179786189E+01 -0.17775431496E+03 -0.37415546673E+03  0.44769850374E+03  0.16981489769E+03 0.  0.
        -24    2    5    5    0    0 -0.58153522952E+02 -0.15453187708E+03 -0.25563154305E+03  0.31476500693E+03  0.80421331283E+02 0.  0.
          5    1    3    3  501    0 -0.51057451633E+02  0.11850485641E+03 -0.14188763859E+03  0.19184487573E+03  0.47000000000E+01 0. -1.
        -11    1    4    4    0    0  0.33886889771E+02 -0.13892182196E+02 -0.10184681374E+02  0.38013704887E+02  0.00000000000E+00 0.  1.
         12    1    4    4    0    0  0.19988540481E+02  0.73141640742E+02 -0.35873983171E+02  0.83881964865E+02  0.00000000000E+00 0. -1.
         -5    1    5    5    0  502  0.55335544333E+02 -0.23222437881E+02 -0.11852392369E+03  0.13293349681E+03  0.47000000000E+01 0.  1.
         13    1    6    6    0    0 -0.48063803659E+02 -0.15836946229E+03 -0.25493780192E+03  0.30394785516E+03  0.00000000000E+00 0. -1.
        -14    1    6    6    0    0 -0.10089719293E+02  0.38375852151E+01 -0.69374112329E+00  0.10817151771E+02  0.00000000000E+00 0.  1.
</event>
<event>
12    1  0.9962621E-001  0.2874043E+03  0.7818608E-02  0.1091978E+00
         21   -1    0    0  503  502  0.00000000000E+00  0.00000000000E+00  0.14768791639E+03  0.14768791639E+03  0.00000000000E+00 0. -1.
         21   -1    0    0  501  503 -0.00000000000E+00 -0.00000000000E+00 -0.57719537039E+03  0.57719537039E+03  0.00000000000E+00 0. -1.
          6    2    1    2  501    0  0.17352153913E+03  0.14750730327E+03 -0.14359587917E+03  0.31948637515E+03  0.17199894864E+03 0.  0.
         24    2    3    3    0    0  0.19328745392E+03  0.14347532002E+03 -0.10219718335E+03  0.27319501211E+03  0.79031911673E+02 0.  0.
         -6    2    1    2    0  502 -0.17352153913E+03 -0.14750730327E+03 -0.28591157483E+03  0.40539691162E+03  0.17530858014E+03 0.  0.
        -24    2    5    5    0    0 -0.40405891891E+02 -0.12411926132E+03 -0.15277439330E+03  0.21562237394E+03  0.78196967744E+02 0.  0.
          5    1    3    3  501    0 -0.19765914786E+02  0.40319832482E+01 -0.41398695826E+02  0.46291363043E+02  0.47000000000E+01 0. -1.
        -11    1    4    4    0    0  0.15352125962E+03  0.67831840863E+02 -0.70558435369E+02  0.18206709915E+03  0.00000000000E+00 0.  1.
         12    1    4    4    0    0  0.39766194298E+02  0.75643479158E+02 -0.31638747977E+02  0.91127912967E+02  0.00000000000E+00 0. -1.
         -5    1    5    5    0  502 -0.13311564724E+03 -0.23388041946E+02 -0.13313718153E+03  0.18977453768E+03  0.47000000000E+01 0.  1.
         11    1    6    6    0    0  0.36914850670E+01  0.99976272963E+01 -0.73916651488E+01  0.12969823716E+02  0.00000000000E+00 0. -1.
        -12    1    6    6    0    0 -0.44097376958E+02 -0.13411688862E+03 -0.14538272815E+03  0.20265255022E+03  0.00000000000E+00 0.  1.
</event>
<event>
12    1  0.9962621E-001  0.1935705E+03  0.7818608E-02  0.1155547E+00
         21   -1    0    0  503  502  0.00000000000E+00  0.00000000000E+00  0.52228281727E+03  0.52228281727E+03  0.00000000000E+00 0. -1.
         21   -1    0    0  501  503 -0.00000000000E+00 -0.00000000000E+00 -0.79728263839E+02  0.79728263839E+02  0.00000000000E+00 0. -1.
          6    2    1    2  501    0  0.73694909952E+02  0.44833760615E+02  0.12276135122E+03  0.22819663387E+03  0.17193704811E+03 0.  0.
         24    2    3    3    0    0  0.80034094497E+02 -0.38692367838E+01  0.19651505955E+02  0.11389047740E+03  0.78513896103E+02 0.  0.
         -6    2    1    2    0  502 -0.73694909952E+02 -0.44833760615E+02  0.31979320221E+03  0.37381444724E+03  0.17328745754E+03 0.  0.
        -24    2    5    5    0    0  0.26364019828E+02  0.64449055818E+00  0.12371587521E+03  0.14898458062E+03  0.78710295228E+02 0.  0.
          5    1    3    3  501    0 -0.63391845444E+01  0.48702997399E+02  0.10310984526E+03  0.11430615646E+03  0.47000000000E+01 0. -1.
        -11    1    4    4    0    0  0.41022562435E+02  0.21663802928E+02 -0.22024981553E+02  0.51354364940E+02  0.00000000000E+00 0.  1.
         12    1    4    4    0    0  0.39011532062E+02 -0.25533039712E+02  0.41676487508E+02  0.62536112461E+02  0.00000000000E+00 0. -1.
         -5    1    5    5    0  502 -0.10005892978E+03 -0.45478251173E+02  0.19607732700E+03  0.22482986662E+03  0.47000000000E+01 0.  1.
         11    1    6    6    0    0  0.13607941955E+02  0.29715084353E+02  0.15431740743E+02  0.36142785514E+02  0.00000000000E+00 0. -1.
        -12    1    6    6    0    0  0.12756077874E+02 -0.29070593794E+02  0.10828413447E+03  0.11284179511E+03  0.00000000000E+00 0.  1.
</event>
<event>
12    1  0.9962621E-001  0.2461785E+03  0.7818608E-02  0.1115801E+00
         21   -1    0    0  501  502  0.00000000000E+00  0.00000000000E+00  0.96094586090E+02  0.96094586090E+02  0.00000000000E+00 0. -1.
         21   -1    0    0  502  503 -0.00000000000E+00 -0.00000000000E+00 -0.64241113644E+03  0.64241113644E+03  0.00000000000E+00 0. -1.
         -6    2    1    2    0  503 -0.98164033168E+02 -0.14631922147E+03 -0.32517678348E+03  0.40785269275E+03  0.17192552600E+03 0.  0.
        -24    2    3    3    0    0 -0.83639811052E+02 -0.12654059232E+03 -0.33872531105E+03  0.37943087369E+03  0.78897478186E+02 0.  0.
          6    2    1    2  501    0  0.98164033168E+02  0.14631922147E+03 -0.22113976687E+03  0.33065302978E+03  0.17141510327E+03 0.  0.
         24    2    5    5    0    0  0.11835517784E+03  0.16526378505E+03 -0.19644002425E+03  0.29325321563E+03  0.78030113296E+02 0.  0.
          5    1    5    5  501    0 -0.20191144674E+02 -0.18944563579E+02 -0.24699742618E+02  0.37399814142E+02  0.47000000000E+01 0. -1.
        -11    1    6    6    0    0  0.11374323808E+03  0.11379292193E+03 -0.17378544077E+03  0.23682848797E+03  0.00000000000E+00 0.  1.
         12    1    6    6    0    0  0.46119397593E+01  0.51470863126E+02 -0.22654583474E+02  0.56424727661E+02  0.00000000000E+00 0. -1.
         -5    1    3    3    0  503 -0.14524222116E+02 -0.19778629151E+02  0.13548527574E+02  0.28421819058E+02  0.47000000000E+01 0.  1.
         13    1    4    4    0    0 -0.47009158157E+02 -0.26094708755E+02 -0.18150442670E+03  0.18930042707E+03  0.00000000000E+00 0. -1.
        -14    1    4    4    0    0 -0.36630652895E+02 -0.10044588357E+03 -0.15722088435E+03  0.19013044662E+03  0.00000000000E+00 0.  1.
</event>
<event>
12    1  0.9962621E-001  0.2085132E+03  0.7818608E-02  0.1143359E+00
         21   -1    0    0  503  502  0.00000000000E+00  0.00000000000E+00  0.75471632057E+02  0.75471632057E+02  0.00000000000E+00 0. -1.
         21   -1    0    0  501  503 -0.00000000000E+00 -0.00000000000E+00 -0.18081439337E+04  0.18081439337E+04  0.00000000000E+00 0. -1.
          6    2    1    2  501    0  0.41045640197E+02  0.10944332956E+03 -0.88274383452E+02  0.22642902740E+03  0.17267064230E+03 0.  0.
         24    2    3    3    0    0  0.87123317856E+02  0.39047450735E+02 -0.70950553722E+02  0.14040032748E+03  0.74586157964E+02 0.  0.
         -6    2    1    2    0  502 -0.41045640197E+02 -0.10944332956E+03 -0.16443979182E+04  0.16571865384E+04  0.16899740411E+03 0.  0.
        -24    2    5    5    0    0 -0.29679037019E+02 -0.14303804911E+01 -0.10117401558E+04  0.10152566893E+04  0.79026014861E+02 0.  0.
          5    1    3    3  501    0 -0.46077677659E+02  0.70395878822E+02 -0.17323829730E+02  0.86028699921E+02  0.47000000000E+01 0. -1.
        -13    1    4    4    0    0  0.71510849201E+02  0.37898890191E+02 -0.15013027692E+02  0.82313537353E+02  0.00000000000E+00 0.  1.
         14    1    4    4    0    0  0.15612468656E+02  0.11485605436E+01 -0.55937526030E+02  0.58086790127E+02  0.00000000000E+00 0. -1.
         -5    1    5    5    0  502 -0.11366603179E+02 -0.10801294907E+03 -0.63265776240E+03  0.64192984910E+03  0.47000000000E+01 0.  1.
         11    1    6    6    0    0  0.79142549079E+00 -0.23426020726E+01  0.52899712917E+00  0.25286313968E+01  0.00000000000E+00 0. -1.
        -12    1    6    6    0    0 -0.30470462509E+02  0.91222158155E+00 -0.10122691530E+04  0.10127280579E+04  0.00000000000E+00 0.  1.
</event>
<event>
12    1  0.1132938E+000  0.1807011E+03  0.7818608E-02  0.1167207E+00
         21   -1    0    0  501  502  0.00000000000E+00  0.00000000000E+00  0.65004705293E+03  0.65004705293E+03  0.00000000000E+00 0. -1.
         21   -1    0    0  502  503 -0.00000000000E+00 -0.00000000000E+00 -0.11376178002E+03  0.11376178002E+03  0.00000000000E+00 0. -1.
         -6    2    1    2    0  503 -0.42413811297E+02 -0.32209905897E+02  0.55363658863E+03  0.58227662374E+03  0.17232581018E+03 0.  0.
        -24    2    3    3    0    0 -0.37795895397E+02 -0.15096381682E+02  0.12932602272E+03  0.15756996709E+03  0.80290995303E+02 0.  0.
          6    2    1    2  501    0  0.42413811297E+02  0.32209905897E+02 -0.17351315717E+02  0.18153220921E+03  0.17267444918E+03 0.  0.
         24    2    5    5    0    0  0.60478650284E+02  0.79580578204E+02 -0.23104010388E+02  0.13029255174E+03  0.80321965704E+02 0.  0.
          5    1    5    5  501    0 -0.18064838987E+02 -0.47370672307E+02  0.57526946709E+01  0.51239657478E+02  0.47000000000E+01 0. -1.
        -13    1    6    6    0    0  0.25339897677E+02  0.55762770870E+02 -0.50826182346E+02  0.79592071472E+02  0.00000000000E+00 0.  1.
         14    1    6    6    0    0  0.35138752607E+02  0.23817807334E+02  0.27722171958E+02  0.50700480264E+02  0.00000000000E+00 0. -1.
         -5    1    3    3    0  503 -0.46179159006E+01 -0.17113524215E+02  0.42431056591E+03  0.42470665665E+03  0.47000000000E+01 0.  1.
         11    1    4    4    0    0  0.10913208426E+02  0.23743727377E+02  0.25654327488E+02  0.36619765521E+02  0.00000000000E+00 0. -1.
        -12    1    4    4    0    0 -0.48709103823E+02 -0.38840109059E+02  0.10367169523E+03  0.12095020157E+03  0.00000000000E+00 0.  1.
</event>
<event>
12    1  0.9962621E-001  0.3464035E+03  0.7818608E-02  0.1064213E+00
         21   -1    0    0  503  502  0.00000000000E+00  0.00000000000E+00  0.45946678522E+03  0.45946678522E+03  0.00000000000E+00 0. -1.
         21   -1    0    0  501  503 -0.00000000000E+00 -0.00000000000E+00 -0.37923861985E+03  0.37923861985E+03  0.00000000000E+00 0.  1.
          6    2    1    2  501    0  0.55663597700E+02 -0.29616423285E+03 -0.19464164025E+03  0.39734211570E+03  0.17083237358E+03 0.  0.
         24    2    3    3    0    0  0.33263188620E+02 -0.30836315416E+03 -0.18132144487E+03  0.36818547643E+03  0.80553113692E+02 0.  0.
         -6    2    1    2    0  502 -0.55663597700E+02  0.29616423285E+03  0.27486980562E+03  0.44136328937E+03  0.16863111882E+03 0.  0.
        -24    2    5    5    0    0  0.31144422990E+02  0.18995816718E+03  0.17449107617E+03  0.27132405811E+03  0.78201844516E+02 0.  0.
          5    1    3    3  501    0  0.22400409081E+02  0.12198921317E+02 -0.13320195380E+02  0.29156639265E+02  0.47000000000E+01 0. -1.
        -13    1    4    4    0    0  0.74254868336E+00 -0.55154494533E+02 -0.71432478309E+02  0.90250587827E+02  0.00000000000E+00 0.  1.
         14    1    4    4    0    0  0.32520639936E+02 -0.25320865963E+03 -0.10988896656E+03  0.27793488861E+03  0.00000000000E+00 0. -1.
         -5    1    5    5    0  502 -0.86808020691E+02  0.10620606567E+03  0.10037872946E+03  0.17003923126E+03  0.47000000000E+01 0.  1.
         11    1    6    6    0    0 -0.11140264905E+02  0.75349271670E+01  0.35959423115E+02  0.38392196347E+02  0.00000000000E+00 0. -1.
        -12    1    6    6    0    0  0.42284687896E+02  0.18242324001E+03  0.13853165305E+03  0.23293186176E+03  0.00000000000E+00 0.  1.
</event>
<event>
12    1  0.9962621E-001  0.2032751E+03  0.7818608E-02  0.1147229E+00
         21   -1    0    0  501  502  0.00000000000E+00  0.00000000000E+00  0.68226723373E+02  0.68226723373E+02  0.00000000000E+00 0.  1.
         21   -1    0    0  502  503 -0.00000000000E+00 -0.00000000000E+00 -0.60255349574E+03  0.60255349574E+03  0.00000000000E+00 0.  1.
         -6    2    1    2    0  503  0.84748959864E+02 -0.64558842169E+02 -0.27139894863E+03  0.33843729819E+03  0.17184930955E+03 0.  0.
        -24    2    3    3    0    0  0.12350809379E+03 -0.51982977205E+02 -0.24191369430E+03  0.28792103284E+03  0.80123695088E+02 0.  0.
          6    2    1    2  501    0 -0.84748959864E+02  0.64558842169E+02 -0.26292782374E+03  0.33234292092E+03  0.17312003433E+03 0.  0.
         24    2    5    5    0    0 -0.90262697924E+02 -0.74753850911E+01 -0.18831616346E+03  0.22837984549E+03  0.92147384031E+02 0.  0.
          5    1    5    5  501    0  0.55137380608E+01  0.72034227260E+02 -0.74611660283E+02  0.10396307544E+03  0.47000000000E+01 0. -1.
        -11    1    6    6    0    0 -0.53888619230E+02 -0.32972766542E+02 -0.42987641248E+02  0.76414160442E+02  0.00000000000E+00 0.  1.
         12    1    6    6    0    0 -0.36374078694E+02  0.25497381450E+02 -0.14532852221E+03  0.15196568504E+03  0.00000000000E+00 0. -1.
         -5    1    3    3    0  503 -0.38759133923E+02 -0.12575864964E+02 -0.29485254326E+02  0.50516265348E+02  0.47000000000E+01 0.  1.
         11    1    4    4    0    0  0.11867369666E+03 -0.21428847275E+02 -0.15996643931E+03  0.20032948730E+03  0.00000000000E+00 0. -1.
        -12    1    4    4    0    0  0.48343971266E+01 -0.30554129929E+02 -0.81947254988E+02  0.87591545548E+02  0.00000000000E+00 0.  1.
</event>
<event>
12    1  0.9962621E-001  0.3594239E+03  0.7818608E-02  0.1059377E+00
         21   -1    0    0  501  502  0.00000000000E+00  0.00000000000E+00  0.13338826483E+04  0.13338826483E+04  0.00000000000E+00 0.  1.
         21   -1    0    0  502  503 -0.00000000000E+00 -0.00000000000E+00 -0.11649486231E+03  0.11649486231E+03  0.00000000000E+00 0.  1.
         -6    2    1    2    0  503  0.87138957537E+02  0.29872552424E+03  0.91382005527E+03  0.97991080730E+03  0.16830912063E+03 0.  0.
        -24    2    3    3    0    0  0.39287011233E+02  0.25878737823E+03  0.83906169405E+03  0.88246458190E+03  0.78770778223E+02 0.  0.
          6    2    1    2  501    0 -0.87138957537E+02 -0.29872552424E+03  0.30356773075E+03  0.47046670334E+03  0.17987611027E+03 0.  0.
         24    2    5    5    0    0  0.37318343699E+01 -0.56790710301E+02  0.11147569129E+03  0.14842416478E+03  0.79773376373E+02 0.  0.
          5    1    5    5  501    0 -0.90870791907E+02 -0.24193481394E+03  0.19209203946E+03  0.32204253856E+03  0.47000000000E+01 0. -1.
        -13    1    6    6    0    0 -0.20221593021E+02 -0.50541885846E+02  0.11103915088E+03  0.12366522582E+03  0.00000000000E+00 0.  1.
         14    1    6    6    0    0  0.23953427391E+02 -0.62488244549E+01  0.43654040926E+00  0.24758938959E+02  0.00000000000E+00 0. -1.
         -5    1    3    3    0  503  0.47851946305E+02  0.39938146012E+02  0.74758361227E+02  0.97446225403E+02  0.47000000000E+01 0.  1.
         13    1    4    4    0    0  0.59889786328E+02  0.13643788254E+03  0.43814355414E+03  0.46278705290E+03  0.00000000000E+00 0. -1.
        -14    1    4    4    0    0 -0.20602775095E+02  0.12234949569E+03  0.40091813991E+03  0.41967752900E+03  0.00000000000E+00 0.  1.
</event>
<event>
12    1  0.9962621E-001  0.1895934E+03  0.7818608E-02  0.1158949E+00
         21   -1    0    0  503  502  0.00000000000E+00  0.00000000000E+00  0.11212579379E+03  0.11212579379E+03  0.00000000000E+00 0.  1.
         21   -1    0    0  501  503 -0.00000000000E+00 -0.00000000000E+00 -0.53283817765E+03  0.53283817765E+03  0.00000000000E+00 0.  1.
          6    2    1    2  501    0 -0.69888380353E+02  0.35457077050E+02 -0.41414340940E+03  0.45525679701E+03  0.17205347323E+03 0.  0.
         24    2    3    3    0    0 -0.50003650746E+02  0.48625479753E+02 -0.11745071457E+03  0.15756995742E+03  0.78541828078E+02 0.  0.
         -6    2    1    2    0  502  0.69888380353E+02 -0.35457077050E+02 -0.65689744641E+01  0.18970717443E+03  0.17263855474E+03 0.  0.
        -24    2    5    5    0    0  0.10231172650E+03  0.46040056909E+01  0.24552265959E+02  0.12931855521E+03  0.75043911883E+02 0.  0.
          5    1    3    3  501    0 -0.19884729607E+02 -0.13168402703E+02 -0.29669269483E+03  0.29768683959E+03  0.47000000000E+01 0. -1.
        -11    1    4    4    0    0 -0.57947643777E+02  0.64571415677E+02 -0.10268846528E+03  0.13443332193E+03  0.00000000000E+00 0.  1.
         12    1    4    4    0    0  0.79439930311E+01 -0.15945935924E+02 -0.14762249285E+02  0.23136635488E+02  0.00000000000E+00 0. -1.
         -5    1    5    5    0  502 -0.32423346143E+02 -0.40061082741E+02 -0.31121240424E+02  0.60388619218E+02  0.47000000000E+01 0.  1.
         11    1    6    6    0    0  0.58680236230E+01  0.24163120817E+02 -0.72491481213E+01  0.25900584112E+02  0.00000000000E+00 0. -1.
        -12    1    6    6    0    0  0.96443702873E+02 -0.19559115126E+02  0.31801414081E+02  0.10341797110E+03  0.00000000000E+00 0.  1.
</event>
<event>
12    1  0.9962621E-001  0.2355092E+03  0.7818608E-02  0.1122960E+00
         21   -1    0    0  501  502  0.00000000000E+00  0.00000000000E+00  0.10137635852E+03  0.10137635852E+03  0.00000000000E+00 0. -1.
         21   -1    0    0  502  503 -0.00000000000E+00 -0.00000000000E+00 -0.56300154934E+03  0.56300154934E+03  0.00000000000E+00 0. -1.
         -6    2    1    2    0  503  0.47632329183E+02 -0.15181858980E+03 -0.29021405018E+03  0.37374961818E+03  0.17362850911E+03 0.  0.
        -24    2    3    3    0    0  0.25166631684E+02 -0.61810261163E+02 -0.25879245048E+03  0.27569038243E+03  0.67659343815E+02 0.  0.
          6    2    1    2  501    0 -0.47632329183E+02  0.15181858980E+03 -0.17141114064E+03  0.29062828968E+03  0.17252623173E+03 0.  0.
         24    2    5    5    0    0 -0.42083455783E+02  0.18057684180E+03 -0.16380570154E+03  0.26000542635E+03  0.79946862541E+02 0.  0.
          5    1    5    5  501    0 -0.55488733995E+01 -0.28758252004E+02 -0.76054391012E+01  0.30622863325E+02  0.47000000000E+01 0. -1.
        -13    1    6    6    0    0 -0.29643821018E+02  0.23169612296E+02 -0.60733643654E+02  0.71443421881E+02  0.00000000000E+00 0.  1.
         14    1    6    6    0    0 -0.12439634765E+02  0.15740722950E+03 -0.10307205789E+03  0.18856200447E+03  0.00000000000E+00 0. -1.
         -5    1    3    3    0  503  0.22465697499E+02 -0.90008328634E+02 -0.31421599699E+02  0.98059235747E+02  0.47000000000E+01 0.  1.
         13    1    4    4    0    0 -0.15719189946E+02 -0.32769920464E+02 -0.55784286504E+02  0.66579630823E+02  0.00000000000E+00 0. -1.
        -14    1    4    4    0    0  0.40885821630E+02 -0.29040340699E+02 -0.20300816397E+03  0.20911075161E+03  0.00000000000E+00 0.  1.
</event>
<event>
12    1  0.9962621E-001  0.2102056E+03  0.7818608E-02  0.1141482E+00
         21   -1    0    0  503  502  0.00000000000E+00  0.00000000000E+00  0.14720275391E+04  0.14720275391E+04  0.00000000000E+00 0.  1.
         21   -1    0    0  501  503 -0.00000000000E+00 -0.00000000000E+00 -0.33187911249E+02  0.33187911249E+02  0.00000000000E+00 0.  1.
          6    2    1    2  501    0 -0.21816007104E+02  0.11876905941E+03  0.95472350684E+03  0.97759058900E+03  0.17205916878E+03 0.  0.
         24    2    3    3    0    0  0.34607771097E+02  0.12214563418E+03  0.76167212562E+03  0.77637933238E+03  0.80642340159E+02 0.  0.
         -6    2    1    2    0  502  0.21816007104E+02 -0.11876905941E+03  0.48411612104E+03  0.52762486137E+03  0.17157373938E+03 0.  0.
        -24    2    5    5    0    0  0.34385920679E+02 -0.10953330641E+03  0.49040231691E+03  0.51016324290E+03  0.81192149997E+02 0.  0.
          5    1    3    3  501    0 -0.56423778201E+02 -0.33765747650E+01  0.19305138121E+03  0.20121125662E+03  0.47000000000E+01 0. -1.
        -11    1    4    4    0    0  0.37427031262E+02  0.11245288864E+03  0.47613422220E+03  0.49066305382E+03  0.00000000000E+00 0.  1.
         12    1    4    4    0    0 -0.28192601649E+01  0.96927455397E+01  0.28553790342E+03  0.28571627856E+03  0.00000000000E+00 0. -1.
         -5    1    5    5    0  502 -0.12569913575E+02 -0.92357530064E+01 -0.62861958757E+01  0.17461618466E+02  0.47000000000E+01 0.  1.
         11    1    6    6    0    0 -0.43157432934E+01 -0.52151538927E+02  0.92414935996E+02  0.10620230246E+03  0.00000000000E+00 0. -1.
        -12    1    6    6    0    0  0.38701663972E+02 -0.57381767478E+02  0.39798738092E+03  0.40396094044E+03  0.00000000000E+00 0.  1.
</event>
<event>
12    1  0.9962621E-001  0.1762255E+03  0.7818608E-02  0.1171795E+00
         21   -1    0    0  501  502  0.00000000000E+00  0.00000000000E+00  0.78945251965E+02  0.78945251965E+02  0.00000000000E+00 0. -1.
         21   -1    0    0  502  503 -0.00000000000E+00 -0.00000000000E+00 -0.39540296242E+03  0.39540296242E+03  0.00000000000E+00 0. -1.
         -6    2    1    2    0  503 -0.27174495597E+02  0.20851098863E+02 -0.18432150981E+03  0.25500948180E+03  0.17286467336E+03 0.  0.
        -24    2    3    3    0    0 -0.55819811248E+02  0.39772684354E+02 -0.19290722258E+03  0.21931095284E+03  0.78653542608E+02 0.  0.
          6    2    1    2  501    0  0.27174495597E+02 -0.20851098863E+02 -0.13213620064E+03  0.21933873258E+03  0.17168658234E+03 0.  0.
         24    2    5    5    0    0 -0.53347400651E+01 -0.57423922106E+02 -0.25233028028E+02  0.10167480388E+03  0.79844184249E+02 0.  0.
          5    1    5    5  501    0  0.32509235662E+02  0.36572823243E+02 -0.10690317261E+03  0.11766392870E+03  0.47000000000E+01 0. -1.
        -11    1    6    6    0    0 -0.61137697953E+01 -0.17020599215E+02 -0.50753957506E+02  0.53879895892E+02  0.00000000000E+00 0.  1.
         12    1    6    6    0    0  0.77902973015E+00 -0.40403322891E+02  0.25520929478E+02  0.47794907986E+02  0.00000000000E+00 0. -1.
         -5    1    3    3    0  503  0.28645315651E+02 -0.18921585491E+02  0.85857127657E+01  0.35698528961E+02  0.47000000000E+01 0.  1.
         11    1    4    4    0    0  0.16000849026E+02 -0.40854894055E+01 -0.58031090743E+02  0.60335113210E+02  0.00000000000E+00 0. -1.
        -12    1    4    4    0    0 -0.71820660274E+02  0.43858173759E+02 -0.13487613184E+03  0.15897583963E+03  0.00000000000E+00 0.  1.
</event>
<event>
12    1  0.9962621E-001  0.2448786E+03  0.7818608E-02  0.1117330E+00
         21   -1    0    0  503  502  0.00000000000E+00  0.00000000000E+00  0.11127100046E+03  0.11127100046E+03  0.00000000000E+00 0. -1.
         21   -1    0    0  501  503 -0.00000000000E+00 -0.00000000000E+00 -0.99769199438E+03  0.99769199438E+03  0.00000000000E+00 0.  1.
          6    2    1    2  501    0  0.16403552722E+03  0.38831184261E+02 -0.82106089022E+03  0.85551187457E+03  0.17130110046E+03 0.  0.
         24    2    3    3    0    0  0.12786320469E+03  0.82617198188E+02 -0.49068758917E+03  0.52025934291E+03  0.81980931792E+02 0.  0.
         -6    2    1    2    0  502 -0.16403552722E+03 -0.38831184261E+02 -0.65360103698E+02  0.25345112028E+03  0.17762323089E+03 0.  0.
        -24    2    5    5    0    0 -0.52163896017E+02 -0.43419027235E+01  0.35868141923E+02  0.98615658834E+02  0.75489074675E+02 0.  0.
          5    1    3    3  501    0  0.36172322534E+02 -0.43786013928E+02 -0.33037330105E+03  0.33525253165E+03  0.47000000000E+01 0. -1.
        -13    1    4    4    0    0  0.58857027686E-01  0.28103411174E+02 -0.41875844674E+02  0.50432048848E+02  0.00000000000E+00 0.  1.
         14    1    4    4    0    0  0.12780434766E+03  0.54513787014E+02 -0.44881174449E+03  0.46982729407E+03  0.00000000000E+00 0. -1.
         -5    1    5    5    0  502 -0.11187163120E+03 -0.34489281537E+02 -0.10122824562E+03  0.15483546144E+03  0.47000000000E+01 0.  1.
         13    1    6    6    0    0  0.19480576055E+02 -0.45629596823E+01  0.10623890794E+02  0.22653487593E+02  0.00000000000E+00 0. -1.
        -14    1    6    6    0    0 -0.71644472072E+02  0.22105695885E+00  0.25244251129E+02  0.75962171242E+02  0.00000000000E+00 0.  1.
</event>
<event>
12    1  0.9962621E-001  0.2278183E+03  0.7818608E-02  0.1128296E+00
         21   -1    0    0  501  502  0.00000000000E+00  0.00000000000E+00  0.42041808247E+02  0.42041808247E+02  0.00000000000E+00 0.  1.
         21   -1    0    0  502  503 -0.00000000000E+00 -0.00000000000E+00 -0.17894328788E+04  0.17894328788E+04  0.00000000000E+00 0.  1.
         -6    2    1    2    0  503 -0.14989925085E+03 -0.59192897282E+01 -0.36301831008E+03  0.42858310354E+03  0.17145366659E+03 0.  0.
        -24    2    3    3    0    0 -0.25090420365E+02  0.33286279708E+02 -0.99835932854E+02  0.13464199630E+03  0.80148287988E+02 0.  0.
          6    2    1    2  501    0  0.14989925085E+03  0.59192897282E+01 -0.13843727604E+04  0.14028915835E+04  0.17062248315E+03 0.  0.
         24    2    5    5    0    0  0.12961823587E+03 -0.53899941703E+01 -0.13614867650E+04  0.13699510574E+04  0.79307939611E+02 0.  0.
          5    1    5    5  501    0  0.20281014971E+02  0.11309283898E+02 -0.22885995400E+02  0.32940526043E+02  0.47000000000E+01 0. -1.
        -11    1    6    6    0    0  0.94712806348E+02 -0.31879320888E+02 -0.11257082646E+04  0.11301353475E+04  0.00000000000E+00 0.  1.
         12    1    6    6    0    0  0.34905429526E+02  0.26489326718E+02 -0.23577850045E+03  0.23981570990E+03  0.00000000000E+00 0. -1.
         -5    1    3    3    0  503 -0.12480883048E+03 -0.39205569437E+02 -0.26318237723E+03  0.29394110724E+03  0.47000000000E+01 0.  1.
         11    1    4    4    0    0 -0.26497524206E+02 -0.16980532422E+02 -0.68519291984E+02  0.75401264210E+02  0.00000000000E+00 0. -1.
        -12    1    4    4    0    0  0.14071038412E+01  0.50266812130E+02 -0.31316640869E+02  0.59240732088E+02  0.00000000000E+00 0.  1.
</event>
<event>
12    1  0.9962621E-001  0.2540337E+03  0.7818608E-02  0.1110860E+00
         21   -1    0    0  503  502  0.00000000000E+00  0.00000000000E+00  0.33225771135E+02  0.33225771135E+02  0.00000000000E+00 0.  1.
         21   -1    0    0  501  503 -0.00000000000E+00 -0.00000000000E+00 -0.20612746220E+04  0.20612746220E+04  0.00000000000E+00 0.  1.
          6    2    1    2  501    0  0.36305458285E+02 -0.18235252241E+03 -0.75930748337E+03  0.80067531323E+03  0.17309700803E+03 0.  0.
         24    2    3    3    0    0  0.68424367352E+02 -0.71769669707E+02 -0.51937306575E+03  0.53449716539E+03  0.78141274908E+02 0.  0.
         -6    2    1    2    0  502 -0.36305458285E+02  0.18235252241E+03 -0.12687413675E+04  0.12938250799E+04  0.17236052638E+03 0.  0.
        -24    2    5    5    0    0 -0.27570834647E+02  0.20876087460E+03 -0.11330361978E+04  0.11552188831E+04  0.80114846355E+02 0.  0.
          5    1    3    3  501    0 -0.32118909067E+02 -0.11058285271E+03 -0.23993441762E+03  0.26617814784E+03  0.47000000000E+01 0. -1.
        -11    1    4    4    0    0  0.46898080812E+02  0.27592092665E+01 -0.23993601675E+03  0.24449199445E+03  0.00000000000E+00 0.  1.
         12    1    4    4    0    0  0.21526286541E+02 -0.74528878973E+02 -0.27943704900E+03  0.29000517093E+03  0.00000000000E+00 0. -1.
         -5    1    5    5    0  502 -0.87346236385E+01 -0.26408352191E+02 -0.13570516971E+03  0.13860619683E+03  0.47000000000E+01 0.  1.
         11    1    6    6    0    0 -0.14852139434E+02  0.95353047572E+02 -0.32066528207E+03  0.33487163638E+03  0.00000000000E+00 0. -1.
        -12    1    6    6    0    0 -0.12718695212E+02  0.11340782703E+03 -0.81237091576E+03  0.82034724672E+03  0.00000000000E+00 0.  1.
</event>
<event>
12    1  0.9962621E-001  0.3502951E+03  0.7818608E-02  0.1062506E+00
         21   -1    0    0  501  502  0.00000000000E+00  0.00000000000E+00  0.36616931128E+03  0.36616931128E+03  0.00000000000E+00 0. -1.
         21   -1    0    0  502  503 -0.00000000000E+00 -0.00000000000E+00 -0.35811338287E+03  0.35811338287E+03  0.00000000000E+00 0. -1.
         -6    2    1    2    0  503  0.29476843818E+03  0.79102033312E+02  0.96028380628E+02  0.36310991506E+03  0.17170264036E+03 0.  0.
        -24    2    3    3    0    0  0.21544552195E+03  0.61899838633E+02  0.13427052529E+03  0.27326230981E+03  0.79970951296E+02 0.  0.
          6    2    1    2  501    0 -0.29476843818E+03 -0.79102033312E+02 -0.87972452217E+02  0.36117277909E+03  0.17193330156E+03 0.  0.
         24    2    5    5    0    0 -0.13247522961E+03 -0.76579812937E+02  0.56341898550E+01  0.17374348419E+03  0.82102984084E+02 0.  0.
          5    1    5    5  501    0 -0.16229320858E+03 -0.25222203745E+01 -0.93606642072E+02  0.18742929490E+03  0.47000000000E+01 0. -1.
        -13    1    6    6    0    0 -0.12758649042E+03 -0.36788987869E+02 -0.26296438655E+01  0.13281060648E+03  0.00000000000E+00 0.  1.
         14    1    6    6    0    0 -0.48887391894E+01 -0.39790825069E+02  0.82638337205E+01  0.40932877718E+02  0.00000000000E+00 0. -1.
         -5    1    3    3    0  503  0.79322916231E+02  0.17202194679E+02 -0.38242144659E+02  0.89847605251E+02  0.47000000000E+01 0.  1.
         11    1    4    4    0    0  0.15048566784E+03  0.33878304342E+01  0.82261063999E+02  0.17153511673E+03  0.00000000000E+00 0. -1.
        -12    1    4    4    0    0  0.64959854115E+02  0.58512008199E+02  0.52009461289E+02  0.10172719309E+03  0.00000000000E+00 0.  1.
</event>
<event>
12    1  0.9962621E-001  0.2388720E+03  0.7818608E-02  0.1120697E+00
         21   -1    0    0  503  502  0.00000000000E+00  0.00000000000E+00  0.12800243934E+03  0.12800243934E+03  0.00000000000E+00 0.  1.
         21   -1    0    0  501  503 -0.00000000000E+00 -0.00000000000E+00 -0.60189261482E+03  0.60189261482E+03  0.00000000000E+00 0.  1.
          6    2    1    2  501    0 -0.54110912042E+01  0.16357567110E+03 -0.42413378310E+03  0.48677435725E+03  0.17399289877E+03 0.  0.
         24    2    3    3    0    0  0.63247235763E+02  0.82862505458E+02 -0.26384500920E+03  0.29456831673E+03  0.79308869002E+02 0.  0.
         -6    2    1    2    0  502  0.54110912042E+01 -0.16357567110E+03 -0.49756392385E+02  0.24312069691E+03  0.17275906517E+03 0.  0.
        -24    2    5    5    0    0  0.64188811166E+02 -0.65296471520E+02 -0.97057841339E+01  0.12171327269E+03  0.79599534112E+02 0.  0.
          5    1    3    3  501    0 -0.68658326967E+02  0.80713165646E+02 -0.16028877390E+03  0.19220604051E+03  0.47000000000E+01 0. -1.
        -13    1    4    4    0    0 -0.10383422195E+02 -0.80849632386E+01 -0.18025593821E+02  0.22318246339E+02  0.00000000000E+00 0.  1.
         14    1    4    4    0    0  0.73630657958E+02  0.90947468697E+02 -0.24581941538E+03  0.27225007040E+03  0.00000000000E+00 0. -1.
         -5    1    5    5    0  502 -0.58777719962E+02 -0.98279199584E+02 -0.40050608252E+02  0.12140742422E+03  0.47000000000E+01 0.  1.
         11    1    6    6    0    0  0.11696158228E+02 -0.53662038611E+02  0.22147730501E+02  0.59219392698E+02  0.00000000000E+00 0. -1.
        -12    1    6    6    0    0  0.52492652938E+02 -0.11634432909E+02 -0.31853514635E+02  0.62493879990E+02  0.00000000000E+00 0.  1.
</event>
<event>
12    1  0.9962621E-001  0.2047171E+03  0.7818608E-02  0.1145865E+00
         21   -1    0    0  501  502  0.00000000000E+00  0.00000000000E+00  0.26266982523E+03  0.26266982523E+03  0.00000000000E+00 0. -1.
         21   -1    0    0  502  503 -0.00000000000E+00 -0.00000000000E+00 -0.26664345356E+03  0.26664345356E+03  0.00000000000E+00 0.  1.
         -6    2    1    2    0  503 -0.10978754613E+03  0.17508587337E+02 -0.16984704035E+03  0.26583065847E+03  0.17163352224E+03 0.  0.
        -24    2    3    3    0    0 -0.27974735751E+02 -0.45929620454E+02 -0.56795468735E+02  0.11246674488E+03  0.80814154449E+02 0.  0.
          6    2    1    2  501    0  0.10978754613E+03 -0.17508587337E+02  0.16587341201E+03  0.26348262031E+03  0.17189894264E+03 0.  0.
         24    2    5    5    0    0  0.34630050794E+02  0.36565270898E+02  0.25567111078E+02  0.95314313754E+02  0.76778133500E+02 0.  0.
          5    1    5    5  501    0  0.75157495333E+02 -0.54073858234E+02  0.14030630094E+03  0.16816830656E+03  0.47000000000E+01 0. -1.
        -13    1    6    6    0    0 -0.22587755939E+02  0.21947362738E+02  0.16538141494E+02  0.35572511488E+02  0.00000000000E+00 0.  1.
         14    1    6    6    0    0  0.57217806732E+02  0.14617908160E+02  0.90289695846E+01  0.59741802266E+02  0.00000000000E+00 0. -1.
         -5    1    3    3    0  503 -0.81812810376E+02  0.63438207791E+02 -0.11305157161E+03  0.15336391360E+03  0.47000000000E+01 0.  1.
         11    1    4    4    0    0 -0.40518825676E+02  0.72180048528E+01 -0.15405170449E+02  0.43945353620E+02  0.00000000000E+00 0. -1.
        -12    1    4    4    0    0  0.12544089925E+02 -0.53147625307E+02 -0.41390298286E+02  0.68521391258E+02  0.00000000000E+00 0.  1.
</event>
<event>
12    1  0.9962621E-001  0.2746747E+03  0.7818608E-02  0.1098823E+00
         21   -1    0    0  503  502  0.00000000000E+00  0.00000000000E+00  0.55221530167E+03  0.55221530167E+03  0.00000000000E+00 0.  1.
         21   -1    0    0  501  503 -0.00000000000E+00 -0.00000000000E+00 -0.16654154498E+03  0.16654154498E+03  0.00000000000E+00 0.  1.
          6    2    1    2  501    0  0.41592737366E+02 -0.20860520130E+03  0.34646621523E+03  0.44129801957E+03  0.17163629562E+03 0.  0.
         24    2    3    3    0    0  0.62036785587E+01 -0.16278311958E+03  0.14586643685E+03  0.23245738717E+03  0.78883393705E+02 0.  0.
         -6    2    1    2    0  502 -0.41592737366E+02  0.20860520130E+03  0.39207541461E+02  0.27745882708E+03  0.17378171252E+03 0.  0.
        -24    2    5    5    0    0  0.21970506403E+02  0.56697219700E+02  0.11438354706E+02  0.11039734569E+03  0.91430083140E+02 0.  0.
          5    1    3    3  501    0  0.35389058807E+02 -0.45822081720E+02  0.20059977838E+03  0.20884063240E+03  0.47000000000E+01 0. -1.
        -11    1    4    4    0    0  0.36881155899E+02 -0.13379398447E+03  0.11249341842E+03  0.17864999056E+03  0.00000000000E+00 0.  1.
         12    1    4    4    0    0 -0.30677477340E+02 -0.28989135114E+02  0.33373018427E+02  0.53807396606E+02  0.00000000000E+00 0. -1.
         -5    1    5    5    0  502 -0.63563243769E+02  0.15190798160E+03  0.27769186755E+02  0.16706148140E+03  0.47000000000E+01 0.  1.
         11    1    6    6    0    0  0.14747173058E+02  0.72110992684E+02 -0.18558536191E+02  0.75907138299E+02  0.00000000000E+00 0. -1.
        -12    1    6    6    0    0  0.72233333452E+01 -0.15413772984E+02  0.29996890897E+02  0.34490207388E+02  0.00000000000E+00 0.  1.
</event>
<event>
12    1  0.9962621E-001  0.2981546E+03  0.7818608E-02  0.1086177E+00
         21   -1    0    0  503  502  0.00000000000E+00  0.00000000000E+00  0.17343368410E+03  0.17343368410E+03  0.00000000000E+00 0. -1.
         21   -1    0    0  501  503 -0.00000000000E+00 -0.00000000000E+00 -0.51733643265E+03  0.51733643265E+03  0.00000000000E+00 0.  1.
          6    2    1    2  501    0  0.24085277158E+03  0.40053047950E+02 -0.20563125532E+03  0.36218829713E+03  0.17111938868E+03 0.  0.
         24    2    3    3    0    0  0.15989861611E+03  0.60079456450E+01 -0.20787917997E+03  0.27421223536E+03  0.79843181992E+02 0.  0.
         -6    2    1    2    0  502 -0.24085277158E+03 -0.40053047950E+02 -0.13827149323E+03  0.32858181963E+03  0.17097573548E+03 0.  0.
        -24    2    5    5    0    0 -0.22395022242E+03  0.17059426790E+02 -0.11053117279E+03  0.26270962278E+03  0.79714989687E+02 0.  0.
          5    1    3    3  501    0  0.80954155471E+02  0.34045102306E+02  0.22479246491E+01  0.87976061769E+02  0.47000000000E+01 0. -1.
        -13    1    4    4    0    0  0.55727048082E+02 -0.39462751906E-01 -0.13746070558E+03  0.14832717560E+03  0.00000000000E+00 0.  1.
         14    1    4    4    0    0  0.10417156803E+03  0.60474083969E+01 -0.70418474397E+02  0.12588505976E+03  0.00000000000E+00 0. -1.
         -5    1    5    5    0  502 -0.16902549164E+02 -0.57112474741E+02 -0.27740320435E+02  0.65872196844E+02  0.47000000000E+01 0.  1.
         11    1    6    6    0    0 -0.11786131183E+02  0.13904944060E+02  0.77209774913E+01  0.19795803873E+02  0.00000000000E+00 0. -1.
        -12    1    6    6    0    0 -0.21216409123E+03  0.31544827306E+01 -0.11825215028E+03  0.24291381891E+03  0.00000000000E+00 0.  1.
</event>
<event>
12    1  0.9962621E-001  0.2021578E+03  0.7818608E-02  0.1148341E+00
         21   -1    0    0  501  502  0.00000000000E+00  0.00000000000E+00  0.28722950183E+03  0.28722950183E+03  0.00000000000E+00 0.  1.
         21   -1    0    0  502  503 -0.00000000000E+00 -0.00000000000E+00 -0.16362350203E+03  0.16362350203E+03  0.00000000000E+00 0.  1.
         -6    2    1    2    0  503  0.78306088770E+02 -0.65301823458E+02 -0.22449896816E+02  0.20145351910E+03  0.17228856841E+03 0.  0.
        -24    2    3    3    0    0 -0.32521735631E+01 -0.56448847030E+02 -0.56994150565E+02  0.11231586817E+03  0.78545987039E+02 0.  0.
          6    2    1    2  501    0 -0.78306088770E+02  0.65301823458E+02  0.14605589662E+03  0.24939948475E+03  0.17456118232E+03 0.  0.
         24    2    5    5    0    0 -0.15665696072E+02  0.10118071835E+03  0.94664784731E+02  0.16066251232E+03  0.79800185439E+02 0.  0.
          5    1    5    5  501    0 -0.62640392698E+02 -0.35878894895E+02  0.51391111884E+02  0.88736972435E+02  0.47000000000E+01 0. -1.
        -13    1    6    6    0    0 -0.34217139249E+02  0.97233614708E+02  0.97012894457E+02  0.14155101603E+03  0.00000000000E+00 0.  1.
         14    1    6    6    0    0  0.18551443177E+02  0.39471036447E+01 -0.23481097260E+01  0.19111496289E+02  0.00000000000E+00 0. -1.
         -5    1    3    3    0  503  0.81558262333E+02 -0.88529764278E+01  0.34544253749E+02  0.89137650931E+02  0.47000000000E+01 0.  1.
         13    1    4    4    0    0  0.21479307495E+02 -0.66473885941E+02 -0.37664807542E+02  0.79364827788E+02  0.00000000000E+00 0. -1.
        -14    1    4    4    0    0 -0.24731481058E+02  0.10025038911E+02 -0.19329343023E+02  0.32951040381E+02  0.00000000000E+00 0.  1.
</event>
<event>
12    1  0.9962621E-001  0.2108113E+03  0.7818608E-02  0.1141523E+00
         21   -1    0    0  503  502  0.00000000000E+00  0.00000000000E+00  0.48131154810E+02  0.48131154810E+02  0.00000000000E+00 0. -1.
         21   -1    0    0  501  503 -0.00000000000E+00 -0.00000000000E+00 -0.91024602941E+03  0.91024602941E+03  0.00000000000E+00 0. -1.
          6    2    1    2  501    0  0.10843955470E+03  0.56749894815E+02 -0.43749786695E+03  0.48563956060E+03  0.17164414248E+03 0.  0.
         24    2    3    3    0    0  0.69041073063E+02  0.56429928619E+02 -0.13492053672E+03  0.18047161749E+03  0.80096484793E+02 0.  0.
         -6    2    1    2    0  502 -0.10843955470E+03 -0.56749894815E+02 -0.42461700765E+03  0.47273762362E+03  0.16793323083E+03 0.  0.
        -24    2    5    5    0    0 -0.46591297868E+02  0.23205399813E+02 -0.12844176199E+03  0.15975212531E+03  0.79462039365E+02 0.  0.
          5    1    3    3  501    0  0.39398481633E+02  0.31996619589E+00 -0.30257733023E+03  0.30516794311E+03  0.47000000000E+01 0. -1.
        -13    1    4    4    0    0  0.12603964457E+02  0.35685142366E+02 -0.61336190107E+01  0.38339412983E+02  0.00000000000E+00 0.  1.
         14    1    4    4    0    0  0.56437108606E+02  0.20744786253E+02 -0.12878691771E+03  0.14213220450E+03  0.00000000000E+00 0. -1.
         -5    1    5    5    0  502 -0.61848256828E+02 -0.79955294628E+02 -0.29617524567E+03  0.31298549832E+03  0.47000000000E+01 0.  1.
         11    1    6    6    0    0 -0.16271739391E+02  0.49530424254E+02 -0.90861599053E+02  0.10475620560E+03  0.00000000000E+00 0. -1.
        -12    1    6    6    0    0 -0.30319558477E+02 -0.26325024441E+02 -0.37580162937E+02  0.54995919707E+02  0.00000000000E+00 0.  1.
</event>
<event>
12    1  0.9962621E-001  0.2674993E+03  0.7818608E-02  0.1102949E+00
         21   -1    0    0  501  502  0.00000000000E+00  0.00000000000E+00  0.11078295910E+03  0.11078295910E+03  0.00000000000E+00 0.  1.
         21   -1    0    0  502  503 -0.00000000000E+00 -0.00000000000E+00 -0.17641806914E+04  0.17641806914E+04  0.00000000000E+00 0.  1.
         -6    2    1    2    0  503 -0.96718562577E+02  0.17927008934E+03 -0.79932902351E+02  0.27918659996E+03  0.17338870620E+03 0.  0.
        -24    2    3    3    0    0  0.16219397246E+02  0.96118342540E+02 -0.40516403181E+02  0.13343013810E+03  0.81610159957E+02 0.  0.
          6    2    1    2  501    0  0.96718562577E+02 -0.17927008934E+03 -0.15734648300E+04  0.15957770505E+04  0.17094027811E+03 0.  0.
         24    2    5    5    0    0 -0.90395496414E+01 -0.62374044115E+02 -0.78757046875E+03  0.79421513737E+03  0.80859175996E+02 0.  0.
          5    1    5    5  501    0  0.10575811222E+03 -0.11689604523E+03 -0.78589436120E+03  0.80156191318E+03  0.47000000000E+01 0. -1.
        -13    1    6    6    0    0 -0.31683316468E+01  0.11774736068E+02 -0.22975012695E+02  0.26010266112E+02  0.00000000000E+00 0.  1.
         14    1    6    6    0    0 -0.58712179946E+01 -0.74148780183E+02 -0.76459545605E+03  0.76820487126E+03  0.00000000000E+00 0. -1.
         -5    1    3    3    0  503 -0.11293795982E+03  0.83151746802E+02 -0.39416499170E+02  0.14575646185E+03  0.47000000000E+01 0.  1.
         13    1    4    4    0    0 -0.27689154821E+02  0.21303527206E+02 -0.29995848189E+02  0.46046503393E+02  0.00000000000E+00 0. -1.
        -14    1    4    4    0    0  0.43908552067E+02  0.74814815334E+02 -0.10520554991E+02  0.87383634712E+02  0.00000000000E+00 0.  1.
</event>
<event>
12    1  0.9962621E-001  0.2038416E+03  0.7818608E-02  0.1146746E+00
         21   -1    0    0  503  502  0.00000000000E+00  0.00000000000E+00  0.35829077742E+03  0.35829077742E+03  0.00000000000E+00 0.  1.
         21   -1    0    0  501  503 -0.00000000000E+00 -0.00000000000E+00 -0.27169843088E+03  0.27169843088E+03  0.00000000000E+00 0.  1.
          6    2    1    2  501    0  0.65470729303E+02 -0.84980702871E+02  0.28216427370E+03  0.34750069056E+03  0.17213923530E+03 0.  0.
         24    2    3    3    0    0  0.46109785105E+02  0.21404998814E+02  0.12273962304E+03  0.15480644331E+03  0.79471589704E+02 0.  0.
         -6    2    1    2    0  502 -0.65470729303E+02  0.84980702871E+02 -0.19557192716E+03  0.28248851774E+03  0.17332988117E+03 0.  0.
        -24    2    5    5    0    0 -0.11122758810E+03  0.42809926784E+02 -0.15813977850E+03  0.20971956670E+03  0.69064034962E+02 0.  0.
          5    1    3    3  501    0  0.19360944197E+02 -0.10638570169E+03  0.15942465066E+03  0.19269424725E+03  0.47000000000E+01 0. -1.
        -13    1    4    4    0    0  0.67440197845E+02  0.12070660345E+02  0.74327835818E+02  0.10108663761E+03  0.00000000000E+00 0.  1.
         14    1    4    4    0    0 -0.21330412740E+02  0.93343384694E+01  0.48411787217E+02  0.53719805695E+02  0.00000000000E+00 0. -1.
         -5    1    5    5    0  502  0.45756858799E+02  0.42170776087E+02 -0.37432148657E+02  0.72768951044E+02  0.47000000000E+01 0.  1.
         13    1    6    6    0    0 -0.60565919509E+02  0.49618489506E+02 -0.12894064870E+03  0.15085064135E+03  0.00000000000E+00 0. -1.
        -14    1    6    6    0    0 -0.50661668593E+02 -0.68085627221E+01 -0.29199129798E+02  0.58868925351E+02  0.00000000000E+00 0.  1.
</event>
<event>
12    1  0.1280445E+000  0.1757978E+03  0.7818608E-02  0.1173722E+00
         21   -1    0    0  501  502  0.00000000000E+00  0.00000000000E+00  0.47672111783E+03  0.47672111783E+03  0.00000000000E+00 0. -1.
         21   -1    0    0  502  503 -0.00000000000E+00 -0.00000000000E+00 -0.16754847650E+03  0.16754847650E+03  0.00000000000E+00 0. -1.
         -6    2    1    2    0  503 -0.21439335292E+02  0.13086205824E+02  0.40875192762E+03  0.44222775144E+03  0.16690222268E+03 0.  0.
        -24    2    3    3    0    0  0.50418373793E+02 -0.30709689001E+01  0.24918354843E+03  0.26641892832E+03  0.79593726478E+02 0.  0.
          6    2    1    2  501    0  0.21439335292E+02 -0.13086205824E+02 -0.99579286289E+02  0.20204184289E+03  0.17399418997E+03 0.  0.
         24    2    5    5    0    0 -0.55157101717E+01  0.34563506067E+02 -0.11494219784E+03  0.14498767065E+03  0.81145898148E+02 0.  0.
          5    1    5    5  501    0  0.26955045463E+02 -0.47649711891E+02  0.15362911550E+02  0.57054172244E+02  0.47000000000E+01 0. -1.
        -11    1    6    6    0    0  0.26785919572E+02 -0.12812137679E+02 -0.51711239980E+02  0.59629595835E+02  0.00000000000E+00 0.  1.
         12    1    6    6    0    0 -0.32301629744E+02  0.47375643745E+02 -0.63230957859E+02  0.85358074815E+02  0.00000000000E+00 0. -1.
         -5    1    3    3    0  503 -0.71857709085E+02  0.16157174724E+02  0.15956837919E+03  0.17580882312E+03  0.47000000000E+01 0.  1.
         11    1    4    4    0    0  0.44803312342E+01 -0.28117786271E+02  0.31178841591E+02  0.42223257048E+02  0.00000000000E+00 0. -1.
        -12    1    4    4    0    0  0.45938042559E+02  0.25046817371E+02  0.21800470684E+03  0.22419567127E+03  0.00000000000E+00 0.  1.
</event>
<event>
12    1  0.9962621E-001  0.1903813E+03  0.7818608E-02  0.1158178E+00
         21   -1    0    0  501  502  0.00000000000E+00  0.00000000000E+00  0.31763420918E+03  0.31763420918E+03  0.00000000000E+00 0.  1.
         21   -1    0    0  502  503 -0.00000000000E+00 -0.00000000000E+00 -0.17221877776E+03  0.17221877776E+03  0.00000000000E+00 0.  1.
         -6    2    1    2    0  503  0.76057449855E+02  0.20392239182E+02  0.21514203680E+03  0.28710476647E+03  0.17303893155E+03 0.  0.
        -24    2    3    3    0    0 -0.11491323181E+01 -0.42312480801E+02  0.99286538483E+02  0.13433917895E+03  0.79984571891E+02 0.  0.
          6    2    1    2  501    0 -0.76057449855E+02 -0.20392239182E+02 -0.69726605384E+02  0.20274822047E+03  0.17333338487E+03 0.  0.
         24    2    5    5    0    0  0.30055066130E+02 -0.13134005487E+02 -0.26060351506E+02  0.87677026280E+02  0.77021489965E+02 0.  0.
          5    1    5    5  501    0 -0.10611251599E+03 -0.72582336953E+01 -0.43666253878E+02  0.11507119419E+03  0.47000000000E+01 0. -1.
        -11    1    6    6    0    0  0.18604048014E+02  0.27486909960E+02  0.71749896336E+01  0.33957639758E+02  0.00000000000E+00 0.  1.
         12    1    6    6    0    0  0.11451018116E+02 -0.40620915447E+02 -0.33235341139E+02  0.53719386522E+02  0.00000000000E+00 0. -1.
         -5    1    3    3    0  503  0.77206582174E+02  0.62704719983E+02  0.11585549831E+03  0.15276558751E+03  0.47000000000E+01 0.  1.
         13    1    4    4    0    0 -0.21438199175E+02  0.83910593460E+01  0.67118852812E+02  0.70957358065E+02  0.00000000000E+00 0. -1.
        -14    1    4    4    0    0  0.20289066857E+02 -0.50703540147E+02  0.32167685671E+02  0.63381820885E+02  0.00000000000E+00 0.  1.
</event>
<event>
12    1  0.9962621E-001  0.2581479E+03  0.7818608E-02  0.1108728E+00
         21   -1    0    0  501  502  0.00000000000E+00  0.00000000000E+00  0.13748991299E+04  0.13748991299E+04  0.00000000000E+00 0. -1.
         21   -1    0    0  502  503 -0.00000000000E+00 -0.00000000000E+00 -0.48094924020E+02  0.48094924020E+02  0.00000000000E+00 0. -1.
         -6    2    1    2    0  503  0.16649657695E+03  0.91831290970E+02  0.71301368916E+03  0.75830658256E+03  0.17460313883E+03 0.  0.
        -24    2    3    3    0    0  0.94599030314E+01  0.14781023875E+02  0.28023025069E+03  0.29148664380E+03  0.78278360216E+02 0.  0.
          6    2    1    2  501    0 -0.16649657695E+03 -0.91831290970E+02  0.61379051669E+03  0.66468747133E+03  0.17004864018E+03 0.  0.
         24    2    5    5    0    0 -0.10612820754E+03  0.99059689890E+01  0.26826610003E+03  0.29944231722E+03  0.79609523690E+02 0.  0.
          5    1    5    5  501    0 -0.60368369408E+02 -0.10173725996E+03  0.34552441666E+03  0.36524515411E+03  0.47000000000E+01 0. -1.
        -13    1    6    6    0    0 -0.91628442499E+02 -0.13023306379E+02  0.13653057102E+03  0.16494233783E+03  0.00000000000E+00 0.  1.
         14    1    6    6    0    0 -0.14499765039E+02  0.22929275368E+02  0.13173552901E+03  0.13449997940E+03  0.00000000000E+00 0. -1.
         -5    1    3    3    0  503  0.15703667391E+03  0.77050267095E+02  0.43278343847E+03  0.46681993877E+03  0.47000000000E+01 0.  1.
         11    1    4    4    0    0  0.32849734795E+02 -0.19516769763E+02  0.15056730925E+03  0.15534002702E+03  0.00000000000E+00 0. -1.
        -12    1    4    4    0    0 -0.23389831764E+02  0.34297793638E+02  0.12966294144E+03  0.13614661678E+03  0.00000000000E+00 0.  1.
</event>
<event>
12    1  0.9962621E-001  0.1923271E+03  0.7818608E-02  0.1157215E+00
         21   -1    0    0  503  502  0.00000000000E+00  0.00000000000E+00  0.44084072263E+02  0.44084072263E+02  0.00000000000E+00 0. -1.
         21   -1    0    0  501  503 -0.00000000000E+00 -0.00000000000E+00 -0.10235394105E+04  0.10235394105E+04  0.00000000000E+00 0. -1.
          6    2    1    2  501    0  0.25687127328E+02  0.81884583530E+02 -0.25723901972E+03  0.32118782261E+03  0.17211853647E+03 0.  0.
         24    2    3    3    0    0 -0.74573041414E+01 -0.18144977725E+02 -0.14769931880E+03  0.16911710702E+03  0.80004096845E+02 0.  0.
         -6    2    1    2    0  502 -0.25687127328E+02 -0.81884583530E+02 -0.72221631852E+03  0.74643566016E+03  0.16794305726E+03 0.  0.
        -24    2    5    5    0    0  0.25420448450E+02 -0.10057153318E+03 -0.56626818286E+03  0.58119917082E+03  0.79824737800E+02 0.  0.
          5    1    3    3  501    0  0.33144431469E+02  0.10002956125E+03 -0.10953970092E+03  0.15207071559E+03  0.47000000000E+01 0. -1.
        -13    1    4    4    0    0 -0.23750206510E+02  0.10240989333E+02 -0.10243974168E+02  0.27818863717E+02  0.00000000000E+00 0.  1.
         14    1    4    4    0    0  0.16292902368E+02 -0.28385967057E+02 -0.13745534463E+03  0.14129824330E+03  0.00000000000E+00 0. -1.
         -5    1    5    5    0  502 -0.51107575778E+02  0.18686949649E+02 -0.15594813567E+03  0.16523648933E+03  0.47000000000E+01 0.  1.
         11    1    6    6    0    0  0.35424722476E+02 -0.12062799658E+02 -0.10652912047E+03  0.11291091890E+03  0.00000000000E+00 0. -1.
        -12    1    6    6    0    0 -0.10004274026E+02 -0.88508733521E+02 -0.45973906238E+03  0.46828825192E+03  0.00000000000E+00 0.  1.
</event>
<event>
12    1  0.9962621E-001  0.1734026E+03  0.7818608E-02  0.1175176E+00
         21   -1    0    0  501  502  0.00000000000E+00  0.00000000000E+00  0.16408087257E+03  0.16408087257E+03  0.00000000000E+00 0.  1.
         21   -1    0    0  502  503 -0.00000000000E+00 -0.00000000000E+00 -0.20232806308E+03  0.20232806308E+03  0.00000000000E+00 0.  1.
         -6    2    1    2    0  503  0.22741632556E+02  0.67722184146E+01  0.42101815927E+02  0.17529529828E+03  0.16850173263E+03 0.  0.
        -24    2    3    3    0    0 -0.31797425492E+02  0.14026146257E+02  0.71475663578E+02  0.11274898545E+03  0.79973459285E+02 0.  0.
          6    2    1    2  501    0 -0.22741632556E+02 -0.67722184146E+01 -0.80349006429E+02  0.19111363737E+03  0.17177140263E+03 0.  0.
         24    2    5    5    0    0 -0.73813342418E+02  0.12187572878E+02 -0.84892466180E+02  0.13624537459E+03  0.75888897950E+02 0.  0.
          5    1    5    5  501    0  0.51071709863E+02 -0.18959791292E+02  0.45434597513E+01  0.54868262781E+02  0.47000000000E+01 0. -1.
        -13    1    6    6    0    0 -0.10973411287E+02  0.78296166795E+01  0.13718165397E+02  0.19232959068E+02  0.00000000000E+00 0.  1.
         14    1    6    6    0    0 -0.62839931131E+02  0.43579561984E+01 -0.98610631578E+02  0.11701241552E+03  0.00000000000E+00 0. -1.
         -5    1    3    3    0  503  0.54539058048E+02 -0.72539278425E+01 -0.29373847652E+02  0.62546312823E+02  0.47000000000E+01 0.  1.
         13    1    4    4    0    0 -0.53921091785E+02  0.20559126065E+02  0.29401166037E+02  0.64765657320E+02  0.00000000000E+00 0. -1.
        -14    1    4    4    0    0  0.22123666292E+02 -0.65329798075E+01  0.42074497542E+02  0.47983328133E+02  0.00000000000E+00 0.  1.
</event>
<event>
12    1  0.9962621E-001  0.1833485E+03  0.7818608E-02  0.1165643E+00
         21   -1    0    0  501  502  0.00000000000E+00  0.00000000000E+00  0.16229729928E+03  0.16229729928E+03  0.00000000000E+00 0.  1.
         21   -1    0    0  502  503 -0.00000000000E+00 -0.00000000000E+00 -0.25445570490E+03  0.25445570490E+03  0.00000000000E+00 0.  1.
         -6    2    1    2    0  503  0.52138209633E+01 -0.64621764029E+02  0.47868145213E+02  0.18949413633E+03  0.17150367944E+03 0.  0.
        -24    2    3    3    0    0  0.39976634319E+02 -0.86631946175E+02 -0.17556123442E+01  0.12486048701E+03  0.80522255631E+02 0.  0.
          6    2    1    2  501    0 -0.52138209633E+01  0.64621764029E+02 -0.14002655082E+03  0.22725886785E+03  0.16684124719E+03 0.  0.
         24    2    5    5    0    0 -0.56337425027E+02  0.70723091243E+02 -0.12493049270E+03  0.17339951344E+03  0.79272329108E+02 0.  0.
          5    1    5    5  501    0  0.51123604063E+02 -0.61013272132E+01 -0.15096058123E+02  0.53859354406E+02  0.47000000000E+01 0. -1.
        -11    1    6    6    0    0  0.73729946231E+00  0.20365464597E+02 -0.85074910135E+02  0.87481632891E+02  0.00000000000E+00 0.  1.
         12    1    6    6    0    0 -0.57074724489E+02  0.50357626646E+02 -0.39855582566E+02  0.85917880552E+02  0.00000000000E+00 0. -1.
         -5    1    3    3    0  503 -0.34762813355E+02  0.22010182146E+02  0.49623757557E+02  0.64633649321E+02  0.47000000000E+01 0.  1.
         11    1    4    4    0    0  0.56300769265E+02 -0.25946139558E+02  0.41634081888E-01  0.61991777771E+02  0.00000000000E+00 0. -1.
        -12    1    4    4    0    0 -0.16324134947E+02 -0.60685806617E+02 -0.17972464261E+01  0.62868709238E+02  0.00000000000E+00 0.  1.
</event>
<event>
12    1  0.9962621E-001  0.4299117E+03  0.7818608E-02  0.1033889E+00
         21   -1    0    0  503  502  0.00000000000E+00  0.00000000000E+00  0.66733313711E+03  0.66733313711E+03  0.00000000000E+00 0. -1.
         21   -1    0    0  501  503 -0.00000000000E+00 -0.00000000000E+00 -0.32346510814E+03  0.32346510814E+03  0.00000000000E+00 0.  1.
          6    2    1    2  501    0 -0.34913430588E+03 -0.18284610882E+03 -0.15925543381E+02  0.43020652551E+03  0.17174565091E+03 0.  0.
         24    2    3    3    0    0 -0.21221111533E+03 -0.40317872920E+02 -0.29034463792E+02  0.23207477153E+03  0.79728358500E+02 0.  0.
         -6    2    1    2    0  502  0.34913430588E+03  0.18284610882E+03  0.35979357235E+03  0.56059171974E+03  0.17170963422E+03 0.  0.
        -24    2    5    5    0    0  0.22726535679E+03  0.17716392127E+03  0.30158718527E+03  0.42533492137E+03  0.83176725255E+02 0.  0.
          5    1    3    3  501    0 -0.13692319055E+03 -0.14252823590E+03  0.13108920412E+02  0.19813175397E+03  0.47000000000E+01 0. -1.
        -13    1    4    4    0    0 -0.17394782227E+03 -0.50573832508E+02 -0.49074643667E+02  0.18768025485E+03  0.00000000000E+00 0.  1.
         14    1    4    4    0    0 -0.38263293055E+02  0.10255959588E+02  0.20040179875E+02  0.44394516687E+02  0.00000000000E+00 0. -1.
         -5    1    5    5    0  502  0.12186894909E+03  0.56821875474E+01  0.58206387084E+02  0.13525679837E+03  0.47000000000E+01 0.  1.
         11    1    6    6    0    0  0.22252560699E+03  0.14096616655E+03  0.26478713790E+03  0.37349877413E+03  0.00000000000E+00 0. -1.
        -12    1    6    6    0    0  0.47397497992E+01  0.36197754715E+02  0.36800047368E+02  0.51836147241E+02  0.00000000000E+00 0.  1.
</event>
<event>
12    1  0.9962621E-001  0.1759209E+03  0.7818608E-02  0.1172006E+00
         21   -1    0    0  503  502  0.00000000000E+00  0.00000000000E+00  0.15901557625E+03  0.15901557625E+03  0.00000000000E+00 0.  1.
         21   -1    0    0  501  503 -0.00000000000E+00 -0.00000000000E+00 -0.19917079740E+03  0.19917079740E+03  0.00000000000E+00 0.  1.
          6    2    1    2  501    0 -0.26169064162E+02 -0.19092915997E+02 -0.49642708296E+02  0.18279102712E+03  0.17291269979E+03 0.  0.
         24    2    3    3    0    0 -0.34115187650E+02 -0.68757179484E+02 -0.69953194979E+02  0.12834577190E+03  0.75417451018E+02 0.  0.
         -6    2    1    2    0  502  0.26169064162E+02  0.19092915997E+02  0.94874871538E+01  0.17539534653E+03  0.17211669243E+03 0.  0.
        -24    2    5    5    0    0 -0.27579740186E+01 -0.44293481864E+02 -0.33552526978E+02  0.93364000158E+02  0.74976966481E+02 0.  0.
          5    1    3    3  501    0  0.79461234880E+01  0.49664263488E+02  0.20310486683E+02  0.54445255216E+02  0.47000000000E+01 0. -1.
        -13    1    4    4    0    0 -0.28223517292E+01 -0.11060773416E+02 -0.61050472651E+02  0.62108506574E+02  0.00000000000E+00 0.  1.
         14    1    4    4    0    0 -0.31292835921E+02 -0.57696406069E+02 -0.89027223271E+01  0.66237265327E+02  0.00000000000E+00 0. -1.
         -5    1    5    5    0  502  0.28927038180E+02  0.63386397860E+02  0.43040014132E+02  0.82031346375E+02  0.47000000000E+01 0.  1.
         13    1    6    6    0    0  0.20856193870E+02 -0.44132959899E+02  0.40291456083E+01  0.48978903484E+02  0.00000000000E+00 0. -1.
        -14    1    6    6    0    0 -0.23614167888E+02 -0.16052196413E+00 -0.37581672587E+02  0.44385096674E+02  0.00000000000E+00 0.  1.
</event>
<event>
12    1  0.9962621E-001  0.3827052E+03  0.7818608E-02  0.1049983E+00
         21   -1    0    0  501  502  0.00000000000E+00  0.00000000000E+00  0.27963589662E+03  0.27963589662E+03  0.00000000000E+00 0.  1.
         21   -1    0    0  502  503 -0.00000000000E+00 -0.00000000000E+00 -0.72660985646E+03  0.72660985646E+03  0.00000000000E+00 0.  1.
         -6    2    1    2    0  503  0.14079605853E+03  0.31099175007E+03 -0.48985784955E+03  0.62163012599E+03  0.17298526544E+03 0.  0.
        -24    2    3    3    0    0  0.17099444577E+03  0.28745905304E+03 -0.43328009699E+03  0.55315485668E+03  0.79855152384E+02 0.  0.
          6    2    1    2  501    0 -0.14079605853E+03 -0.31099175007E+03  0.42883889712E+02  0.38461562709E+03  0.17190332717E+03 0.  0.
         24    2    5    5    0    0 -0.61295830529E+02 -0.21687859791E+03 -0.29540136411E+02  0.24162995920E+03  0.81968972491E+02 0.  0.
          5    1    5    5  501    0 -0.79500227999E+02 -0.94113152166E+02  0.72424026123E+02  0.14298566789E+03  0.47000000000E+01 0. -1.
        -11    1    6    6    0    0 -0.21106148579E+02 -0.10615221590E+03 -0.54564609047E+02  0.12120667890E+03  0.00000000000E+00 0.  1.
         12    1    6    6    0    0 -0.40189681950E+02 -0.11072638201E+03  0.25024472636E+02  0.12042328030E+03  0.00000000000E+00 0. -1.
         -5    1    3    3    0  503 -0.30198387247E+02  0.23532697031E+02 -0.56577752564E+02  0.68475269310E+02  0.47000000000E+01 0.  1.
         13    1    4    4    0    0  0.55139413421E+02  0.34774084290E+02 -0.68946890713E+02  0.94885539413E+02  0.00000000000E+00 0. -1.
        -14    1    4    4    0    0  0.11585503235E+03  0.25268496875E+03 -0.36433320628E+03  0.45826931727E+03  0.00000000000E+00 0.  1.
</event>
<event>
12    1  0.9962621E-001  0.2101296E+03  0.7818608E-02  0.1142423E+00
         21   -1    0    0  503  502  0.00000000000E+00  0.00000000000E+00  0.25739851077E+03  0.25739851077E+03  0.00000000000E+00 0.  1.
         21   -1    0    0  501  503 -0.00000000000E+00 -0.00000000000E+00 -0.19770296512E+03  0.19770296512E+03  0.00000000000E+00 0.  1.
          6    2    1    2  501    0 -0.11379751082E+03 -0.16057565620E+02  0.11885108992E+03  0.24141260907E+03  0.17591687629E+03 0.  0.
         24    2    3    3    0    0 -0.37191294567E+02  0.40928475801E+02  0.97510272440E+01  0.96358016038E+02  0.78303589954E+02 0.  0.
         -6    2    1    2    0  502  0.11379751082E+03  0.16057565620E+02 -0.59155544265E+02  0.21368886683E+03  0.17016413990E+03 0.  0.
        -24    2    5    5    0    0  0.13860170659E+03 -0.11328352358E+02 -0.39136087801E+02  0.17140287306E+03  0.92241784937E+02 0.  0.
          5    1    3    3  501    0 -0.76606216250E+02 -0.56986041421E+02  0.10910006267E+03  0.14505459303E+03  0.47000000000E+01 0. -1.
        -13    1    4    4    0    0 -0.47454070830E+02  0.44165485532E+02  0.31513439832E+02  0.72080342956E+02  0.00000000000E+00 0.  1.
         14    1    4    4    0    0  0.10262776264E+02 -0.32370097313E+01 -0.21762412588E+02  0.24277673082E+02  0.00000000000E+00 0. -1.
         -5    1    5    5    0  502 -0.24804195775E+02  0.27385917978E+02 -0.20019456464E+02  0.42285993764E+02  0.47000000000E+01 0.  1.
         11    1    6    6    0    0  0.62460686221E+02  0.24515304830E+02 -0.53767866175E+02  0.85984422584E+02  0.00000000000E+00 0. -1.
        -12    1    6    6    0    0  0.76141020370E+02 -0.35843657188E+02  0.14631778374E+02  0.85418450478E+02  0.00000000000E+00 0.  1.
</event>
<event>
12    1  0.9962621E-001  0.1984674E+03  0.7818608E-02  0.1155752E+00
         21   -1    0    0  503  502  0.00000000000E+00  0.00000000000E+00  0.15452572136E+03  0.15452572136E+03  0.00000000000E+00 0. -1.
         21   -1    0    0  501  503 -0.00000000000E+00 -0.00000000000E+00 -0.34342851171E+03  0.34342851171E+03  0.00000000000E+00 0. -1.
          6    2    1    2  501    0 -0.40530497835E+02  0.17480076534E+02  0.52719313185E+02  0.18527143274E+03  0.17204041233E+03 0.  0.
         24    2    3    3    0    0 -0.63926361869E+02  0.63128620717E+02  0.58471095518E+02  0.13344162432E+03  0.79473238235E+02 0.  0.
         -6    2    1    2    0  502  0.40530497835E+02 -0.17480076534E+02 -0.24162210354E+03  0.31268280034E+03  0.19349681748E+03 0.  0.
        -24    2    5    5    0    0 -0.19681311904E+02 -0.67403642694E+02 -0.84097890118E+02  0.13674590169E+03  0.81831420743E+02 0.  0.
          5    1    3    3  501    0  0.23395864034E+02 -0.45648544183E+02 -0.57517823333E+01  0.51829808412E+02  0.47000000000E+01 0. -1.
        -13    1    4    4    0    0 -0.32978584311E+02  0.64014959881E+02  0.56705044792E+01  0.72233349173E+02  0.00000000000E+00 0.  1.
         14    1    4    4    0    0 -0.30947777558E+02 -0.88633916335E+00  0.52800591039E+02  0.61208275151E+02  0.00000000000E+00 0. -1.
         -5    1    5    5    0  502  0.60211809738E+02  0.49923566160E+02 -0.15752421342E+03  0.17593689864E+03  0.47000000000E+01 0.  1.
         13    1    6    6    0    0 -0.40673430900E+02 -0.22975638381E+02 -0.98987686521E+01  0.47751372347E+02  0.00000000000E+00 0. -1.
        -14    1    6    6    0    0  0.20992118996E+02 -0.44428004312E+02 -0.74199121466E+02  0.88994529345E+02  0.00000000000E+00 0.  1.
</event>
<event>
12    1  0.9962621E-001  0.2072042E+03  0.7818608E-02  0.1144443E+00
         21   -1    0    0  501  502  0.00000000000E+00  0.00000000000E+00  0.31982708429E+02  0.31982708429E+02  0.00000000000E+00 0.  1.
         21   -1    0    0  502  503 -0.00000000000E+00 -0.00000000000E+00 -0.13719760442E+04  0.13719760442E+04  0.00000000000E+00 0.  1.
         -6    2    1    2    0  503  0.58882014695E+02 -0.98052549326E+02 -0.54091065389E+03  0.57923907989E+03  0.17277784029E+03 0.  0.
        -24    2    3    3    0    0  0.26215848065E+02 -0.41948059497E+02 -0.11916481302E+03  0.15249977245E+03  0.81295864289E+02 0.  0.
          6    2    1    2  501    0 -0.58882014695E+02  0.98052549326E+02 -0.79908268189E+03  0.82471967275E+03  0.16896156971E+03 0.  0.
         24    2    5    5    0    0 -0.44358253085E+02  0.41113623682E+02 -0.26187406644E+03  0.28428635825E+03  0.92642982168E+02 0.  0.
          5    1    5    5  501    0 -0.14523761609E+02  0.56938925644E+02 -0.53720861546E+03  0.54043331450E+03  0.47000000000E+01 0. -1.
        -11    1    6    6    0    0 -0.22890174168E+02  0.63857196795E+02 -0.22932041844E+03  0.23914337952E+03  0.00000000000E+00 0.  1.
         12    1    6    6    0    0 -0.21468078917E+02 -0.22743573114E+02 -0.32553647998E+02  0.45142978727E+02  0.00000000000E+00 0. -1.
         -5    1    3    3    0  503  0.32666166630E+02 -0.56104489829E+02 -0.42174584087E+03  0.42673930744E+03  0.47000000000E+01 0.  1.
         13    1    4    4    0    0 -0.11055140231E+02 -0.54235683128E+02 -0.61412326280E+02  0.82675263949E+02  0.00000000000E+00 0. -1.
        -14    1    4    4    0    0  0.37270988296E+02  0.12287623631E+02 -0.57752486742E+02  0.69824508505E+02  0.00000000000E+00 0.  1.
</event>
<event>
12    1  0.9962621E-001  0.4507082E+03  0.7818608E-02  0.1027527E+00
         21   -1    0    0  503  502  0.00000000000E+00  0.00000000000E+00  0.12810973693E+03  0.12810973693E+03  0.00000000000E+00 0.  1.
         21   -1    0    0  501  503 -0.00000000000E+00 -0.00000000000E+00 -0.15896616816E+04  0.15896616816E+04  0.00000000000E+00 0. -1.
          6    2    1    2  501    0  0.39799536576E+03 -0.12284713274E+03 -0.77797528401E+03  0.89910147142E+03  0.17218067311E+03 0.  0.
         24    2    3    3    0    0  0.88802537764E+02 -0.66990795902E+02 -0.28266758846E+03  0.31252501560E+03  0.73466062666E+02 0.  0.
         -6    2    1    2    0  502 -0.39799536576E+03  0.12284713274E+03 -0.68357666069E+03  0.81866994715E+03  0.17161498226E+03 0.  0.
        -24    2    5    5    0    0 -0.21048229448E+03  0.75849428705E+01 -0.40671189382E+03  0.46494305610E+03  0.79982205497E+02 0.  0.
          5    1    3    3  501    0  0.30919282799E+03 -0.55856336842E+02 -0.49530769555E+03  0.58657645582E+03  0.47000000000E+01 0. -1.
        -13    1    4    4    0    0  0.96278832344E+02 -0.58682860400E+02 -0.27873500053E+03  0.30067672371E+03  0.00000000000E+00 0.  1.
         14    1    4    4    0    0 -0.74762945800E+01 -0.83079355024E+01 -0.39325879332E+01  0.11848291894E+02  0.00000000000E+00 0. -1.
         -5    1    5    5    0  502 -0.18751307127E+03  0.11526218987E+03 -0.27686476687E+03  0.35372689105E+03  0.47000000000E+01 0.  1.
         13    1    6    6    0    0 -0.13520282503E+03  0.33405795521E+02 -0.30890584160E+03  0.33884888969E+03  0.00000000000E+00 0. -1.
        -14    1    6    6    0    0 -0.75279469452E+02 -0.25820852650E+02 -0.97806052222E+02  0.12609416641E+03  0.00000000000E+00 0.  1.
</event>
<event>
12    1  0.9962621E-001  0.2155158E+03  0.7818608E-02  0.1140292E+00
         21   -1    0    0  501  502  0.00000000000E+00  0.00000000000E+00  0.18503895943E+03  0.18503895943E+03  0.00000000000E+00 0. -1.
         21   -1    0    0  502  503 -0.00000000000E+00 -0.00000000000E+00 -0.26184183370E+03  0.26184183370E+03  0.00000000000E+00 0. -1.
         -6    2    1    2    0  503  0.33111675123E+02 -0.95837234326E+02 -0.11292856020E+03  0.24331033778E+03  0.19017334789E+03 0.  0.
        -24    2    3    3    0    0 -0.45154226811E+02 -0.98807918490E+02 -0.84406834453E+02  0.15982408017E+03  0.81346874211E+02 0.  0.
          6    2    1    2  501    0 -0.33111675123E+02  0.95837234326E+02  0.36125685939E+02  0.20357045535E+03  0.17278514576E+03 0.  0.
         24    2    5    5    0    0 -0.40746972466E+02  0.86462924215E+02  0.87230011497E+02  0.15084553196E+03  0.77518685354E+02 0.  0.
          5    1    5    5  501    0  0.76352973432E+01  0.93743101113E+01 -0.51104325558E+02  0.52724923389E+02  0.47000000000E+01 0. -1.
        -11    1    6    6    0    0 -0.19721255735E+02  0.54334778006E+02  0.25410876538E+01  0.57858907310E+02  0.00000000000E+00 0.  1.
         12    1    6    6    0    0 -0.21025716731E+02  0.32128146209E+02  0.84688923843E+02  0.92986624654E+02  0.00000000000E+00 0. -1.
         -5    1    3    3    0  503  0.78265901934E+02  0.29706841637E+01 -0.28521725748E+02  0.83486257609E+02  0.47000000000E+01 0.  1.
         11    1    4    4    0    0 -0.59104576526E+01 -0.76310497904E+02 -0.16608042139E+02  0.78320193205E+02  0.00000000000E+00 0. -1.
        -12    1    4    4    0    0 -0.39243769158E+02 -0.22497420586E+02 -0.67798792314E+02  0.81503886963E+02  0.00000000000E+00 0.  1.
</event>
<event>
12    1  0.9962621E-001  0.1789816E+03  0.7818608E-02  0.1170790E+00
         21   -1    0    0  501  502  0.00000000000E+00  0.00000000000E+00  0.67489880922E+02  0.67489880922E+02  0.00000000000E+00 0.  1.
         21   -1    0    0  502  503 -0.00000000000E+00 -0.00000000000E+00 -0.48936819044E+03  0.48936819044E+03  0.00000000000E+00 0.  1.
         -6    2    1    2    0  503 -0.11154963617E+02 -0.50439072016E+02 -0.13130905685E+03  0.21558854007E+03  0.16299637113E+03 0.  0.
        -24    2    3    3    0    0 -0.20396389755E+02 -0.92791093259E+02 -0.82090264210E+02  0.14983386564E+03  0.81762926269E+02 0.  0.
          6    2    1    2  501    0  0.11154963617E+02  0.50439072016E+02 -0.29056925267E+03  0.34126953129E+03  0.17136472563E+03 0.  0.
         24    2    5    5    0    0 -0.47025575734E+02  0.25218206358E+02 -0.24119616060E+03  0.26076574601E+03  0.83521396666E+02 0.  0.
          5    1    5    5  501    0  0.58180539351E+02  0.25220865658E+02 -0.49373092076E+02  0.80503785282E+02  0.47000000000E+01 0. -1.
        -13    1    6    6    0    0  0.17811322934E+02 -0.14013313661E+02 -0.69144718714E+02  0.72764059195E+02  0.00000000000E+00 0.  1.
         14    1    6    6    0    0 -0.64836898668E+02  0.39231520019E+02 -0.17205144188E+03  0.18800168682E+03  0.00000000000E+00 0. -1.
         -5    1    3    3    0  503  0.92414261385E+01  0.42352021243E+02 -0.49218792637E+02  0.65754674428E+02  0.47000000000E+01 0.  1.
         11    1    4    4    0    0  0.15317899672E+02 -0.79047283290E+02 -0.76674652511E+02  0.11118504119E+03  0.00000000000E+00 0. -1.
        -12    1    4    4    0    0 -0.35714289428E+02 -0.13743809969E+02 -0.54156116989E+01  0.38648824456E+02  0.00000000000E+00 0.  1.
</event>
<event>
12    1  0.9962621E-001  0.2052691E+03  0.7818608E-02  0.1145462E+00
         21   -1    0    0  501  502  0.00000000000E+00  0.00000000000E+00  0.17693102035E+03  0.17693102035E+03  0.00000000000E+00 0.  1.
         21   -1    0    0  502  503 -0.00000000000E+00 -0.00000000000E+00 -0.25279895280E+03  0.25279895280E+03  0.00000000000E+00 0.  1.
         -6    2    1    2    0  503 -0.94597190454E+02 -0.60201348481E+02  0.14765078264E+02  0.20534247822E+03  0.17139047531E+03 0.  0.
        -24    2    3    3    0    0 -0.11095987039E+03 -0.48663050198E+02 -0.38311369934E+02  0.14842087446E+03  0.76686436983E+02 0.  0.
          6    2    1    2  501    0  0.94597190454E+02  0.60201348481E+02 -0.90633010716E+02  0.22438749493E+03  0.17193770515E+03 0.  0.
         24    2    5    5    0    0  0.26953220081E+02  0.60200541955E+02 -0.11264987447E+03  0.15309556679E+03  0.79985480108E+02 0.  0.
          5    1    5    5  501    0  0.67643970373E+02  0.80652543955E-03  0.22016863757E+02  0.71291928142E+02  0.47000000000E+01 0. -1.
        -11    1    6    6    0    0 -0.58244576166E+01  0.12874642615E+02 -0.90207221428E+02  0.91307302702E+02  0.00000000000E+00 0.  1.
         12    1    6    6    0    0  0.32777677697E+02  0.47325899340E+02 -0.22442653045E+02  0.61788264090E+02  0.00000000000E+00 0. -1.
         -5    1    3    3    0  503  0.16362679936E+02 -0.11538298283E+02  0.53076448199E+02  0.56921603766E+02  0.47000000000E+01 0.  1.
         11    1    4    4    0    0 -0.46803911845E+02  0.17982983608E+02 -0.20735847139E+02  0.54258356223E+02  0.00000000000E+00 0. -1.
        -12    1    4    4    0    0 -0.64155958544E+02 -0.66646033806E+02 -0.17575522795E+02  0.94162518235E+02  0.00000000000E+00 0.  1.
</event>
<event>
12    1  0.9962621E-001  0.1889365E+03  0.7818608E-02  0.1159682E+00
         21   -1    0    0  501  502  0.00000000000E+00  0.00000000000E+00  0.11208266113E+04  0.11208266113E+04  0.00000000000E+00 0. -1.
         21   -1    0    0  502  503 -0.00000000000E+00 -0.00000000000E+00 -0.32553034539E+02  0.32553034539E+02  0.00000000000E+00 0. -1.
         -6    2    1    2    0  503 -0.76126806689E+02  0.18796989231E+02  0.45011256875E+03  0.48815807973E+03  0.17189638960E+03 0.  0.
        -24    2    3    3    0    0 -0.12506941400E+01  0.31979628439E+02  0.10889516880E+03  0.13854169247E+03  0.79444206176E+02 0.  0.
          6    2    1    2  501    0  0.76126806689E+02 -0.18796989231E+02  0.63816100804E+03  0.66522156614E+03  0.17065064422E+03 0.  0.
         24    2    5    5    0    0 -0.25917908652E+02  0.32483804510E+02  0.26400529028E+03  0.27399601116E+03  0.60399381552E+02 0.  0.
          5    1    5    5  501    0  0.10204471534E+03 -0.51280793741E+02  0.37415571776E+03  0.39122555498E+03  0.47000000000E+01 0. -1.
        -11    1    6    6    0    0 -0.70286439517E+01 -0.14343452823E+02  0.12665790440E+03  0.12766111868E+03  0.00000000000E+00 0.  1.
         12    1    6    6    0    0 -0.18889264701E+02  0.46827257334E+02  0.13734738587E+03  0.14633489248E+03  0.00000000000E+00 0. -1.
         -5    1    3    3    0  503 -0.74876112549E+02 -0.13182639208E+02  0.34121739995E+03  0.34961638726E+03  0.47000000000E+01 0.  1.
         11    1    4    4    0    0  0.20051187850E+02  0.10509955403E+02  0.10573654697E+03  0.10813291202E+03  0.00000000000E+00 0. -1.
        -12    1    4    4    0    0 -0.21301881990E+02  0.21469673036E+02  0.31586218244E+01  0.30408780450E+02  0.00000000000E+00 0.  1.
</event>
<event>
12    1  0.9962621E-001  0.3020678E+03  0.7818608E-02  0.1084301E+00
         21   -1    0    0  501  502  0.00000000000E+00  0.00000000000E+00  0.35241360822E+03  0.35241360822E+03  0.00000000000E+00 0. -1.
         21   -1    0    0  502  503 -0.00000000000E+00 -0.00000000000E+00 -0.25878701379E+03  0.25878701379E+03  0.00000000000E+00 0. -1.
         -6    2    1    2    0  503 -0.20594890597E+03  0.13714036700E+03  0.33472894255E+02  0.30320153474E+03  0.17201251085E+03 0.  0.
        -24    2    3    3    0    0 -0.51851966775E+02  0.74351323716E+02  0.59834411081E+02  0.13466266624E+03  0.79606099851E+02 0.  0.
          6    2    1    2  501    0  0.20594890597E+03 -0.13714036700E+03  0.60153700179E+02  0.30799908727E+03  0.17327013010E+03 0.  0.
         24    2    5    5    0    0  0.11404406479E+03 -0.44468923801E+01  0.12809699669E+02  0.13972073922E+03  0.79573695379E+02 0.  0.
          5    1    5    5  501    0  0.91904841173E+02 -0.13269347462E+03  0.47344000510E+02  0.16827834805E+03  0.47000000000E+01 0. -1.
        -11    1    6    6    0    0  0.83856866022E+02  0.61527030520E+01  0.44120390382E+02  0.94954929210E+02  0.00000000000E+00 0.  1.
         12    1    6    6    0    0  0.30187198771E+02 -0.10599595432E+02 -0.31310690713E+02  0.44765810010E+02  0.00000000000E+00 0. -1.
         -5    1    3    3    0  503 -0.15409693919E+03  0.62789043285E+02 -0.26361516826E+02  0.16853886850E+03  0.47000000000E+01 0.  1.
         13    1    4    4    0    0 -0.52876993603E+02  0.89226522642E+02  0.43286266686E+02  0.11238794277E+03  0.00000000000E+00 0. -1.
        -14    1    4    4    0    0  0.10250268285E+01 -0.14875198926E+02  0.16548144396E+02  0.22274723478E+02  0.00000000000E+00 0.  1.
</event>
<event>
12    1  0.9962621E-001  0.3057032E+03  0.7818608E-02  0.1082514E+00
         21   -1    0    0  501  502  0.00000000000E+00  0.00000000000E+00  0.21762464121E+03  0.21762464121E+03  0.00000000000E+00 0. -1.
         21   -1    0    0  502  503 -0.00000000000E+00 -0.00000000000E+00 -0.45568133690E+03  0.45568133690E+03  0.00000000000E+00 0. -1.
         -6    2    1    2    0  503 -0.24692306577E+03  0.50901000510E+02 -0.20154604062E+03  0.36616286955E+03  0.17289455829E+03 0.  0.
        -24    2    3    3    0    0 -0.75154120205E+02  0.44017493720E+02 -0.26903231811E+02  0.12106257581E+03  0.79666064555E+02 0.  0.
          6    2    1    2  501    0  0.24692306577E+03 -0.50901000510E+02 -0.36510655068E+02  0.30714310856E+03  0.17158656397E+03 0.  0.
         24    2    5    5    0    0  0.13007548263E+03 -0.94938554523E+02 -0.11586717719E+02  0.17972271574E+03  0.78949618188E+02 0.  0.
          5    1    5    5  501    0  0.11684758315E+03  0.44037554013E+02 -0.24923937350E+02  0.12742039281E+03  0.47000000000E+01 0. -1.
        -13    1    6    6    0    0  0.12325434330E+03 -0.73866771511E+02  0.15733330304E+02  0.14455265739E+03  0.00000000000E+00 0.  1.
         14    1    6    6    0    0  0.68211393299E+01 -0.21071783012E+02 -0.27320048023E+02  0.35170058359E+02  0.00000000000E+00 0. -1.
         -5    1    3    3    0  503 -0.17176894557E+03  0.68835067894E+01 -0.17464280880E+03  0.24510029375E+03  0.47000000000E+01 0.  1.
         11    1    4    4    0    0  0.14037419953E+02  0.18527244792E+01  0.81824748612E+01  0.16353429053E+02  0.00000000000E+00 0. -1.
        -12    1    4    4    0    0 -0.89191540158E+02  0.42164769241E+02 -0.35085706673E+02  0.10470914675E+03  0.00000000000E+00 0.  1.
</event>
<event>
12    1  0.9962621E-001  0.2007404E+03  0.7818608E-02  0.1149150E+00
         21   -1    0    0  501  502  0.00000000000E+00  0.00000000000E+00  0.36460062526E+03  0.36460062526E+03  0.00000000000E+00 0.  1.
         21   -1    0    0  502  503 -0.00000000000E+00 -0.00000000000E+00 -0.11121377902E+03  0.11121377902E+03  0.00000000000E+00 0.  1.
         -6    2    1    2    0  503  0.57719532408E+02  0.84259377365E+02  0.14666575141E+03  0.24861125237E+03  0.17281644907E+03 0.  0.
        -24    2    3    3    0    0 -0.13174453925E+02  0.33593970700E+02  0.17139799148E+02  0.92431858588E+02  0.83353192282E+02 0.  0.
          6    2    1    2  501    0 -0.57719532408E+02 -0.84259377365E+02  0.10672109482E+03  0.22720315191E+03  0.17262877241E+03 0.  0.
         24    2    5    5    0    0  0.92149647915E+00 -0.73297209704E+02  0.39519241764E+01  0.10828077461E+03  0.79597602595E+02 0.  0.
          5    1    5    5  501    0 -0.58641028887E+02 -0.10962167661E+02  0.10276917065E+03  0.11892237731E+03  0.47000000000E+01 0. -1.
        -11    1    6    6    0    0  0.33548323127E+02 -0.83411010934E+01  0.79824034201E+01  0.35479328016E+02  0.00000000000E+00 0.  1.
         12    1    6    6    0    0 -0.32626826648E+02 -0.64956108611E+02 -0.40304792437E+01  0.72801446592E+02  0.00000000000E+00 0. -1.
         -5    1    3    3    0  503  0.70893986332E+02  0.50665406665E+02  0.12952595227E+03  0.15617939378E+03  0.47000000000E+01 0.  1.
         11    1    4    4    0    0  0.35093079391E+02  0.21119499967E+02  0.68312231585E+01  0.41523765603E+02  0.00000000000E+00 0. -1.
        -12    1    4    4    0    0 -0.48267533316E+02  0.12474470733E+02  0.10308575990E+02  0.50908092985E+02  0.00000000000E+00 0.  1.
</event>
<event>
12    1  0.9962621E-001  0.3057580E+03  0.7818608E-02  0.1082425E+00
         21   -1    0    0  501  502  0.00000000000E+00  0.00000000000E+00  0.48245332668E+03  0.48245332668E+03  0.00000000000E+00 0.  1.
         21   -1    0    0  502  503 -0.00000000000E+00 -0.00000000000E+00 -0.10237204087E+04  0.10237204087E+04  0.00000000000E+00 0.  1.
         -6    2    1    2    0  503  0.64798028626E+02  0.24397711751E+03  0.40752048140E+03  0.50933583151E+03  0.17212329336E+03 0.  0.
        -24    2    3    3    0    0  0.49044658956E+02  0.14719849586E+03  0.36028370544E+03  0.40039698046E+03  0.80253459761E+02 0.  0.
          6    2    1    2  501    0 -0.64798028626E+02 -0.24397711751E+03 -0.94878756346E+03  0.99683790392E+03  0.17252347005E+03 0.  0.
         24    2    5    5    0    0 -0.10782234568E+03 -0.14432232329E+03 -0.68512818235E+03  0.71167035822E+03  0.67966766066E+02 0.  0.
          5    1    5    5  501    0  0.43024317057E+02 -0.99654794220E+02 -0.26365938111E+03  0.28516754569E+03  0.47000000000E+01 0. -1.
        -11    1    6    6    0    0 -0.55692302593E+02 -0.41703611454E+02 -0.36271689666E+03  0.36932962364E+03  0.00000000000E+00 0.  1.
         12    1    6    6    0    0 -0.52130043089E+02 -0.10261871183E+03 -0.32241128569E+03  0.34234073458E+03  0.00000000000E+00 0. -1.
         -5    1    3    3    0  503  0.15753369670E+02  0.96778621646E+02  0.47236775962E+02  0.10893885104E+03  0.47000000000E+01 0.  1.
         13    1    4    4    0    0  0.33531290513E+02  0.24057427788E+02  0.15598899791E+03  0.16135573973E+03  0.00000000000E+00 0. -1.
        -14    1    4    4    0    0  0.15513368443E+02  0.12314106807E+03  0.20429470753E+03  0.23904124073E+03  0.00000000000E+00 0.  1.
</event>
<event>
12    1  0.9962621E-001  0.2383797E+03  0.7818608E-02  0.1121136E+00
         21   -1    0    0  501  502  0.00000000000E+00  0.00000000000E+00  0.12590984247E+03  0.12590984247E+03  0.00000000000E+00 0.  1.
         21   -1    0    0  502  503 -0.00000000000E+00 -0.00000000000E+00 -0.46231947868E+03  0.46231947868E+03  0.00000000000E+00 0.  1.
         -6    2    1    2    0  503  0.75515109534E+02 -0.14352388611E+03 -0.11771154803E+03  0.26585875617E+03  0.17470899245E+03 0.  0.
        -24    2    3    3    0    0  0.38336929810E+02 -0.13835464925E+03 -0.14519706819E+03  0.21909892431E+03  0.79438157496E+02 0.  0.
          6    2    1    2  501    0 -0.75515109534E+02  0.14352388611E+03 -0.21869808818E+03  0.32237056498E+03  0.17260443140E+03 0.  0.
         24    2    5    5    0    0 -0.49703702703E+01  0.67946372225E+02 -0.18624154978E+03  0.21390841616E+03  0.80184048033E+02 0.  0.
          5    1    5    5  501    0 -0.70544739264E+02  0.75577513882E+02 -0.32456538401E+02  0.10846214882E+03  0.47000000000E+01 0. -1.
        -11    1    6    6    0    0 -0.34346054497E+02  0.61250840101E+02 -0.15668769763E+03  0.17170425580E+03  0.00000000000E+00 0.  1.
         12    1    6    6    0    0  0.29375684227E+02  0.66955321236E+01 -0.29553852152E+02  0.42204160355E+02  0.00000000000E+00 0. -1.
         -5    1    3    3    0  503  0.37178179725E+02 -0.51692368560E+01  0.27485520158E+02  0.46759831861E+02  0.47000000000E+01 0.  1.
         13    1    4    4    0    0  0.20491726656E+02  0.29685243724E+01 -0.11235182144E+02  0.23557425923E+02  0.00000000000E+00 0. -1.
        -14    1    4    4    0    0  0.17845203153E+02 -0.14132317362E+03 -0.13396188605E+03  0.19554149839E+03  0.00000000000E+00 0.  1.
</event>
<event>
12    1  0.9962621E-001  0.1761907E+03  0.7818608E-02  0.1172168E+00
         21   -1    0    0  503  502  0.00000000000E+00  0.00000000000E+00  0.42098935818E+03  0.42098935818E+03  0.00000000000E+00 0.  1.
         21   -1    0    0  501  503 -0.00000000000E+00 -0.00000000000E+00 -0.72719067320E+02  0.72719067320E+02  0.00000000000E+00 0.  1.
          6    2    1    2  501    0  0.89586531236E+01 -0.47049680106E+02  0.17978589256E+03  0.25172631332E+03  0.16955600783E+03 0.  0.
         24    2    3    3    0    0  0.63287941748E+02 -0.49924817448E+01  0.13471659615E+03  0.16942314804E+03  0.80779659379E+02 0.  0.
         -6    2    1    2    0  502 -0.89586531236E+01  0.47049680106E+02  0.16848439830E+03  0.24198211218E+03  0.16695634244E+03 0.  0.
        -24    2    5    5    0    0  0.60217274703E+01  0.69212685132E+02  0.18359024718E+03  0.21090338529E+03  0.77124588068E+02 0.  0.
          5    1    3    3  501    0 -0.54329288625E+02 -0.42057198361E+02  0.45069296407E+02  0.82303165280E+02  0.47000000000E+01 0. -1.
        -11    1    4    4    0    0  0.16833926521E+02  0.33781586413E+02  0.28937488446E+02  0.47560013670E+02  0.00000000000E+00 0.  1.
         12    1    4    4    0    0  0.46454015227E+02 -0.38774068158E+02  0.10577910771E+03  0.12186313438E+03  0.00000000000E+00 0. -1.
         -5    1    5    5    0  502 -0.14980380594E+02 -0.22163005026E+02 -0.15105848876E+02  0.31078726885E+02  0.47000000000E+01 0.  1.
         13    1    6    6    0    0  0.40575795826E+02  0.47784078632E+02  0.10154746079E+03  0.11933817566E+03  0.00000000000E+00 0. -1.
        -14    1    6    6    0    0 -0.34554068356E+02  0.21428606499E+02  0.82042786391E+02  0.91565209633E+02  0.00000000000E+00 0.  1.
</event>
<event>
12    1  0.9962621E-001  0.3812156E+03  0.7818608E-02  0.1050766E+00
         21   -1    0    0  501  502  0.00000000000E+00  0.00000000000E+00  0.25898066338E+04  0.25898066338E+04  0.00000000000E+00 0.  1.
         21   -1    0    0  502  503 -0.00000000000E+00 -0.00000000000E+00 -0.70990095187E+02  0.70990095187E+02  0.00000000000E+00 0.  1.
         -6    2    1    2    0  503  0.14868346207E+03 -0.30401205670E+03  0.63739311331E+03  0.74114066512E+03  0.16878803890E+03 0.  0.
        -24    2    3    3    0    0  0.10133837617E+03 -0.29568874568E+03  0.49661521073E+03  0.59230739424E+03  0.80623079394E+02 0.  0.
          6    2    1    2  501    0 -0.14868346207E+03  0.30401205670E+03  0.18814234253E+04  0.19196560638E+04  0.17548559990E+03 0.  0.
         24    2    5    5    0    0 -0.66885321943E+02  0.21394386180E+03  0.15159651926E+04  0.15344482949E+04  0.78329318309E+02 0.  0.
          5    1    5    5  501    0 -0.81798140126E+02  0.90068194907E+02  0.36545823262E+03  0.38520776894E+03  0.47000000000E+01 0. -1.
        -11    1    6    6    0    0 -0.39491927051E+02  0.42878293897E+02  0.54898971087E+03  0.55207595766E+03  0.00000000000E+00 0.  1.
         12    1    6    6    0    0 -0.27393394892E+02  0.17106556790E+03  0.96697548178E+03  0.98237233724E+03  0.00000000000E+00 0. -1.
         -5    1    3    3    0  503  0.47345085896E+02 -0.83233110230E+01  0.14077790258E+03  0.14883327088E+03  0.47000000000E+01 0.  1.
         11    1    4    4    0    0  0.10109773665E+03 -0.19610123312E+03  0.37535802596E+03  0.43539647867E+03  0.00000000000E+00 0. -1.
        -12    1    4    4    0    0  0.24063952441E+00 -0.99587512560E+02  0.12125718478E+03  0.15691091557E+03  0.00000000000E+00 0.  1.
</event>
<event>
12    1  0.9962621E-001  0.2118210E+03  0.7818608E-02  0.1140214E+00
         21   -1    0    0  501  502  0.00000000000E+00  0.00000000000E+00  0.23342805190E+03  0.23342805190E+03  0.00000000000E+00 0.  1.
         21   -1    0    0  502  503 -0.00000000000E+00 -0.00000000000E+00 -0.19186420579E+03  0.19186420579E+03  0.00000000000E+00 0.  1.
         -6    2    1    2    0  503 -0.36975951666E+02 -0.11728397863E+03  0.18167540862E+02  0.21218309893E+03  0.17195596904E+03 0.  0.
        -24    2    3    3    0    0 -0.31235391498E+01 -0.69282986798E+02 -0.54421738415E+02  0.11868778078E+03  0.79468074964E+02 0.  0.
          6    2    1    2  501    0  0.36975951666E+02  0.11728397863E+03  0.23396305250E+02  0.21310915875E+03  0.17246847190E+03 0.  0.
         24    2    5    5    0    0 -0.44759852761E+02  0.56991920676E+02  0.27282686967E+02  0.11135913202E+03  0.80031167894E+02 0.  0.
          5    1    5    5  501    0  0.81735804427E+02  0.60292057953E+02 -0.38863817165E+01  0.10175002673E+03  0.47000000000E+01 0. -1.
        -11    1    6    6    0    0 -0.28358399234E+02  0.23445448303E+02  0.54070790885E+02  0.65402891986E+02  0.00000000000E+00 0.  1.
         12    1    6    6    0    0 -0.16401453527E+02  0.33546472373E+02 -0.26788103918E+02  0.45956240034E+02  0.00000000000E+00 0. -1.
         -5    1    3    3    0  503 -0.33852412516E+02 -0.48000991832E+02  0.72589279277E+02  0.93495318150E+02  0.47000000000E+01 0.  1.
         13    1    4    4    0    0 -0.20817175268E+02 -0.30385437283E+02  0.12834144165E+02  0.39004420794E+02  0.00000000000E+00 0. -1.
        -14    1    4    4    0    0  0.17693636119E+02 -0.38897549515E+02 -0.67255882580E+02  0.79683359988E+02  0.00000000000E+00 0.  1.
</event>
<event>
12    1  0.9962621E-001  0.2298882E+03  0.7818608E-02  0.1129819E+00
         21   -1    0    0  501  502  0.00000000000E+00  0.00000000000E+00  0.20622006907E+03  0.20622006907E+03  0.00000000000E+00 0.  1.
         21   -1    0    0  502  503 -0.00000000000E+00 -0.00000000000E+00 -0.24172344355E+03  0.24172344355E+03  0.00000000000E+00 0.  1.
         -6    2    1    2    0  503  0.50854264956E+02 -0.11396528883E+03  0.11521389599E+02  0.21329498160E+03  0.17259131912E+03 0.  0.
        -24    2    3    3    0    0  0.15863852076E+02 -0.35758890413E+02 -0.55586168923E+02  0.10436342438E+03  0.79193068683E+02 0.  0.
          6    2    1    2  501    0 -0.50854264956E+02  0.11396528883E+03 -0.47024764074E+02  0.23464853101E+03  0.19306569179E+03 0.  0.
         24    2    5    5    0    0 -0.99142938130E+02  0.12357896716E+03 -0.52858593039E+02  0.18484549568E+03  0.79200650954E+02 0.  0.
          5    1    5    5  501    0  0.48288673174E+02 -0.96136783239E+01  0.58338289655E+01  0.49803035331E+02  0.47000000000E+01 0. -1.
        -13    1    6    6    0    0 -0.22665355381E+02  0.14159192922E+02 -0.43458086587E+02  0.51017706422E+02  0.00000000000E+00 0.  1.
         14    1    6    6    0    0 -0.76477582749E+02  0.10941977424E+03 -0.94005064517E+01  0.13382778926E+03  0.00000000000E+00 0. -1.
         -5    1    3    3    0  503  0.34990412880E+02 -0.78206398422E+02  0.67107558522E+02  0.10893155722E+03  0.47000000000E+01 0.  1.
         13    1    4    4    0    0  0.46653459026E+02 -0.10204876057E+02 -0.36054557200E+02  0.59838247211E+02  0.00000000000E+00 0. -1.
        -14    1    4    4    0    0 -0.30789606950E+02 -0.25554014356E+02 -0.19531611724E+02  0.44525177174E+02  0.00000000000E+00 0.  1.
</event>
<event>
12    1  0.9962621E-001  0.2986941E+03  0.7818608E-02  0.1085930E+00
         21   -1    0    0  501  502  0.00000000000E+00  0.00000000000E+00  0.15948992150E+04  0.15948992150E+04  0.00000000000E+00 0.  1.
         21   -1    0    0  502  503 -0.00000000000E+00 -0.00000000000E+00 -0.56811210624E+02  0.56811210624E+02  0.00000000000E+00 0. -1.
         -6    2    1    2    0  503  0.23283895277E+03 -0.72856251123E+02  0.87471310325E+03  0.92430577853E+03  0.17232570315E+03 0.  0.
        -24    2    3    3    0    0  0.18552634071E+03 -0.24439584676E+02  0.78940114536E+03  0.81529716874E+03  0.80857829897E+02 0.  0.
          6    2    1    2  501    0 -0.23283895277E+03  0.72856251123E+02  0.66337490110E+03  0.72740464707E+03  0.17184076907E+03 0.  0.
         24    2    5    5    0    0 -0.62606299969E+02  0.55417584733E+01  0.16831225435E+03  0.19956043595E+03  0.86862493350E+02 0.  0.
          5    1    5    5  501    0 -0.17023265281E+03  0.67314492650E+02  0.49506264675E+03  0.52784421112E+03  0.47000000000E+01 0. -1.
        -11    1    6    6    0    0 -0.60040637512E+02  0.38023556646E+02  0.89542244971E+02  0.11431746431E+03  0.00000000000E+00 0.  1.
         12    1    6    6    0    0 -0.25656624568E+01 -0.32481798173E+02  0.78770009375E+02  0.85242971636E+02  0.00000000000E+00 0. -1.
         -5    1    3    3    0  503  0.47312612063E+02 -0.48416666447E+02  0.85311957892E+02  0.10900860979E+03  0.47000000000E+01 0.  1.
         11    1    4    4    0    0  0.36672398157E+01  0.74378502108E+01  0.13763036862E+03  0.13787997908E+03  0.00000000000E+00 0. -1.
        -12    1    4    4    0    0  0.18185910089E+03 -0.31877434887E+02  0.65177077674E+03  0.67741718966E+03  0.00000000000E+00 0.  1.
</event>
<event>
12    1  0.9962621E-001  0.2733551E+03  0.7818608E-02  0.1099449E+00
         21   -1    0    0  503  502  0.00000000000E+00  0.00000000000E+00  0.20431799467E+03  0.20431799467E+03  0.00000000000E+00 0. -1.
         21   -1    0    0  501  503 -0.00000000000E+00 -0.00000000000E+00 -0.45113455680E+03  0.45113455680E+03  0.00000000000E+00 0. -1.
          6    2    1    2  501    0 -0.17520069751E+03 -0.11656625351E+03  0.19880865194E+02  0.27354876489E+03  0.17363957529E+03 0.  0.
         24    2    3    3    0    0 -0.54542372893E+02 -0.12062388331E+03  0.18571977151E+02  0.15272368949E+03  0.73855367645E+02 0.  0.
         -6    2    1    2    0  502  0.17520069751E+03  0.11656625351E+03 -0.26669742733E+03  0.38190378657E+03  0.17447065251E+03 0.  0.
        -24    2    5    5    0    0  0.24413374990E+02  0.21758535161E+02 -0.50843539198E+02  0.10201039417E+03  0.82168170898E+02 0.  0.
          5    1    3    3  501    0 -0.12065832462E+03  0.40576297919E+01  0.13088880432E+01  0.12082507541E+03  0.47000000000E+01 0. -1.
        -13    1    4    4    0    0 -0.64374127408E+02 -0.10534815681E+03 -0.42764386008E+01  0.12353360008E+03  0.00000000000E+00 0.  1.
         14    1    4    4    0    0  0.98317545153E+01 -0.15275726497E+02  0.22848415752E+02  0.29190089401E+02  0.00000000000E+00 0. -1.
         -5    1    5    5    0  502  0.15078732252E+03  0.94807718353E+02 -0.21585388813E+03  0.27989339241E+03  0.47000000000E+01 0.  1.
         11    1    6    6    0    0 -0.18896012586E+02  0.37787226525E+02 -0.24974070307E+02  0.49077876562E+02  0.00000000000E+00 0. -1.
        -12    1    6    6    0    0  0.43309387576E+02 -0.16028691364E+02 -0.25869468892E+02  0.52932517603E+02  0.00000000000E+00 0.  1.
</event>
<event>
12    1  0.9962621E-001  0.1188082E+04  0.7818608E-02  0.9123645E-01
         21   -1    0    0  503  502  0.00000000000E+00  0.00000000000E+00  0.10310132463E+04  0.10310132463E+04  0.00000000000E+00 0.  1.
         21   -1    0    0  501  503 -0.00000000000E+00 -0.00000000000E+00 -0.14096557541E+04  0.14096557541E+04  0.00000000000E+00 0.  1.
          6    2    1    2  501    0 -0.31616770644E+03 -0.11322747782E+04 -0.40029624130E+03  0.12537044127E+04  0.17184144383E+03 0.  0.
         24    2    3    3    0    0 -0.31730059974E+03 -0.11192368700E+04 -0.41077512491E+03  0.12362927069E+04  0.79451949264E+02 0.  0.
         -6    2    1    2    0  502  0.31616770644E+03  0.11322747782E+04  0.21653733441E+02  0.11869645877E+04  0.16250494283E+03 0.  0.
        -24    2    5    5    0    0  0.28738666539E+03  0.81589106001E+03  0.22001233888E+01  0.86864471968E+03  0.79180118956E+02 0.  0.
          5    1    3    3  501    0  0.11328933040E+01 -0.13037908169E+02  0.10478883602E+02  0.17411705781E+02  0.47000000000E+01 0. -1.
        -13    1    4    4    0    0 -0.13806430548E+02 -0.17025988681E+02 -0.13606449999E+01  0.21962540150E+02  0.00000000000E+00 0.  1.
         14    1    4    4    0    0 -0.30349416919E+03 -0.11022108813E+04 -0.40941447991E+03  0.12143301668E+04  0.00000000000E+00 0. -1.
         -5    1    5    5    0  502  0.28781041042E+02  0.31638371816E+03  0.19453610052E+02  0.31831986803E+03  0.47000000000E+01 0.  1.
         11    1    6    6    0    0  0.23233192709E+03  0.61295146919E+03 -0.28583485056E+02  0.65612852670E+03  0.00000000000E+00 0. -1.
        -12    1    6    6    0    0  0.55054738301E+02  0.20293959082E+03  0.30783608444E+02  0.21251619298E+03  0.00000000000E+00 0.  1.
</event>
<event>
12    1  0.9962621E-001  0.4418749E+03  0.7818608E-02  0.1030215E+00
         21   -1    0    0  501  502  0.00000000000E+00  0.00000000000E+00  0.24886714414E+03  0.24886714414E+03  0.00000000000E+00 0. -1.
         21   -1    0    0  502  503 -0.00000000000E+00 -0.00000000000E+00 -0.78593229439E+03  0.78593229439E+03  0.00000000000E+00 0. -1.
         -6    2    1    2    0  503 -0.37999783128E+03 -0.14424764956E+03 -0.29664384688E+03  0.53175285830E+03  0.17192380358E+03 0.  0.
        -24    2    3    3    0    0 -0.35909665836E+03 -0.16763762861E+03 -0.24989750184E+03  0.47526161187E+03  0.79825144649E+02 0.  0.
          6    2    1    2  501    0  0.37999783128E+03  0.14424764956E+03 -0.24042130337E+03  0.50304658023E+03  0.17334278926E+03 0.  0.
         24    2    5    5    0    0  0.11329323818E+03  0.64134281110E+02 -0.35549278929E+02  0.15729503912E+03  0.80804791117E+02 0.  0.
          5    1    5    5  501    0  0.26670459310E+03  0.80113368455E+02 -0.20487202444E+03  0.34575154112E+03  0.47000000000E+01 0. -1.
        -13    1    6    6    0    0  0.11869907073E+02  0.49027836520E+02 -0.15868389164E+02  0.52881274780E+02  0.00000000000E+00 0.  1.
         14    1    6    6    0    0  0.10142333111E+03  0.15106444590E+02 -0.19680889765E+02  0.10441376434E+03  0.00000000000E+00 0. -1.
         -5    1    3    3    0  503 -0.20901172920E+02  0.23389979042E+02 -0.46746345039E+02  0.56491246433E+02  0.47000000000E+01 0.  1.
         11    1    4    4    0    0 -0.50973968916E+02 -0.32905749843E+02 -0.84232560014E+01  0.61254266148E+02  0.00000000000E+00 0. -1.
        -12    1    4    4    0    0 -0.30812268945E+03 -0.13473187876E+03 -0.24147424584E+03  0.41400734572E+03  0.00000000000E+00 0.  1.
</event>
<event>
12    1  0.9962621E-001  0.1746661E+03  0.7818608E-02  0.1173126E+00
         21   -1    0    0  501  502  0.00000000000E+00  0.00000000000E+00  0.49890752375E+03  0.49890752375E+03  0.00000000000E+00 0.  1.
         21   -1    0    0  502  503 -0.00000000000E+00 -0.00000000000E+00 -0.14999436409E+03  0.14999436409E+03  0.00000000000E+00 0.  1.
         -6    2    1    2    0  503  0.17663925115E+02  0.27015197745E+02  0.42432235753E+03  0.45886568831E+03  0.17165786217E+03 0.  0.
        -24    2    3    3    0    0  0.69718552611E+02  0.10692846669E+02  0.17631172704E+03  0.20488248764E+03  0.76915506232E+02 0.  0.
          6    2    1    2  501    0 -0.17663925115E+02 -0.27015197745E+02 -0.75409197874E+02  0.19003619953E+03  0.17142162888E+03 0.  0.
         24    2    5    5    0    0 -0.42166439189E+02 -0.54159770097E+02  0.20267386788E+01  0.10427131584E+03  0.78467256530E+02 0.  0.
          5    1    5    5  501    0  0.24502514075E+02  0.27144572352E+02 -0.77435936553E+02  0.85764883688E+02  0.47000000000E+01 0. -1.
        -11    1    6    6    0    0 -0.40627502547E+02 -0.29880293487E+02 -0.33983227641E+02  0.60813531907E+02  0.00000000000E+00 0.  1.
         12    1    6    6    0    0 -0.15389366422E+01 -0.24279476610E+02  0.36009966319E+02  0.43457783938E+02  0.00000000000E+00 0. -1.
         -5    1    3    3    0  503 -0.52054627497E+02  0.16322351076E+02  0.24801063049E+03  0.25398320067E+03  0.47000000000E+01 0.  1.
         11    1    4    4    0    0 -0.63421045786E+01  0.52902093004E+01  0.87239074171E+02  0.87629131384E+02  0.00000000000E+00 0. -1.
        -12    1    4    4    0    0  0.76060657190E+02  0.54026373690E+01  0.89072652873E+02  0.11725335625E+03  0.00000000000E+00 0.  1.
</event>
<event>
12    1  0.9962621E-001  0.2428639E+03  0.7818608E-02  0.1118062E+00
         21   -1    0    0  501  502  0.00000000000E+00  0.00000000000E+00  0.62974036807E+02  0.62974036807E+02  0.00000000000E+00 0. -1.
         21   -1    0    0  502  503 -0.00000000000E+00 -0.00000000000E+00 -0.93518795388E+03  0.93518795388E+03  0.00000000000E+00 0. -1.
         -6    2    1    2    0  503 -0.16998259657E+03  0.78354934615E+01 -0.46035547098E+03  0.52002994149E+03  0.17189677802E+03 0.  0.
        -24    2    3    3    0    0 -0.39757055845E+02  0.88089679782E+01 -0.87368642848E+02  0.12493387334E+03  0.79479378133E+02 0.  0.
          6    2    1    2  501    0  0.16998259657E+03 -0.78354934615E+01 -0.41185844610E+03  0.47813204920E+03  0.17328415609E+03 0.  0.
         24    2    5    5    0    0  0.94579778596E+02  0.35585212225E+02 -0.34395223070E+03  0.36765903561E+03  0.81598943719E+02 0.  0.
          5    1    5    5  501    0  0.75402817976E+02 -0.43420705686E+02 -0.67906215401E+02  0.11047301359E+03  0.47000000000E+01 0. -1.
        -13    1    6    6    0    0  0.91573374662E+02  0.85630985263E+01 -0.18728044115E+03  0.20864556847E+03  0.00000000000E+00 0.  1.
         14    1    6    6    0    0  0.30064039340E+01  0.27022113698E+02 -0.15667178954E+03  0.15901346714E+03  0.00000000000E+00 0. -1.
         -5    1    3    3    0  503 -0.13022554073E+03 -0.97347451671E+00 -0.37298682813E+03  0.39509606815E+03  0.47000000000E+01 0.  1.
         11    1    4    4    0    0  0.10860748620E+02 -0.24884658345E+02 -0.17461499452E+02  0.32281667315E+02  0.00000000000E+00 0. -1.
        -12    1    4    4    0    0 -0.50617804465E+02  0.33693626323E+02 -0.69907143396E+02  0.92652206026E+02  0.00000000000E+00 0.  1.
</event>
<event>
12    1  0.9962621E-001  0.2132645E+03  0.7818608E-02  0.1139104E+00
         21   -1    0    0  501  502  0.00000000000E+00  0.00000000000E+00  0.28713883453E+03  0.28713883453E+03  0.00000000000E+00 0.  1.
         21   -1    0    0  502  503 -0.00000000000E+00 -0.00000000000E+00 -0.38831139178E+03  0.38831139178E+03  0.00000000000E+00 0.  1.
         -6    2    1    2    0  503  0.55688243037E+02  0.11226567390E+03  0.20947074778E+03  0.29893099587E+03  0.17256008858E+03 0.  0.
        -24    2    3    3    0    0 -0.22916242303E+02  0.11489613767E+02  0.10043414017E+03  0.13086686760E+03  0.79887140013E+02 0.  0.
          6    2    1    2  501    0 -0.55688243037E+02 -0.11226567390E+03 -0.31064330503E+03  0.37651923044E+03  0.17193808765E+03 0.  0.
         24    2    5    5    0    0 -0.11813665266E+02 -0.41963261168E+01 -0.79520133723E+02  0.11759072135E+03  0.85714375928E+02 0.  0.
          5    1    5    5  501    0 -0.43874577771E+02 -0.10806934778E+03 -0.23112317131E+03  0.25892850909E+03  0.47000000000E+01 0. -1.
        -13    1    6    6    0    0 -0.41989607950E+02  0.14074513650E+02 -0.20428213771E+02  0.48770185853E+02  0.00000000000E+00 0.  1.
         14    1    6    6    0    0  0.30175942684E+02 -0.18270839767E+02 -0.59091919952E+02  0.68820535498E+02  0.00000000000E+00 0. -1.
         -5    1    3    3    0  503  0.78604485341E+02  0.10077606013E+03  0.10903660761E+03  0.16806412827E+03  0.47000000000E+01 0.  1.
         11    1    4    4    0    0 -0.21837301159E+02  0.27060209317E+02  0.10804467603E+03  0.11350231129E+03  0.00000000000E+00 0. -1.
        -12    1    4    4    0    0 -0.10789411444E+01 -0.15570595549E+02 -0.76105358635E+01  0.17364556311E+02  0.00000000000E+00 0.  1.
</event>
<event>
12    1  0.9962621E-001  0.1969219E+03  0.7818608E-02  0.1152480E+00
         21   -1    0    0  501  502  0.00000000000E+00  0.00000000000E+00  0.11998993538E+03  0.11998993538E+03  0.00000000000E+00 0. -1.
         21   -1    0    0  502  503 -0.00000000000E+00 -0.00000000000E+00 -0.47108817848E+03  0.47108817848E+03  0.00000000000E+00 0. -1.
         -6    2    1    2    0  503  0.90819137226E+02  0.18186639846E+02 -0.34148251349E+03  0.39392155360E+03  0.17316181397E+03 0.  0.
        -24    2    3    3    0    0  0.10516742028E+03 -0.30254032264E+02 -0.18210542532E+03  0.22666271774E+03  0.78981699939E+02 0.  0.
          6    2    1    2  501    0 -0.90819137226E+02 -0.18186639846E+02 -0.96157296127E+01  0.19715656026E+03  0.17377968075E+03 0.  0.
         24    2    5    5    0    0 -0.65210800695E+02 -0.38301889908E+02  0.56519400433E+02  0.12328941187E+03  0.79286525691E+02 0.  0.
          5    1    5    5  501    0 -0.25608336531E+02  0.20115250062E+02 -0.66135130045E+02  0.73867148388E+02  0.47000000000E+01 0. -1.
        -13    1    6    6    0    0 -0.34253013528E+02 -0.61801120288E+02  0.38166229107E+02  0.80307586497E+02  0.00000000000E+00 0.  1.
         14    1    6    6    0    0 -0.30957787167E+02  0.23499230380E+02  0.18353171325E+02  0.42981825374E+02  0.00000000000E+00 0. -1.
         -5    1    3    3    0  503 -0.14348283055E+02  0.48440672110E+02 -0.15937708817E+03  0.16725883586E+03  0.47000000000E+01 0.  1.
         11    1    4    4    0    0  0.10115890112E+03 -0.25418632184E+02 -0.18989590064E+03  0.21665567894E+03  0.00000000000E+00 0. -1.
        -12    1    4    4    0    0  0.40085191572E+01 -0.48354000792E+01  0.77904753195E+01  0.10007038796E+02  0.00000000000E+00 0.  1.
</event>
<event>
12    1  0.9962621E-001  0.1987451E+03  0.7818608E-02  0.1151036E+00
         21   -1    0    0  503  502  0.00000000000E+00  0.00000000000E+00  0.14699014892E+04  0.14699014892E+04  0.00000000000E+00 0.  1.
         21   -1    0    0  501  503 -0.00000000000E+00 -0.00000000000E+00 -0.28022208853E+02  0.28022208853E+02  0.00000000000E+00 0.  1.
          6    2    1    2  501    0  0.83027804066E+02 -0.54247178589E+02  0.55786665346E+03  0.59184537676E+03  0.17096600342E+03 0.  0.
         24    2    3    3    0    0 -0.23486636378E+02 -0.40208512363E+02  0.23914074284E+03  0.25546656312E+03  0.76853909661E+02 0.  0.
         -6    2    1    2    0  502 -0.83027804066E+02  0.54247178589E+02  0.88401262690E+03  0.90607832130E+03  0.17223015757E+03 0.  0.
        -24    2    5    5    0    0 -0.15137081018E+02 -0.18949711603E+01  0.20148311276E+03  0.21787070806E+03  0.81482995548E+02 0.  0.
          5    1    3    3  501    0  0.10651444044E+03 -0.14038666226E+02  0.31872591062E+03  0.33637881365E+03  0.47000000000E+01 0. -1.
        -13    1    4    4    0    0 -0.33782332417E+02  0.12011374829E+02  0.80170010414E+02  0.87822261862E+02  0.00000000000E+00 0.  1.
         14    1    4    4    0    0  0.10295696039E+02 -0.52219887193E+02  0.15897073242E+03  0.16764430125E+03  0.00000000000E+00 0. -1.
         -5    1    5    5    0  502 -0.67890723048E+02  0.56142149750E+02  0.68252951414E+03  0.68820761324E+03  0.47000000000E+01 0.  1.
         13    1    6    6    0    0  0.30800790546E+02 -0.16178635484E+02  0.84739270418E+02  0.91603389104E+02  0.00000000000E+00 0. -1.
        -14    1    6    6    0    0 -0.45937871563E+02  0.14283664324E+02  0.11674384234E+03  0.12626731895E+03  0.00000000000E+00 0.  1.
</event>
<event>
12    1  0.9962621E-001  0.1997398E+03  0.7818608E-02  0.1149968E+00
         21   -1    0    0  503  502  0.00000000000E+00  0.00000000000E+00  0.31125551624E+03  0.31125551624E+03  0.00000000000E+00 0. -1.
         21   -1    0    0  501  503 -0.00000000000E+00 -0.00000000000E+00 -0.14827193925E+03  0.14827193925E+03  0.00000000000E+00 0. -1.
          6    2    1    2  501    0 -0.98819228194E+02  0.20988803702E+02  0.16612898195E+03  0.25976287187E+03  0.17225603390E+03 0.  0.
         24    2    3    3    0    0 -0.49778330427E+02  0.42361066773E+01  0.18412730160E+03  0.20470206892E+03  0.74190612909E+02 0.  0.
         -6    2    1    2    0  502  0.98819228194E+02 -0.20988803702E+02 -0.31454049641E+01  0.19976458363E+03  0.17230851853E+03 0.  0.
        -24    2    5    5    0    0  0.45971259776E+02  0.81014313132E+01  0.60899635377E+02  0.11165665701E+03  0.81113830830E+02 0.  0.
          5    1    3    3  501    0 -0.49040897767E+02  0.16752697025E+02 -0.17998319646E+02  0.55060802950E+02  0.47000000000E+01 0. -1.
        -11    1    4    4    0    0 -0.41351922926E+02  0.22486847241E+02  0.17734696423E+03  0.18348728988E+03  0.00000000000E+00 0.  1.
         12    1    4    4    0    0 -0.84264075007E+01 -0.18250740563E+02  0.67803373743E+01  0.21214779032E+02  0.00000000000E+00 0. -1.
         -5    1    5    5    0  502  0.52847968419E+02 -0.29090235015E+02 -0.64045040341E+02  0.88107926610E+02  0.47000000000E+01 0.  1.
         11    1    6    6    0    0 -0.20273517268E+02  0.94024121576E+01  0.32793801538E+02  0.39684433675E+02  0.00000000000E+00 0. -1.
        -12    1    6    6    0    0  0.66244777043E+02 -0.13009808444E+01  0.28105833839E+02  0.71972223340E+02  0.00000000000E+00 0.  1.
</event>
<event>
12    1  0.9962621E-001  0.2385419E+03  0.7818608E-02  0.1120888E+00
         21   -1    0    0  503  502  0.00000000000E+00  0.00000000000E+00  0.41293231235E+03  0.41293231235E+03  0.00000000000E+00 0. -1.
         21   -1    0    0  501  503 -0.00000000000E+00 -0.00000000000E+00 -0.15844389352E+03  0.15844389352E+03  0.00000000000E+00 0. -1.
          6    2    1    2  501    0  0.96011038709E+02 -0.13448700627E+03  0.23122329275E+03  0.33170244522E+03  0.17104802438E+03 0.  0.
         24    2    3    3    0    0 -0.23195496364E+01 -0.10485923821E+03  0.15023059665E+03  0.20082610639E+03  0.82225620632E+02 0.  0.
         -6    2    1    2    0  502 -0.96011038709E+02  0.13448700627E+03  0.23265126091E+02  0.23967376065E+03  0.17203886492E+03 0.  0.
        -24    2    5    5    0    0 -0.12991143817E+03  0.66062305849E+02  0.14217867256E+02  0.16263403321E+03  0.70756420105E+02 0.  0.
          5    1    3    3  501    0  0.98330588345E+02 -0.29627768067E+02  0.80992696094E+02  0.13087633883E+03  0.47000000000E+01 0. -1.
        -13    1    4    4    0    0  0.23748516003E+02 -0.10076428355E+03  0.13576828654E+03  0.17073505932E+03  0.00000000000E+00 0.  1.
         14    1    4    4    0    0 -0.26068065639E+02 -0.40949546602E+01  0.14462310114E+02  0.30091047069E+02  0.00000000000E+00 0. -1.
         -5    1    5    5    0  502  0.33900399466E+02  0.68424700424E+02  0.90472588350E+01  0.77039727443E+02  0.47000000000E+01 0.  1.
         11    1    6    6    0    0 -0.66328385949E+02  0.43717526021E+02  0.41856024796E+02  0.89792002293E+02  0.00000000000E+00 0. -1.
        -12    1    6    6    0    0 -0.63583052225E+02  0.22344779829E+02 -0.27638157540E+02  0.72842030917E+02  0.00000000000E+00 0.  1.
</event>
<event>
12    1  0.9962621E-001  0.1954724E+03  0.7818608E-02  0.1153766E+00
         21   -1    0    0  503  502  0.00000000000E+00  0.00000000000E+00  0.17058587572E+03  0.17058587572E+03  0.00000000000E+00 0. -1.
         21   -1    0    0  501  503 -0.00000000000E+00 -0.00000000000E+00 -0.27234169431E+03  0.27234169431E+03  0.00000000000E+00 0. -1.
          6    2    1    2  501    0 -0.89001813552E+02  0.27908614565E+02  0.43270811136E+02  0.19953042851E+03  0.17099653570E+03 0.  0.
         24    2    3    3    0    0 -0.59948616679E+02 -0.48711812825E+02  0.70836063209E+01  0.10982880124E+03  0.77752882608E+02 0.  0.
         -6    2    1    2    0  502  0.89001813552E+02 -0.27908614565E+02 -0.14502662973E+03  0.24339714152E+03  0.17178251246E+03 0.  0.
        -24    2    5    5    0    0  0.97838831677E+02 -0.18907505691E+02 -0.17054633179E+03  0.21454479251E+03  0.83746557825E+02 0.  0.
          5    1    3    3  501    0 -0.29053196872E+02  0.76620427389E+02  0.36187204815E+02  0.89701627266E+02  0.47000000000E+01 0. -1.
        -11    1    4    4    0    0  0.98871152582E+01  0.12975781361E+02 -0.67246741618E+00  0.16327221517E+02  0.00000000000E+00 0.  1.
         12    1    4    4    0    0 -0.69835731938E+02 -0.61687594185E+02  0.77560737371E+01  0.93501579727E+02  0.00000000000E+00 0. -1.
         -5    1    5    5    0  502 -0.88370181255E+01 -0.90011088734E+01  0.25519702065E+02  0.28852349017E+02  0.47000000000E+01 0.  1.
         11    1    6    6    0    0  0.30732858048E+01  0.20613556716E+02 -0.60722290659E+02  0.64199379973E+02  0.00000000000E+00 0. -1.
        -12    1    6    6    0    0  0.94765545872E+02 -0.39521062407E+02 -0.10982404113E+03  0.15034541253E+03  0.00000000000E+00 0.  1.
</event>
<event>
12    1  0.9962621E-001  0.1975940E+03  0.7818608E-02  0.1154975E+00
         21   -1    0    0  501  502  0.00000000000E+00  0.00000000000E+00  0.11731494850E+03  0.11731494850E+03  0.00000000000E+00 0. -1.
         21   -1    0    0  502  503 -0.00000000000E+00 -0.00000000000E+00 -0.34263337283E+03  0.34263337283E+03  0.00000000000E+00 0. -1.
         -6    2    1    2    0  503  0.36603886860E+02  0.79099368148E+02 -0.44638670104E+02  0.20257339757E+03  0.17733250114E+03 0.  0.
        -24    2    3    3    0    0  0.49314879681E+02  0.30576866788E+02  0.38328258888E+02  0.10550845136E+03  0.79347814961E+02 0.  0.
          6    2    1    2  501    0 -0.36603886860E+02 -0.79099368148E+02 -0.18067975422E+03  0.25737492376E+03  0.16124553705E+03 0.  0.
         24    2    5    5    0    0  0.15499238071E+02 -0.44157522128E+02 -0.45725896277E+02  0.10847797280E+03  0.86524562124E+02 0.  0.
          5    1    5    5  501    0 -0.52103124931E+02 -0.34941846020E+02 -0.13495385794E+03  0.14889695096E+03  0.47000000000E+01 0. -1.
        -11    1    6    6    0    0  0.24409406343E+02  0.17804493673E+02  0.12097077628E+01  0.30237104786E+02  0.00000000000E+00 0.  1.
         12    1    6    6    0    0 -0.89101682716E+01 -0.61962015801E+02 -0.46935604040E+02  0.78240868012E+02  0.00000000000E+00 0. -1.
         -5    1    3    3    0  503 -0.12710992821E+02  0.48522501360E+02 -0.82966928992E+02  0.97064946212E+02  0.47000000000E+01 0.  1.
         11    1    4    4    0    0  0.26570216252E+02 -0.23229654201E+02  0.30353635492E+02  0.46550364269E+02  0.00000000000E+00 0. -1.
        -12    1    4    4    0    0  0.22744663429E+02  0.53806520989E+02  0.79746233959E+01  0.58958087094E+02  0.00000000000E+00 0.  1.
</event>
<event>
12    1  0.9962621E-001  0.6285588E+03  0.7818608E-02  0.9848117E-01
         21   -1    0    0  501  502  0.00000000000E+00  0.00000000000E+00  0.42974589769E+03  0.42974589769E+03  0.00000000000E+00 0.  1.
         21   -1    0    0  502  503 -0.00000000000E+00 -0.00000000000E+00 -0.96931856190E+03  0.96931856190E+03  0.00000000000E+00 0.  1.
         -6    2    1    2    0  503 -0.59264069132E+03  0.11872163454E+03 -0.10966103985E+03  0.63754615672E+03  0.17065093838E+03 0.  0.
        -24    2    3    3    0    0 -0.43022313858E+03  0.77516401686E+02 -0.14996167115E+03  0.46514092612E+03  0.52600730416E+02 0.  0.
          6    2    1    2  501    0  0.59264069132E+03 -0.11872163454E+03 -0.42991162435E+03  0.76151830287E+03  0.17253493944E+03 0.  0.
         24    2    5    5    0    0  0.12393575937E+03 -0.40676071010E+02 -0.81510074299E+02  0.17229750104E+03  0.77639689912E+02 0.  0.
          5    1    5    5  501    0  0.46870493195E+03 -0.78045563535E+02 -0.34840155005E+03  0.58922080182E+03  0.47000000000E+01 0. -1.
        -13    1    6    6    0    0  0.48078797529E+02 -0.15854376029E+02 -0.77260802649E+02  0.92369711687E+02  0.00000000000E+00 0.  1.
         14    1    6    6    0    0  0.75856961844E+02 -0.24821694981E+02 -0.42492716496E+01  0.79927789357E+02  0.00000000000E+00 0. -1.
         -5    1    3    3    0  503 -0.16241755275E+03  0.41205232859E+02  0.40300631305E+02  0.17240523060E+03  0.47000000000E+01 0.  1.
         13    1    4    4    0    0 -0.27763828091E+02 -0.79298076696E+01 -0.98489524469E+01  0.30507603384E+02  0.00000000000E+00 0. -1.
        -14    1    4    4    0    0 -0.40245931048E+03  0.85446209356E+02 -0.14011271871E+03  0.43463332274E+03  0.00000000000E+00 0.  1.
</event>
<event>
12    1  0.9962621E-001  0.1760698E+03  0.7818608E-02  0.1172147E+00
         21   -1    0    0  503  502  0.00000000000E+00  0.00000000000E+00  0.32005287774E+03  0.32005287774E+03  0.00000000000E+00 0. -1.
         21   -1    0    0  501  503 -0.00000000000E+00 -0.00000000000E+00 -0.97769651139E+02  0.97769651139E+02  0.00000000000E+00 0. -1.
          6    2    1    2  501    0  0.34711651163E+02  0.41640314683E+01  0.14020189455E+03  0.22355998270E+03  0.17058797362E+03 0.  0.
         24    2    3    3    0    0  0.22828987137E+02  0.63439867731E+02  0.53108299809E+02  0.11743643812E+03  0.80156384756E+02 0.  0.
         -6    2    1    2    0  502 -0.34711651163E+02 -0.41640314683E+01  0.82081332048E+02  0.19426254618E+03  0.17256405736E+03 0.  0.
        -24    2    5    5    0    0 -0.36337670473E+02  0.40870817838E+02  0.10729635733E+03  0.14241016831E+03  0.76008536998E+02 0.  0.
          5    1    3    3  501    0  0.11882664026E+02 -0.59275836262E+02  0.87093594745E+02  0.10612354458E+03  0.47000000000E+01 0. -1.
        -13    1    4    4    0    0  0.34971162296E+02  0.77344486333E+02  0.50563388656E+02  0.98801862487E+02  0.00000000000E+00 0.  1.
         14    1    4    4    0    0 -0.12142175159E+02 -0.13904618603E+02  0.25449111524E+01  0.18634575628E+02  0.00000000000E+00 0. -1.
         -5    1    5    5    0  502  0.16260193100E+01 -0.45034849306E+02 -0.25215025281E+02  0.51852377870E+02  0.47000000000E+01 0.  1.
         13    1    6    6    0    0 -0.60027152841E+02  0.33127482374E+02  0.82219687140E+02  0.10705496775E+03  0.00000000000E+00 0. -1.
        -14    1    6    6    0    0  0.23689482369E+02  0.77433354639E+01  0.25076670189E+02  0.35355200562E+02  0.00000000000E+00 0.  1.
</event>
<event>
12    1  0.9962621E-001  0.1977911E+03  0.7818608E-02  0.1151643E+00
         21   -1    0    0  501  502  0.00000000000E+00  0.00000000000E+00  0.22478546069E+04  0.22478546069E+04  0.00000000000E+00 0.  1.
         21   -1    0    0  502  503 -0.00000000000E+00 -0.00000000000E+00 -0.25148757070E+02  0.25148757070E+02  0.00000000000E+00 0.  1.
         -6    2    1    2    0  503  0.36810944868E+02  0.90982973880E+02  0.17427329617E+04  0.17539211718E+04  0.17172173476E+03 0.  0.
        -24    2    3    3    0    0  0.53740304919E+01  0.11694423399E+03  0.15742284027E+04  0.15804906584E+04  0.77787037974E+02 0.  0.
          6    2    1    2  501    0 -0.36810944868E+02 -0.90982973880E+02  0.47997288821E+03  0.51908219216E+03  0.17157914095E+03 0.  0.
         24    2    5    5    0    0  0.45578574138E+02 -0.27804423994E+02  0.20209498307E+03  0.22240428235E+03  0.75965717341E+02 0.  0.
          5    1    5    5  501    0 -0.82389519006E+02 -0.63178549887E+02  0.27787790513E+03  0.29667790981E+03  0.47000000000E+01 0. -1.
        -13    1    6    6    0    0  0.10470363843E+02 -0.42425054489E+02  0.53801078315E+02  0.69311397297E+02  0.00000000000E+00 0.  1.
         14    1    6    6    0    0  0.35108210295E+02  0.14620630495E+02  0.14829390476E+03  0.15309288505E+03  0.00000000000E+00 0. -1.
         -5    1    3    3    0  503  0.31436914376E+02 -0.25961260107E+02  0.16850455895E+03  0.17343051346E+03  0.47000000000E+01 0.  1.
         11    1    4    4    0    0 -0.18026166609E+02  0.35787139074E+02  0.91449422420E+03  0.91537169942E+03  0.00000000000E+00 0. -1.
        -12    1    4    4    0    0  0.23400197101E+02  0.81157094914E+02  0.65973417851E+03  0.66511895897E+03  0.00000000000E+00 0.  1.
</event>
<event>
12    1  0.9962621E-001  0.1838660E+03  0.7818608E-02  0.1164872E+00
         21   -1    0    0  501  502  0.00000000000E+00  0.00000000000E+00  0.39438049552E+03  0.39438049552E+03  0.00000000000E+00 0. -1.
         21   -1    0    0  502  503 -0.00000000000E+00 -0.00000000000E+00 -0.87082699012E+02  0.87082699012E+02  0.00000000000E+00 0. -1.
         -6    2    1    2    0  503  0.34700423741E+02  0.41422308937E+02  0.10884113065E+03  0.21092345166E+03  0.17240180873E+03 0.  0.
        -24    2    3    3    0    0  0.74476296443E+02  0.28489514912E+02  0.12438470330E+03  0.16605620457E+03  0.75794046397E+02 0.  0.
          6    2    1    2  501    0 -0.34700423741E+02 -0.41422308937E+02  0.19845666586E+03  0.27053974288E+03  0.17574634325E+03 0.  0.
         24    2    5    5    0    0 -0.18442917203E+02 -0.93147107367E+02  0.16635675075E+03  0.20735544228E+03  0.79405202082E+02 0.  0.
          5    1    5    5  501    0 -0.16257506538E+02  0.51724798430E+02  0.32099915106E+02  0.63184300591E+02  0.47000000000E+01 0. -1.
        -13    1    6    6    0    0 -0.36040216419E+00 -0.18281777116E+02  0.11102806051E+03  0.11252370188E+03  0.00000000000E+00 0.  1.
         14    1    6    6    0    0 -0.18082515039E+02 -0.74865330250E+02  0.55328690241E+02  0.94831740400E+02  0.00000000000E+00 0. -1.
         -5    1    3    3    0  503 -0.39775872702E+02  0.12932794025E+02 -0.15543572650E+02  0.44867247088E+02  0.47000000000E+01 0.  1.
         13    1    4    4    0    0  0.49774496025E+02  0.53828823001E+02  0.95378967712E+02  0.12030041613E+03  0.00000000000E+00 0. -1.
        -14    1    4    4    0    0  0.24701800418E+02 -0.25339308089E+02  0.29005735587E+02  0.45755788435E+02  0.00000000000E+00 0.  1.
</event>
<event>
12    1  0.9962621E-001  0.1843457E+03  0.7818608E-02  0.1164455E+00
         21   -1    0    0  501  502  0.00000000000E+00  0.00000000000E+00  0.47857821909E+02  0.47857821909E+02  0.00000000000E+00 0. -1.
         21   -1    0    0  502  503 -0.00000000000E+00 -0.00000000000E+00 -0.80663173663E+03  0.80663173663E+03  0.00000000000E+00 0. -1.
         -6    2    1    2    0  503 -0.54211984900E+02  0.21745556948E+02 -0.53370333196E+03  0.56355985728E+03  0.17131449919E+03 0.  0.
        -24    2    3    3    0    0  0.33075263054E+01  0.42724701208E+02 -0.45335558724E+03  0.46243385298E+03  0.80482545155E+02 0.  0.
          6    2    1    2  501    0  0.54211984900E+02 -0.21745556948E+02 -0.22507058276E+03  0.29092970127E+03  0.17484711979E+03 0.  0.
         24    2    5    5    0    0  0.26625065743E+02 -0.56613952585E+02 -0.22341563201E+03  0.24618965226E+03  0.82345409733E+02 0.  0.
          5    1    5    5  501    0  0.27586919157E+02  0.34868395636E+02 -0.16549507568E+01  0.44740049004E+02  0.47000000000E+01 0. -1.
        -13    1    6    6    0    0  0.35997209853E+02  0.65222322571E+01 -0.11154799045E+03  0.11739375113E+03  0.00000000000E+00 0.  1.
         14    1    6    6    0    0 -0.93721441102E+01 -0.63136184842E+02 -0.11186764155E+03  0.12879590113E+03  0.00000000000E+00 0. -1.
         -5    1    3    3    0  503 -0.57519511205E+02 -0.20979144259E+02 -0.80347744718E+02  0.10112600429E+03  0.47000000000E+01 0.  1.
         11    1    4    4    0    0  0.32912851699E+02 -0.59896276915E+01 -0.14054469534E+03  0.14447125262E+03  0.00000000000E+00 0. -1.
        -12    1    4    4    0    0 -0.29605325394E+02  0.48714328899E+02 -0.31281089191E+03  0.31796260036E+03  0.00000000000E+00 0.  1.
</event>
<event>
12    1  0.9962621E-001  0.3081343E+03  0.7818608E-02  0.1081302E+00
         21   -1    0    0  501  502  0.00000000000E+00  0.00000000000E+00  0.11700269363E+04  0.11700269363E+04  0.00000000000E+00 0.  1.
         21   -1    0    0  502  503 -0.00000000000E+00 -0.00000000000E+00 -0.29455392012E+03  0.29455392012E+03  0.00000000000E+00 0.  1.
         -6    2    1    2    0  503  0.80502360665E+02  0.24178919755E+03  0.10611367459E+04  0.11048340833E+04  0.17234996990E+03 0.  0.
        -24    2    3    3    0    0  0.86932938309E+02  0.16443735468E+03  0.93572779390E+03  0.95727340036E+03  0.78669431061E+02 0.  0.
          6    2    1    2  501    0 -0.80502360665E+02 -0.24178919755E+03 -0.18566372966E+03  0.35974677312E+03  0.17321684137E+03 0.  0.
         24    2    5    5    0    0 -0.70821065437E+02 -0.62391858646E+02 -0.10802951971E+03  0.16397575066E+03  0.79431116941E+02 0.  0.
          5    1    5    5  501    0 -0.96812952277E+01 -0.17939733890E+03 -0.77634209942E+02  0.19577102246E+03  0.47000000000E+01 0. -1.
        -11    1    6    6    0    0 -0.86974687373E+02 -0.49291547992E+02 -0.75136119283E+02  0.12505874367E+03  0.00000000000E+00 0.  1.
         12    1    6    6    0    0  0.16153621936E+02 -0.13100310655E+02 -0.32893400431E+02  0.38917006987E+02  0.00000000000E+00 0. -1.
         -5    1    3    3    0  503 -0.64305776448E+01  0.77351842867E+02  0.12540895197E+03  0.14756068297E+03  0.47000000000E+01 0.  1.
         13    1    4    4    0    0  0.30621539678E+01  0.50891863414E+02  0.40094249150E+03  0.40417105295E+03  0.00000000000E+00 0. -1.
        -14    1    4    4    0    0  0.83870784342E+02  0.11354549127E+03  0.53478530240E+03  0.55310234741E+03  0.00000000000E+00 0.  1.
</event>
<event>
12    1  0.9962621E-001  0.2283010E+03  0.7818608E-02  0.1127993E+00
         21   -1    0    0  503  502  0.00000000000E+00  0.00000000000E+00  0.33592696053E+03  0.33592696053E+03  0.00000000000E+00 0.  1.
         21   -1    0    0  501  503 -0.00000000000E+00 -0.00000000000E+00 -0.15584579122E+03  0.15584579122E+03  0.00000000000E+00 0.  1.
          6    2    1    2  501    0 -0.29158180895E+02 -0.14521615661E+03  0.68042634720E+02  0.23822498108E+03  0.17373373253E+03 0.  0.
         24    2    3    3    0    0 -0.10225133950E+02 -0.77328432074E+02  0.10915632442E+03  0.15649598445E+03  0.80570777685E+02 0.  0.
         -6    2    1    2    0  502  0.29158180895E+02  0.14521615661E+03  0.11203853459E+03  0.25354777067E+03  0.17261490991E+03 0.  0.
        -24    2    5    5    0    0  0.47449976684E+02  0.17065835121E+03  0.87584335994E+02  0.21352286732E+03  0.80902569998E+02 0.  0.
          5    1    3    3  501    0 -0.18933046946E+02 -0.67887724540E+02 -0.41113689699E+02  0.81728996633E+02  0.47000000000E+01 0. -1.
        -11    1    4    4    0    0  0.28113689273E+01  0.10237849913E+01 -0.11588226755E+02  0.11968246750E+02  0.00000000000E+00 0.  1.
         12    1    4    4    0    0 -0.13036502877E+02 -0.78352217065E+02  0.12074455117E+03  0.14452773770E+03  0.00000000000E+00 0. -1.
         -5    1    5    5    0  502 -0.18291795788E+02 -0.25442194597E+02  0.24454198599E+02  0.40024903351E+02  0.47000000000E+01 0.  1.
         11    1    6    6    0    0 -0.11100183313E+01  0.11545228411E+03  0.78095015946E+02  0.13938900087E+03  0.00000000000E+00 0. -1.
        -12    1    6    6    0    0  0.48559995015E+02  0.55206067101E+02  0.94893200485E+01  0.74133866455E+02  0.00000000000E+00 0.  1.
</event>
<event>
12    1  0.9962621E-001  0.1781841E+03  0.7818608E-02  0.1169683E+00
         21   -1    0    0  501  502  0.00000000000E+00  0.00000000000E+00  0.32774693209E+03  0.32774693209E+03  0.00000000000E+00 0. -1.
         21   -1    0    0  502  503 -0.00000000000E+00 -0.00000000000E+00 -0.14896986408E+03  0.14896986408E+03  0.00000000000E+00 0. -1.
         -6    2    1    2    0  503  0.12975042062E+02 -0.43321860315E+02 -0.51974996458E+02  0.18517593921E+03  0.17188249738E+03 0.  0.
        -24    2    3    3    0    0  0.80371755210E+01 -0.41147777617E+02  0.35334690581E+02  0.97573538485E+02  0.80711332915E+02 0.  0.
          6    2    1    2  501    0 -0.12975042062E+02  0.43321860315E+02  0.23075206446E+03  0.29154085696E+03  0.17234970475E+03 0.  0.
         24    2    5    5    0    0 -0.39455050199E+02 -0.34585549830E+02  0.12448445567E+03  0.15705795818E+03  0.80112179354E+02 0.  0.
          5    1    5    5  501    0  0.26480008137E+02  0.77907410144E+02  0.10626760879E+03  0.13448289878E+03  0.47000000000E+01 0. -1.
        -11    1    6    6    0    0 -0.20438738027E+02 -0.12018773222E+02 -0.50178862614E+01  0.24235760859E+02  0.00000000000E+00 0.  1.
         12    1    6    6    0    0 -0.19016312172E+02 -0.22566776608E+02  0.12950234194E+03  0.13282219732E+03  0.00000000000E+00 0. -1.
         -5    1    3    3    0  503  0.49378665411E+01 -0.21740826975E+01 -0.87309687039E+02  0.87602400723E+02  0.47000000000E+01 0.  1.
         13    1    4    4    0    0 -0.19664892029E+02 -0.34588929074E+02 -0.12674882563E+02  0.41758288291E+02  0.00000000000E+00 0. -1.
        -14    1    4    4    0    0  0.27702067550E+02 -0.65588485433E+01  0.48009573144E+02  0.55815250194E+02  0.00000000000E+00 0.  1.
</event>
<event>
12    1  0.9962621E-001  0.1883787E+03  0.7818608E-02  0.1162829E+00
         21   -1    0    0  503  502  0.00000000000E+00  0.00000000000E+00  0.68557733111E+03  0.68557733111E+03  0.00000000000E+00 0.  1.
         21   -1    0    0  501  503 -0.00000000000E+00 -0.00000000000E+00 -0.49923333539E+02  0.49923333539E+02  0.00000000000E+00 0.  1.
          6    2    1    2  501    0 -0.10734937486E+02  0.77372934401E+02  0.26502216610E+03  0.32515115199E+03  0.17141969915E+03 0.  0.
         24    2    3    3    0    0 -0.67349484309E+00  0.77724167858E+01  0.40117841192E+02  0.89461716412E+02  0.79580735504E+02 0.  0.
         -6    2    1    2    0  502  0.10734937486E+02 -0.77372934401E+02  0.37063183146E+03  0.41034951265E+03  0.15785106328E+03 0.  0.
        -24    2    5    5    0    0  0.50579906404E+02 -0.15257816926E+02  0.26966125076E+03  0.28519737510E+03  0.76349359473E+02 0.  0.
          5    1    3    3  501    0 -0.10061442643E+02  0.69600517615E+02  0.22490432491E+03  0.23568943558E+03  0.47000000000E+01 0. -1.
        -11    1    4    4    0    0 -0.38992130936E+02  0.13394249266E+02  0.20193439342E+02  0.45908247416E+02  0.00000000000E+00 0.  1.
         12    1    4    4    0    0  0.38318636093E+02 -0.56218324802E+01  0.19924401850E+02  0.43553468995E+02  0.00000000000E+00 0. -1.
         -5    1    5    5    0  502 -0.39844968918E+02 -0.62115117475E+02  0.10097058070E+03  0.12515213756E+03  0.47000000000E+01 0.  1.
         11    1    6    6    0    0  0.29525823013E+02  0.18139525789E+02  0.43496349597E+02  0.55612490042E+02  0.00000000000E+00 0. -1.
        -12    1    6    6    0    0  0.21054083391E+02 -0.33397342715E+02  0.22616490116E+03  0.22958488505E+03  0.00000000000E+00 0.  1.
</event>
<event>
12    1  0.9962621E-001  0.2139055E+03  0.7818608E-02  0.1138516E+00
         21   -1    0    0  501  502  0.00000000000E+00  0.00000000000E+00  0.78618730133E+02  0.78618730133E+02  0.00000000000E+00 0.  1.
         21   -1    0    0  502  503 -0.00000000000E+00 -0.00000000000E+00 -0.59682755096E+03  0.59682755096E+03  0.00000000000E+00 0.  1.
         -6    2    1    2    0  503 -0.88194732041E+02  0.90256328481E+02 -0.31251271401E+03  0.37870800448E+03  0.17271664844E+03 0.  0.
        -24    2    3    3    0    0 -0.32518106270E+02 -0.19800456426E+02 -0.10022546420E+03  0.13314671072E+03  0.78951995485E+02 0.  0.
          6    2    1    2  501    0  0.88194732041E+02 -0.90256328481E+02 -0.20569610682E+03  0.29673827661E+03  0.17267947434E+03 0.  0.
         24    2    5    5    0    0  0.43351182324E+02 -0.10285126202E+03 -0.20837436694E+03  0.24984649291E+03  0.80905414607E+02 0.  0.
          5    1    5    5  501    0  0.44843549717E+02  0.12594933535E+02  0.26782601229E+01  0.46891783708E+02  0.47000000000E+01 0. -1.
        -13    1    6    6    0    0  0.51567870587E+02 -0.68287922174E+02 -0.81795246846E+02  0.11837629830E+03  0.00000000000E+00 0.  1.
         14    1    6    6    0    0 -0.82166882627E+01 -0.34563339841E+02 -0.12657912009E+03  0.13147019461E+03  0.00000000000E+00 0. -1.
         -5    1    3    3    0  503 -0.55676625771E+02  0.11005678491E+03 -0.21228724981E+03  0.24556129376E+03  0.47000000000E+01 0.  1.
         13    1    4    4    0    0 -0.35588863672E+02 -0.21659516106E+02 -0.11270628415E+03  0.12015992819E+03  0.00000000000E+00 0. -1.
        -14    1    4    4    0    0  0.30707574018E+01  0.18590596801E+01  0.12480819949E+02  0.12986782531E+02  0.00000000000E+00 0.  1.
</event>
<event>
12    1  0.9962621E-001  0.1867550E+03  0.7818608E-02  0.1161430E+00
         21   -1    0    0  501  502  0.00000000000E+00  0.00000000000E+00  0.88384960201E+03  0.88384960201E+03  0.00000000000E+00 0. -1.
         21   -1    0    0  502  503 -0.00000000000E+00 -0.00000000000E+00 -0.40557776575E+02  0.40557776575E+02  0.00000000000E+00 0. -1.
         -6    2    1    2    0  503 -0.62474088081E+02 -0.37649551602E+02  0.34529562366E+03  0.39254496268E+03  0.17187780424E+03 0.  0.
        -24    2    3    3    0    0 -0.37841970830E+01 -0.55111378377E+02  0.30193324512E+03  0.31736647791E+03  0.80661097314E+02 0.  0.
          6    2    1    2  501    0  0.62474088081E+02  0.37649551602E+02  0.49799620178E+03  0.53186241591E+03  0.17192123792E+03 0.  0.
         24    2    5    5    0    0  0.92003398013E+01 -0.79715121819E+01  0.10193275510E+03  0.12960911572E+03  0.79120446509E+02 0.  0.
          5    1    5    5  501    0  0.53273748279E+02  0.45621063784E+02  0.39606344668E+03  0.40225330019E+03  0.47000000000E+01 0. -1.
        -13    1    6    6    0    0  0.24668926193E+02  0.18057782006E+02  0.90014330643E+01  0.31869502784E+02  0.00000000000E+00 0.  1.
         14    1    6    6    0    0 -0.15468586392E+02 -0.26029294188E+02  0.92931322036E+02  0.97739612933E+02  0.00000000000E+00 0. -1.
         -5    1    3    3    0  503 -0.58689890998E+02  0.17461826776E+02  0.43362378538E+02  0.75178484769E+02  0.47000000000E+01 0.  1.
         13    1    4    4    0    0 -0.19468599950E+02 -0.53608167326E+02  0.29445124731E+03  0.29992398876E+03  0.00000000000E+00 0. -1.
        -14    1    4    4    0    0  0.15684402867E+02 -0.15032110510E+01  0.74819978082E+01  0.17442489156E+02  0.00000000000E+00 0.  1.
</event>
<event>
12    1  0.9962621E-001  0.1849842E+03  0.7818608E-02  0.1163938E+00
         21   -1    0    0  501  502  0.00000000000E+00  0.00000000000E+00  0.73032583875E+03  0.73032583875E+03  0.00000000000E+00 0.  1.
         21   -1    0    0  502  503 -0.00000000000E+00 -0.00000000000E+00 -0.46661459288E+02  0.46661459288E+02  0.00000000000E+00 0.  1.
         -6    2    1    2    0  503  0.36176427640E+02 -0.57370334545E+02  0.39413120794E+03  0.43538323535E+03  0.17210189815E+03 0.  0.
        -24    2    3    3    0    0  0.28399970008E+01  0.40864324073E+02  0.13464540446E+03  0.15589023370E+03  0.67040446420E+02 0.  0.
          6    2    1    2  501    0 -0.36176427640E+02  0.57370334545E+02  0.28953317152E+03  0.34160406269E+03  0.16811837803E+03 0.  0.
         24    2    5    5    0    0  0.33990755596E+02 -0.45787581965E+01  0.15160927904E+03  0.17485210975E+03  0.80072156817E+02 0.  0.
          5    1    5    5  501    0 -0.70167183236E+02  0.61949092742E+02  0.13792389247E+03  0.16675195294E+03  0.47000000000E+01 0. -1.
        -13    1    6    6    0    0  0.31000830759E+02 -0.17391886722E+01  0.92010385368E+01  0.32384184337E+02  0.00000000000E+00 0.  1.
         14    1    6    6    0    0  0.29899248368E+01 -0.28395695243E+01  0.14240824051E+03  0.14246792541E+03  0.00000000000E+00 0. -1.
         -5    1    3    3    0  503  0.33336430639E+02 -0.98234658618E+02  0.25948580349E+03  0.27949300165E+03  0.47000000000E+01 0.  1.
         13    1    4    4    0    0  0.33726569103E+02  0.14150494732E+02  0.77011411913E+02  0.85255354843E+02  0.00000000000E+00 0. -1.
        -14    1    4    4    0    0 -0.30886572102E+02  0.26713829341E+02  0.57633992544E+02  0.70634878855E+02  0.00000000000E+00 0.  1.
</event>
<event>
12    1  0.9962621E-001  0.3478617E+03  0.7818608E-02  0.1063514E+00
         21   -1    0    0  503  502  0.00000000000E+00  0.00000000000E+00  0.60847083892E+03  0.60847083892E+03  0.00000000000E+00 0.  1.
         21   -1    0    0  501  503 -0.00000000000E+00 -0.00000000000E+00 -0.28383443420E+03  0.28383443420E+03  0.00000000000E+00 0.  1.
          6    2    1    2  501    0  0.28121446388E+03 -0.11017955218E+03  0.40658780686E+03  0.53509009130E+03  0.17258810130E+03 0.  0.
         24    2    3    3    0    0  0.23310284612E+03 -0.27048207983E+02  0.23380177292E+03  0.33734618703E+03  0.63801555317E+02 0.  0.
         -6    2    1    2    0  502 -0.28121446388E+03  0.11017955218E+03 -0.81951402136E+02  0.35721518183E+03  0.17223688747E+03 0.  0.
        -24    2    5    5    0    0 -0.29842310688E+03  0.11438882139E+03 -0.76525960822E+02  0.33810024644E+03  0.79463203946E+02 0.  0.
          5    1    3    3  501    0  0.48111617759E+02 -0.83131344195E+02  0.17278603394E+03  0.19774390427E+03  0.47000000000E+01 0. -1.
        -11    1    4    4    0    0  0.21463870952E+03 -0.31609111623E+02  0.18553815942E+03  0.28547034901E+03  0.00000000000E+00 0.  1.
         12    1    4    4    0    0  0.18464136594E+02  0.45609036402E+01  0.48263613502E+02  0.51875838022E+02  0.00000000000E+00 0. -1.
         -5    1    5    5    0  502  0.17208643006E+02 -0.42092692159E+01 -0.54254413137E+01  0.19114935388E+02  0.47000000000E+01 0.  1.
         11    1    6    6    0    0 -0.39553627924E+01  0.13688831473E+02 -0.15332011530E+02  0.20930828447E+02  0.00000000000E+00 0. -1.
        -12    1    6    6    0    0 -0.29446774409E+03  0.10069998992E+03 -0.61193949292E+02  0.31716941799E+03  0.00000000000E+00 0.  1.
</event>
<event>
12    1  0.9962621E-001  0.2230270E+03  0.7818608E-02  0.1132032E+00
         21   -1    0    0  503  502  0.00000000000E+00  0.00000000000E+00  0.34810047191E+03  0.34810047191E+03  0.00000000000E+00 0. -1.
         21   -1    0    0  501  503 -0.00000000000E+00 -0.00000000000E+00 -0.14485237670E+03  0.14485237670E+03  0.00000000000E+00 0. -1.
          6    2    1    2  501    0  0.10105222610E+03  0.90835284006E+02  0.13836140501E+03  0.26067858880E+03  0.17420346449E+03 0.  0.
         24    2    3    3    0    0 -0.17137599583E+02  0.21382273701E+02  0.53785636117E+02  0.99533603709E+02  0.79140032011E+02 0.  0.
         -6    2    1    2    0  502 -0.10105222610E+03 -0.90835284006E+02  0.64886690199E+02  0.23227425981E+03  0.17685714005E+03 0.  0.
        -24    2    5    5    0    0 -0.13629279849E+01 -0.90494102156E+02  0.48940008960E+02  0.13120765204E+03  0.81420411320E+02 0.  0.
          5    1    3    3  501    0  0.11818982568E+03  0.69453010305E+02  0.84575768897E+02  0.16114498509E+03  0.47000000000E+01 0. -1.
        -13    1    4    4    0    0 -0.17389141906E+02  0.17975131773E+02 -0.15983436688E+02  0.29680934399E+02  0.00000000000E+00 0.  1.
         14    1    4    4    0    0  0.25154232321E+00  0.34071419274E+01  0.69769072805E+02  0.69852669309E+02  0.00000000000E+00 0. -1.
         -5    1    5    5    0  502 -0.99689298117E+02 -0.34118184985E+00  0.15946681239E+02  0.10106660777E+03  0.47000000000E+01 0.  1.
         11    1    6    6    0    0 -0.16963776453E+01 -0.49108231531E+02 -0.18147062523E+02  0.52381408719E+02  0.00000000000E+00 0. -1.
        -12    1    6    6    0    0  0.33344966048E+00 -0.41385870625E+02  0.67087071483E+02  0.78826243322E+02  0.00000000000E+00 0.  1.
</event>
<event>
12    1  0.9962621E-001  0.2934439E+03  0.7818608E-02  0.1088815E+00
         21   -1    0    0  503  502  0.00000000000E+00  0.00000000000E+00  0.23595393178E+03  0.23595393178E+03  0.00000000000E+00 0.  1.
         21   -1    0    0  501  503 -0.00000000000E+00 -0.00000000000E+00 -0.55697088202E+03  0.55697088202E+03  0.00000000000E+00 0.  1.
          6    2    1    2  501    0  0.10699147322E+03  0.20847240251E+03  0.73391262328E+02  0.30248243572E+03  0.17663926117E+03 0.  0.
         24    2    3    3    0    0  0.10787797883E+03  0.14002342226E+03 -0.10629685588E+02  0.19400359688E+03  0.79247638996E+02 0.  0.
         -6    2    1    2    0  502 -0.10699147322E+03 -0.20847240251E+03 -0.39440821257E+03  0.49044237808E+03  0.17340118258E+03 0.  0.
        -24    2    5    5    0    0 -0.89146501701E+02 -0.15694879629E+03 -0.17065822622E+03  0.26009639613E+03  0.77109543388E+02 0.  0.
          5    1    3    3  501    0 -0.88650560742E+00  0.68448980249E+02  0.84020947916E+02  0.10847883885E+03  0.47000000000E+01 0. -1.
        -11    1    4    4    0    0 -0.14395161083E+01 -0.51877623275E+01 -0.10996268073E+02  0.12243487907E+02  0.00000000000E+00 0.  1.
         12    1    4    4    0    0  0.10931749494E+03  0.14521118459E+03  0.36658248499E+00  0.18176010897E+03  0.00000000000E+00 0. -1.
         -5    1    5    5    0  502 -0.17844971523E+02 -0.51523606220E+02 -0.22374998636E+03  0.23034598195E+03  0.47000000000E+01 0.  1.
         11    1    6    6    0    0 -0.50022892290E+02 -0.14196662352E+03 -0.11023610033E+03  0.18657119221E+03  0.00000000000E+00 0. -1.
        -12    1    6    6    0    0 -0.39123609411E+02 -0.14982172765E+02 -0.60422125887E+02  0.73525203916E+02  0.00000000000E+00 0.  1.
</event>
<event>
12    1  0.9962621E-001  0.3012289E+03  0.7818608E-02  0.1084705E+00
         21   -1    0    0  503  502  0.00000000000E+00  0.00000000000E+00  0.10606788913E+03  0.10606788913E+03  0.00000000000E+00 0.  1.
         21   -1    0    0  501  503 -0.00000000000E+00 -0.00000000000E+00 -0.87326140802E+03  0.87326140802E+03  0.00000000000E+00 0. -1.
          6    2    1    2  501    0 -0.20142771971E+03 -0.14290507084E+03 -0.30995140284E+03  0.43178094631E+03  0.17137656764E+03 0.  0.
         24    2    3    3    0    0 -0.13626860768E+03 -0.16447512909E+03 -0.26521653636E+03  0.34971831429E+03  0.79635963398E+02 0.  0.
         -6    2    1    2    0  502  0.20142771971E+03  0.14290507084E+03 -0.45724211604E+03  0.54754835084E+03  0.17246407826E+03 0.  0.
        -24    2    5    5    0    0  0.22389008806E+03  0.12199436605E+03 -0.38552216971E+03  0.46939685522E+03  0.81833168538E+02 0.  0.
          5    1    3    3  501    0 -0.65159112030E+02  0.21570058258E+02 -0.44734866483E+02  0.82062632014E+02  0.47000000000E+01 0. -1.
        -13    1    4    4    0    0 -0.16035327123E+02 -0.73374350664E+02 -0.11072686533E+03  0.13379598558E+03  0.00000000000E+00 0.  1.
         14    1    4    4    0    0 -0.12023328056E+03 -0.91100778429E+02 -0.15448967103E+03  0.21592232872E+03  0.00000000000E+00 0. -1.
         -5    1    5    5    0  502 -0.22462368347E+02  0.20910704789E+02 -0.71719946332E+02  0.78151495624E+02  0.47000000000E+01 0.  1.
         11    1    6    6    0    0  0.43390485065E+02  0.65605043554E+02 -0.11057428123E+03  0.13569608543E+03  0.00000000000E+00 0. -1.
        -12    1    6    6    0    0  0.18049960299E+03  0.56389322493E+02 -0.27494788849E+03  0.33370076978E+03  0.00000000000E+00 0.  1.
</event>
<event>
12    1  0.9962621E-001  0.1784750E+03  0.7818608E-02  0.1169341E+00
         21   -1    0    0  503  502  0.00000000000E+00  0.00000000000E+00  0.32752324940E+03  0.32752324940E+03  0.00000000000E+00 0.  1.
         21   -1    0    0  501  503 -0.00000000000E+00 -0.00000000000E+00 -0.99374760944E+02  0.99374760944E+02  0.00000000000E+00 0.  1.
          6    2    1    2  501    0  0.40366321719E+02  0.27884338141E+02  0.82101623815E+02  0.19645352300E+03  0.17159934098E+03 0.  0.
         24    2    3    3    0    0 -0.35847507460E+02 -0.14084214829E+02  0.23636292029E+02  0.91524059943E+02  0.79590014129E+02 0.  0.
         -6    2    1    2    0  502 -0.40366321719E+02 -0.27884338141E+02  0.14604686464E+03  0.23044448735E+03  0.17137093929E+03 0.  0.
        -24    2    5    5    0    0  0.26649060359E+01  0.12190636107E+02  0.10471952093E+02  0.82592070943E+02  0.80969593485E+02 0.  0.
          5    1    3    3  501    0  0.76213829180E+02  0.41968552970E+02  0.58465331785E+02  0.10492946306E+03  0.47000000000E+01 0. -1.
        -11    1    4    4    0    0 -0.39622237863E+02 -0.29635891708E+02 -0.13329085134E+02  0.51243266105E+02  0.00000000000E+00 0.  1.
         12    1    4    4    0    0  0.37747304023E+01  0.15551676879E+02  0.36965377164E+02  0.40280793838E+02  0.00000000000E+00 0. -1.
         -5    1    5    5    0  502 -0.43031227755E+02 -0.40074974248E+02  0.13557491255E+03  0.14785241640E+03  0.47000000000E+01 0.  1.
         13    1    6    6    0    0 -0.20323887118E+02 -0.23631208457E+02  0.22406291650E+02  0.38386668340E+02  0.00000000000E+00 0. -1.
        -14    1    6    6    0    0  0.22988793154E+02  0.35821844564E+02 -0.11934339557E+02  0.44205402603E+02  0.00000000000E+00 0.  1.
</event>
<event>
12    1  0.9962621E-001  0.3049077E+03  0.7818608E-02  0.1082862E+00
         21   -1    0    0  503  502  0.00000000000E+00  0.00000000000E+00  0.48342981029E+02  0.48342981029E+02  0.00000000000E+00 0. -1.
         21   -1    0    0  501  503 -0.00000000000E+00 -0.00000000000E+00 -0.19244027350E+04  0.19244027350E+04  0.00000000000E+00 0. -1.
          6    2    1    2  501    0  0.32391843235E+02  0.24923988671E+03 -0.98276795969E+03  0.10289808326E+04  0.17262369092E+03 0.  0.
         24    2    3    3    0    0 -0.30149552057E+02  0.14586546533E+03 -0.39293967973E+03  0.42688683086E+03  0.75133514388E+02 0.  0.
         -6    2    1    2    0  502 -0.32391843235E+02 -0.24923988671E+03 -0.89329179424E+03  0.94376488337E+03  0.17190745414E+03 0.  0.
        -24    2    5    5    0    0 -0.45818548800E+02 -0.24550228804E+03 -0.89105955715E+03  0.92888809109E+03  0.80468866841E+02 0.  0.
          5    1    3    3  501    0  0.62541395291E+02  0.10337442138E+03 -0.58982827996E+03  0.60209400177E+03  0.47000000000E+01 0. -1.
        -13    1    4    4    0    0 -0.37902083723E+01  0.10806218247E+03 -0.33958431433E+03  0.35638365212E+03  0.00000000000E+00 0.  1.
         14    1    4    4    0    0 -0.26359343684E+02  0.37803282865E+02 -0.53355365407E+02  0.70503178741E+02  0.00000000000E+00 0. -1.
         -5    1    5    5    0  502  0.13426705565E+02 -0.37375986744E+01 -0.22322370903E+01  0.14876792282E+02  0.47000000000E+01 0.  1.
         13    1    6    6    0    0 -0.36710023087E+02 -0.55651655993E+02 -0.15592630882E+03  0.16958109090E+03  0.00000000000E+00 0. -1.
        -14    1    6    6    0    0 -0.91085257127E+01 -0.18985063204E+03 -0.73513324833E+03  0.75930700019E+03  0.00000000000E+00 0.  1.
</event>
<event>
12    1  0.9962621E-001  0.1926085E+03  0.7818608E-02  0.1156760E+00
         21   -1    0    0  501  502  0.00000000000E+00  0.00000000000E+00  0.44468595645E+03  0.44468595645E+03  0.00000000000E+00 0. -1.
         21   -1    0    0  502  503 -0.00000000000E+00 -0.00000000000E+00 -0.12834532353E+03  0.12834532353E+03  0.00000000000E+00 0. -1.
         -6    2    1    2    0  503 -0.64657893416E+02 -0.56704708418E+02  0.33070430415E+03  0.38270530963E+03  0.17234253712E+03 0.  0.
        -24    2    3    3    0    0 -0.91062555508E+01  0.38064859811E+00  0.58557128598E+02  0.99101893545E+02  0.79430341880E+02 0.  0.
          6    2    1    2  501    0  0.64657893416E+02  0.56704708418E+02 -0.14363671225E+02  0.19032597034E+03  0.16917917366E+03 0.  0.
         24    2    5    5    0    0 -0.78455306911E+01  0.75856637429E+02 -0.25505044742E+02  0.11436701369E+03  0.81323580340E+02 0.  0.
          5    1    5    5  501    0  0.72503424107E+02 -0.19151929011E+02  0.11141373518E+02  0.75958956654E+02  0.47000000000E+01 0. -1.
        -11    1    6    6    0    0  0.31172126253E+02  0.53391264943E+02 -0.30731488816E+02  0.69041676053E+02  0.00000000000E+00 0.  1.
         12    1    6    6    0    0 -0.39017656944E+02  0.22465372486E+02  0.52264440731E+01  0.45325337638E+02  0.00000000000E+00 0. -1.
         -5    1    3    3    0  503 -0.55551637865E+02 -0.57085357016E+02  0.27214717555E+03  0.28360341608E+03  0.47000000000E+01 0.  1.
         11    1    4    4    0    0 -0.10826286402E+02 -0.36172854132E+02  0.47890370963E+02  0.60985010325E+02  0.00000000000E+00 0. -1.
        -12    1    4    4    0    0  0.17200308510E+01  0.36553502730E+02  0.10666757634E+02  0.38116883220E+02  0.00000000000E+00 0.  1.
</event>
<event>
12    1  0.9962621E-001  0.1683401E+03  0.7818608E-02  0.1180549E+00
         21   -1    0    0  501  502  0.00000000000E+00  0.00000000000E+00  0.58919375144E+02  0.58919375144E+02  0.00000000000E+00 0. -1.
         21   -1    0    0  502  503 -0.00000000000E+00 -0.00000000000E+00 -0.47080670350E+03  0.47080670350E+03  0.00000000000E+00 0. -1.
         -6    2    1    2    0  503  0.36131941474E+01  0.56189730664E+01 -0.20566483363E+03  0.26577512188E+03  0.16820750158E+03 0.  0.
        -24    2    3    3    0    0  0.40291089598E+02  0.18471146875E+02 -0.20878074940E+03  0.22650369056E+03  0.75828525969E+02 0.  0.
          6    2    1    2  501    0 -0.36131941474E+01 -0.56189730664E+01 -0.20622249473E+03  0.26395095677E+03  0.16461397941E+03 0.  0.
         24    2    5    5    0    0  0.48780690561E+02 -0.39230392951E+02 -0.12118826545E+03  0.15846277331E+03  0.80655287101E+02 0.  0.
          5    1    5    5  501    0 -0.52393884709E+02  0.33611419885E+02 -0.85034229277E+02  0.10548818346E+03  0.47000000000E+01 0. -1.
        -11    1    6    6    0    0  0.44009525890E+02 -0.75063326658E+01 -0.14323489736E+02  0.46886519996E+02  0.00000000000E+00 0.  1.
         12    1    6    6    0    0  0.47711646712E+01 -0.31724060286E+02 -0.10686477572E+03  0.11157625331E+03  0.00000000000E+00 0. -1.
         -5    1    3    3    0  503 -0.36677895451E+02 -0.12852173809E+02  0.31159157740E+01  0.39271431314E+02  0.47000000000E+01 0.  1.
         13    1    4    4    0    0  0.46553123710E+02 -0.16434702936E+02 -0.91375594093E+02  0.10385948191E+03  0.00000000000E+00 0. -1.
        -14    1    4    4    0    0 -0.62620341112E+01  0.34905849811E+02 -0.11740515531E+03  0.12264420865E+03  0.00000000000E+00 0.  1.
</event>
<event>
12    1  0.9962621E-001  0.1958958E+03  0.7818608E-02  0.1153554E+00
         21   -1    0    0  501  502  0.00000000000E+00  0.00000000000E+00  0.25483700622E+03  0.25483700622E+03  0.00000000000E+00 0.  1.
         21   -1    0    0  502  503 -0.00000000000E+00 -0.00000000000E+00 -0.16525256044E+03  0.16525256044E+03  0.00000000000E+00 0.  1.
         -6    2    1    2    0  503  0.20949123235E+02  0.87395954088E+02  0.10976993253E+03  0.22455423165E+03  0.17406391444E+03 0.  0.
        -24    2    3    3    0    0 -0.56809446146E+02  0.46392379504E+02  0.60716861212E+02  0.12377733923E+03  0.79086828383E+02 0.  0.
          6    2    1    2  501    0 -0.20949123235E+02 -0.87395954088E+02 -0.20185486751E+02  0.19553533501E+03  0.17248099840E+03 0.  0.
         24    2    5    5    0    0  0.22663147785E+02 -0.10281955542E+03 -0.48975566188E+02  0.14084642997E+03  0.79709670095E+02 0.  0.
          5    1    5    5  501    0 -0.43612271019E+02  0.15423601331E+02  0.28790079437E+02  0.54688905049E+02  0.47000000000E+01 0. -1.
        -11    1    6    6    0    0  0.41845753677E+02 -0.28674075936E+02 -0.15224564148E+01  0.50750247340E+02  0.00000000000E+00 0.  1.
         12    1    6    6    0    0 -0.19182605892E+02 -0.74145479482E+02 -0.47453109773E+02  0.90096182625E+02  0.00000000000E+00 0. -1.
         -5    1    3    3    0  503  0.77758569380E+02  0.41003574584E+02  0.49053071317E+02  0.10077689242E+03  0.47000000000E+01 0.  1.
         11    1    4    4    0    0 -0.16795654018E+02  0.62175218667E+02  0.41855778935E+02  0.76809882440E+02  0.00000000000E+00 0. -1.
        -12    1    4    4    0    0 -0.40013792128E+02 -0.15782839163E+02  0.18861082277E+02  0.46967456788E+02  0.00000000000E+00 0.  1.
</event>
<event>
12    1  0.9962621E-001  0.3788006E+03  0.7818608E-02  0.1051388E+00
         21   -1    0    0  501  502  0.00000000000E+00  0.00000000000E+00  0.34889200450E+03  0.34889200450E+03  0.00000000000E+00 0.  1.
         21   -1    0    0  502  503 -0.00000000000E+00 -0.00000000000E+00 -0.46364362805E+03  0.46364362805E+03  0.00000000000E+00 0. -1.
         -6    2    1    2    0  503  0.33316444205E+03 -0.54400747514E+02  0.79328235420E+02  0.38691031826E+03  0.17160605660E+03 0.  0.
        -24    2    3    3    0    0  0.20512023174E+03 -0.35335097357E+02 -0.19807749105E+02  0.22378811794E+03  0.79786566733E+02 0.  0.
          6    2    1    2  501    0 -0.33316444205E+03  0.54400747514E+02 -0.19407985898E+03  0.42562531429E+03  0.17184856626E+03 0.  0.
         24    2    5    5    0    0 -0.29873277547E+03  0.96433040746E+02 -0.16904877679E+03  0.36561782798E+03  0.80983360726E+02 0.  0.
          5    1    5    5  501    0 -0.34431666578E+02 -0.42032293232E+02 -0.25031082186E+02  0.60007486309E+02  0.47000000000E+01 0. -1.
        -11    1    6    6    0    0 -0.12758772157E+03  0.80781258070E+02 -0.62667211192E+02  0.16349745475E+03  0.00000000000E+00 0.  1.
         12    1    6    6    0    0 -0.17114505391E+03  0.15651782675E+02 -0.10638156560E+03  0.20212037324E+03  0.00000000000E+00 0. -1.
         -5    1    3    3    0  503  0.12804421031E+03 -0.19065650157E+02  0.99135984525E+02  0.16312220032E+03  0.47000000000E+01 0.  1.
         11    1    4    4    0    0  0.75893474041E+02 -0.48186176852E+02 -0.26585812913E+02  0.93747173237E+02  0.00000000000E+00 0. -1.
        -12    1    4    4    0    0  0.12922675770E+03  0.12851079495E+02  0.67780638085E+01  0.13004094470E+03  0.00000000000E+00 0.  1.
</event>
<event>
12    1  0.9962621E-001  0.2287804E+03  0.7818608E-02  0.1127918E+00
         21   -1    0    0  503  502  0.00000000000E+00  0.00000000000E+00  0.52904954749E+03  0.52904954749E+03  0.00000000000E+00 0.  1.
         21   -1    0    0  501  503 -0.00000000000E+00 -0.00000000000E+00 -0.11537121073E+03  0.11537121073E+03  0.00000000000E+00 0.  1.
          6    2    1    2  501    0  0.64580143791E+02  0.13563533264E+03  0.33304140959E+03  0.40405079824E+03  0.17254833707E+03 0.  0.
         24    2    3    3    0    0  0.94672709377E+02  0.42785892467E+02  0.18042356463E+03  0.22283027610E+03  0.79417345580E+02 0.  0.
         -6    2    1    2    0  502 -0.64580143791E+02 -0.13563533264E+03  0.80636927171E+02  0.24036995998E+03  0.16943395528E+03 0.  0.
        -24    2    5    5    0    0 -0.68032493443E+02 -0.10559373578E+03  0.12321010397E+03  0.18793922812E+03  0.66045185648E+02 0.  0.
          5    1    3    3  501    0 -0.30092565587E+02  0.92849440176E+02  0.15261784495E+03  0.18122052214E+03  0.47000000000E+01 0. -1.
        -11    1    4    4    0    0  0.15172037303E+02 -0.23014786909E+02  0.38792586794E+02  0.47589241669E+02  0.00000000000E+00 0.  1.
         12    1    4    4    0    0  0.79500672074E+02  0.65800679377E+02  0.14163097784E+03  0.17524103444E+03  0.00000000000E+00 0. -1.
         -5    1    5    5    0  502  0.34523496521E+01 -0.30041596860E+02 -0.42573176798E+02  0.52430731854E+02  0.47000000000E+01 0.  1.
         11    1    6    6    0    0 -0.23688514065E+02 -0.47584416297E+02  0.11343230116E+02  0.54351552346E+02  0.00000000000E+00 0. -1.
        -12    1    6    6    0    0 -0.44343979377E+02 -0.58009319486E+02  0.11186687385E+03  0.13358767578E+03  0.00000000000E+00 0.  1.
</event>
<event>
12    1  0.9962621E-001  0.2990478E+03  0.7818608E-02  0.1085797E+00
         21   -1    0    0  503  502  0.00000000000E+00  0.00000000000E+00  0.30752837205E+03  0.30752837205E+03  0.00000000000E+00 0. -1.
         21   -1    0    0  501  503 -0.00000000000E+00 -0.00000000000E+00 -0.34219247579E+03  0.34219247579E+03  0.00000000000E+00 0. -1.
          6    2    1    2  501    0  0.15340860200E+03  0.19040292987E+03  0.10929327557E+03  0.31839375634E+03  0.17216878090E+03 0.  0.
         24    2    3    3    0    0  0.40491959081E+02  0.17598112537E+02  0.67318698494E+02  0.10769105521E+03  0.71528063653E+02 0.  0.
         -6    2    1    2    0  502 -0.15340860200E+03 -0.19040292987E+03 -0.14395737932E+03  0.33132709150E+03  0.17107436872E+03 0.  0.
        -24    2    5    5    0    0 -0.13235032302E+03 -0.19269884937E+03 -0.74539903550E+02  0.25859746685E+03  0.81651687599E+02 0.  0.
          5    1    3    3  501    0  0.11291664292E+03  0.17280481733E+03  0.41974577079E+02  0.21070270113E+03  0.47000000000E+01 0. -1.
        -13    1    4    4    0    0  0.35681641624E+02 -0.11686584222E+02  0.39957370318E+01  0.37758730304E+02  0.00000000000E+00 0.  1.
         14    1    4    4    0    0  0.48103174574E+01  0.29284696758E+02  0.63322961462E+02  0.69932324905E+02  0.00000000000E+00 0. -1.
         -5    1    5    5    0  502 -0.21058278983E+02  0.22959195021E+01 -0.69417475770E+02  0.72729624654E+02  0.47000000000E+01 0.  1.
         11    1    6    6    0    0 -0.76808371342E+01 -0.23945563222E+02 -0.38093861020E+02  0.45645673448E+02  0.00000000000E+00 0. -1.
        -12    1    6    6    0    0 -0.12466948589E+03 -0.16875328615E+03 -0.36446042530E+02  0.21295179340E+03  0.00000000000E+00 0.  1.
</event>
<event>
12    1  0.9962621E-001  0.2139943E+03  0.7818608E-02  0.1138455E+00
         21   -1    0    0  503  502  0.00000000000E+00  0.00000000000E+00  0.47520532280E+02  0.47520532280E+02  0.00000000000E+00 0.  1.
         21   -1    0    0  501  503 -0.00000000000E+00 -0.00000000000E+00 -0.12612113937E+04  0.12612113937E+04  0.00000000000E+00 0.  1.
          6    2    1    2  501    0  0.87182220505E+02  0.91473927864E+02 -0.28891260951E+03  0.35953313713E+03  0.17270020762E+03 0.  0.
         24    2    3    3    0    0 -0.19490781002E+02  0.34171504295E+02 -0.16161093832E+03  0.18377619563E+03  0.78153774363E+02 0.  0.
         -6    2    1    2    0  502 -0.87182220505E+02 -0.91473927864E+02 -0.92477825193E+03  0.94919878887E+03  0.17261317011E+03 0.  0.
        -24    2    5    5    0    0 -0.10650187516E+03 -0.96004454312E+02 -0.90812055112E+03  0.92286736805E+03  0.80260444745E+02 0.  0.
          5    1    3    3  501    0  0.10667300151E+03  0.57302423569E+02 -0.12730167119E+03  0.17575694150E+03  0.47000000000E+01 0. -1.
        -13    1    4    4    0    0  0.25668772281E+02  0.17621530415E+01 -0.87068955471E+02  0.90790936004E+02  0.00000000000E+00 0.  1.
         14    1    4    4    0    0 -0.45159553282E+02  0.32409351253E+02 -0.74541982848E+02  0.92985259629E+02  0.00000000000E+00 0. -1.
         -5    1    5    5    0  502  0.19319654654E+02  0.45305264477E+01 -0.16657700810E+02  0.26331420815E+02  0.47000000000E+01 0.  1.
         11    1    6    6    0    0 -0.63482607519E+02 -0.37940783848E+02 -0.24769987864E+03  0.25850488277E+03  0.00000000000E+00 0. -1.
        -12    1    6    6    0    0 -0.43019267641E+02 -0.58063670464E+02 -0.66042067248E+03  0.66436248528E+03  0.00000000000E+00 0.  1.
</event>
<event>
12    1  0.9962621E-001  0.1761508E+03  0.7818608E-02  0.1171713E+00
         21   -1    0    0  503  502  0.00000000000E+00  0.00000000000E+00  0.12788417386E+03  0.12788417386E+03  0.00000000000E+00 0.  1.
         21   -1    0    0  501  503 -0.00000000000E+00 -0.00000000000E+00 -0.26470557244E+03  0.26470557244E+03  0.00000000000E+00 0.  1.
          6    2    1    2  501    0 -0.29927123790E+02  0.20679845220E+02 -0.10706120883E+02  0.17594679740E+03  0.17181200701E+03 0.  0.
         24    2    3    3    0    0 -0.53389090929E+02  0.71206833017E+02 -0.85432565682E+01  0.11999853219E+03  0.80036569114E+02 0.  0.
         -6    2    1    2    0  502  0.29927123790E+02 -0.20679845220E+02 -0.12611527770E+03  0.21664294890E+03  0.17235375048E+03 0.  0.
        -24    2    5    5    0    0 -0.54924496982E+01  0.20340216334E+02 -0.54252239641E+01  0.84259525824E+02  0.81402353976E+02 0.  0.
          5    1    3    3  501    0  0.23461967138E+02 -0.50526987797E+02 -0.21628643152E+01  0.55948265209E+02  0.47000000000E+01 0. -1.
        -13    1    4    4    0    0 -0.30535106377E+02  0.14377589092E+01  0.24801052643E+02  0.39364350424E+02  0.00000000000E+00 0.  1.
         14    1    4    4    0    0 -0.22853984552E+02  0.69769074108E+02 -0.33344309211E+02  0.80634181763E+02  0.00000000000E+00 0. -1.
         -5    1    5    5    0  502  0.35419573489E+02 -0.41020061554E+02 -0.12069005373E+03  0.13238342308E+03  0.47000000000E+01 0.  1.
         11    1    6    6    0    0  0.25950102321E+02 -0.18823153550E+02  0.63338089964E+01  0.32677760884E+02  0.00000000000E+00 0. -1.
        -12    1    6    6    0    0 -0.31442552019E+02  0.39163369884E+02 -0.11759032960E+02  0.51581764940E+02  0.00000000000E+00 0.  1.
</event>
<event>
12    1  0.9962621E-001  0.3288310E+03  0.7818608E-02  0.1071799E+00
         21   -1    0    0  503  502  0.00000000000E+00  0.00000000000E+00  0.16985143220E+03  0.16985143220E+03  0.00000000000E+00 0. -1.
         21   -1    0    0  501  503 -0.00000000000E+00 -0.00000000000E+00 -0.97249151282E+03  0.97249151282E+03  0.00000000000E+00 0.  1.
          6    2    1    2  501    0 -0.17634842851E+03 -0.21602489387E+03 -0.64917944179E+02  0.33517778156E+03  0.17425350145E+03 0.  0.
         24    2    3    3    0    0 -0.54430193423E+02 -0.11436442573E+03 -0.89257311693E+02  0.17451228545E+03  0.80285753742E+02 0.  0.
         -6    2    1    2    0  502  0.17634842851E+03  0.21602489387E+03 -0.73772213644E+03  0.80716516346E+03  0.17180258293E+03 0.  0.
        -24    2    5    5    0    0  0.19256097663E+03  0.17928140603E+03 -0.54774462684E+03  0.61293212104E+03  0.80249962615E+02 0.  0.
          5    1    3    3  501    0 -0.12191823509E+03 -0.10166046814E+03  0.24339367515E+02  0.16066549611E+03  0.47000000000E+01 0. -1.
        -13    1    4    4    0    0 -0.22246714614E+02 -0.11469463977E+03 -0.77720154870E+02  0.14032177014E+03  0.00000000000E+00 0.  1.
         14    1    4    4    0    0 -0.32183478809E+02  0.33021403820E+00 -0.11537156823E+02  0.34190515309E+02  0.00000000000E+00 0. -1.
         -5    1    5    5    0  502 -0.16212548118E+02  0.36743487840E+02 -0.18997750960E+03  0.19423304242E+03  0.47000000000E+01 0.  1.
         11    1    6    6    0    0  0.73265070489E+02  0.61172321918E+02 -0.11935684549E+03  0.15282630692E+03  0.00000000000E+00 0. -1.
        -12    1    6    6    0    0  0.11929590614E+03  0.11810908411E+03 -0.42838778135E+03  0.46010581412E+03  0.00000000000E+00 0.  1.
</event>
<event>
12    1  0.9962621E-001  0.3392924E+03  0.7818608E-02  0.1067447E+00
         21   -1    0    0  503  502  0.00000000000E+00  0.00000000000E+00  0.21499798610E+03  0.21499798610E+03  0.00000000000E+00 0. -1.
         21   -1    0    0  501  503 -0.00000000000E+00 -0.00000000000E+00 -0.53421130642E+03  0.53421130642E+03  0.00000000000E+00 0.  1.
          6    2    1    2  501    0 -0.26042385323E+03  0.13109193277E+03 -0.12840668488E+03  0.36277764313E+03  0.17353288872E+03 0.  0.
         24    2    3    3    0    0 -0.15698257703E+03  0.75682924721E+02 -0.36365944483E+01  0.19143027297E+03  0.79125785966E+02 0.  0.
         -6    2    1    2    0  502  0.26042385323E+03 -0.13109193277E+03 -0.19080663545E+03  0.38643164939E+03  0.16708252259E+03 0.  0.
        -24    2    5    5    0    0  0.23621394292E+03 -0.67325225290E+02 -0.11018991310E+03  0.28072706737E+03  0.79599978731E+02 0.  0.
          5    1    3    3  501    0 -0.10344127620E+03  0.55409008047E+02 -0.12477009043E+03  0.17134737016E+03  0.47000000000E+01 0. -1.
        -13    1    4    4    0    0 -0.11446943964E+03  0.80707987713E+02 -0.27031745037E+02  0.14264552966E+03  0.00000000000E+00 0.  1.
         14    1    4    4    0    0 -0.42513137388E+02 -0.50250629916E+01  0.23395150588E+02  0.48784743309E+02  0.00000000000E+00 0. -1.
         -5    1    5    5    0  502  0.24209910310E+02 -0.63766707478E+02 -0.80616722344E+02  0.10570458203E+03  0.47000000000E+01 0.  1.
         13    1    6    6    0    0  0.12915457415E+03 -0.64798047146E+02 -0.31648721505E+02  0.14792340083E+03  0.00000000000E+00 0. -1.
        -14    1    6    6    0    0  0.10705936876E+03 -0.25271781442E+01 -0.78541191596E+02  0.13280366654E+03  0.00000000000E+00 0.  1.
</event>
<event>
12    1  0.9962621E-001  0.1722919E+03  0.7818608E-02  0.1175499E+00
         21   -1    0    0  503  502  0.00000000000E+00  0.00000000000E+00  0.78693531303E+02  0.78693531303E+02  0.00000000000E+00 0. -1.
         21   -1    0    0  501  503 -0.00000000000E+00 -0.00000000000E+00 -0.41886402462E+03  0.41886402462E+03  0.00000000000E+00 0. -1.
          6    2    1    2  501    0  0.17399081597E+01  0.14406414519E+02 -0.24873495773E+03  0.30257820745E+03  0.17167970284E+03 0.  0.
         24    2    3    3    0    0  0.64141231966E+02 -0.89852108548E+01 -0.13423121955E+03  0.17001015169E+03  0.81796086235E+02 0.  0.
         -6    2    1    2    0  502 -0.17399081597E+01 -0.14406414519E+02 -0.91435535592E+02  0.19497934848E+03  0.17159812675E+03 0.  0.
        -24    2    5    5    0    0 -0.35597206064E+02 -0.36221160663E+02  0.13373218566E+00  0.94833352194E+02  0.80088783514E+02 0.  0.
          5    1    3    3  501    0 -0.62401323806E+02  0.23391625374E+02 -0.11450373818E+03  0.13256805576E+03  0.47000000000E+01 0. -1.
        -13    1    4    4    0    0  0.39249084680E+02  0.13146046833E+01 -0.69151620000E+01  0.39875284314E+02  0.00000000000E+00 0.  1.
         14    1    4    4    0    0  0.24892147286E+02 -0.10299815538E+02 -0.12731605755E+03  0.13013486738E+03  0.00000000000E+00 0. -1.
         -5    1    5    5    0  502  0.33857297904E+02  0.21814746144E+02 -0.91569267777E+02  0.10014599629E+03  0.47000000000E+01 0.  1.
         13    1    6    6    0    0 -0.52375239210E+02 -0.39436490905E+02 -0.19889579074E+02  0.68512756863E+02  0.00000000000E+00 0. -1.
        -14    1    6    6    0    0  0.16778033146E+02  0.32153302420E+01  0.20023311260E+02  0.26320595332E+02  0.00000000000E+00 0.  1.
</event>
<event>
12    1  0.9962621E-001  0.1743900E+03  0.7818608E-02  0.1173495E+00
         21   -1    0    0  501  502  0.00000000000E+00  0.00000000000E+00  0.20635184955E+04  0.20635184955E+04  0.00000000000E+00 0. -1.
         21   -1    0    0  502  503 -0.00000000000E+00 -0.00000000000E+00 -0.24281453632E+02  0.24281453632E+02  0.00000000000E+00 0. -1.
         -6    2    1    2    0  503 -0.82975203520E+01  0.25596936151E+02  0.16768282274E+04  0.16858721160E+04  0.17230158228E+03 0.  0.
        -24    2    3    3    0    0 -0.36716596310E+02 -0.39475272974E+02  0.72128684842E+03  0.72768452829E+03  0.79772485088E+02 0.  0.
          6    2    1    2  501    0  0.82975203520E+01 -0.25596936151E+02  0.36240881441E+03  0.40192783309E+03  0.17170259831E+03 0.  0.
         24    2    5    5    0    0 -0.47245866447E+02 -0.86440486583E+01  0.11973258082E+03  0.15235557389E+03  0.81052072850E+02 0.  0.
          5    1    5    5  501    0  0.55543386799E+02 -0.16952887493E+02  0.24267623359E+03  0.24957225920E+03  0.47000000000E+01 0. -1.
        -11    1    6    6    0    0 -0.34585603641E+02 -0.31017661843E+02  0.22194121643E+02  0.51486292942E+02  0.00000000000E+00 0.  1.
         12    1    6    6    0    0 -0.12660262805E+02  0.22373613185E+02  0.97538459173E+02  0.10086928095E+03  0.00000000000E+00 0. -1.
         -5    1    3    3    0  503  0.28419075958E+02  0.65072209126E+02  0.95554137900E+03  0.95818758772E+03  0.47000000000E+01 0.  1.
         13    1    4    4    0    0 -0.61894545266E+02 -0.26891106752E+02  0.54550503311E+03  0.54966335834E+03  0.00000000000E+00 0. -1.
        -14    1    4    4    0    0  0.25177948956E+02 -0.12584166222E+02  0.17578181532E+03  0.17802116995E+03  0.00000000000E+00 0.  1.
</event>
<event>
12    1  0.9962621E-001  0.3951969E+03  0.7818608E-02  0.1045489E+00
         21   -1    0    0  501  502  0.00000000000E+00  0.00000000000E+00  0.20055984494E+03  0.20055984494E+03  0.00000000000E+00 0.  1.
         21   -1    0    0  502  503 -0.00000000000E+00 -0.00000000000E+00 -0.78331389487E+03  0.78331389487E+03  0.00000000000E+00 0.  1.
         -6    2    1    2    0  503 -0.35243254899E+03  0.45879449345E+02 -0.25058824267E+03  0.46762309714E+03  0.17193972244E+03 0.  0.
        -24    2    3    3    0    0 -0.25128010644E+03 -0.33750460492E+02 -0.17324415835E+03  0.31736686082E+03  0.80171070010E+02 0.  0.
          6    2    1    2  501    0  0.35243254899E+03 -0.45879449345E+02 -0.33216580726E+03  0.51625064268E+03  0.17282065009E+03 0.  0.
         24    2    5    5    0    0  0.63444958874E+02 -0.27523250095E+02 -0.80428840002E+02  0.13252630416E+03  0.79445773249E+02 0.  0.
          5    1    5    5  501    0  0.28898759011E+03 -0.18356199249E+02 -0.25173696726E+03  0.38372433852E+03  0.47000000000E+01 0. -1.
        -13    1    6    6    0    0  0.27042626960E+02  0.10399806309E+02  0.76385069181E+01  0.29963418232E+02  0.00000000000E+00 0.  1.
         14    1    6    6    0    0  0.36402331914E+02 -0.37923056404E+02 -0.88067346920E+02  0.10256288593E+03  0.00000000000E+00 0. -1.
         -5    1    3    3    0  503 -0.10115244255E+03  0.79629909837E+02 -0.77344084316E+02  0.15025623632E+03  0.47000000000E+01 0.  1.
         13    1    4    4    0    0 -0.20938015278E+03 -0.18112841484E+02 -0.10287920254E+03  0.23399199499E+03  0.00000000000E+00 0. -1.
        -14    1    4    4    0    0 -0.41899953657E+02 -0.15637619008E+02 -0.70364955814E+02  0.83374865825E+02  0.00000000000E+00 0.  1.
</event>
<event>
12    1  0.9962621E-001  0.1774138E+03  0.7818608E-02  0.1170749E+00
         21   -1    0    0  501  502  0.00000000000E+00  0.00000000000E+00  0.31727783594E+03  0.31727783594E+03  0.00000000000E+00 0.  1.
         21   -1    0    0  502  503 -0.00000000000E+00 -0.00000000000E+00 -0.12026021655E+03  0.12026021655E+03  0.00000000000E+00 0.  1.
         -6    2    1    2    0  503  0.36993192545E+02 -0.11891636376E+02  0.53282973563E+01  0.17749374925E+03  0.17310613207E+03 0.  0.
        -24    2    3    3    0    0  0.62541539047E+02 -0.61954830229E+02  0.17722260441E+02  0.11974652673E+03  0.79216835673E+02 0.  0.
          6    2    1    2  501    0 -0.36993192545E+02  0.11891636376E+02  0.19168932203E+03  0.26004430323E+03  0.17137192347E+03 0.  0.
         24    2    5    5    0    0 -0.19944486533E+02 -0.58866459005E+02  0.96704201726E+02  0.14028776054E+03  0.80410885997E+02 0.  0.
          5    1    5    5  501    0 -0.17048706012E+02  0.70758095381E+02  0.94985120305E+02  0.11975654269E+03  0.47000000000E+01 0. -1.
        -13    1    6    6    0    0  0.17141538855E+02  0.73779823383E+01  0.17923114667E+01  0.18747782752E+02  0.00000000000E+00 0.  1.
         14    1    6    6    0    0 -0.37086025388E+02 -0.66244441343E+02  0.94911890259E+02  0.12153997779E+03  0.00000000000E+00 0. -1.
         -5    1    3    3    0  503 -0.25548346503E+02  0.50063193853E+02 -0.12393963085E+02  0.57747222520E+02  0.47000000000E+01 0.  1.
         13    1    4    4    0    0  0.68307035561E+02 -0.53812089938E+02 -0.12562904668E+02  0.87860222537E+02  0.00000000000E+00 0. -1.
        -14    1    4    4    0    0 -0.57654965136E+01 -0.81427402917E+01  0.30285165109E+02  0.31886304195E+02  0.00000000000E+00 0.  1.
</event>
<event>
12    1  0.9962621E-001  0.3745228E+03  0.7818608E-02  0.1053048E+00
         21   -1    0    0  503  502  0.00000000000E+00  0.00000000000E+00  0.68404400587E+03  0.68404400587E+03  0.00000000000E+00 0. -1.
         21   -1    0    0  501  503 -0.00000000000E+00 -0.00000000000E+00 -0.20614900739E+03  0.20614900739E+03  0.00000000000E+00 0. -1.
          6    2    1    2  501    0 -0.33072373733E+03 -0.31764575819E+02  0.20065479481E+03  0.42422148089E+03  0.17121430857E+03 0.  0.
         24    2    3    3    0    0 -0.33875524321E+03 -0.27375208473E+02  0.16283652012E+03  0.38502857933E+03  0.78909807820E+02 0.  0.
         -6    2    1    2    0  502  0.33072373733E+03  0.31764575819E+02  0.27724020368E+03  0.46597153237E+03  0.17285878555E+03 0.  0.
        -24    2    5    5    0    0  0.62153010169E+02 -0.15608213162E+01  0.10256200335E+03  0.14382966727E+03  0.79388763823E+02 0.  0.
          5    1    3    3  501    0  0.80315058879E+01 -0.43893673461E+01  0.37818274684E+02  0.39192901559E+02  0.47000000000E+01 0. -1.
        -13    1    4    4    0    0 -0.12081461615E+03  0.22814666546E+01  0.19249393486E+02  0.12235977981E+03  0.00000000000E+00 0.  1.
         14    1    4    4    0    0 -0.21794062706E+03 -0.29656675127E+02  0.14358712664E+03  0.26266879952E+03  0.00000000000E+00 0. -1.
         -5    1    5    5    0  502  0.26857072716E+03  0.33325397135E+02  0.17467820033E+03  0.32214186510E+03  0.47000000000E+01 0.  1.
         13    1    6    6    0    0  0.32152024769E+02  0.38881748878E+02  0.49641509809E+02  0.70780100231E+02  0.00000000000E+00 0. -1.
        -14    1    6    6    0    0  0.30000985400E+02 -0.40442570194E+02  0.52920493539E+02  0.73049567044E+02  0.00000000000E+00 0.  1.
</event>
<event>
12    1  0.9962621E-001  0.1822409E+03  0.7818608E-02  0.1167305E+00
         21   -1    0    0  501  502  0.00000000000E+00  0.00000000000E+00  0.19840803160E+03  0.19840803160E+03  0.00000000000E+00 0. -1.
         21   -1    0    0  502  503 -0.00000000000E+00 -0.00000000000E+00 -0.24213140871E+03  0.24213140871E+03  0.00000000000E+00 0. -1.
         -6    2    1    2    0  503  0.44957762315E+02  0.36023874286E+02 -0.14947062511E+03  0.23569731717E+03  0.17289545293E+03 0.  0.
        -24    2    3    3    0    0  0.39882139407E+02  0.18282256217E+02 -0.17898050589E+03  0.20057681001E+03  0.79197280803E+02 0.  0.
          6    2    1    2  501    0 -0.44957762315E+02 -0.36023874286E+02  0.10574724800E+03  0.20484212313E+03  0.16570725705E+03 0.  0.
         24    2    5    5    0    0 -0.21701327967E+02  0.35722903877E+02  0.91707128922E+02  0.12798070980E+03  0.78878330922E+02 0.  0.
          5    1    5    5  501    0 -0.23256434347E+02 -0.71746778164E+02  0.14040119078E+02  0.76861413330E+02  0.47000000000E+01 0. -1.
        -13    1    6    6    0    0 -0.45947564982E+02 -0.11688064966E+00  0.49365899749E+02  0.67440228698E+02  0.00000000000E+00 0.  1.
         14    1    6    6    0    0  0.24246237014E+02  0.35839784527E+02  0.42341229174E+02  0.60540481104E+02  0.00000000000E+00 0. -1.
         -5    1    3    3    0  503  0.50756229071E+01  0.17741618069E+02  0.29509880787E+02  0.35120507167E+02  0.47000000000E+01 0.  1.
         11    1    4    4    0    0  0.37105537627E+02  0.45127701196E+02 -0.87608638969E+02  0.10530244043E+03  0.00000000000E+00 0. -1.
        -12    1    4    4    0    0  0.27766017800E+01 -0.26845444980E+02 -0.91371866925E+02  0.95274369581E+02  0.00000000000E+00 0.  1.
</event>
<event>
12    1  0.9962621E-001  0.2019429E+03  0.7818608E-02  0.1149702E+00
         21   -1    0    0  503  502  0.00000000000E+00  0.00000000000E+00  0.47569660650E+02  0.47569660650E+02  0.00000000000E+00 0. -1.
         21   -1    0    0  501  503 -0.00000000000E+00 -0.00000000000E+00 -0.10992537249E+04  0.10992537249E+04  0.00000000000E+00 0. -1.
          6    2    1    2  501    0  0.71635257102E+02 -0.50590216615E+02 -0.81927075230E+03  0.84379232719E+03  0.18190642041E+03 0.  0.
         24    2    3    3    0    0  0.42782909774E+02 -0.22479829054E+02 -0.78610277064E+03  0.79140094582E+03  0.77602647854E+02 0.  0.
         -6    2    1    2    0  502 -0.71635257102E+02  0.50590216615E+02 -0.23241331198E+03  0.30303105839E+03  0.17355372275E+03 0.  0.
        -24    2    5    5    0    0  0.18597995462E+01 -0.12880555160E+02 -0.44979288313E+02  0.91882614273E+02  0.79056377813E+02 0.  0.
          5    1    3    3  501    0  0.28852347328E+02 -0.28110387561E+02 -0.33167981655E+02  0.52391381374E+02  0.47000000000E+01 0. -1.
        -11    1    4    4    0    0  0.46765309394E+02 -0.47163606604E+02 -0.57177787943E+03  0.57562257023E+03  0.00000000000E+00 0.  1.
         12    1    4    4    0    0 -0.39823996203E+01  0.24683777550E+02 -0.21432489121E+03  0.21577837559E+03  0.00000000000E+00 0. -1.
         -5    1    5    5    0  502 -0.73495056648E+02  0.63470771775E+02 -0.18743402367E+03  0.21114844411E+03  0.47000000000E+01 0.  1.
         11    1    6    6    0    0 -0.17276805944E+02  0.16124038352E+02  0.10943698186E+02  0.26042986894E+02  0.00000000000E+00 0. -1.
        -12    1    6    6    0    0  0.19136605490E+02 -0.29004593512E+02 -0.55922986499E+02  0.65839627379E+02  0.00000000000E+00 0.  1.
</event>
<event>
12    1  0.9962621E-001  0.2071175E+03  0.7818608E-02  0.1143955E+00
         21   -1    0    0  503  502  0.00000000000E+00  0.00000000000E+00  0.45700761125E+02  0.45700761125E+02  0.00000000000E+00 0.  1.
         21   -1    0    0  501  503 -0.00000000000E+00 -0.00000000000E+00 -0.97736781859E+03  0.97736781859E+03  0.00000000000E+00 0. -1.
          6    2    1    2  501    0 -0.10516951452E+03  0.43653210494E+02 -0.36200018853E+03  0.41706331025E+03  0.17300704810E+03 0.  0.
         24    2    3    3    0    0 -0.10095741351E+03 -0.79213996752E+01 -0.14900166244E+03  0.19781882498E+03  0.81704615464E+02 0.  0.
         -6    2    1    2    0  502  0.10516951452E+03 -0.43653210494E+02 -0.56966686894E+03  0.60600526947E+03  0.17249874052E+03 0.  0.
        -24    2    5    5    0    0 -0.89192201082E+01  0.57055476271E+01 -0.17109534635E+03  0.18847218695E+03  0.78332891886E+02 0.  0.
          5    1    3    3  501    0 -0.42121010095E+01  0.51574610169E+02 -0.21299852608E+03  0.21924448527E+03  0.47000000000E+01 0. -1.
        -11    1    4    4    0    0 -0.92052337054E+02  0.67355075439E+01 -0.67024720396E+02  0.11406714235E+03  0.00000000000E+00 0.  1.
         12    1    4    4    0    0 -0.89050764603E+01 -0.14656907219E+02 -0.81976942048E+02  0.83751682631E+02  0.00000000000E+00 0. -1.
         -5    1    5    5    0  502  0.11408873463E+03 -0.49358758121E+02 -0.39857152260E+03  0.41753308252E+03  0.47000000000E+01 0.  1.
         13    1    6    6    0    0 -0.17664711221E+02 -0.21935594295E+02 -0.14999178212E+03  0.15261306308E+03  0.00000000000E+00 0. -1.
        -14    1    6    6    0    0  0.87454911126E+01  0.27641141922E+02 -0.21103564227E+02  0.35859123869E+02  0.00000000000E+00 0.  1.
</event>
<event>
12    1  0.9962621E-001  0.4071029E+03  0.7818608E-02  0.1041357E+00
         21   -1    0    0  503  502  0.00000000000E+00  0.00000000000E+00  0.33464171227E+03  0.33464171227E+03  0.00000000000E+00 0. -1.
         21   -1    0    0  501  503 -0.00000000000E+00 -0.00000000000E+00 -0.49953114726E+03  0.49953114726E+03  0.00000000000E+00 0.  1.
          6    2    1    2  501    0  0.36568348914E+03  0.49217932384E+02 -0.43237171565E+02  0.40939254537E+03  0.17200576763E+03 0.  0.
         24    2    3    3    0    0  0.25214777950E+03  0.65696387678E+02 -0.87492849312E+02  0.28633746881E+03  0.80247300920E+02 0.  0.
         -6    2    1    2    0  502 -0.36568348914E+03 -0.49217932384E+02 -0.12165226343E+03  0.42478031416E+03  0.17173299915E+03 0.  0.
        -24    2    5    5    0    0 -0.21373846393E+03 -0.75550931867E+02 -0.23257885866E+02  0.24179326247E+03  0.80814468079E+02 0.  0.
          5    1    3    3  501    0  0.11353570965E+03 -0.16478455294E+02  0.44255677748E+02  0.12305507656E+03  0.47000000000E+01 0. -1.
        -13    1    4    4    0    0  0.12458529037E+03  0.62756090606E+02 -0.16909375609E+02  0.14051956614E+03  0.00000000000E+00 0.  1.
         14    1    4    4    0    0  0.12756248912E+03  0.29402970716E+01 -0.70583473704E+02  0.14581790267E+03  0.00000000000E+00 0. -1.
         -5    1    5    5    0  502 -0.15194502521E+03  0.26332999484E+02 -0.98394377566E+02  0.18298705169E+03  0.47000000000E+01 0.  1.
         11    1    6    6    0    0 -0.17408289700E+03 -0.43896661289E+02  0.12114741266E+02  0.17994037584E+03  0.00000000000E+00 0. -1.
        -12    1    6    6    0    0 -0.39655566928E+02 -0.31654270578E+02 -0.35372627132E+02  0.61852886630E+02  0.00000000000E+00 0.  1.
</event>
<event>
12    1  0.9962621E-001  0.1776784E+03  0.7818608E-02  0.1170747E+00
         21   -1    0    0  503  502  0.00000000000E+00  0.00000000000E+00  0.43918028150E+03  0.43918028150E+03  0.00000000000E+00 0.  1.
         21   -1    0    0  501  503 -0.00000000000E+00 -0.00000000000E+00 -0.26771818308E+03  0.26771818308E+03  0.00000000000E+00 0.  1.
          6    2    1    2  501    0 -0.21452256612E+02  0.45031511787E+01  0.38905025968E+03  0.42770283780E+03  0.17632111395E+03 0.  0.
         24    2    3    3    0    0  0.53228384881E+02  0.20648760457E+02  0.25857510249E+03  0.27642912707E+03  0.79324311559E+02 0.  0.
         -6    2    1    2    0  502  0.21452256612E+02 -0.45031511787E+01 -0.21758816127E+03  0.27919562678E+03  0.17356587339E+03 0.  0.
        -24    2    5    5    0    0 -0.33731489718E+02  0.38749648687E+02 -0.75942831729E+02  0.12107687414E+03  0.79075578335E+02 0.  0.
          5    1    3    3  501    0 -0.74680641493E+02 -0.16145609278E+02  0.13047515719E+03  0.15127371073E+03  0.47000000000E+01 0. -1.
        -11    1    4    4    0    0 -0.16005782952E+02  0.14229029662E+02  0.11410789875E+03  0.11610022795E+03  0.00000000000E+00 0.  1.
         12    1    4    4    0    0  0.69234167834E+02  0.64197307949E+01  0.14446720373E+03  0.16032889912E+03  0.00000000000E+00 0. -1.
         -5    1    5    5    0  502  0.55183746330E+02 -0.43252799866E+02 -0.14164532954E+03  0.15811875264E+03  0.47000000000E+01 0.  1.
         13    1    6    6    0    0  0.68555367083E+01  0.18397162107E+02 -0.72981703524E+02  0.75576338933E+02  0.00000000000E+00 0. -1.
        -14    1    6    6    0    0 -0.40587026426E+02  0.20352486581E+02 -0.29611282047E+01  0.45500535210E+02  0.00000000000E+00 0.  1.
</event>
<event>
12    1  0.9962621E-001  0.3508306E+03  0.7818608E-02  0.1062282E+00
         21   -1    0    0  501  502  0.00000000000E+00  0.00000000000E+00  0.41696034180E+03  0.41696034180E+03  0.00000000000E+00 0. -1.
         21   -1    0    0  502  503 -0.00000000000E+00 -0.00000000000E+00 -0.29794932220E+03  0.29794932220E+03  0.00000000000E+00 0.  1.
         -6    2    1    2    0  503  0.28291586482E+03  0.11633374273E+03  0.24719121682E+02  0.35162871631E+03  0.17162981354E+03 0.  0.
        -24    2    3    3    0    0  0.15825285138E+03 -0.30053148751E+01 -0.13901973193E+01  0.17702498174E+03  0.79264838505E+02 0.  0.
          6    2    1    2  501    0 -0.28291586482E+03 -0.11633374273E+03  0.94291897916E+02  0.36328094769E+03  0.17177647882E+03 0.  0.
         24    2    5    5    0    0 -0.10499198957E+03 -0.25710231815E+02  0.92802779451E+02  0.16354654007E+03  0.80316754169E+02 0.  0.
          5    1    5    5  501    0 -0.17792387525E+03 -0.90623510912E+02  0.14891184654E+01  0.19973440762E+03  0.47000000000E+01 0. -1.
        -11    1    6    6    0    0 -0.59833788573E+02  0.22014663460E+02  0.23236975878E+02  0.67857827184E+02  0.00000000000E+00 0.  1.
         12    1    6    6    0    0 -0.45158200995E+02 -0.47724895275E+02  0.69565803573E+02  0.95688712881E+02  0.00000000000E+00 0. -1.
         -5    1    3    3    0  503  0.12466301343E+03  0.11933905760E+03  0.26109319002E+02  0.17460373457E+03  0.47000000000E+01 0.  1.
         11    1    4    4    0    0  0.49402628293E+02 -0.12124023044E+01  0.36844485904E+02  0.61640942101E+02  0.00000000000E+00 0. -1.
        -12    1    4    4    0    0  0.10885022309E+03 -0.17929125707E+01 -0.38234683223E+02  0.11538403964E+03  0.00000000000E+00 0.  1.
</event>
<event>
12    1  0.9962621E-001  0.1792420E+03  0.7818608E-02  0.1168710E+00
         21   -1    0    0  503  502  0.00000000000E+00  0.00000000000E+00  0.24169658784E+03  0.24169658784E+03  0.00000000000E+00 0.  1.
         21   -1    0    0  501  503 -0.00000000000E+00 -0.00000000000E+00 -0.13803413639E+03  0.13803413639E+03  0.00000000000E+00 0.  1.
          6    2    1    2  501    0  0.69472459031E+01 -0.47391142207E+02  0.90071440918E+02  0.19997417413E+03  0.17199599200E+03 0.  0.
         24    2    3    3    0    0 -0.25858780855E+02 -0.61602944160E+02  0.11464873279E+03  0.15633538425E+03  0.82660880475E+02 0.  0.
         -6    2    1    2    0  502 -0.69472459031E+01  0.47391142207E+02  0.13591010527E+02  0.17975655010E+03  0.17272381755E+03 0.  0.
        -24    2    5    5    0    0 -0.36026172079E+02  0.55040726540E+02  0.63133347797E+02  0.12161333665E+03  0.80477434064E+02 0.  0.
          5    1    3    3  501    0  0.32806026758E+02  0.14211801954E+02 -0.24577291875E+02  0.43638789882E+02  0.47000000000E+01 0. -1.
        -11    1    4    4    0    0 -0.82581927168E+01 -0.77645671160E+02  0.10449469097E+03  0.13044611316E+03  0.00000000000E+00 0.  1.
         12    1    4    4    0    0 -0.17600588139E+02  0.16042726999E+02  0.10154041824E+02  0.25889271094E+02  0.00000000000E+00 0. -1.
         -5    1    5    5    0  502  0.29078926176E+02 -0.76495843335E+01 -0.49542337270E+02  0.58143213449E+02  0.47000000000E+01 0.  1.
         13    1    6    6    0    0 -0.14277085556E+02  0.71800306095E+02  0.31416266093E+02  0.79662418382E+02  0.00000000000E+00 0. -1.
        -14    1    6    6    0    0 -0.21749086523E+02 -0.16759579555E+02  0.31717081704E+02  0.41950918264E+02  0.00000000000E+00 0.  1.
</event>
<event>
12    1  0.9962621E-001  0.3220933E+03  0.7818608E-02  0.1074803E+00
         21   -1    0    0  503  502  0.00000000000E+00  0.00000000000E+00  0.30642395127E+04  0.30642395127E+04  0.00000000000E+00 0.  1.
         21   -1    0    0  501  503 -0.00000000000E+00 -0.00000000000E+00 -0.46843597820E+02  0.46843597820E+02  0.00000000000E+00 0. -1.
          6    2    1    2  501    0  0.50206618169E+02  0.26721662656E+03  0.68469490031E+03  0.75625018450E+03  0.17082682760E+03 0.  0.
         24    2    3    3    0    0  0.60838238535E+02  0.69855200154E+02  0.22366780981E+03  0.25462020916E+03  0.78886763854E+02 0.  0.
         -6    2    1    2    0  502 -0.50206618169E+02 -0.26721662656E+03  0.23327010146E+04  0.23548329260E+04  0.17268079242E+03 0.  0.
        -24    2    5    5    0    0 -0.76799227102E+02 -0.12161758106E+03  0.93780881572E+03  0.95210252238E+03  0.79529120207E+02 0.  0.
          5    1    3    3  501    0 -0.10631620366E+02  0.19736142641E+03  0.46102709050E+03  0.50162997534E+03  0.47000000000E+01 0. -1.
        -13    1    4    4    0    0  0.34369022948E+02  0.79733433052E+02  0.12651502898E+03  0.15344283184E+03  0.00000000000E+00 0.  1.
         14    1    4    4    0    0  0.26469215587E+02 -0.98782328982E+01  0.97152780829E+02  0.10117737732E+03  0.00000000000E+00 0. -1.
         -5    1    5    5    0  502  0.26592608933E+02 -0.14559904550E+03  0.13948921988E+04  0.14027304036E+04  0.47000000000E+01 0.  1.
         13    1    6    6    0    0 -0.48901386564E+02 -0.12490948746E+02  0.34717612234E+03  0.35082563950E+03  0.00000000000E+00 0. -1.
        -14    1    6    6    0    0 -0.27897840539E+02 -0.10912663231E+03  0.59063269339E+03  0.60127688288E+03  0.00000000000E+00 0.  1.
</event>
<event>
12    1  0.9962621E-001  0.5036825E+03  0.7818608E-02  0.1012835E+00
         21   -1    0    0  501  502  0.00000000000E+00  0.00000000000E+00  0.29504159582E+03  0.29504159582E+03  0.00000000000E+00 0.  1.
         21   -1    0    0  502  503 -0.00000000000E+00 -0.00000000000E+00 -0.13059699055E+04  0.13059699055E+04  0.00000000000E+00 0.  1.
         -6    2    1    2    0  503 -0.94743307466E+02 -0.46363324200E+03 -0.97343741869E+03  0.10959356341E+04  0.17193728106E+03 0.  0.
        -24    2    3    3    0    0  0.12046203859E+02 -0.13655642748E+03 -0.34278086681E+03  0.37751165153E+03  0.78889514354E+02 0.  0.
          6    2    1    2  501    0  0.94743307466E+02  0.46363324200E+03 -0.37490890974E+02  0.50507586719E+03  0.17252242554E+03 0.  0.
         24    2    5    5    0    0  0.77903679007E+02  0.13868006837E+03 -0.30371413606E+01  0.17783392458E+03  0.79464054384E+02 0.  0.
          5    1    5    5  501    0  0.16839628459E+02  0.32495317363E+03 -0.34453749614E+02  0.32724194261E+03  0.47000000000E+01 0. -1.
        -11    1    6    6    0    0  0.35792506315E+01 -0.93361552087E+01  0.65081191556E+01  0.11930232358E+02  0.00000000000E+00 0.  1.
         12    1    6    6    0    0  0.74324428375E+02  0.14801622358E+03 -0.95452605162E+01  0.16590369223E+03  0.00000000000E+00 0. -1.
         -5    1    3    3    0  503 -0.10678951132E+03 -0.32707681452E+03 -0.63065655188E+03  0.71842398259E+03  0.47000000000E+01 0.  1.
         11    1    4    4    0    0  0.48230467337E+00 -0.14419795678E+03 -0.30861568991E+03  0.34064193432E+03  0.00000000000E+00 0. -1.
        -12    1    4    4    0    0  0.11563899185E+02  0.76415293030E+01 -0.34165176903E+02  0.36869717211E+02  0.00000000000E+00 0.  1.
</event>
<event>
12    1  0.9962621E-001  0.1985190E+03  0.7818608E-02  0.1151032E+00
         21   -1    0    0  503  502  0.00000000000E+00  0.00000000000E+00  0.41773775944E+03  0.41773775944E+03  0.00000000000E+00 0.  1.
         21   -1    0    0  501  503 -0.00000000000E+00 -0.00000000000E+00 -0.14054548725E+03  0.14054548725E+03  0.00000000000E+00 0.  1.
          6    2    1    2  501    0 -0.61720357036E+02  0.77023088425E+02 -0.21639492799E+02  0.19952116424E+03  0.17204205506E+03 0.  0.
         24    2    3    3    0    0  0.51297809491E+01 -0.16610298727E+02 -0.27530929630E+02  0.84226102918E+02  0.77677974034E+02 0.  0.
         -6    2    1    2    0  502  0.61720357036E+02 -0.77023088425E+02  0.29883176500E+03  0.35876208244E+03  0.17224357580E+03 0.  0.
        -24    2    5    5    0    0  0.53634362832E+02 -0.60988809736E+02  0.31425145686E+03  0.33463039596E+03  0.81407886403E+02 0.  0.
          5    1    3    3  501    0 -0.66850137985E+02  0.93633387152E+02  0.58914368311E+01  0.11529506133E+03  0.47000000000E+01 0. -1.
        -13    1    4    4    0    0  0.80335185709E+01  0.30480204168E+02 -0.17274363945E+02  0.35944177782E+02  0.00000000000E+00 0.  1.
         14    1    4    4    0    0 -0.29037376219E+01 -0.47090502895E+02 -0.10256565686E+02  0.48281925135E+02  0.00000000000E+00 0. -1.
         -5    1    5    5    0  502  0.80859942041E+01 -0.16034278689E+02 -0.15419691868E+02  0.24131686486E+02  0.47000000000E+01 0.  1.
         11    1    6    6    0    0  0.26588587566E+01  0.96934879418E+01  0.13442587013E+03  0.13480114168E+03  0.00000000000E+00 0. -1.
        -12    1    6    6    0    0  0.50975504075E+02 -0.70682297678E+02  0.17982558674E+03  0.19982925428E+03  0.00000000000E+00 0.  1.
</event>
<event>
12    1  0.9962621E-001  0.2158852E+03  0.7818608E-02  0.1137028E+00
         21   -1    0    0  501  502  0.00000000000E+00  0.00000000000E+00  0.52271320808E+02  0.52271320808E+02  0.00000000000E+00 0.  1.
         21   -1    0    0  502  503 -0.00000000000E+00 -0.00000000000E+00 -0.96769344011E+03  0.96769344011E+03  0.00000000000E+00 0.  1.
         -6    2    1    2    0  503  0.24355802226E+02  0.12736248763E+03 -0.31371643317E+03  0.38070256172E+03  0.17234277387E+03 0.  0.
        -24    2    3    3    0    0 -0.81530724534E+01  0.15418514535E+03 -0.26081971810E+03  0.31290555319E+03  0.77739489532E+02 0.  0.
          6    2    1    2  501    0 -0.24355802226E+02 -0.12736248763E+03 -0.60170568613E+03  0.63926219919E+03  0.17260364491E+03 0.  0.
         24    2    5    5    0    0  0.84963856710E+01  0.25543108307E+01 -0.21776420947E+03  0.23257953633E+03  0.81198994575E+02 0.  0.
          5    1    5    5  501    0 -0.32852187897E+02 -0.12991679846E+03 -0.38394147666E+03  0.40668266286E+03  0.47000000000E+01 0. -1.
        -13    1    6    6    0    0 -0.84290299946E+01 -0.25985350025E+02 -0.25163308394E+02  0.37141338855E+02  0.00000000000E+00 0.  1.
         14    1    6    6    0    0  0.16925415666E+02  0.28539660856E+02 -0.19260090107E+03  0.19543819747E+03  0.00000000000E+00 0. -1.
         -5    1    3    3    0  503  0.32508874679E+02 -0.26822657723E+02 -0.52896715071E+02  0.67797008529E+02  0.47000000000E+01 0.  1.
         11    1    4    4    0    0  0.23952150287E+02  0.12061188604E+03 -0.21485487351E+03  0.24755514381E+03  0.00000000000E+00 0. -1.
        -12    1    4    4    0    0 -0.32105222740E+02  0.33573259317E+02 -0.45964844586E+02  0.65350409380E+02  0.00000000000E+00 0.  1.
</event>
<event>
12    1  0.9962621E-001  0.3811920E+03  0.7818608E-02  0.1050562E+00
         21   -1    0    0  503  502  0.00000000000E+00  0.00000000000E+00  0.16626267478E+03  0.16626267478E+03  0.00000000000E+00 0.  1.
         21   -1    0    0  501  503 -0.00000000000E+00 -0.00000000000E+00 -0.10355147206E+04  0.10355147206E+04  0.00000000000E+00 0.  1.
          6    2    1    2  501    0 -0.17933493033E+03 -0.28900068555E+03 -0.19568509723E+03  0.42782662271E+03  0.17047154700E+03 0.  0.
         24    2    3    3    0    0 -0.16721411454E+03 -0.15307781557E+03 -0.10228295828E+03  0.26239388617E+03  0.83638329875E+02 0.  0.
         -6    2    1    2    0  502  0.17933493033E+03  0.28900068555E+03 -0.67356694863E+03  0.77395077270E+03  0.17211900181E+03 0.  0.
        -24    2    5    5    0    0  0.14465252143E+03  0.27503340648E+03 -0.66011713499E+03  0.73393900119E+03  0.79649852009E+02 0.  0.
          5    1    3    3  501    0 -0.12120815795E+02 -0.13592286998E+03 -0.93402138944E+02  0.16543273654E+03  0.47000000000E+01 0. -1.
        -13    1    4    4    0    0 -0.64911355695E+02 -0.36754540943E+02  0.37204824511E+01  0.74687498069E+02  0.00000000000E+00 0.  1.
         14    1    4    4    0    0 -0.10230275884E+03 -0.11632327463E+03 -0.10600344073E+03  0.18770638810E+03  0.00000000000E+00 0. -1.
         -5    1    5    5    0  502  0.34682408905E+02  0.13967279072E+02 -0.13449813640E+02  0.40011771507E+02  0.47000000000E+01 0.  1.
         11    1    6    6    0    0  0.43836047741E+02  0.16792374462E+03 -0.36860962964E+03  0.40742243698E+03  0.00000000000E+00 0. -1.
        -12    1    6    6    0    0  0.10081647369E+03  0.10710966186E+03 -0.29150750535E+03  0.32651656421E+03  0.00000000000E+00 0.  1.
</event>
<event>
12    1  0.9962621E-001  0.1757993E+03  0.7818608E-02  0.1172513E+00
         21   -1    0    0  501  502  0.00000000000E+00  0.00000000000E+00  0.38465441135E+02  0.38465441135E+02  0.00000000000E+00 0.  1.
         21   -1    0    0  502  503 -0.00000000000E+00 -0.00000000000E+00 -0.79297356586E+03  0.79297356586E+03  0.00000000000E+00 0.  1.
         -6    2    1    2    0  503  0.29409987475E+02  0.21100857382E+02 -0.37147709204E+03  0.40999131273E+03  0.16966865667E+03 0.  0.
        -24    2    3    3    0    0  0.27939061229E+02 -0.23635027478E+02 -0.34887362270E+03  0.35962793472E+03  0.79247972533E+02 0.  0.
          6    2    1    2  501    0 -0.29409987475E+02 -0.21100857382E+02 -0.38303103268E+03  0.42144769426E+03  0.17203253604E+03 0.  0.
         24    2    5    5    0    0 -0.31406824601E+02  0.15723587848E+02 -0.37116797991E+03  0.38242399446E+03  0.85140016353E+02 0.  0.
          5    1    5    5  501    0  0.19968371256E+01 -0.36824445229E+02 -0.11863052772E+02  0.39023699799E+02  0.47000000000E+01 0. -1.
        -11    1    6    6    0    0  0.19280954375E+02  0.31780469832E+02 -0.11734622525E+03  0.12309301379E+03  0.00000000000E+00 0.  1.
         12    1    6    6    0    0 -0.50687778975E+02 -0.16056881985E+02 -0.25382175466E+03  0.25933098067E+03  0.00000000000E+00 0. -1.
         -5    1    3    3    0  503  0.14709262458E+01  0.44735884859E+02 -0.22603469343E+02  0.50363378009E+02  0.47000000000E+01 0.  1.
         13    1    4    4    0    0  0.40813823611E+02  0.11584796762E+02 -0.25562317192E+03  0.25912001416E+03  0.00000000000E+00 0. -1.
        -14    1    4    4    0    0 -0.12874762382E+02 -0.35219824239E+02 -0.93250450774E+02  0.10050792056E+03  0.00000000000E+00 0.  1.
</event>
<event>
12    1  0.9962621E-001  0.1749207E+03  0.7818608E-02  0.1172946E+00
         21   -1    0    0  501  502  0.00000000000E+00  0.00000000000E+00  0.15059966125E+04  0.15059966125E+04  0.00000000000E+00 0.  1.
         21   -1    0    0  502  503 -0.00000000000E+00 -0.00000000000E+00 -0.21545953228E+02  0.21545953228E+02  0.00000000000E+00 0.  1.
         -6    2    1    2    0  503 -0.19924202302E+02  0.54385982472E+01  0.93025010466E+03  0.94655295465E+03  0.17369711153E+03 0.  0.
        -24    2    3    3    0    0  0.50926733808E+02 -0.17957585289E+02  0.43878519580E+03  0.44943417288E+03  0.80886467422E+02 0.  0.
          6    2    1    2  501    0  0.19924202302E+02 -0.54385982472E+01  0.55420055461E+03  0.58098961108E+03  0.17315923671E+03 0.  0.
         24    2    5    5    0    0 -0.42418005650E+02  0.32446224213E+02  0.38399665164E+03  0.39575119915E+03  0.79457778032E+02 0.  0.
          5    1    5    5  501    0  0.62342207952E+02 -0.37884822461E+02  0.17020390297E+03  0.18523841193E+03  0.47000000000E+01 0. -1.
        -11    1    6    6    0    0 -0.30918023165E+02 -0.56095917352E+01  0.31140371289E+03  0.31298508603E+03  0.00000000000E+00 0.  1.
         12    1    6    6    0    0 -0.11499982485E+02  0.38055815949E+02  0.72592938748E+02  0.82766113118E+02  0.00000000000E+00 0. -1.
         -5    1    3    3    0  503 -0.70850936110E+02  0.23396183536E+02  0.49146490886E+03  0.49711878178E+03  0.47000000000E+01 0.  1.
         13    1    4    4    0    0  0.35289654913E+02 -0.47623916379E+02  0.33957543487E+03  0.34470983903E+03  0.00000000000E+00 0. -1.
        -14    1    4    4    0    0  0.15637078896E+02  0.29666331090E+02  0.99209760927E+02  0.10472433385E+03  0.00000000000E+00 0.  1.
</event>
<event>
12    1  0.9962621E-001  0.1822735E+03  0.7818608E-02  0.1165800E+00
         21   -1    0    0  503  502  0.00000000000E+00  0.00000000000E+00  0.47259014492E+03  0.47259014492E+03  0.00000000000E+00 0.  1.
         21   -1    0    0  501  503 -0.00000000000E+00 -0.00000000000E+00 -0.70246820252E+02  0.70246820252E+02  0.00000000000E+00 0.  1.
          6    2    1    2  501    0  0.29804926236E+02 -0.48250978516E+02  0.21731064870E+03  0.28363275417E+03  0.17322566393E+03 0.  0.
         24    2    3    3    0    0  0.17038782641E+02 -0.52428500466E+02  0.23911982787E+03  0.25759131781E+03  0.78332159131E+02 0.  0.
         -6    2    1    2    0  502 -0.29804926236E+02  0.48250978516E+02  0.18503267596E+03  0.25920421100E+03  0.17243329513E+03 0.  0.
        -24    2    5    5    0    0  0.48978195761E+02  0.32626743315E+02  0.76295236923E+02  0.12393848110E+03  0.77951368684E+02 0.  0.
          5    1    3    3  501    0  0.12766143595E+02  0.41775219501E+01 -0.21809179167E+02  0.26041436364E+02  0.47000000000E+01 0. -1.
        -13    1    4    4    0    0  0.45574152527E+01  0.37448590895E+01  0.15813288317E+03  0.15824286001E+03  0.00000000000E+00 0.  1.
         14    1    4    4    0    0  0.12481367389E+02 -0.56173359555E+02  0.80986944702E+02  0.99348457803E+02  0.00000000000E+00 0. -1.
         -5    1    5    5    0  502 -0.78783121997E+02  0.15624235201E+02  0.10873743904E+03  0.13526572990E+03  0.47000000000E+01 0.  1.
         13    1    6    6    0    0  0.37116843197E+00  0.31066176768E+02 -0.26873016991E+01  0.31184398269E+02  0.00000000000E+00 0. -1.
        -14    1    6    6    0    0  0.48607027329E+02  0.15605665467E+01  0.78982538623E+02  0.92754082827E+02  0.00000000000E+00 0.  1.
</event>
<event>
12    1  0.9962621E-001  0.2908660E+03  0.7818608E-02  0.1089910E+00
         21   -1    0    0  503  502  0.00000000000E+00  0.00000000000E+00  0.65287384152E+03  0.65287384152E+03  0.00000000000E+00 0.  1.
         21   -1    0    0  501  503 -0.00000000000E+00 -0.00000000000E+00 -0.27204368372E+03  0.27204368372E+03  0.00000000000E+00 0. -1.
          6    2    1    2  501    0  0.21543650930E+03  0.93871150209E+02 -0.14427495861E+03  0.32468184821E+03  0.17140115663E+03 0.  0.
         24    2    3    3    0    0  0.49102069835E+02  0.82137365784E+02 -0.70715233015E+02  0.14236906567E+03  0.78171264275E+02 0.  0.
         -6    2    1    2    0  502 -0.21543650930E+03 -0.93871150209E+02  0.52510511642E+03  0.60023567703E+03  0.17123902098E+03 0.  0.
        -24    2    5    5    0    0 -0.15327217148E+03 -0.19387653060E+02  0.22008135668E+03  0.28012041614E+03  0.78507352152E+02 0.  0.
          5    1    3    3  501    0  0.16633443946E+03  0.11733784425E+02 -0.73559725599E+02  0.18231278254E+03  0.47000000000E+01 0. -1.
        -13    1    4    4    0    0 -0.65038904764E+01  0.47433242983E+02 -0.27647159092E+01  0.47956822093E+02  0.00000000000E+00 0.  1.
         14    1    4    4    0    0  0.55605960312E+02  0.34704122801E+02 -0.67950517106E+02  0.94412243573E+02  0.00000000000E+00 0. -1.
         -5    1    5    5    0  502 -0.62164337821E+02 -0.74483497149E+02  0.30502375974E+03  0.32011526089E+03  0.47000000000E+01 0.  1.
         11    1    6    6    0    0 -0.61886582883E+02 -0.18593891702E+02  0.15498724903E+03  0.16791881762E+03  0.00000000000E+00 0. -1.
        -12    1    6    6    0    0 -0.91385588595E+02 -0.79376135750E+00  0.65094107644E+02  0.11220159852E+03  0.00000000000E+00 0.  1.
</event>
<event>
12    1  0.9962621E-001  0.2050759E+03  0.7818608E-02  0.1148362E+00
         21   -1    0    0  501  502  0.00000000000E+00  0.00000000000E+00  0.46579854669E+02  0.46579854669E+02  0.00000000000E+00 0. -1.
         21   -1    0    0  502  503 -0.00000000000E+00 -0.00000000000E+00 -0.84846284118E+03  0.84846284118E+03  0.00000000000E+00 0. -1.
         -6    2    1    2    0  503  0.75538040014E+02 -0.38767283322E+02 -0.35828997353E+03  0.40633941701E+03  0.17184620722E+03 0.  0.
        -24    2    3    3    0    0 -0.10096696534E+02  0.21342817644E+02 -0.58230571979E+02  0.88527732513E+02  0.62361051667E+02 0.  0.
          6    2    1    2  501    0 -0.75538040014E+02  0.38767283322E+02 -0.44359301298E+03  0.48870327884E+03  0.18667414347E+03 0.  0.
         24    2    5    5    0    0 -0.65720182140E+02  0.45486476022E+02 -0.11888543442E+03  0.16374383605E+03  0.79310374394E+02 0.  0.
          5    1    5    5  501    0 -0.98178578742E+01 -0.67191926997E+01 -0.32470757855E+03  0.32495944278E+03  0.47000000000E+01 0. -1.
        -11    1    6    6    0    0 -0.98784562992E+01 -0.20695757389E+02 -0.11084608259E+02  0.25470901300E+02  0.00000000000E+00 0.  1.
         12    1    6    6    0    0 -0.55841725841E+02  0.66182233411E+02 -0.10780082616E+03  0.13827293476E+03  0.00000000000E+00 0. -1.
         -5    1    3    3    0  503  0.85634736548E+02 -0.60110100966E+02 -0.30005940155E+03  0.31781168450E+03  0.47000000000E+01 0.  1.
         13    1    4    4    0    0 -0.61546487661E+01 -0.21563173436E+02 -0.12402488129E+02  0.25625609492E+02  0.00000000000E+00 0. -1.
        -14    1    4    4    0    0 -0.39420477678E+01  0.42905991080E+02 -0.45828083850E+02  0.62902123021E+02  0.00000000000E+00 0.  1.
</event>
<event>
12    1  0.9962621E-001  0.1894684E+03  0.7818608E-02  0.1159099E+00
         21   -1    0    0  501  502  0.00000000000E+00  0.00000000000E+00  0.29594435588E+03  0.29594435588E+03  0.00000000000E+00 0. -1.
         21   -1    0    0  502  503 -0.00000000000E+00 -0.00000000000E+00 -0.14590061353E+03  0.14590061353E+03  0.00000000000E+00 0. -1.
         -6    2    1    2    0  503  0.38153179340E+01 -0.79085622382E+02 -0.16624089408E+02  0.18950307635E+03  0.17136500015E+03 0.  0.
        -24    2    3    3    0    0 -0.31961376095E+02 -0.52200759239E+02  0.44335734913E+02  0.11373396732E+03  0.84990052975E+02 0.  0.
          6    2    1    2  501    0 -0.38153179340E+01  0.79085622382E+02  0.16666783176E+03  0.25234189307E+03  0.17213126542E+03 0.  0.
         24    2    5    5    0    0  0.54347487779E+02  0.21491949391E+02  0.12857788429E+03  0.16193792615E+03  0.79221627602E+02 0.  0.
          5    1    5    5  501    0 -0.58162805713E+02  0.57593672991E+02  0.38089947470E+02  0.90403966922E+02  0.47000000000E+01 0. -1.
        -11    1    6    6    0    0 -0.11798316142E+01 -0.11173944542E+02  0.81188505184E+02  0.81962323132E+02  0.00000000000E+00 0.  1.
         12    1    6    6    0    0  0.55527319394E+02  0.32665893933E+02  0.47389379104E+02  0.79975603013E+02  0.00000000000E+00 0. -1.
         -5    1    3    3    0  503  0.35776694029E+02 -0.26884863142E+02 -0.60959824321E+02  0.75769109029E+02  0.47000000000E+01 0.  1.
         11    1    4    4    0    0  0.17707337490E+02  0.13364850095E+02  0.12996037361E+02  0.25711203903E+02  0.00000000000E+00 0. -1.
        -12    1    4    4    0    0 -0.49668713585E+02 -0.65565609335E+02  0.31339697552E+02  0.88022763415E+02  0.00000000000E+00 0.  1.
</event>
<event>
12    1  0.9962621E-001  0.2036143E+03  0.7818608E-02  0.1146731E+00
         21   -1    0    0  501  502  0.00000000000E+00  0.00000000000E+00  0.97233844889E+02  0.97233844889E+02  0.00000000000E+00 0.  1.
         21   -1    0    0  502  503 -0.00000000000E+00 -0.00000000000E+00 -0.45610990507E+03  0.45610990507E+03  0.00000000000E+00 0.  1.
         -6    2    1    2    0  503  0.80609317033E+02  0.72612948013E+02 -0.10874527795E+03  0.23083398849E+03  0.17230290929E+03 0.  0.
        -24    2    3    3    0    0  0.71644239518E+02  0.64651296001E+02 -0.14560007235E+03  0.19179392717E+03  0.79201277143E+02 0.  0.
          6    2    1    2  501    0 -0.80609317033E+02 -0.72612948013E+02 -0.25013078222E+03  0.32250976147E+03  0.17226907969E+03 0.  0.
         24    2    5    5    0    0 -0.46442959333E+02 -0.11043031280E+03 -0.13050775505E+03  0.19239730354E+03  0.75050954850E+02 0.  0.
          5    1    5    5  501    0 -0.34166357700E+02  0.37817364791E+02 -0.11962302717E+03  0.13011245793E+03  0.47000000000E+01 0. -1.
        -11    1    6    6    0    0  0.14320663281E+02 -0.35201094995E+02 -0.65978350227E+02  0.76140273077E+02  0.00000000000E+00 0.  1.
         12    1    6    6    0    0 -0.60763622613E+02 -0.75229217809E+02 -0.64529404824E+02  0.11625703046E+03  0.00000000000E+00 0. -1.
         -5    1    3    3    0  503  0.89650775149E+01  0.79616520120E+01  0.36854794395E+02  0.39040061315E+02  0.47000000000E+01 0.  1.
         13    1    4    4    0    0  0.23366629763E+02  0.21746249501E+02  0.63943149581E+00  0.31926597477E+02  0.00000000000E+00 0. -1.
        -14    1    4    4    0    0  0.48277609755E+02  0.42905046500E+02 -0.14623950384E+03  0.15986732969E+03  0.00000000000E+00 0.  1.
</event>
<event>
12    1  0.9962621E-001  0.2666227E+03  0.7818608E-02  0.1103236E+00
         21   -1    0    0  503  502  0.00000000000E+00  0.00000000000E+00  0.46941317003E+03  0.46941317003E+03  0.00000000000E+00 0.  1.
         21   -1    0    0  501  503 -0.00000000000E+00 -0.00000000000E+00 -0.15507368297E+03  0.15507368297E+03  0.00000000000E+00 0. -1.
          6    2    1    2  501    0 -0.17001336362E+02  0.20265577187E+03  0.10917650308E+03  0.28810961922E+03  0.17242168238E+03 0.  0.
         24    2    3    3    0    0  0.23463954260E+02  0.37221345706E+02  0.13955116225E+02  0.92929723691E+02  0.80654835879E+02 0.  0.
         -6    2    1    2    0  502  0.17001336362E+02 -0.20265577187E+03  0.20516298397E+03  0.33637723377E+03  0.17233509828E+03 0.  0.
        -24    2    5    5    0    0  0.59207625133E+02 -0.66030746336E+02  0.11962324764E+03  0.16968318797E+03  0.81345316822E+02 0.  0.
          5    1    3    3  501    0 -0.40465290622E+02  0.16543442616E+03  0.95221386860E+02  0.19517989553E+03  0.47000000000E+01 0. -1.
        -11    1    4    4    0    0  0.30204680613E+02 -0.98602832483E+01  0.29027869092E+02  0.43036787760E+02  0.00000000000E+00 0.  1.
         12    1    4    4    0    0 -0.67407263527E+01  0.47081628954E+02 -0.15072752867E+02  0.49892935930E+02  0.00000000000E+00 0. -1.
         -5    1    5    5    0  502 -0.42206288771E+02 -0.13662502553E+03  0.85539736335E+02  0.16669404580E+03  0.47000000000E+01 0.  1.
         13    1    6    6    0    0 -0.19739875752E+01 -0.31261334327E+02  0.50075827298E+00  0.31327598212E+02  0.00000000000E+00 0. -1.
        -14    1    6    6    0    0  0.61181612708E+02 -0.34769412008E+02  0.11912248936E+03  0.13835558976E+03  0.00000000000E+00 0.  1.
</event>
<event>
12    1  0.9962621E-001  0.2351707E+03  0.7818608E-02  0.1123224E+00
         21   -1    0    0  501  502  0.00000000000E+00  0.00000000000E+00  0.19944461794E+03  0.19944461794E+03  0.00000000000E+00 0.  1.
         21   -1    0    0  502  503 -0.00000000000E+00 -0.00000000000E+00 -0.31905982761E+03  0.31905982761E+03  0.00000000000E+00 0.  1.
         -6    2    1    2    0  503 -0.16018523600E+03 -0.13458155371E+02  0.35415185003E+02  0.23683144602E+03  0.17027761660E+03 0.  0.
        -24    2    3    3    0    0 -0.14418871736E+03  0.44114360283E+02  0.42012828734E+02  0.17653134594E+03  0.81619699349E+02 0.  0.
          6    2    1    2  501    0  0.16018523600E+03  0.13458155371E+02 -0.15503039467E+03  0.28167299953E+03  0.17165320740E+03 0.  0.
         24    2    5    5    0    0  0.68103553871E+02 -0.54102529685E+02 -0.61804222620E+02  0.13417150291E+03  0.81345267170E+02 0.  0.
          5    1    5    5  501    0  0.92081682133E+02  0.67560685056E+02 -0.93226172050E+02  0.14750149662E+03  0.47000000000E+01 0. -1.
        -11    1    6    6    0    0 -0.38344894095E+01 -0.44574184961E+02 -0.35037665695E+02  0.56826044129E+02  0.00000000000E+00 0.  1.
         12    1    6    6    0    0  0.71938043280E+02 -0.95283447235E+01 -0.26766556925E+02  0.77345458779E+02  0.00000000000E+00 0. -1.
         -5    1    3    3    0  503 -0.15996518641E+02 -0.57572515654E+02 -0.65976437308E+01  0.60300100084E+02  0.47000000000E+01 0.  1.
         11    1    4    4    0    0 -0.30158036496E+02 -0.22548194890E+02  0.19953255323E+02  0.42615263182E+02  0.00000000000E+00 0. -1.
        -12    1    4    4    0    0 -0.11403068087E+03  0.66662555173E+02  0.22059573411E+02  0.13391608275E+03  0.00000000000E+00 0.  1.
</event>
<event>
12    1  0.9962621E-001  0.1760110E+03  0.7818608E-02  0.1171756E+00
         21   -1    0    0  503  502  0.00000000000E+00  0.00000000000E+00  0.12788948986E+03  0.12788948986E+03  0.00000000000E+00 0.  1.
         21   -1    0    0  501  503 -0.00000000000E+00 -0.00000000000E+00 -0.39273773361E+03  0.39273773361E+03  0.00000000000E+00 0.  1.
          6    2    1    2  501    0 -0.10402435191E+02  0.36958085926E+02  0.28791504722E+02  0.17835032481E+03  0.17177245659E+03 0.  0.
         24    2    3    3    0    0 -0.31448927456E+02 -0.33321078058E+02 -0.15333910973E+02  0.92610847105E+02  0.79008296367E+02 0.  0.
         -6    2    1    2    0  502  0.10402435191E+02 -0.36958085926E+02 -0.29363974847E+03  0.34227689866E+03  0.17162477299E+03 0.  0.
        -24    2    5    5    0    0 -0.24671680143E+02 -0.73830962189E+02 -0.25471606236E+03  0.27803558866E+03  0.79773512875E+02 0.  0.
          5    1    3    3  501    0  0.21046492265E+02  0.70279163984E+02  0.44125415695E+02  0.85739477705E+02  0.47000000000E+01 0. -1.
        -13    1    4    4    0    0 -0.52693950416E+02 -0.18582409021E+02 -0.29440553632E+02  0.63156191570E+02  0.00000000000E+00 0.  1.
         14    1    4    4    0    0  0.21245022960E+02 -0.14738669037E+02  0.14106642659E+02  0.29454655535E+02  0.00000000000E+00 0. -1.
         -5    1    5    5    0  502  0.35074115334E+02  0.36872876264E+02 -0.38923686103E+02  0.64241309998E+02  0.47000000000E+01 0.  1.
         11    1    6    6    0    0 -0.28732108612E+02 -0.45047503445E+02 -0.23918118224E+03  0.24507641578E+03  0.00000000000E+00 0. -1.
        -12    1    6    6    0    0  0.40604284686E+01 -0.28783458744E+02 -0.15534880121E+02  0.32959172881E+02  0.00000000000E+00 0.  1.
</event>
<event>
12    1  0.9962621E-001  0.1923099E+03  0.7818608E-02  0.1157642E+00
         21   -1    0    0  501  502  0.00000000000E+00  0.00000000000E+00  0.14424791124E+03  0.14424791124E+03  0.00000000000E+00 0. -1.
         21   -1    0    0  502  503 -0.00000000000E+00 -0.00000000000E+00 -0.67875926262E+03  0.67875926262E+03  0.00000000000E+00 0. -1.
         -6    2    1    2    0  503 -0.84968039733E+02 -0.13574590167E+02  0.61576650203E+02  0.19666541190E+03  0.16577624411E+03 0.  0.
        -24    2    3    3    0    0  0.16896800809E+02 -0.17041995903E+02  0.41243610337E+01  0.79570048316E+02  0.75752562551E+02 0.  0.
          6    2    1    2  501    0  0.84968039733E+02  0.13574590167E+02 -0.59608800158E+03  0.62634176197E+03  0.17198622005E+03 0.  0.
         24    2    5    5    0    0  0.82719926406E+02 -0.48164122037E+02 -0.47736984930E+03  0.49242831127E+03  0.73765166858E+02 0.  0.
          5    1    5    5  501    0  0.22481133272E+01  0.61738712203E+02 -0.11871815227E+03  0.13391345070E+03  0.47000000000E+01 0. -1.
        -13    1    6    6    0    0  0.88702529624E+02 -0.53280301008E+02 -0.35413878920E+03  0.36894608177E+03  0.00000000000E+00 0.  1.
         14    1    6    6    0    0 -0.59826032184E+01  0.51161789714E+01 -0.12323106010E+03  0.12348222950E+03  0.00000000000E+00 0. -1.
         -5    1    3    3    0  503 -0.10186484054E+03  0.34674057367E+01  0.57452289169E+02  0.11709536358E+03  0.47000000000E+01 0.  1.
         11    1    4    4    0    0  0.16421370951E+02 -0.28402416467E+01  0.38728557223E+02  0.42161944228E+02  0.00000000000E+00 0. -1.
        -12    1    4    4    0    0  0.47542985828E+00 -0.14201754257E+02 -0.34604196189E+02  0.37408104088E+02  0.00000000000E+00 0.  1.
</event>
<event>
12    1  0.1262118E+000  0.2380623E+03  0.7818608E-02  0.1121166E+00
         21   -1    0    0  501  502  0.00000000000E+00  0.00000000000E+00  0.59432390524E+03  0.59432390524E+03  0.00000000000E+00 0. -1.
         21   -1    0    0  502  503 -0.00000000000E+00 -0.00000000000E+00 -0.44378144028E+03  0.44378144028E+03  0.00000000000E+00 0. -1.
         -6    2    1    2    0  503 -0.12986385313E+03  0.10054568559E+03  0.53529228475E+03  0.58566079910E+03  0.17171687818E+03 0.  0.
        -24    2    3    3    0    0 -0.13017904565E+03  0.13516196470E+03  0.45266865823E+03  0.49595494765E+03  0.76466040364E+02 0.  0.
          6    2    1    2  501    0  0.12986385313E+03 -0.10054568559E+03 -0.38474981979E+03  0.45244454642E+03  0.17233568555E+03 0.  0.
         24    2    5    5    0    0  0.31228507010E+02 -0.47066359415E+02 -0.71002123782E+02  0.11920487803E+03  0.77317782735E+02 0.  0.
          5    1    5    5  501    0  0.98635346124E+02 -0.53479326175E+02 -0.31374769601E+03  0.33323966838E+03  0.47000000000E+01 0. -1.
        -11    1    6    6    0    0  0.49797778241E+02 -0.55938797183E+02 -0.51833543326E+02  0.91080645375E+02  0.00000000000E+00 0.  1.
         12    1    6    6    0    0 -0.18569271232E+02  0.88724377685E+01 -0.19168580456E+02  0.28124232660E+02  0.00000000000E+00 0. -1.
         -5    1    3    3    0  503  0.31519251174E+00 -0.34616279106E+02  0.82623626512E+02  0.89705851445E+02  0.47000000000E+01 0.  1.
         13    1    4    4    0    0 -0.64840601205E+02  0.23686158965E+02  0.11152846953E+03  0.13116378009E+03  0.00000000000E+00 0. -1.
        -14    1    4    4    0    0 -0.65338444440E+02  0.11147580573E+03  0.34114018870E+03  0.36479116756E+03  0.00000000000E+00 0.  1.
</event>
<event>
12    1  0.9962621E-001  0.1857402E+03  0.7818608E-02  0.1162545E+00
         21   -1    0    0  503  502  0.00000000000E+00  0.00000000000E+00  0.15420512287E+02  0.15420512287E+02  0.00000000000E+00 0. -1.
         21   -1    0    0  501  503 -0.00000000000E+00 -0.00000000000E+00 -0.22855608108E+04  0.22855608108E+04  0.00000000000E+00 0. -1.
          6    2    1    2  501    0  0.53833090546E+02 -0.39874388172E+02 -0.94965812539E+03  0.96749994926E+03  0.17238801649E+03 0.  0.
         24    2    3    3    0    0  0.72842156721E+02  0.90906322338E+01 -0.38025000281E+03  0.39565502458E+03  0.81019839852E+02 0.  0.
         -6    2    1    2    0  502 -0.53833090546E+02  0.39874388172E+02 -0.13204821731E+04  0.13334813738E+04  0.17323809147E+03 0.  0.
        -24    2    5    5    0    0 -0.94871723391E+01  0.69915117378E+02 -0.48967644245E+03  0.50093752633E+03  0.78595527389E+02 0.  0.
          5    1    3    3  501    0 -0.19009066176E+02 -0.48965020406E+02 -0.56940812257E+03  0.57184492467E+03  0.47000000000E+01 0. -1.
        -11    1    4    4    0    0  0.42282862339E+02 -0.28808404310E+02 -0.11350540735E+03  0.12450398429E+03  0.00000000000E+00 0.  1.
         12    1    4    4    0    0  0.30559294382E+02  0.37899036544E+02 -0.26674459546E+03  0.27115104029E+03  0.00000000000E+00 0. -1.
         -5    1    5    5    0  502 -0.44345918207E+02 -0.30040729206E+02 -0.83080573068E+03  0.83254384750E+03  0.47000000000E+01 0.  1.
         13    1    6    6    0    0  0.55145100487E+01 -0.14890587519E+02 -0.39046475809E+02  0.42151710414E+02  0.00000000000E+00 0. -1.
        -14    1    6    6    0    0 -0.15001682388E+02  0.84805704896E+02 -0.45062996664E+03  0.45878581592E+03  0.00000000000E+00 0.  1.
</event>
<event>
12    1  0.9962621E-001  0.3236971E+03  0.7818608E-02  0.1074090E+00
         21   -1    0    0  503  502  0.00000000000E+00  0.00000000000E+00  0.16071866845E+04  0.16071866845E+04  0.00000000000E+00 0.  1.
         21   -1    0    0  501  503 -0.00000000000E+00 -0.00000000000E+00 -0.66089164620E+02  0.66089164620E+02  0.00000000000E+00 0.  1.
          6    2    1    2  501    0  0.24600128655E+03 -0.12085447455E+03  0.66008940194E+03  0.73468374823E+03  0.17005809113E+03 0.  0.
         24    2    3    3    0    0  0.14655409801E+03 -0.15749216522E+02  0.26702730700E+03  0.31580815925E+03  0.81884487517E+02 0.  0.
         -6    2    1    2    0  502 -0.24600128655E+03  0.12085447455E+03  0.88100811791E+03  0.93859210086E+03  0.17221321367E+03 0.  0.
        -24    2    5    5    0    0 -0.19008487018E+03  0.11268019500E+03  0.82910932249E+03  0.86172182420E+03  0.79455329971E+02 0.  0.
          5    1    3    3  501    0  0.99447188543E+02 -0.10510525803E+03  0.39306209493E+03  0.41887558899E+03  0.47000000000E+01 0. -1.
        -13    1    4    4    0    0  0.13554791897E+03 -0.29695186928E+02  0.26334164023E+03  0.29766400848E+03  0.00000000000E+00 0.  1.
         14    1    4    4    0    0  0.11006179038E+02  0.13945970405E+02  0.36856667761E+01  0.18144150770E+02  0.00000000000E+00 0. -1.
         -5    1    5    5    0  502 -0.55916416373E+02  0.81742795475E+01  0.51898795423E+02  0.76870276651E+02  0.47000000000E+01 0.  1.
         13    1    6    6    0    0 -0.16149636297E+03  0.12409894872E+03  0.70294888034E+03  0.73185979032E+03  0.00000000000E+00 0. -1.
        -14    1    6    6    0    0 -0.28588507207E+02 -0.11418753710E+02  0.12616044215E+03  0.12986203388E+03  0.00000000000E+00 0.  1.
</event>
<event>
12    1  0.9962621E-001  0.1785900E+03  0.7818608E-02  0.1169532E+00
         21   -1    0    0  501  502  0.00000000000E+00  0.00000000000E+00  0.19451807176E+03  0.19451807176E+03  0.00000000000E+00 0. -1.
         21   -1    0    0  502  503 -0.00000000000E+00 -0.00000000000E+00 -0.17607530319E+03  0.17607530319E+03  0.00000000000E+00 0. -1.
         -6    2    1    2    0  503  0.47260048524E+02 -0.38824433210E+00 -0.41943302083E+02  0.18344925346E+03  0.17222289362E+03 0.  0.
        -24    2    3    3    0    0  0.87021821420E+01 -0.40529159328E+02  0.27834029578E+02  0.94068225662E+02  0.79723002620E+02 0.  0.
          6    2    1    2  501    0 -0.47260048524E+02  0.38824433210E+00  0.60386070651E+02  0.18714412149E+03  0.17071257060E+03 0.  0.
         24    2    5    5    0    0 -0.91107815472E+02  0.19555431466E+02  0.64774271437E+02  0.13886002437E+03  0.80020942181E+02 0.  0.
          5    1    5    5  501    0  0.43847766948E+02 -0.19167187134E+02 -0.43882007863E+01  0.48284097124E+02  0.47000000000E+01 0. -1.
        -13    1    6    6    0    0  0.39806717882E+01  0.26076597397E+02  0.22176990415E+02  0.34462350233E+02  0.00000000000E+00 0.  1.
         14    1    6    6    0    0 -0.95088487261E+02 -0.65211659311E+01  0.42597281022E+02  0.10439767414E+03  0.00000000000E+00 0. -1.
         -5    1    3    3    0  503  0.38557866382E+02  0.40140914996E+02 -0.69777331661E+02  0.89381027798E+02  0.47000000000E+01 0.  1.
         11    1    4    4    0    0  0.31552082555E+02 -0.48355953423E+02  0.36612873448E+02  0.68369105941E+02  0.00000000000E+00 0. -1.
        -12    1    4    4    0    0 -0.22849900413E+02  0.78267940954E+01 -0.87788438706E+01  0.25699119721E+02  0.00000000000E+00 0.  1.
</event>
<event>
12    1  0.9962621E-001  0.2019080E+03  0.7818608E-02  0.1148674E+00
         21   -1    0    0  503  502  0.00000000000E+00  0.00000000000E+00  0.73971440661E+03  0.73971440661E+03  0.00000000000E+00 0.  1.
         21   -1    0    0  501  503 -0.00000000000E+00 -0.00000000000E+00 -0.12584103649E+03  0.12584103649E+03  0.00000000000E+00 0.  1.
          6    2    1    2  501    0 -0.10241272241E+02  0.10335145311E+03  0.63382114144E+03  0.66520379450E+03  0.17314861351E+03 0.  0.
         24    2    3    3    0    0 -0.70150165789E+02  0.68935833430E+02  0.31752543901E+03  0.34141594454E+03  0.77905377720E+02 0.  0.
         -6    2    1    2    0  502  0.10241272241E+02 -0.10335145311E+03 -0.19947771323E+02  0.20035164860E+03  0.17016598661E+03 0.  0.
        -24    2    5    5    0    0 -0.59282983627E+02 -0.70771857690E+02 -0.34090680551E+01  0.12167083202E+03  0.79177279767E+02 0.  0.
          5    1    3    3  501    0  0.59908893548E+02  0.34415619684E+02  0.31629570243E+03  0.32378784996E+03  0.47000000000E+01 0. -1.
        -11    1    4    4    0    0 -0.25731191495E+02 -0.19929789251E+01  0.16879312029E+03  0.17075474704E+03  0.00000000000E+00 0.  1.
         12    1    4    4    0    0 -0.44418974294E+02  0.70928812355E+02  0.14873231872E+03  0.17066119749E+03  0.00000000000E+00 0. -1.
         -5    1    5    5    0  502  0.69524255868E+02 -0.32579595424E+02 -0.16538703268E+02  0.78680816580E+02  0.47000000000E+01 0.  1.
         11    1    6    6    0    0 -0.33002192261E+02 -0.79353692303E+02 -0.21550693403E+02  0.88603530191E+02  0.00000000000E+00 0. -1.
        -12    1    6    6    0    0 -0.26280791365E+02  0.85818346127E+01  0.18141625348E+02  0.33067301831E+02  0.00000000000E+00 0.  1.
</event>
<event>
12    1  0.9962621E-001  0.2221933E+03  0.7818608E-02  0.1132501E+00
         21   -1    0    0  503  502  0.00000000000E+00  0.00000000000E+00  0.68134776195E+03  0.68134776195E+03  0.00000000000E+00 0.  1.
         21   -1    0    0  501  503 -0.00000000000E+00 -0.00000000000E+00 -0.83804581442E+02  0.83804581442E+02  0.00000000000E+00 0. -1.
          6    2    1    2  501    0 -0.12791339830E+03 -0.46729214214E+02  0.44293363549E+03  0.49554015991E+03  0.17556875493E+03 0.  0.
         24    2    3    3    0    0 -0.55665415216E+02 -0.56454672395E+02  0.38847421673E+03  0.40442334539E+03  0.79751217839E+02 0.  0.
         -6    2    1    2    0  502  0.12791339830E+03  0.46729214214E+02  0.15460954501E+03  0.26961218348E+03  0.17389985954E+03 0.  0.
        -24    2    5    5    0    0  0.48245889833E+02  0.45063698724E+02  0.15928765446E+03  0.18965181483E+03  0.78973737262E+02 0.  0.
          5    1    3    3  501    0 -0.72247983080E+02  0.97254581816E+01  0.54459418765E+02  0.91116814519E+02  0.47000000000E+01 0. -1.
        -11    1    4    4    0    0 -0.57863433150E+02 -0.29247932445E+02  0.13806106155E+03  0.15252696537E+03  0.00000000000E+00 0.  1.
         12    1    4    4    0    0  0.21980179336E+01 -0.27206739951E+02  0.25041315517E+03  0.25189638002E+03  0.00000000000E+00 0. -1.
         -5    1    5    5    0  502  0.79667508463E+02  0.16655154896E+01 -0.46781094479E+01  0.79960368650E+02  0.47000000000E+01 0.  1.
         13    1    6    6    0    0 -0.56207406800E+01 -0.72365665244E+01  0.79753245642E+02  0.80277897402E+02  0.00000000000E+00 0. -1.
        -14    1    6    6    0    0  0.53866630513E+02  0.52300265249E+02  0.79534408819E+02  0.10937391743E+03  0.00000000000E+00 0.  1.
</event>
<event>
12    1  0.9962621E-001  0.1813315E+03  0.7818608E-02  0.1167182E+00
         21   -1    0    0  501  502  0.00000000000E+00  0.00000000000E+00  0.41562760637E+02  0.41562760637E+02  0.00000000000E+00 0. -1.
         21   -1    0    0  502  503 -0.00000000000E+00 -0.00000000000E+00 -0.12857640067E+04  0.12857640067E+04  0.00000000000E+00 0. -1.
         -6    2    1    2    0  503 -0.55760211675E+02  0.15035571845E+02 -0.10357845146E+04  0.10510684750E+04  0.16899736337E+03 0.  0.
        -24    2    3    3    0    0  0.15598587269E+02 -0.29101616770E+02 -0.67835317367E+03  0.68389082987E+03  0.80333174498E+02 0.  0.
          6    2    1    2  501    0  0.55760211675E+02 -0.15035571845E+02 -0.20841673150E+03  0.27625829237E+03  0.17188903546E+03 0.  0.
         24    2    5    5    0    0  0.16679607802E+02  0.54096331092E+02 -0.13528549745E+03  0.16819913730E+03  0.82366022196E+02 0.  0.
          5    1    5    5  501    0  0.39080603873E+02 -0.69131902937E+02 -0.73131234046E+02  0.10805915508E+03  0.47000000000E+01 0. -1.
        -13    1    6    6    0    0 -0.21116805682E+01  0.12781690299E+02  0.97588366677E+01  0.16219300072E+02  0.00000000000E+00 0.  1.
         14    1    6    6    0    0  0.18791288371E+02  0.41314640793E+02 -0.14504433412E+03  0.15197983723E+03  0.00000000000E+00 0. -1.
         -5    1    3    3    0  503 -0.71358798944E+02  0.44137188615E+02 -0.35743134094E+03  0.36717764514E+03  0.47000000000E+01 0.  1.
         11    1    4    4    0    0 -0.13003444336E+02 -0.47325205623E+01 -0.19197223513E+02  0.23664735496E+02  0.00000000000E+00 0. -1.
        -12    1    4    4    0    0  0.28602031605E+02 -0.24369096208E+02 -0.65915595016E+03  0.66022609437E+03  0.00000000000E+00 0.  1.
</event>
<event>
12    1  0.9962621E-001  0.1912230E+03  0.7818608E-02  0.1158575E+00
         21   -1    0    0  501  502  0.00000000000E+00  0.00000000000E+00  0.12108242903E+04  0.12108242903E+04  0.00000000000E+00 0. -1.
         21   -1    0    0  502  503 -0.00000000000E+00 -0.00000000000E+00 -0.29611373154E+02  0.29611373154E+02  0.00000000000E+00 0. -1.
         -6    2    1    2    0  503 -0.53191571818E+02  0.64192315485E+02  0.63922057492E+03  0.66569927074E+03  0.16614023890E+03 0.  0.
        -24    2    3    3    0    0  0.15020117154E+02 -0.12370575900E+02  0.25577220990E+03  0.26874908560E+03  0.80174887490E+02 0.  0.
          6    2    1    2  501    0  0.53191571818E+02 -0.64192315485E+02  0.54199234222E+03  0.57473639271E+03  0.17209365298E+03 0.  0.
         24    2    5    5    0    0 -0.17639047774E+02 -0.84214558553E+02  0.39270550066E+03  0.40822357652E+03  0.70891821150E+02 0.  0.
          5    1    5    5  501    0  0.70830619592E+02  0.20022243068E+02  0.14928684157E+03  0.16651281619E+03  0.47000000000E+01 0. -1.
        -11    1    6    6    0    0 -0.94391685080E+01 -0.93680905605E+02  0.37430334029E+03  0.38596398864E+03  0.00000000000E+00 0.  1.
         12    1    6    6    0    0 -0.81998792659E+01  0.94663470523E+01  0.18402160366E+02  0.22259587881E+02  0.00000000000E+00 0. -1.
         -5    1    3    3    0  503 -0.68211688971E+02  0.76562891385E+02  0.38344836502E+03  0.39695018514E+03  0.47000000000E+01 0.  1.
         13    1    4    4    0    0 -0.37495041152E+01  0.16488190754E+01 -0.52605518385E+01  0.66671426488E+01  0.00000000000E+00 0. -1.
        -14    1    4    4    0    0  0.18769621269E+02 -0.14019394975E+02  0.26103276174E+03  0.26208194295E+03  0.00000000000E+00 0.  1.
</event>
<event>
12    1  0.1033333E+000  0.1797878E+03  0.7818608E-02  0.1168520E+00
         21   -1    0    0  501  502  0.00000000000E+00  0.00000000000E+00  0.11701767239E+03  0.11701767239E+03  0.00000000000E+00 0.  1.
         21   -1    0    0  502  503 -0.00000000000E+00 -0.00000000000E+00 -0.13214972630E+04  0.13214972630E+04  0.00000000000E+00 0.  1.
         -6    2    1    2    0  503  0.25784867923E+02 -0.40865996340E+02  0.37693955388E+02  0.18369669573E+03  0.17317260949E+03 0.  0.
        -24    2    3    3    0    0 -0.48261875425E+02 -0.41960685880E+02  0.57247004704E+01  0.10289915984E+03  0.80408688098E+02 0.  0.
          6    2    1    2  501    0 -0.25784867923E+02  0.40865996340E+02 -0.12421735460E+04  0.12548182397E+04  0.17099358800E+03 0.  0.
         24    2    5    5    0    0  0.30347484024E+02  0.60380754388E+01 -0.10005954292E+04  0.10043269194E+04  0.80770786540E+02 0.  0.
          5    1    5    5  501    0 -0.56132351946E+02  0.34827920901E+02 -0.24157811680E+03  0.25049132026E+03  0.47000000000E+01 0. -1.
        -11    1    6    6    0    0 -0.10129463246E+02  0.79207865955E+01 -0.77593206863E+03  0.77603860730E+03  0.00000000000E+00 0.  1.
         12    1    6    6    0    0  0.40476947270E+02 -0.18827111566E+01 -0.22466336058E+03  0.22828831212E+03  0.00000000000E+00 0. -1.
         -5    1    3    3    0  503  0.74046743347E+02  0.10946895395E+01  0.31969254917E+02  0.80797535888E+02  0.47000000000E+01 0.  1.
         11    1    4    4    0    0  0.10062219986E+02  0.98115427867E+01 -0.16627791332E+02  0.21771497134E+02  0.00000000000E+00 0. -1.
        -12    1    4    4    0    0 -0.58324095411E+02 -0.51772228666E+02  0.22352491802E+02  0.81127662707E+02  0.00000000000E+00 0.  1.
</event>
<event>
12    1  0.9962621E-001  0.2083032E+03  0.7818608E-02  0.1143078E+00
         21   -1    0    0  501  502  0.00000000000E+00  0.00000000000E+00  0.21340226763E+03  0.21340226763E+03  0.00000000000E+00 0. -1.
         21   -1    0    0  502  503 -0.00000000000E+00 -0.00000000000E+00 -0.20274804541E+03  0.20274804541E+03  0.00000000000E+00 0. -1.
         -6    2    1    2    0  503  0.63684538767E+02 -0.10009635453E+03  0.11967161248E+02  0.20784299602E+03  0.17023659237E+03 0.  0.
        -24    2    3    3    0    0 -0.30191660495E+02 -0.60350675851E+02  0.12634949310E+02  0.10578910976E+03  0.80485733892E+02 0.  0.
          6    2    1    2  501    0 -0.63684538767E+02  0.10009635453E+03 -0.13129390220E+01  0.20830731701E+03  0.17121686204E+03 0.  0.
         24    2    5    5    0    0 -0.49381934253E+02 -0.56163400150E+01 -0.28901556231E+02  0.98021506130E+02  0.79390156856E+02 0.  0.
          5    1    5    5  501    0 -0.14302604514E+02  0.10571269454E+03  0.27588617209E+02  0.11028581088E+03  0.47000000000E+01 0. -1.
        -13    1    6    6    0    0 -0.23960576815E+02 -0.42400390698E+02 -0.18625443643E+02  0.52142204821E+02  0.00000000000E+00 0.  1.
         14    1    6    6    0    0 -0.25421357438E+02  0.36784050683E+02 -0.10276112588E+02  0.45879301309E+02  0.00000000000E+00 0. -1.
         -5    1    3    3    0  503  0.93876199262E+02 -0.39745678674E+02 -0.66778806179E+00  0.10205388627E+03  0.47000000000E+01 0.  1.
         11    1    4    4    0    0  0.74639992492E+01  0.54159525580E+00 -0.24160086192E+02  0.25292575492E+02  0.00000000000E+00 0. -1.
        -12    1    4    4    0    0 -0.37655659744E+02 -0.60892271107E+02  0.36795035501E+02  0.80496534266E+02  0.00000000000E+00 0.  1.
</event>
<event>
12    1  0.9962621E-001  0.1814726E+03  0.7818608E-02  0.1166405E+00
         21   -1    0    0  501  502  0.00000000000E+00  0.00000000000E+00  0.43731034450E+03  0.43731034450E+03  0.00000000000E+00 0. -1.
         21   -1    0    0  502  503 -0.00000000000E+00 -0.00000000000E+00 -0.79979965917E+02  0.79979965917E+02  0.00000000000E+00 0. -1.
         -6    2    1    2    0  503  0.38007499696E+02  0.41464843802E+02  0.11588076711E+03  0.21524687447E+03  0.17244988106E+03 0.  0.
        -24    2    3    3    0    0 -0.18509716470E+02  0.78060225321E+02  0.61240629487E+02  0.12840764191E+03  0.79385763333E+02 0.  0.
          6    2    1    2  501    0 -0.38007499696E+02 -0.41464843802E+02  0.24144961147E+03  0.30204343595E+03  0.17253526890E+03 0.  0.
         24    2    5    5    0    0 -0.15104677116E+02  0.10350235801E+02  0.23161940552E+03  0.24435405473E+03  0.75670842437E+02 0.  0.
          5    1    5    5  501    0 -0.22902822580E+02 -0.51815079603E+02  0.98302059456E+01  0.57689381218E+02  0.47000000000E+01 0. -1.
        -11    1    6    6    0    0 -0.23207805968E+02  0.17679290022E+02  0.27984915503E+02  0.40426662604E+02  0.00000000000E+00 0.  1.
         12    1    6    6    0    0  0.81031288525E+01 -0.73290542205E+01  0.20363449002E+03  0.20392739212E+03  0.00000000000E+00 0. -1.
         -5    1    3    3    0  503  0.56517216166E+02 -0.36595381519E+02  0.54640137625E+02  0.86839232558E+02  0.47000000000E+01 0.  1.
         13    1    4    4    0    0 -0.36350632740E+02  0.70152172535E+02  0.71323962969E+02  0.10644154971E+03  0.00000000000E+00 0. -1.
        -14    1    4    4    0    0  0.17840916270E+02  0.79080527855E+01 -0.10083333482E+02  0.21966092195E+02  0.00000000000E+00 0.  1.
</event>
<event>
12    1  0.9962621E-001  0.1940178E+03  0.7818608E-02  0.1154927E+00
         21   -1    0    0  503  502  0.00000000000E+00  0.00000000000E+00  0.24911515411E+03  0.24911515411E+03  0.00000000000E+00 0. -1.
         21   -1    0    0  501  503 -0.00000000000E+00 -0.00000000000E+00 -0.25264061130E+03  0.25264061130E+03  0.00000000000E+00 0. -1.
          6    2    1    2  501    0  0.61681354529E+02 -0.60313920468E+02  0.15739135803E+03  0.24982987041E+03  0.17378310064E+03 0.  0.
         24    2    3    3    0    0 -0.28745961705E+02 -0.99546416296E+00  0.58971230833E+02  0.10352747735E+03  0.80081278938E+02 0.  0.
         -6    2    1    2    0  502 -0.61681354529E+02  0.60313920468E+02 -0.16091681521E+03  0.25192589500E+03  0.17358017357E+03 0.  0.
        -24    2    5    5    0    0  0.31431002517E+02  0.41258665093E+01 -0.67902474174E+02  0.10874500912E+03  0.78802286237E+02 0.  0.
          5    1    3    3  501    0  0.90427316235E+02 -0.59318456305E+02  0.98420127192E+02  0.14630239306E+03  0.47000000000E+01 0. -1.
        -11    1    4    4    0    0 -0.41369203725E+02  0.22271016239E+02  0.60980891772E+02  0.76981025860E+02  0.00000000000E+00 0.  1.
         12    1    4    4    0    0  0.12623242020E+02 -0.23266480402E+02 -0.20096609393E+01  0.26546451485E+02  0.00000000000E+00 0. -1.
         -5    1    5    5    0  502 -0.93112357046E+02  0.56188053959E+02 -0.93014341039E+02  0.14318088588E+03  0.47000000000E+01 0.  1.
         11    1    6    6    0    0  0.17103811170E+02 -0.16192355115E+02 -0.78323159299E+02  0.81787835301E+02  0.00000000000E+00 0. -1.
        -12    1    6    6    0    0  0.14327191347E+02  0.20318221625E+02  0.10420685125E+02  0.26957173820E+02  0.00000000000E+00 0.  1.
</event>
<event>
12    1  0.9962621E-001  0.1915302E+03  0.7818608E-02  0.1157619E+00
         21   -1    0    0  503  502  0.00000000000E+00  0.00000000000E+00  0.10632726420E+04  0.10632726420E+04  0.00000000000E+00 0.  1.
         21   -1    0    0  501  503 -0.00000000000E+00 -0.00000000000E+00 -0.40281154462E+02  0.40281154462E+02  0.00000000000E+00 0.  1.
          6    2    1    2  501    0 -0.44011015437E+01 -0.82281558773E+02  0.73073533289E+03  0.75541905125E+03  0.17289936855E+03 0.  0.
         24    2    3    3    0    0 -0.24970918480E+02 -0.12153970137E+03  0.54331261904E+03  0.56276993291E+03  0.78268445742E+02 0.  0.
         -6    2    1    2    0  502  0.44011015437E+01  0.82281558773E+02  0.29225615460E+03  0.34813474517E+03  0.17027776215E+03 0.  0.
        -24    2    5    5    0    0  0.30925843540E+02  0.79657212361E+02  0.29816796957E+03  0.32043115897E+03  0.80438238913E+02 0.  0.
          5    1    3    3  501    0  0.20569816937E+02  0.39258142602E+02  0.18742271386E+03  0.19264911834E+03  0.47000000000E+01 0. -1.
        -11    1    4    4    0    0 -0.25239004938E+02 -0.63876326349E+02  0.14663354325E+03  0.16192155028E+03  0.00000000000E+00 0.  1.
         12    1    4    4    0    0  0.26808645757E+00 -0.57663375026E+02  0.39667907578E+03  0.40084838263E+03  0.00000000000E+00 0. -1.
         -5    1    5    5    0  502 -0.26524741996E+02  0.26243464121E+01 -0.59118149711E+01  0.27703586199E+02  0.47000000000E+01 0.  1.
         13    1    6    6    0    0 -0.19218767789E+02  0.47386072295E+02  0.86111438768E+02  0.10014979166E+03  0.00000000000E+00 0. -1.
        -14    1    6    6    0    0  0.50144611329E+02  0.32271140066E+02  0.21205653081E+03  0.22028136731E+03  0.00000000000E+00 0.  1.
</event>
<event>
12    1  0.9962621E-001  0.2628754E+03  0.7818608E-02  0.1105481E+00
         21   -1    0    0  503  502  0.00000000000E+00  0.00000000000E+00  0.10223487765E+03  0.10223487765E+03  0.00000000000E+00 0. -1.
         21   -1    0    0  501  503 -0.00000000000E+00 -0.00000000000E+00 -0.67533509924E+03  0.67533509924E+03  0.00000000000E+00 0.  1.
          6    2    1    2  501    0  0.16237851211E+03  0.11454800219E+03 -0.27771733959E+03  0.38215309500E+03  0.17154020319E+03 0.  0.
         24    2    3    3    0    0  0.44832485960E+02  0.19305094214E+02 -0.61472481374E+02  0.11819815853E+03  0.88370245294E+02 0.  0.
         -6    2    1    2    0  502 -0.16237851211E+03 -0.11454800219E+03 -0.29538288200E+03  0.39541688189E+03  0.17209136381E+03 0.  0.
        -24    2    5    5    0    0 -0.19144917603E+03 -0.97883754228E+02 -0.26318775492E+03  0.34871124123E+03  0.78087893284E+02 0.  0.
          5    1    3    3  501    0  0.11754602615E+03  0.95242907973E+02 -0.21624485821E+03  0.26395493647E+03  0.47000000000E+01 0. -1.
        -13    1    4    4    0    0  0.32746985977E+02  0.11681234547E+02 -0.84344499076E+02  0.91229440728E+02  0.00000000000E+00 0.  1.
         14    1    4    4    0    0  0.12085499983E+02  0.76238596669E+01  0.22872017702E+02  0.26968717801E+02  0.00000000000E+00 0. -1.
         -5    1    5    5    0  502  0.29070663920E+02 -0.16664247959E+02 -0.32195127084E+02  0.46705640652E+02  0.47000000000E+01 0.  1.
         13    1    6    6    0    0 -0.10175461050E+03 -0.23541312499E+02 -0.79759176350E+02  0.13141430806E+03  0.00000000000E+00 0. -1.
        -14    1    6    6    0    0 -0.89694565532E+02 -0.74342441728E+02 -0.18342857857E+03  0.21729693317E+03  0.00000000000E+00 0.  1.
</event>
<event>
12    1  0.9962621E-001  0.2557267E+03  0.7818608E-02  0.1109857E+00
         21   -1    0    0  501  502  0.00000000000E+00  0.00000000000E+00  0.10598949914E+03  0.10598949914E+03  0.00000000000E+00 0.  1.
         21   -1    0    0  502  503 -0.00000000000E+00 -0.00000000000E+00 -0.94715861144E+03  0.94715861144E+03  0.00000000000E+00 0.  1.
         -6    2    1    2    0  503 -0.15165761333E+03  0.11285057155E+03 -0.10840707491E+03  0.27704479461E+03  0.17107437315E+03 0.  0.
        -24    2    3    3    0    0 -0.17493136055E+03  0.11008213936E+03 -0.71273913191E+02  0.23288267027E+03  0.80220378343E+02 0.  0.
          6    2    1    2  501    0  0.15165761333E+03 -0.11285057155E+03 -0.73276203739E+03  0.77610331598E+03  0.17222331566E+03 0.  0.
         24    2    5    5    0    0  0.25437746561E+02 -0.47957668730E+02 -0.17107110784E+03  0.19674044701E+03  0.80588228747E+02 0.  0.
          5    1    5    5  501    0  0.12621986677E+03 -0.64892902823E+02 -0.56169092954E+03  0.57936286897E+03  0.47000000000E+01 0. -1.
        -13    1    6    6    0    0  0.41341040894E+02 -0.93998571026E+01 -0.36797775476E+02  0.56138358150E+02  0.00000000000E+00 0.  1.
         14    1    6    6    0    0 -0.15903294333E+02 -0.38557811628E+02 -0.13427333236E+03  0.14060208886E+03  0.00000000000E+00 0. -1.
         -5    1    3    3    0  503  0.23273747218E+02  0.27684321913E+01 -0.37133161724E+02  0.44162124338E+02  0.47000000000E+01 0.  1.
         13    1    4    4    0    0 -0.75588117002E+02  0.40842291983E+01 -0.33486230105E+02  0.82774222839E+02  0.00000000000E+00 0. -1.
        -14    1    4    4    0    0 -0.99343243544E+02  0.10599791016E+03 -0.37787683086E+02  0.15010844743E+03  0.00000000000E+00 0.  1.
</event>
<event>
12    1  0.9962621E-001  0.2778468E+03  0.7818608E-02  0.1097207E+00
         21   -1    0    0  501  502  0.00000000000E+00  0.00000000000E+00  0.15715834170E+03  0.15715834170E+03  0.00000000000E+00 0. -1.
         21   -1    0    0  502  503 -0.00000000000E+00 -0.00000000000E+00 -0.51820162138E+03  0.51820162138E+03  0.00000000000E+00 0.  1.
         -6    2    1    2    0  503  0.17811070720E+03 -0.12071909518E+03 -0.96837918580E+02  0.29194987970E+03  0.17193203838E+03 0.  0.
        -24    2    3    3    0    0  0.54677447857E+02 -0.11587065117E+03 -0.42324480347E+02  0.15684591281E+03  0.79960287774E+02 0.  0.
          6    2    1    2  501    0 -0.17811070720E+03  0.12071909518E+03 -0.26420536110E+03  0.38341008338E+03  0.17579048679E+03 0.  0.
         24    2    5    5    0    0 -0.14654009234E+03  0.15614854446E+03 -0.24397570339E+03  0.33160971031E+03  0.67708858572E+02 0.  0.
          5    1    5    5  501    0 -0.31570614862E+02 -0.35429449280E+02 -0.20229657705E+02  0.51800373067E+02  0.47000000000E+01 0. -1.
        -13    1    6    6    0    0 -0.64400471237E+02  0.11683593131E+03 -0.13968883106E+03  0.19316061986E+03  0.00000000000E+00 0.  1.
         14    1    6    6    0    0 -0.82139621105E+02  0.39312613150E+02 -0.10428687233E+03  0.13844909046E+03  0.00000000000E+00 0. -1.
         -5    1    3    3    0  503  0.12343325935E+03 -0.48484440068E+01 -0.54513438233E+02  0.13510396689E+03  0.47000000000E+01 0.  1.
         11    1    4    4    0    0  0.68105135426E+02 -0.11818784658E+03 -0.43486334741E+02  0.14317031068E+03  0.00000000000E+00 0. -1.
        -12    1    4    4    0    0 -0.13427687569E+02  0.23171954068E+01  0.11618543940E+01  0.13675602131E+02  0.00000000000E+00 0.  1.
</event>
<event>
12    1  0.9962621E-001  0.2347547E+03  0.7818608E-02  0.1125696E+00
         21   -1    0    0  503  502  0.00000000000E+00  0.00000000000E+00  0.93116681690E+02  0.93116681690E+02  0.00000000000E+00 0.  1.
         21   -1    0    0  501  503 -0.00000000000E+00 -0.00000000000E+00 -0.56033100203E+03  0.56033100203E+03  0.00000000000E+00 0.  1.
          6    2    1    2  501    0 -0.73697776787E+02 -0.14105016241E+03 -0.20909715026E+03  0.30454331936E+03  0.15394318596E+03 0.  0.
         24    2    3    3    0    0 -0.22298171548E+02 -0.57293510197E+02 -0.17262618782E+03  0.19961802541E+03  0.79169442245E+02 0.  0.
         -6    2    1    2    0  502  0.73697776787E+02  0.14105016241E+03 -0.25811717008E+03  0.34890436436E+03  0.17257830501E+03 0.  0.
        -24    2    5    5    0    0  0.11442620296E+03  0.13263707289E+03 -0.22278030320E+03  0.29412874081E+03  0.78706439696E+02 0.  0.
          5    1    3    3  501    0 -0.51399605239E+02 -0.83756652209E+02 -0.36470962444E+02  0.10492529395E+03  0.47000000000E+01 0. -1.
        -13    1    4    4    0    0 -0.43636623380E+02 -0.58189238338E+02 -0.15738939971E+03  0.17338271395E+03  0.00000000000E+00 0.  1.
         14    1    4    4    0    0  0.21338451832E+02  0.89572814099E+00 -0.15236788111E+02  0.26235311461E+02  0.00000000000E+00 0. -1.
         -5    1    5    5    0  502 -0.40728426175E+02  0.84130895169E+01 -0.35336866877E+02  0.54775623543E+02  0.47000000000E+01 0.  1.
         13    1    6    6    0    0  0.14015603878E+02  0.73250765916E+02 -0.73952907706E+02  0.10502925506E+03  0.00000000000E+00 0. -1.
        -14    1    6    6    0    0  0.10041059908E+03  0.59386306974E+02 -0.14882739549E+03  0.18909948576E+03  0.00000000000E+00 0.  1.
</event>
<event>
12    1  0.9962621E-001  0.2249117E+03  0.7818608E-02  0.1130342E+00
         21   -1    0    0  503  502  0.00000000000E+00  0.00000000000E+00  0.43605177915E+03  0.43605177915E+03  0.00000000000E+00 0. -1.
         21   -1    0    0  501  503 -0.00000000000E+00 -0.00000000000E+00 -0.24501595083E+03  0.24501595083E+03  0.00000000000E+00 0. -1.
          6    2    1    2  501    0 -0.54815449768E+01  0.14525105635E+03  0.34284164933E+03  0.41003127705E+03  0.17163139264E+03 0.  0.
         24    2    3    3    0    0  0.63456402847E+02  0.55261649882E+02  0.16450922134E+03  0.19866647677E+03  0.72969309138E+02 0.  0.
         -6    2    1    2    0  502  0.54815449768E+01 -0.14525105635E+03 -0.15180582101E+03  0.27103645292E+03  0.17113688911E+03 0.  0.
        -24    2    5    5    0    0 -0.40211445422E+01 -0.19242093702E+02 -0.12858941849E+02  0.83161800551E+02  0.79775340250E+02 0.  0.
          5    1    3    3  501    0 -0.68937947824E+02  0.89989406469E+02  0.17833242799E+03  0.21136480028E+03  0.47000000000E+01 0. -1.
        -11    1    4    4    0    0 -0.15643279316E+02  0.88879710949E+01  0.15710903766E+02  0.23885994120E+02  0.00000000000E+00 0.  1.
         12    1    4    4    0    0  0.79099682162E+02  0.46373678787E+02  0.14879831757E+03  0.17478048265E+03  0.00000000000E+00 0. -1.
         -5    1    5    5    0  502  0.95026895189E+01 -0.12600896265E+03 -0.13894687916E+03  0.18787465237E+03  0.47000000000E+01 0.  1.
         13    1    6    6    0    0 -0.18942364604E+02 -0.46530337151E+02 -0.13617859758E+02  0.52051239722E+02  0.00000000000E+00 0. -1.
        -14    1    6    6    0    0  0.14921220062E+02  0.27288243450E+02  0.75891790850E+00  0.31110560829E+02  0.00000000000E+00 0.  1.
</event>
<event>
12    1  0.9962621E-001  0.2440346E+03  0.7818608E-02  0.1117492E+00
         21   -1    0    0  501  502  0.00000000000E+00  0.00000000000E+00  0.59493546408E+02  0.59493546408E+02  0.00000000000E+00 0. -1.
         21   -1    0    0  502  503 -0.00000000000E+00 -0.00000000000E+00 -0.23053929152E+04  0.23053929152E+04  0.00000000000E+00 0. -1.
         -6    2    1    2    0  503 -0.71976859408E+02 -0.15728940037E+03 -0.23265202127E+03  0.33716443809E+03  0.17214026709E+03 0.  0.
        -24    2    3    3    0    0 -0.10120924081E+03 -0.14370462052E+03 -0.14188068350E+03  0.24072479828E+03  0.83210406647E+02 0.  0.
          6    2    1    2  501    0  0.71976859408E+02  0.15728940037E+03 -0.20132473475E+04  0.20277220235E+04  0.16902987480E+03 0.  0.
         24    2    5    5    0    0  0.43389390188E+02  0.15457868486E+03 -0.19476770075E+04  0.19559853462E+04  0.81582719945E+02 0.  0.
          5    1    5    5  501    0  0.28587469219E+02  0.27107155088E+01 -0.65570340058E+02  0.71736677302E+02  0.47000000000E+01 0. -1.
        -11    1    6    6    0    0 -0.27813037445E+01  0.34724388465E+02 -0.16240589984E+03  0.16609995517E+03  0.00000000000E+00 0.  1.
         12    1    6    6    0    0  0.46170693933E+02  0.11985429640E+03 -0.17852711076E+04  0.17898853910E+04  0.00000000000E+00 0. -1.
         -5    1    3    3    0  503  0.29232381403E+02 -0.13584779853E+02 -0.90771337771E+02  0.96439639811E+02  0.47000000000E+01 0.  1.
         13    1    4    4    0    0 -0.71149100494E+02 -0.78986999160E+02 -0.34440379965E+02  0.11174650021E+03  0.00000000000E+00 0. -1.
        -14    1    4    4    0    0 -0.30060140316E+02 -0.64717621360E+02 -0.10744030353E+03  0.12897829807E+03  0.00000000000E+00 0.  1.
</event>
<event>
12    1  0.9962621E-001  0.2644981E+03  0.7818608E-02  0.1104571E+00
         21   -1    0    0  503  502  0.00000000000E+00  0.00000000000E+00  0.87586481115E+03  0.87586481115E+03  0.00000000000E+00 0.  1.
         21   -1    0    0  501  503 -0.00000000000E+00 -0.00000000000E+00 -0.12518724445E+03  0.12518724445E+03  0.00000000000E+00 0. -1.
          6    2    1    2  501    0  0.57046177672E+02  0.19094909909E+03  0.67746053892E+03  0.72726338942E+03  0.17390638564E+03 0.  0.
         24    2    3    3    0    0  0.10472644385E+03  0.15578458694E+03  0.49222269639E+03  0.53272522092E+03  0.79224444422E+02 0.  0.
         -6    2    1    2    0  502 -0.57046177672E+02 -0.19094909909E+03  0.73217027773E+02  0.27378866618E+03  0.17286895541E+03 0.  0.
        -24    2    5    5    0    0 -0.71023068177E+02 -0.19427412155E+03  0.24478095182E+02  0.22275943149E+03  0.78967567143E+02 0.  0.
          5    1    3    3  501    0 -0.47680266182E+02  0.35164512150E+02  0.18523784253E+03  0.19453816850E+03  0.47000000000E+01 0. -1.
        -11    1    4    4    0    0  0.18889145311E+02  0.32739631438E+02  0.34986089394E+02  0.51504463188E+02  0.00000000000E+00 0.  1.
         12    1    4    4    0    0  0.85837298543E+02  0.12304495550E+03  0.45723660699E+03  0.48122075773E+03  0.00000000000E+00 0. -1.
         -5    1    5    5    0  502  0.13976890505E+02  0.33250224580E+01  0.48738932591E+02  0.51029234686E+02  0.47000000000E+01 0.  1.
         11    1    6    6    0    0 -0.53415648387E+02 -0.11060991347E+03  0.51357606558E+02  0.13313672747E+03  0.00000000000E+00 0. -1.
        -12    1    6    6    0    0 -0.17607419790E+02 -0.83664208076E+02 -0.26879511376E+02  0.89622704024E+02  0.00000000000E+00 0.  1.
</event>
<event>
12    1  0.9962621E-001  0.1950673E+03  0.7818608E-02  0.1154104E+00
         21   -1    0    0  503  502  0.00000000000E+00  0.00000000000E+00  0.53871299235E+03  0.53871299235E+03  0.00000000000E+00 0. -1.
         21   -1    0    0  501  503 -0.00000000000E+00 -0.00000000000E+00 -0.88288098949E+02  0.88288098949E+02  0.00000000000E+00 0. -1.
          6    2    1    2  501    0  0.44659523342E+02 -0.76191196865E+02  0.36657439745E+03  0.41524456915E+03  0.17393013494E+03 0.  0.
         24    2    3    3    0    0  0.59429966645E+02  0.12421058294E+02  0.23634236713E+03  0.25696390236E+03  0.80538990499E+02 0.  0.
         -6    2    1    2    0  502 -0.44659523342E+02  0.76191196865E+02  0.83850495953E+02  0.21175652215E+03  0.17323494883E+03 0.  0.
        -24    2    5    5    0    0 -0.77099191001E+02  0.83132097389E+02  0.20943199477E+02  0.14048292193E+03  0.80259596812E+02 0.  0.
          5    1    3    3  501    0 -0.14770443304E+02 -0.88612255159E+02  0.13023203032E+03  0.15828066679E+03  0.47000000000E+01 0. -1.
        -13    1    4    4    0    0  0.70927805159E+02  0.31039755534E+02  0.16348139541E+03  0.18088777354E+03  0.00000000000E+00 0.  1.
         14    1    4    4    0    0 -0.11497838514E+02 -0.18618697239E+02  0.72860971716E+02  0.76076128823E+02  0.00000000000E+00 0. -1.
         -5    1    5    5    0  502  0.32439667660E+02 -0.69409005242E+01  0.62907296475E+02  0.71273600216E+02  0.47000000000E+01 0.  1.
         13    1    6    6    0    0  0.16219587367E+02  0.22007631730E+02  0.50450719240E+01  0.27800424807E+02  0.00000000000E+00 0. -1.
        -14    1    6    6    0    0 -0.93318778368E+02  0.61124465659E+02  0.15898127553E+02  0.11268249712E+03  0.00000000000E+00 0.  1.
</event>
<event>
12    1  0.9962621E-001  0.3703136E+03  0.7818608E-02  0.1054635E+00
         21   -1    0    0  501  502  0.00000000000E+00  0.00000000000E+00  0.43387261086E+03  0.43387261086E+03  0.00000000000E+00 0. -1.
         21   -1    0    0  502  503 -0.00000000000E+00 -0.00000000000E+00 -0.34414673085E+03  0.34414673085E+03  0.00000000000E+00 0. -1.
         -6    2    1    2    0  503  0.16811576387E+03 -0.28147273213E+03  0.15703441837E+03  0.40163843181E+03  0.17077415602E+03 0.  0.
        -24    2    3    3    0    0  0.65226255498E+02 -0.10767845989E+03  0.13006625307E+03  0.19782461497E+03  0.79801209071E+02 0.  0.
          6    2    1    2  501    0 -0.16811576387E+03  0.28147273213E+03 -0.67308538354E+02  0.37638090990E+03  0.17216951242E+03 0.  0.
         24    2    5    5    0    0 -0.16890291548E+03  0.26942543081E+03 -0.98864728871E+02  0.34226873852E+03  0.79091068547E+02 0.  0.
          5    1    5    5  501    0  0.78715160783E+00  0.12047301318E+02  0.31556190517E+02  0.34112171386E+02  0.47000000000E+01 0. -1.
        -13    1    6    6    0    0 -0.79924891866E+02  0.66211866380E+02 -0.13900176330E+02  0.10471492010E+03  0.00000000000E+00 0.  1.
         14    1    6    6    0    0 -0.88978023614E+02  0.20321356443E+03 -0.84964552542E+02  0.23755381842E+03  0.00000000000E+00 0. -1.
         -5    1    3    3    0  503  0.10288950837E+03 -0.17379427224E+03  0.26968165291E+02  0.20381381684E+03  0.47000000000E+01 0.  1.
         11    1    4    4    0    0 -0.78389866079E+01 -0.62368280913E+02  0.60291522518E+02  0.87099482562E+02  0.00000000000E+00 0. -1.
        -12    1    4    4    0    0  0.73065242106E+02 -0.45310178980E+02  0.69774730556E+02  0.11072513241E+03  0.00000000000E+00 0.  1.
</event>
<event>
12    1  0.9962621E-001  0.1765621E+03  0.7818608E-02  0.1171219E+00
         21   -1    0    0  503  502  0.00000000000E+00  0.00000000000E+00  0.64795836435E+03  0.64795836435E+03  0.00000000000E+00 0.  1.
         21   -1    0    0  501  503 -0.00000000000E+00 -0.00000000000E+00 -0.84469186298E+02  0.84469186298E+02  0.00000000000E+00 0.  1.
          6    2    1    2  501    0  0.41063551386E+02 -0.20216208905E+02  0.52209018143E+03  0.55107693652E+03  0.17033121282E+03 0.  0.
         24    2    3    3    0    0 -0.32296767655E+02  0.13250591568E+02  0.18187695667E+03  0.20140724746E+03  0.79164339094E+02 0.  0.
         -6    2    1    2    0  502 -0.41063551386E+02  0.20216208905E+02  0.41398996617E+02  0.18135061413E+03  0.17052641428E+03 0.  0.
        -24    2    5    5    0    0 -0.21894874833E+02  0.32201356470E+02  0.89613736043E+02  0.12789191024E+03  0.82519125758E+02 0.  0.
          5    1    3    3  501    0  0.73360319041E+02 -0.33466800473E+02  0.34021322476E+03  0.34966968906E+03  0.47000000000E+01 0. -1.
        -11    1    4    4    0    0 -0.37840530550E+01  0.44130209038E+02  0.10010807403E+03  0.10946881242E+03  0.00000000000E+00 0.  1.
         12    1    4    4    0    0 -0.28512714600E+02 -0.30879617470E+02  0.81768882641E+02  0.91938435039E+02  0.00000000000E+00 0. -1.
         -5    1    5    5    0  502 -0.19168676553E+02 -0.11985147564E+02 -0.48214739426E+02  0.53458703882E+02  0.47000000000E+01 0.  1.
         13    1    6    6    0    0 -0.45068219069E+02 -0.70963435156E+01  0.45015646549E+02  0.64092986321E+02  0.00000000000E+00 0. -1.
        -14    1    6    6    0    0  0.23173344236E+02  0.39297699985E+02  0.44598089494E+02  0.63798923923E+02  0.00000000000E+00 0.  1.
</event>
<event>
12    1  0.9962621E-001  0.4880589E+03  0.7818608E-02  0.1016960E+00
         21   -1    0    0  503  502  0.00000000000E+00  0.00000000000E+00  0.17658431888E+04  0.17658431888E+04  0.00000000000E+00 0.  1.
         21   -1    0    0  501  503 -0.00000000000E+00 -0.00000000000E+00 -0.20554272061E+03  0.20554272061E+03  0.00000000000E+00 0.  1.
          6    2    1    2  501    0 -0.45659721959E+03 -0.35458380323E+01  0.13584499426E+04  0.14434638118E+04  0.17235990130E+03 0.  0.
         24    2    3    3    0    0 -0.30632493558E+03  0.66609682743E+02  0.81262192406E+03  0.87297816585E+03  0.58861452501E+02 0.  0.
         -6    2    1    2    0  502  0.45659721959E+03  0.35458380323E+01  0.20185052567E+03  0.52792209766E+03  0.17165230142E+03 0.  0.
        -24    2    5    5    0    0  0.37009622414E+03  0.41529711741E+02  0.11037977140E+03  0.39633871816E+03  0.78770257707E+02 0.  0.
          5    1    3    3  501    0 -0.15027228401E+03 -0.70155520775E+02  0.54582801849E+03  0.57048564592E+03  0.47000000000E+01 0. -1.
        -11    1    4    4    0    0 -0.20259975652E+03  0.66492681035E+02  0.49904509025E+03  0.54269138566E+03  0.00000000000E+00 0.  1.
         12    1    4    4    0    0 -0.10372517906E+03  0.11700170815E+00  0.31357683382E+03  0.33028678019E+03  0.00000000000E+00 0. -1.
         -5    1    5    5    0  502  0.86500995450E+02 -0.37983873709E+02  0.91470754261E+02  0.13158337950E+03  0.47000000000E+01 0.  1.
         11    1    6    6    0    0  0.62975805756E+02  0.13176685682E+02 -0.10270209719E+02  0.65154081713E+02  0.00000000000E+00 0. -1.
        -12    1    6    6    0    0  0.30712041838E+03  0.28353026059E+02  0.12064998112E+03  0.33118463645E+03  0.00000000000E+00 0.  1.
</event>
<event>
12    1  0.9962621E-001  0.2087322E+03  0.7818608E-02  0.1142875E+00
         21   -1    0    0  503  502  0.00000000000E+00  0.00000000000E+00  0.88254180901E+03  0.88254180901E+03  0.00000000000E+00 0.  1.
         21   -1    0    0  501  503 -0.00000000000E+00 -0.00000000000E+00 -0.64047365883E+02  0.64047365883E+02  0.00000000000E+00 0.  1.
          6    2    1    2  501    0 -0.64739033143E+02 -0.92299209967E+02  0.18106929699E+03  0.27632449184E+03  0.17566686627E+03 0.  0.
         24    2    3    3    0    0 -0.87720998343E+02 -0.36807999638E+02  0.64567823430E+02  0.14516760682E+03  0.88627466728E+02 0.  0.
         -6    2    1    2    0  502  0.64739033143E+02  0.92299209967E+02  0.63742514613E+03  0.67026468305E+03  0.17387823855E+03 0.  0.
        -24    2    5    5    0    0  0.50740876230E+02  0.12688161642E+03  0.40260575746E+03  0.43245356781E+03  0.79063969458E+02 0.  0.
          5    1    3    3  501    0  0.22981965201E+02 -0.55491210329E+02  0.11650147356E+03  0.13115688502E+03  0.47000000000E+01 0. -1.
        -11    1    4    4    0    0  0.12904529265E+02  0.43785018297E+01  0.26801904929E+02  0.30067262291E+02  0.00000000000E+00 0.  1.
         12    1    4    4    0    0 -0.10062552761E+03 -0.41186501468E+02  0.37765918501E+02  0.11510034453E+03  0.00000000000E+00 0. -1.
         -5    1    5    5    0  502  0.13998156913E+02 -0.34582406450E+02  0.23481938867E+03  0.23781111523E+03  0.47000000000E+01 0.  1.
         13    1    6    6    0    0  0.94409690675E+01  0.11101353457E+02  0.15825628016E+03  0.15892583854E+03  0.00000000000E+00 0. -1.
        -14    1    6    6    0    0  0.41299907162E+02  0.11578026296E+03  0.24434947730E+03  0.27352772927E+03  0.00000000000E+00 0.  1.
</event>
<event>
12    1  0.9962621E-001  0.1765494E+03  0.7818608E-02  0.1171214E+00
         21   -1    0    0  503  502  0.00000000000E+00  0.00000000000E+00  0.12205017516E+04  0.12205017516E+04  0.00000000000E+00 0. -1.
         21   -1    0    0  501  503 -0.00000000000E+00 -0.00000000000E+00 -0.30432260805E+02  0.30432260805E+02  0.00000000000E+00 0. -1.
          6    2    1    2  501    0  0.30659056484E+02 -0.20494073533E+02  0.34360899054E+03  0.38625773339E+03  0.17253380374E+03 0.  0.
         24    2    3    3    0    0  0.54974463901E+02  0.27903473398E+02  0.12535789867E+03  0.16133732372E+03  0.80711422716E+02 0.  0.
         -6    2    1    2    0  502 -0.30659056484E+02  0.20494073533E+02  0.84646050022E+03  0.86467627898E+03  0.17265487017E+03 0.  0.
        -24    2    5    5    0    0 -0.69992582301E+02  0.24295119419E+02  0.33864226188E+03  0.35530114473E+03  0.77917311977E+02 0.  0.
          5    1    3    3  501    0 -0.24315407417E+02 -0.48397546932E+02  0.21825109187E+03  0.22492040967E+03  0.47000000000E+01 0. -1.
        -13    1    4    4    0    0  0.31484397045E+02 -0.39408169285E+01  0.20056052672E+01  0.31793391575E+02  0.00000000000E+00 0.  1.
         14    1    4    4    0    0  0.23490066856E+02  0.31844290327E+02  0.12335229341E+03  0.12954393215E+03  0.00000000000E+00 0. -1.
         -5    1    5    5    0  502  0.39333525817E+02 -0.38010458860E+01  0.50781823834E+03  0.50937513425E+03  0.47000000000E+01 0.  1.
         11    1    6    6    0    0 -0.52986586209E+02  0.91064437257E+01  0.84602394589E+02  0.10024006587E+03  0.00000000000E+00 0. -1.
        -12    1    6    6    0    0 -0.17005996092E+02  0.15188675694E+02  0.25403986730E+03  0.25506107886E+03  0.00000000000E+00 0.  1.
</event>
<event>
12    1  0.9962621E-001  0.2440288E+03  0.7818608E-02  0.1117425E+00
         21   -1    0    0  501  502  0.00000000000E+00  0.00000000000E+00  0.16194843501E+04  0.16194843501E+04  0.00000000000E+00 0. -1.
         21   -1    0    0  502  503 -0.00000000000E+00 -0.00000000000E+00 -0.42920770507E+02  0.42920770507E+02  0.00000000000E+00 0. -1.
         -6    2    1    2    0  503 -0.14436260850E+03 -0.92648907174E+02  0.46456155169E+03  0.52394186999E+03  0.17109431635E+03 0.  0.
        -24    2    3    3    0    0 -0.50506122529E+02 -0.35533568365E+02  0.35307362323E+03  0.36734413668E+03  0.80419080064E+02 0.  0.
          6    2    1    2  501    0  0.14436260850E+03  0.92648907174E+02  0.11120020279E+04  0.11384632506E+04  0.17356750910E+03 0.  0.
         24    2    5    5    0    0  0.94190233330E+02  0.10660285618E+03  0.54206424932E+03  0.56613192929E+03  0.80223076262E+02 0.  0.
          5    1    5    5  501    0  0.50172375166E+02 -0.13953949009E+02  0.56993777858E+03  0.57233132133E+03  0.47000000000E+01 0. -1.
        -13    1    6    6    0    0  0.59490001684E+02  0.42780305229E+02  0.39908165446E+03  0.40575285796E+03  0.00000000000E+00 0.  1.
         14    1    6    6    0    0  0.34700231646E+02  0.63822550954E+02  0.14298259486E+03  0.16037907133E+03  0.00000000000E+00 0. -1.
         -5    1    3    3    0  503 -0.93856485967E+02 -0.57115338809E+02  0.11148792846E+03  0.15659773331E+03  0.47000000000E+01 0.  1.
         13    1    4    4    0    0 -0.23938953042E+02  0.17708979758E+01  0.20309813010E+02  0.31443569404E+02  0.00000000000E+00 0. -1.
        -14    1    4    4    0    0 -0.26567169487E+02 -0.37304466341E+02  0.33276381022E+03  0.33590056728E+03  0.00000000000E+00 0.  1.
</event>
<event>
12    1  0.9962621E-001  0.3145593E+03  0.7818608E-02  0.1078327E+00
         21   -1    0    0  501  502  0.00000000000E+00  0.00000000000E+00  0.10945443666E+03  0.10945443666E+03  0.00000000000E+00 0. -1.
         21   -1    0    0  502  503 -0.00000000000E+00 -0.00000000000E+00 -0.12459303388E+04  0.12459303388E+04  0.00000000000E+00 0. -1.
         -6    2    1    2    0  503 -0.25956062010E+03  0.35815081687E+02 -0.21056597821E+03  0.37750096555E+03  0.17179788191E+03 0.  0.
        -24    2    3    3    0    0 -0.26643274185E+03  0.42922005023E+02 -0.22452739181E+03  0.35975989777E+03  0.78650682952E+02 0.  0.
          6    2    1    2  501    0  0.25956062010E+03 -0.35815081687E+02 -0.92590992395E+03  0.97788380993E+03  0.17404919668E+03 0.  0.
         24    2    5    5    0    0  0.10469570919E+03  0.25062314380E+02 -0.27438053905E+03  0.30542427406E+03  0.80062449712E+02 0.  0.
          5    1    5    5  501    0  0.15486491091E+03 -0.60877396068E+02 -0.65152938491E+03  0.67245953587E+03  0.47000000000E+01 0. -1.
        -11    1    6    6    0    0  0.97390334621E+02  0.15190254178E+02 -0.27596649249E+03  0.29304116789E+03  0.00000000000E+00 0.  1.
         12    1    6    6    0    0  0.73053745668E+01  0.98720602021E+01  0.15859534430E+01  0.12383106174E+02  0.00000000000E+00 0. -1.
         -5    1    3    3    0  503  0.68721217464E+01 -0.71069233354E+01  0.13961413593E+02  0.17741067783E+02  0.47000000000E+01 0.  1.
         13    1    4    4    0    0 -0.19332758414E+02  0.83019270517E+01 -0.52866744487E+02  0.56899650380E+02  0.00000000000E+00 0. -1.
        -14    1    4    4    0    0 -0.24709998343E+03  0.34620077971E+02 -0.17166064732E+03  0.30286024739E+03  0.00000000000E+00 0.  1.
</event>
<event>
12    1  0.9962621E-001  0.2111077E+03  0.7818608E-02  0.1141572E+00
         21   -1    0    0  503  502  0.00000000000E+00  0.00000000000E+00  0.24440055483E+03  0.24440055483E+03  0.00000000000E+00 0.  1.
         21   -1    0    0  501  503 -0.00000000000E+00 -0.00000000000E+00 -0.18881650131E+03  0.18881650131E+03  0.00000000000E+00 0.  1.
          6    2    1    2  501    0 -0.11984285476E+03 -0.30913702395E+02 -0.23001296150E+02  0.20795692459E+03  0.16552660218E+03 0.  0.
         24    2    3    3    0    0  0.92913462583E+00 -0.34211181341E+02 -0.18866162981E+02  0.86977851552E+02  0.77704223406E+02 0.  0.
         -6    2    1    2    0  502  0.11984285476E+03  0.30913702395E+02  0.78585349672E+02  0.22526013155E+03  0.17102193675E+03 0.  0.
        -24    2    5    5    0    0  0.35561688232E+02  0.62044004543E+02  0.82161472900E+02  0.13521964399E+03  0.80123356909E+02 0.  0.
          5    1    3    3  501    0 -0.12077198938E+03  0.32974789453E+01 -0.41351331697E+01  0.12097907304E+03  0.47000000000E+01 0. -1.
        -11    1    4    4    0    0 -0.10148575011E+02  0.53260875962E+01  0.24628038419E+02  0.27164334341E+02  0.00000000000E+00 0.  1.
         12    1    4    4    0    0  0.11077709637E+02 -0.39537268937E+02 -0.43494201399E+02  0.59813517211E+02  0.00000000000E+00 0. -1.
         -5    1    5    5    0  502  0.84281166525E+02 -0.31130302148E+02 -0.35761232280E+01  0.90040487559E+02  0.47000000000E+01 0.  1.
         13    1    6    6    0    0  0.52417544235E+02  0.54828385407E+02  0.32945489539E+02  0.82699190268E+02  0.00000000000E+00 0. -1.
        -14    1    6    6    0    0 -0.16855856003E+02  0.72156191363E+01  0.49215983361E+02  0.52520453724E+02  0.00000000000E+00 0.  1.
</event>
<event>
12    1  0.9962621E-001  0.4945538E+03  0.7818608E-02  0.1015212E+00
         21   -1    0    0  503  502  0.00000000000E+00  0.00000000000E+00  0.37324934502E+03  0.37324934502E+03  0.00000000000E+00 0.  1.
         21   -1    0    0  501  503 -0.00000000000E+00 -0.00000000000E+00 -0.66280996189E+03  0.66280996189E+03  0.00000000000E+00 0.  1.
          6    2    1    2  501    0  0.15674155893E+03  0.43600687126E+03 -0.89434186791E+02  0.50254828183E+03  0.17287681662E+03 0.  0.
         24    2    3    3    0    0  0.10909566551E+03  0.20941088604E+03  0.12701885173E+02  0.24942827299E+03  0.79362094595E+02 0.  0.
         -6    2    1    2    0  502 -0.15674155893E+03 -0.43600687126E+03 -0.20012643008E+03  0.53351102508E+03  0.17295524792E+03 0.  0.
        -24    2    5    5    0    0 -0.13883792636E+03 -0.30450965585E+03 -0.20596341970E+03  0.40058917523E+03  0.77773110742E+02 0.  0.
          5    1    3    3  501    0  0.47645893425E+02  0.22659598522E+03 -0.10213607196E+03  0.25312000884E+03  0.47000000000E+01 0. -1.
        -11    1    4    4    0    0 -0.77715691641E+01  0.20410168528E+02 -0.13498684711E+02  0.25674632530E+02  0.00000000000E+00 0.  1.
         12    1    4    4    0    0  0.11686723467E+03  0.18900071751E+03  0.26200569884E+02  0.22375364046E+03  0.00000000000E+00 0. -1.
         -5    1    5    5    0  502 -0.17903632572E+02 -0.13149721541E+03  0.58369896182E+01  0.13292184985E+03  0.47000000000E+01 0.  1.
         13    1    6    6    0    0 -0.45536145924E+02 -0.13059328744E+03 -0.43573224095E+02  0.14500611425E+03  0.00000000000E+00 0. -1.
        -14    1    6    6    0    0 -0.93301780438E+02 -0.17391636840E+03 -0.16239019561E+03  0.25558306098E+03  0.00000000000E+00 0.  1.
</event>
<event>
12    1  0.9962621E-001  0.3813536E+03  0.7818608E-02  0.1050533E+00
         21   -1    0    0  501  502  0.00000000000E+00  0.00000000000E+00  0.91493635421E+03  0.91493635421E+03  0.00000000000E+00 0. -1.
         21   -1    0    0  502  503 -0.00000000000E+00 -0.00000000000E+00 -0.35671484438E+03  0.35671484438E+03  0.00000000000E+00 0.  1.
         -6    2    1    2    0  503 -0.34002424161E+03 -0.52028865578E+01  0.75289388548E+03  0.84348314746E+03  0.17020887858E+03 0.  0.
        -24    2    3    3    0    0 -0.13786364081E+03 -0.13416397901E+02  0.46275845997E+03  0.48973602674E+03  0.80682094788E+02 0.  0.
          6    2    1    2  501    0  0.34002424161E+03  0.52028865578E+01 -0.19467237565E+03  0.42816805112E+03  0.17258908206E+03 0.  0.
         24    2    5    5    0    0  0.10093389262E+03  0.47858286407E+02 -0.49632762317E+02  0.14525064700E+03  0.78461921347E+02 0.  0.
          5    1    5    5  501    0  0.23909034900E+03 -0.42655399849E+02 -0.14503961333E+03  0.28291740412E+03  0.47000000000E+01 0. -1.
        -11    1    6    6    0    0  0.16775206873E+02  0.12429781414E+02 -0.49734044444E+02  0.53938689346E+02  0.00000000000E+00 0.  1.
         12    1    6    6    0    0  0.84158685744E+02  0.35428504993E+02  0.10128212648E+00  0.91311957652E+02  0.00000000000E+00 0. -1.
         -5    1    3    3    0  503 -0.20216060080E+03  0.82135113433E+01  0.29013542551E+03  0.35374712073E+03  0.47000000000E+01 0.  1.
         13    1    4    4    0    0 -0.46980600336E+02  0.17643289122E+02  0.26712611201E+03  0.27179923137E+03  0.00000000000E+00 0. -1.
        -14    1    4    4    0    0 -0.90883040473E+02 -0.31059687023E+02  0.19563234797E+03  0.21793679537E+03  0.00000000000E+00 0.  1.
</event>
<event>
12    1  0.9962621E-001  0.2771242E+03  0.7818608E-02  0.1097283E+00
         21   -1    0    0  503  502  0.00000000000E+00  0.00000000000E+00  0.83881082707E+03  0.83881082707E+03  0.00000000000E+00 0.  1.
         21   -1    0    0  501  503 -0.00000000000E+00 -0.00000000000E+00 -0.10659281178E+03  0.10659281178E+03  0.00000000000E+00 0.  1.
          6    2    1    2  501    0  0.21376375108E+03 -0.39719984380E+02  0.18832882485E+03  0.33498307045E+03  0.17167787505E+03 0.  0.
         24    2    3    3    0    0  0.20659786433E+03 -0.43869596734E+02  0.21205929486E+03  0.30941366643E+03  0.78488555665E+02 0.  0.
         -6    2    1    2    0  502 -0.21376375108E+03  0.39719984380E+02  0.54388919044E+03  0.61042056840E+03  0.17182898596E+03 0.  0.
        -24    2    5    5    0    0 -0.12892246674E+03  0.91403622356E+02  0.33379956815E+03  0.37797921805E+03  0.80439498783E+02 0.  0.
          5    1    3    3  501    0  0.71658867507E+01  0.41496123540E+01 -0.23730470006E+02  0.25569404027E+02  0.47000000000E+01 0. -1.
        -13    1    4    4    0    0  0.25281493316E+02  0.24963783556E+01  0.69958744527E+02  0.74428568070E+02  0.00000000000E+00 0.  1.
         14    1    4    4    0    0  0.18131637102E+03 -0.46365975090E+02  0.14210055033E+03  0.23498509836E+03  0.00000000000E+00 0. -1.
         -5    1    5    5    0  502 -0.84841284342E+02 -0.51683637975E+02  0.21008962228E+03  0.23244135035E+03  0.47000000000E+01 0.  1.
         11    1    6    6    0    0 -0.49017104256E+02  0.38529175249E+02  0.22273364250E+03  0.23129515636E+03  0.00000000000E+00 0. -1.
        -12    1    6    6    0    0 -0.79905362485E+02  0.52874447107E+02  0.11106592565E+03  0.14668406168E+03  0.00000000000E+00 0.  1.
</event>
<event>
12    1  0.9962621E-001  0.2106849E+03  0.7818608E-02  0.1141449E+00
         21   -1    0    0  501  502  0.00000000000E+00  0.00000000000E+00  0.78148506849E+03  0.78148506849E+03  0.00000000000E+00 0. -1.
         21   -1    0    0  502  503 -0.00000000000E+00 -0.00000000000E+00 -0.85710787622E+02  0.85710787622E+02  0.00000000000E+00 0. -1.
         -6    2    1    2    0  503 -0.11801766859E+03 -0.28246894612E+02  0.92402881101E+02  0.22809870990E+03  0.16960150903E+03 0.  0.
        -24    2    3    3    0    0 -0.15140680404E+03 -0.14700727369E+02  0.71794137295E+02  0.18632379716E+03  0.80137553901E+02 0.  0.
          6    2    1    2  501    0  0.11801766859E+03  0.28246894612E+02  0.60337139976E+03  0.63909714621E+03  0.17222676646E+03 0.  0.
         24    2    5    5    0    0  0.14602874651E+03  0.26587009692E+02  0.41198093260E+03  0.44560353747E+03  0.82480057495E+02 0.  0.
          5    1    5    5  501    0 -0.28011077916E+02  0.16598849205E+01  0.19139046716E+03  0.19349360874E+03  0.47000000000E+01 0. -1.
        -13    1    6    6    0    0  0.32976535754E+02 -0.28920692235E+02  0.10691690386E+03  0.11556419290E+03  0.00000000000E+00 0.  1.
         14    1    6    6    0    0  0.11305221076E+03  0.55507701927E+02  0.30506402875E+03  0.33003934457E+03  0.00000000000E+00 0. -1.
         -5    1    3    3    0  503  0.33389135446E+02 -0.13546167243E+02  0.20608743806E+02  0.41774912735E+02  0.47000000000E+01 0.  1.
         11    1    4    4    0    0 -0.11631197128E+03 -0.39416207787E+02  0.30015100704E+02  0.12642396280E+03  0.00000000000E+00 0. -1.
        -12    1    4    4    0    0 -0.35094832761E+02  0.24715480418E+02  0.41779036592E+02  0.59899834368E+02  0.00000000000E+00 0.  1.
</event>
<event>
12    1  0.9962621E-001  0.1786093E+03  0.7818608E-02  0.1169157E+00
         21   -1    0    0  501  502  0.00000000000E+00  0.00000000000E+00  0.44840776044E+03  0.44840776044E+03  0.00000000000E+00 0.  1.
         21   -1    0    0  502  503 -0.00000000000E+00 -0.00000000000E+00 -0.75778427207E+02  0.75778427207E+02  0.00000000000E+00 0.  1.
         -6    2    1    2    0  503 -0.20025735704E+02 -0.44654895299E+02  0.12148227560E+03  0.21600422067E+03  0.17176958490E+03 0.  0.
        -24    2    3    3    0    0 -0.26040947474E+02 -0.76875129480E+02  0.13851824140E+03  0.17876659998E+03  0.78627460790E+02 0.  0.
          6    2    1    2  501    0  0.20025735704E+02  0.44654895299E+02  0.25114705763E+03  0.30818196698E+03  0.17177366053E+03 0.  0.
         24    2    5    5    0    0 -0.48082994212E+02  0.14611260520E+02  0.89486048517E+02  0.13014323257E+03  0.80025276253E+02 0.  0.
          5    1    5    5  501    0  0.68108729916E+02  0.30043634780E+02  0.16166100911E+03  0.17803873440E+03  0.47000000000E+01 0. -1.
        -13    1    6    6    0    0 -0.96250177843E+01  0.28226899502E+02 -0.20846560021E+01  0.29895561769E+02  0.00000000000E+00 0.  1.
         14    1    6    6    0    0 -0.38457976428E+02 -0.13615638982E+02  0.91570704519E+02  0.10024767081E+03  0.00000000000E+00 0. -1.
         -5    1    3    3    0  503  0.60152117706E+01  0.32220234181E+02 -0.17035965801E+02  0.37237620682E+02  0.47000000000E+01 0.  1.
         11    1    4    4    0    0  0.20280887605E+02  0.22115821258E+01  0.16978172563E+02  0.26541737719E+02  0.00000000000E+00 0. -1.
        -12    1    4    4    0    0 -0.46321835080E+02 -0.79086711606E+02  0.12154006884E+03  0.15222486227E+03  0.00000000000E+00 0.  1.
</event>
<event>
12    1  0.9962621E-001  0.3516196E+03  0.7818608E-02  0.1062006E+00
         21   -1    0    0  501  502  0.00000000000E+00  0.00000000000E+00  0.16632487173E+04  0.16632487173E+04  0.00000000000E+00 0. -1.
         21   -1    0    0  502  503 -0.00000000000E+00 -0.00000000000E+00 -0.26337773831E+03  0.26337773831E+03  0.00000000000E+00 0. -1.
         -6    2    1    2    0  503  0.30355161561E+03  0.37661238422E+02  0.15164533471E+04  0.15566846407E+04  0.17341961966E+03 0.  0.
        -24    2    3    3    0    0  0.58953619902E+02  0.38818129685E+02  0.48512081270E+03  0.49673256424E+03  0.80116546188E+02 0.  0.
          6    2    1    2  501    0 -0.30355161561E+03 -0.37661238422E+02 -0.11658236818E+03  0.36994181482E+03  0.17234716583E+03 0.  0.
         24    2    5    5    0    0 -0.15999509806E+03  0.30596093704E+02 -0.10509971377E+03  0.21050067060E+03  0.82036760884E+02 0.  0.
          5    1    5    5  501    0 -0.14355651754E+03 -0.68257332126E+02 -0.11482654411E+02  0.15944114422E+03  0.47000000000E+01 0. -1.
        -11    1    6    6    0    0 -0.83035436244E+02 -0.14818874812E+02 -0.83241050930E+02  0.11850550739E+03  0.00000000000E+00 0.  1.
         12    1    6    6    0    0 -0.76959661821E+02  0.45414968516E+02 -0.21858662835E+02  0.91995163209E+02  0.00000000000E+00 0. -1.
         -5    1    3    3    0  503  0.24459799571E+03 -0.11568912630E+01  0.10313325344E+04  0.10599520765E+04  0.47000000000E+01 0.  1.
         11    1    4    4    0    0 -0.19304036197E+02  0.14810975455E+02  0.13451114069E+03  0.13669402978E+03  0.00000000000E+00 0. -1.
        -12    1    4    4    0    0  0.78257656099E+02  0.24007154230E+02  0.35060967201E+03  0.36003853446E+03  0.00000000000E+00 0.  1.
</event>
<event>
12    1  0.9962621E-001  0.3067147E+03  0.7818608E-02  0.1082602E+00
         21   -1    0    0  501  502  0.00000000000E+00  0.00000000000E+00  0.67145525146E+03  0.67145525146E+03  0.00000000000E+00 0.  1.
         21   -1    0    0  502  503 -0.00000000000E+00 -0.00000000000E+00 -0.22572959131E+03  0.22572959131E+03  0.00000000000E+00 0.  1.
         -6    2    1    2    0  503 -0.12905556128E+03 -0.21154584364E+03 -0.56176765722E+02  0.31181679646E+03  0.18073987852E+03 0.  0.
        -24    2    3    3    0    0 -0.23243374080E+01 -0.12614857353E+03  0.64263578042E+00  0.14870937409E+03  0.78709591618E+02 0.  0.
          6    2    1    2  501    0  0.12905556128E+03  0.21154584364E+03  0.50190242587E+03  0.58536804632E+03  0.17129717656E+03 0.  0.
         24    2    5    5    0    0  0.40795525599E+02  0.10984883668E+03  0.14071729174E+03  0.19986978920E+03  0.80097032475E+02 0.  0.
          5    1    5    5  501    0  0.88260035679E+02  0.10169700696E+03  0.36118513413E+03  0.38549825712E+03  0.47000000000E+01 0. -1.
        -11    1    6    6    0    0 -0.22374788898E+02  0.50128744230E+02  0.50621142991E+02  0.74672768088E+02  0.00000000000E+00 0.  1.
         12    1    6    6    0    0  0.63170314496E+02  0.59720092454E+02  0.90096148747E+02  0.12519702111E+03  0.00000000000E+00 0. -1.
         -5    1    3    3    0  503 -0.12673122387E+03 -0.85397270114E+02 -0.56819401503E+02  0.16310742237E+03  0.47000000000E+01 0.  1.
         11    1    4    4    0    0 -0.27677086113E+02 -0.13626153047E+02  0.11347815274E+02  0.32870443472E+02  0.00000000000E+00 0. -1.
        -12    1    4    4    0    0  0.25352748705E+02 -0.11252242048E+03 -0.10705179493E+02  0.11583893061E+03  0.00000000000E+00 0.  1.
</event>
<event>
12    1  0.9962621E-001  0.1816108E+03  0.7818608E-02  0.1166444E+00
         21   -1    0    0  503  502  0.00000000000E+00  0.00000000000E+00  0.30833861618E+03  0.30833861618E+03  0.00000000000E+00 0. -1.
         21   -1    0    0  501  503 -0.00000000000E+00 -0.00000000000E+00 -0.11818474031E+03  0.11818474031E+03  0.00000000000E+00 0. -1.
          6    2    1    2  501    0 -0.16472625490E+02  0.50116524056E+02  0.16232327130E+03  0.24358023574E+03  0.17377995703E+03 0.  0.
         24    2    3    3    0    0 -0.45761198514E+02  0.60803669156E+02  0.40088891824E+02  0.11734486389E+03  0.79821828859E+02 0.  0.
         -6    2    1    2    0  502  0.16472625490E+02 -0.50116524056E+02  0.27830604577E+02  0.18294312075E+03  0.17294689793E+03 0.  0.
        -24    2    5    5    0    0  0.76801387737E+02 -0.16289592792E+02  0.16045974339E+02  0.11262393174E+03  0.79138313839E+02 0.  0.
          5    1    3    3  501    0  0.29288573024E+02 -0.10687145100E+02  0.12223437947E+03  0.12623537185E+03  0.47000000000E+01 0. -1.
        -11    1    4    4    0    0 -0.44517491029E+02  0.44513244185E+02  0.63093306177E+02  0.89129126551E+02  0.00000000000E+00 0.  1.
         12    1    4    4    0    0 -0.12437074852E+01  0.16290424971E+02 -0.23004414354E+02  0.28215737343E+02  0.00000000000E+00 0. -1.
         -5    1    5    5    0  502 -0.60328762246E+02 -0.33826931264E+02  0.11784630238E+02  0.70319189008E+02  0.47000000000E+01 0.  1.
         11    1    6    6    0    0  0.15476340913E+02  0.29902684764E+02  0.11989646849E+02  0.35741283073E+02  0.00000000000E+00 0. -1.
        -12    1    6    6    0    0  0.61325046824E+02 -0.46192277557E+02  0.40563274903E+01  0.76882648670E+02  0.00000000000E+00 0.  1.
</event>
<event>
12    1  0.9962621E-001  0.2978528E+03  0.7818608E-02  0.1086487E+00
         21   -1    0    0  501  502  0.00000000000E+00  0.00000000000E+00  0.61964292282E+02  0.61964292282E+02  0.00000000000E+00 0. -1.
         21   -1    0    0  502  503 -0.00000000000E+00 -0.00000000000E+00 -0.15245462559E+04  0.15245462559E+04  0.00000000000E+00 0.  1.
         -6    2    1    2    0  503  0.14728321377E+03  0.19178094247E+03 -0.52741134465E+03  0.60505226701E+03  0.17161947556E+03 0.  0.
        -24    2    3    3    0    0  0.14420101745E+03  0.87054241137E+02 -0.27341537855E+03  0.33025557361E+03  0.77073992635E+02 0.  0.
          6    2    1    2  501    0 -0.14728321377E+03 -0.19178094247E+03 -0.93517061899E+03  0.98145828120E+03  0.17390801060E+03 0.  0.
         24    2    5    5    0    0 -0.13336824596E+03 -0.82183362389E+02 -0.43164561847E+03  0.46593449703E+03  0.78967217858E+02 0.  0.
          5    1    5    5  501    0 -0.13914967812E+02 -0.10959758008E+03 -0.50352500052E+03  0.51552378417E+03  0.47000000000E+01 0. -1.
        -11    1    6    6    0    0 -0.55842523842E+02 -0.78009552906E+02 -0.27173614971E+03  0.28817427517E+03  0.00000000000E+00 0.  1.
         12    1    6    6    0    0 -0.77525722119E+02 -0.41738094834E+01 -0.15990946876E+03  0.17776022186E+03  0.00000000000E+00 0. -1.
         -5    1    3    3    0  503  0.30821963265E+01  0.10472670134E+03 -0.25399596611E+03  0.27479669340E+03  0.47000000000E+01 0.  1.
         13    1    4    4    0    0 -0.75967055882E+01 -0.35903957745E+01 -0.13736475166E+02  0.16102534819E+02  0.00000000000E+00 0. -1.
        -14    1    4    4    0    0  0.15179772303E+03  0.90644636911E+02 -0.25967890338E+03  0.31415303879E+03  0.00000000000E+00 0.  1.
</event>
<event>
12    1  0.9962621E-001  0.3939047E+03  0.7818608E-02  0.1045945E+00
         21   -1    0    0  501  502  0.00000000000E+00  0.00000000000E+00  0.59407851063E+03  0.59407851063E+03  0.00000000000E+00 0.  1.
         21   -1    0    0  502  503 -0.00000000000E+00 -0.00000000000E+00 -0.27634437874E+03  0.27634437874E+03  0.00000000000E+00 0.  1.
         -6    2    1    2    0  503  0.29989734755E+03 -0.18808115532E+03  0.26175432788E+03  0.47294425074E+03  0.17276572603E+03 0.  0.
        -24    2    3    3    0    0  0.14743829907E+03 -0.11567120281E+03  0.22440220578E+03  0.30001584442E+03  0.67344470840E+02 0.  0.
          6    2    1    2  501    0 -0.29989734755E+03  0.18808115532E+03  0.55979804007E+02  0.39747863862E+03  0.17187957891E+03 0.  0.
         24    2    5    5    0    0 -0.22202679733E+03  0.12728976971E+03 -0.25415984657E+02  0.26938968684E+03  0.80163875241E+02 0.  0.
          5    1    5    5  501    0 -0.77870550224E+02  0.60791385616E+02  0.81395788664E+02  0.12808895179E+03  0.47000000000E+01 0. -1.
        -11    1    6    6    0    0 -0.12032224116E+03  0.24463873513E+02 -0.21887367203E+02  0.12471960418E+03  0.00000000000E+00 0.  1.
         12    1    6    6    0    0 -0.10170455617E+03  0.10282589619E+03 -0.35286174546E+01  0.14467008266E+03  0.00000000000E+00 0. -1.
         -5    1    3    3    0  503  0.15245904848E+03 -0.72409952514E+02  0.37352122096E+02  0.17292840632E+03  0.47000000000E+01 0.  1.
         13    1    4    4    0    0  0.91916379857E+02 -0.34132994050E+02  0.13525555214E+03  0.16705611798E+03  0.00000000000E+00 0. -1.
        -14    1    4    4    0    0  0.55521919210E+02 -0.81538208759E+02  0.89146653640E+02  0.13295972644E+03  0.00000000000E+00 0.  1.
</event>
<event>
12    1  0.9962621E-001  0.2197821E+03  0.7818608E-02  0.1135163E+00
         21   -1    0    0  503  502  0.00000000000E+00  0.00000000000E+00  0.68696163136E+03  0.68696163136E+03  0.00000000000E+00 0.  1.
         21   -1    0    0  501  503 -0.00000000000E+00 -0.00000000000E+00 -0.69549923615E+02  0.69549923615E+02  0.00000000000E+00 0.  1.
          6    2    1    2  501    0  0.11160683333E+03  0.62137658169E+02  0.26508117841E+03  0.34434312580E+03  0.17884905180E+03 0.  0.
         24    2    3    3    0    0  0.38104031622E+01  0.74614789010E+02  0.10972747367E+03  0.15478413043E+03  0.79599765341E+02 0.  0.
         -6    2    1    2    0  502 -0.11160683333E+03 -0.62137658169E+02  0.35233052934E+03  0.41216842918E+03  0.17154835556E+03 0.  0.
        -24    2    5    5    0    0 -0.85673648492E+02  0.22749756181E+02  0.24978083292E+03  0.27645942643E+03  0.78624579587E+02 0.  0.
          5    1    3    3  501    0  0.10779643017E+03 -0.12477130841E+02  0.15535370473E+03  0.18955899537E+03  0.47000000000E+01 0. -1.
        -13    1    4    4    0    0 -0.53768686364E+01 -0.13831010927E+02  0.37148446069E+02  0.40002682722E+02  0.00000000000E+00 0.  1.
         14    1    4    4    0    0  0.91872717987E+01  0.88445799937E+02  0.72579027603E+02  0.11478144771E+03  0.00000000000E+00 0. -1.
         -5    1    5    5    0  502 -0.25933184841E+02 -0.84887414350E+02  0.10254969642E+03  0.13570900275E+03  0.47000000000E+01 0.  1.
         11    1    6    6    0    0 -0.83047952056E+02 -0.96028556923E+01  0.15258150441E+03  0.17398359884E+03  0.00000000000E+00 0. -1.
        -12    1    6    6    0    0 -0.26256964364E+01  0.32352611873E+02  0.97199328515E+02  0.10247582759E+03  0.00000000000E+00 0.  1.
</event>
<event>
12    1  0.9962621E-001  0.2820249E+03  0.7818608E-02  0.1094615E+00
         21   -1    0    0  501  502  0.00000000000E+00  0.00000000000E+00  0.57450904868E+03  0.57450904868E+03  0.00000000000E+00 0. -1.
         21   -1    0    0  502  503 -0.00000000000E+00 -0.00000000000E+00 -0.17383800231E+03  0.17383800231E+03  0.00000000000E+00 0.  1.
         -6    2    1    2    0  503 -0.59534247597E+02 -0.21537733518E+03  0.36934678896E+03  0.46458787836E+03  0.17173561965E+03 0.  0.
        -24    2    3    3    0    0 -0.10121673937E+03 -0.18328651520E+03  0.32987063631E+03  0.39865073044E+03  0.79176973910E+02 0.  0.
          6    2    1    2  501    0  0.59534247597E+02  0.21537733518E+03  0.31324257415E+02  0.28375917263E+03  0.17206491740E+03 0.  0.
         24    2    5    5    0    0  0.13216834999E+02  0.12058551993E+03 -0.45242353180E+02  0.15331636214E+03  0.82118719154E+02 0.  0.
          5    1    5    5  501    0  0.46317412598E+02  0.94791815258E+02  0.76566610596E+02  0.13044281049E+03  0.47000000000E+01 0. -1.
        -13    1    6    6    0    0 -0.32778759014E+02  0.30438393930E+02 -0.20078835325E+02  0.49031647897E+02  0.00000000000E+00 0.  1.
         14    1    6    6    0    0  0.45995594013E+02  0.90147125995E+02 -0.25163517855E+02  0.10428471424E+03  0.00000000000E+00 0. -1.
         -5    1    3    3    0  503  0.41682491773E+02 -0.32090819984E+02  0.39476152647E+02  0.65937147917E+02  0.47000000000E+01 0.  1.
         11    1    4    4    0    0 -0.36967580613E+02 -0.12225688297E+03  0.24319221232E+03  0.27469219061E+03  0.00000000000E+00 0. -1.
        -12    1    4    4    0    0 -0.64249158757E+02 -0.61029632231E+02  0.86678423997E+02  0.12395853983E+03  0.00000000000E+00 0.  1.
</event>
<event>
12    1  0.9962621E-001  0.2630263E+03  0.7818608E-02  0.1106213E+00
         21   -1    0    0  501  502  0.00000000000E+00  0.00000000000E+00  0.12597130300E+03  0.12597130300E+03  0.00000000000E+00 0. -1.
         21   -1    0    0  502  503 -0.00000000000E+00 -0.00000000000E+00 -0.53792556444E+03  0.53792556444E+03  0.00000000000E+00 0. -1.
         -6    2    1    2    0  503 -0.13750188205E+03  0.13267620792E+03 -0.19506132183E+03  0.32746261191E+03  0.18075701706E+03 0.  0.
        -24    2    3    3    0    0 -0.16626098256E+03  0.79745017374E+02 -0.13557466971E+03  0.24267140615E+03  0.80665594753E+02 0.  0.
          6    2    1    2  501    0  0.13750188205E+03 -0.13267620792E+03 -0.21689293961E+03  0.33643425553E+03  0.17215027542E+03 0.  0.
         24    2    5    5    0    0  0.13513353616E+02 -0.50180353808E+02 -0.34818195653E+02  0.10116414796E+03  0.79505971159E+02 0.  0.
          5    1    5    5  501    0  0.12398852843E+03 -0.82495854108E+02 -0.18207474396E+03  0.23527010757E+03  0.47000000000E+01 0. -1.
        -11    1    6    6    0    0 -0.28533569917E+02 -0.36331589535E+02 -0.23344276400E+01  0.46255794910E+02  0.00000000000E+00 0.  1.
         12    1    6    6    0    0  0.42046923533E+02 -0.13848764273E+02 -0.32483768013E+02  0.54908353051E+02  0.00000000000E+00 0. -1.
         -5    1    3    3    0  503  0.28759100517E+02  0.52931190541E+02 -0.59486652118E+02  0.84791205764E+02  0.47000000000E+01 0.  1.
         11    1    4    4    0    0 -0.13648433793E+03  0.86765441591E+02 -0.82852837257E+02  0.18171628709E+03  0.00000000000E+00 0. -1.
        -12    1    4    4    0    0 -0.29776644639E+02 -0.70204242170E+01 -0.52721832452E+02  0.60955119057E+02  0.00000000000E+00 0.  1.
</event>
<event>
12    1  0.9962621E-001  0.1753866E+03  0.7818608E-02  0.1173042E+00
         21   -1    0    0  503  502  0.00000000000E+00  0.00000000000E+00  0.85810018161E+02  0.85810018161E+02  0.00000000000E+00 0. -1.
         21   -1    0    0  501  503 -0.00000000000E+00 -0.00000000000E+00 -0.63763331816E+03  0.63763331816E+03  0.00000000000E+00 0. -1.
          6    2    1    2  501    0 -0.13554456242E+02 -0.63625310559E+01 -0.32960306469E+02  0.17573969686E+03  0.17197050376E+03 0.  0.
         24    2    3    3    0    0  0.46197454634E+02 -0.66054560157E+01  0.22868009289E+02  0.93829741989E+02  0.78123221702E+02 0.  0.
         -6    2    1    2    0  502  0.13554456242E+02  0.63625310559E+01 -0.51886299353E+03  0.54770363947E+03  0.17474628907E+03 0.  0.
        -24    2    5    5    0    0 -0.25553765167E+02 -0.12168273024E+02 -0.48545081001E+03  0.49282825619E+03  0.80100807638E+02 0.  0.
          5    1    3    3  501    0 -0.59751910876E+02  0.24292495987E+00 -0.55828315758E+02  0.81909954867E+02  0.47000000000E+01 0. -1.
        -13    1    4    4    0    0 -0.17731870898E+02  0.11770577692E+01  0.23453621551E+02  0.29425789273E+02  0.00000000000E+00 0.  1.
         14    1    4    4    0    0  0.63929325532E+02 -0.77825137849E+01 -0.58561226107E+00  0.64403952716E+02  0.00000000000E+00 0. -1.
         -5    1    5    5    0  502  0.39108221408E+02  0.18530804080E+02 -0.33412183528E+02  0.54875383276E+02  0.47000000000E+01 0.  1.
         11    1    6    6    0    0 -0.92470635493E+00  0.24861850709E+02 -0.58541512516E+02  0.63608768187E+02  0.00000000000E+00 0. -1.
        -12    1    6    6    0    0 -0.24629058812E+02 -0.37030123732E+02 -0.42690929749E+03  0.42921948801E+03  0.00000000000E+00 0.  1.
</event>
<event>
12    1  0.9962621E-001  0.1865870E+03  0.7818608E-02  0.1163301E+00
         21   -1    0    0  501  502  0.00000000000E+00  0.00000000000E+00  0.16006081021E+04  0.16006081021E+04  0.00000000000E+00 0.  1.
         21   -1    0    0  502  503 -0.00000000000E+00 -0.00000000000E+00 -0.24784091873E+02  0.24784091873E+02  0.00000000000E+00 0.  1.
         -6    2    1    2    0  503 -0.16990827071E+02 -0.68097085606E+02  0.11225791079E+04  0.11379800362E+04  0.17288379928E+03 0.  0.
        -24    2    3    3    0    0 -0.34589779589E+01 -0.11245553724E+03  0.77144106321E+03  0.78376146019E+03  0.80638080865E+02 0.  0.
          6    2    1    2  501    0  0.16990827071E+02  0.68097085606E+02  0.45324490236E+03  0.48741215779E+03  0.16496596248E+03 0.  0.
         24    2    5    5    0    0  0.42089890239E+02 -0.15259227469E+02  0.23339572632E+03  0.25090848318E+03  0.80480426079E+02 0.  0.
          5    1    5    5  501    0 -0.25099063168E+02  0.83356313075E+02  0.21984917604E+03  0.23650367461E+03  0.47000000000E+01 0. -1.
        -13    1    6    6    0    0  0.40392478437E+02 -0.24707652168E+02  0.23620659254E+03  0.24090573830E+03  0.00000000000E+00 0.  1.
         14    1    6    6    0    0  0.16974118018E+01  0.94484246983E+01 -0.28108662159E+01  0.10002744873E+02  0.00000000000E+00 0. -1.
         -5    1    3    3    0  503 -0.13531849112E+02  0.44358451636E+02  0.35113804468E+03  0.35421857602E+03  0.47000000000E+01 0.  1.
         11    1    4    4    0    0 -0.34280548278E+02 -0.46855121707E+02  0.47748629718E+03  0.48100282994E+03  0.00000000000E+00 0. -1.
        -12    1    4    4    0    0  0.30821570319E+02 -0.65600415535E+02  0.29395476603E+03  0.30275863024E+03  0.00000000000E+00 0.  1.
</event>
<event>
12    1  0.9962621E-001  0.4893736E+03  0.7818608E-02  0.1016640E+00
         21   -1    0    0  503  502  0.00000000000E+00  0.00000000000E+00  0.11244620915E+04  0.11244620915E+04  0.00000000000E+00 0.  1.
         21   -1    0    0  501  503 -0.00000000000E+00 -0.00000000000E+00 -0.54674584371E+03  0.54674584371E+03  0.00000000000E+00 0.  1.
          6    2    1    2  501    0 -0.40379364582E+03  0.21716018430E+03 -0.36424529028E+03  0.61005015915E+03  0.17111023098E+03 0.  0.
         24    2    3    3    0    0 -0.11030994607E+03  0.97721822267E+02 -0.83994682200E+02  0.18701269311E+03  0.78745171278E+02 0.  0.
         -6    2    1    2    0  502  0.40379364582E+03 -0.21716018430E+03  0.94196153811E+03  0.10611577761E+04  0.16898648598E+03 0.  0.
        -24    2    5    5    0    0  0.34425422662E+03 -0.23056846117E+03  0.86829417031E+03  0.96537836596E+03  0.79673304422E+02 0.  0.
          5    1    3    3  501    0 -0.29348369975E+03  0.11943836203E+03 -0.28025060808E+03  0.42303746604E+03  0.47000000000E+01 0. -1.
        -11    1    4    4    0    0  0.76254256344E+01  0.15646097987E+02 -0.27657409554E+02  0.32678430219E+02  0.00000000000E+00 0.  1.
         12    1    4    4    0    0 -0.11793537170E+03  0.82075724280E+02 -0.56337272646E+02  0.15433426290E+03  0.00000000000E+00 0. -1.
         -5    1    5    5    0  502  0.59539419201E+02  0.13408276875E+02  0.73667367801E+02  0.95779410138E+02  0.47000000000E+01 0.  1.
         11    1    6    6    0    0  0.29813846407E+03 -0.17570616674E+03  0.76524707505E+03  0.83985849205E+03  0.00000000000E+00 0. -1.
        -12    1    6    6    0    0  0.46115762549E+02 -0.54862294434E+02  0.10304709526E+03  0.12551987391E+03  0.00000000000E+00 0.  1.
</event>
<event>
12    1  0.9962621E-001  0.1725065E+03  0.7818608E-02  0.1175355E+00
         21   -1    0    0  503  502  0.00000000000E+00  0.00000000000E+00  0.14470382842E+03  0.14470382842E+03  0.00000000000E+00 0.  1.
         21   -1    0    0  501  503 -0.00000000000E+00 -0.00000000000E+00 -0.42823333996E+03  0.42823333996E+03  0.00000000000E+00 0.  1.
          6    2    1    2  501    0 -0.70945927870E+01  0.11805796923E+01  0.65047163445E+02  0.18401018694E+03  0.17197932553E+03 0.  0.
         24    2    3    3    0    0 -0.55574691233E+02 -0.42668632399E+02  0.53698093011E+02  0.11749729536E+03  0.77543347410E+02 0.  0.
         -6    2    1    2    0  502  0.70945927870E+01 -0.11805796923E+01 -0.34857667499E+03  0.38892698145E+03  0.17235652450E+03 0.  0.
        -24    2    5    5    0    0 -0.45772662443E+02 -0.12891422398E+02 -0.31149945117E+03  0.32313259690E+03  0.71564248748E+02 0.  0.
          5    1    3    3  501    0  0.48480098446E+02  0.43849212091E+02  0.11349070434E+02  0.66512891578E+02  0.47000000000E+01 0. -1.
        -11    1    4    4    0    0 -0.53005458739E+02 -0.60902422271E+02  0.27135595161E+02  0.85176429951E+02  0.00000000000E+00 0.  1.
         12    1    4    4    0    0 -0.25692324941E+01  0.18233789872E+02  0.26562497851E+02  0.32320865409E+02  0.00000000000E+00 0. -1.
         -5    1    5    5    0  502  0.52867255230E+02  0.11710842706E+02 -0.37077223819E+02  0.65794384552E+02  0.47000000000E+01 0.  1.
         13    1    6    6    0    0 -0.58365856408E+02  0.29938102573E+01 -0.16109903649E+03  0.17137221377E+03  0.00000000000E+00 0. -1.
        -14    1    6    6    0    0  0.12593193966E+02 -0.15885232655E+02 -0.15040041468E+03  0.15176038313E+03  0.00000000000E+00 0.  1.
</event>
<event>
12    1  0.9962621E-001  0.1853281E+03  0.7818608E-02  0.1162750E+00
         21   -1    0    0  501  502  0.00000000000E+00  0.00000000000E+00  0.18681269877E+03  0.18681269877E+03  0.00000000000E+00 0. -1.
         21   -1    0    0  502  503 -0.00000000000E+00 -0.00000000000E+00 -0.27587668076E+03  0.27587668076E+03  0.00000000000E+00 0. -1.
         -6    2    1    2    0  503  0.69475270441E+02 -0.59300969593E-01 -0.17816460764E+03  0.25707809858E+03  0.17181299321E+03 0.  0.
        -24    2    3    3    0    0 -0.24486923971E+02  0.26226807315E+02 -0.74349955104E+02  0.11453187608E+03  0.79386270523E+02 0.  0.
          6    2    1    2  501    0 -0.69475270441E+02  0.59300969593E-01  0.89100625650E+02  0.20561128095E+03  0.17178550766E+03 0.  0.
         24    2    5    5    0    0 -0.11144191137E+03 -0.96399016010E+01  0.85774637947E+02  0.16215526093E+03  0.80154930103E+02 0.  0.
          5    1    5    5  501    0  0.41966640929E+02  0.96992025706E+01  0.33259877031E+01  0.43456020015E+02  0.47000000000E+01 0. -1.
        -13    1    6    6    0    0 -0.59296894901E+02 -0.17310949609E+02  0.34254073583E+00  0.61773036638E+02  0.00000000000E+00 0.  1.
         14    1    6    6    0    0 -0.52145016468E+02  0.76710480083E+01  0.85432097211E+02  0.10038222429E+03  0.00000000000E+00 0. -1.
         -5    1    3    3    0  503  0.93962194412E+02 -0.26286108285E+02 -0.10381465254E+03  0.14254622250E+03  0.47000000000E+01 0.  1.
         11    1    4    4    0    0 -0.28408787441E+02  0.19026485508E+02 -0.90322660367E+02  0.96577685468E+02  0.00000000000E+00 0. -1.
        -12    1    4    4    0    0  0.39218634703E+01  0.72003218077E+01  0.15972705263E+02  0.17954190614E+02  0.00000000000E+00 0.  1.
</event>
<event>
12    1  0.9962621E-001  0.1761451E+03  0.7818608E-02  0.1172712E+00
         21   -1    0    0  503  502  0.00000000000E+00  0.00000000000E+00  0.54514013449E+02  0.54514013449E+02  0.00000000000E+00 0.  1.
         21   -1    0    0  501  503 -0.00000000000E+00 -0.00000000000E+00 -0.62959685670E+03  0.62959685670E+03  0.00000000000E+00 0.  1.
          6    2    1    2  501    0  0.18338141921E+02 -0.17675389213E+02 -0.40214886835E+03  0.43726421148E+03  0.16978684137E+03 0.  0.
         24    2    3    3    0    0 -0.17630445591E+02 -0.56434756972E+02 -0.15221061822E+03  0.18175051957E+03  0.79808925950E+02 0.  0.
         -6    2    1    2    0  502 -0.18338141921E+02  0.17675389213E+02 -0.17293397490E+03  0.24684665866E+03  0.17429402280E+03 0.  0.
        -24    2    5    5    0    0 -0.35913779903E+02  0.70001515968E+02 -0.14706982835E+03  0.18570771307E+03  0.81656649803E+02 0.  0.
          5    1    3    3  501    0  0.35968587512E+02  0.38759367759E+02 -0.24993825013E+03  0.25551369191E+03  0.47000000000E+01 0. -1.
        -13    1    4    4    0    0  0.11127360519E+02  0.60549776409E+00  0.48822595600E+01  0.12166397909E+02  0.00000000000E+00 0.  1.
         14    1    4    4    0    0 -0.28757806111E+02 -0.57040254736E+02 -0.15709287778E+03  0.16958412166E+03  0.00000000000E+00 0. -1.
         -5    1    5    5    0  502  0.17575637982E+02 -0.52326126755E+02 -0.25864146556E+02  0.61138945597E+02  0.47000000000E+01 0.  1.
         13    1    6    6    0    0 -0.79794335690E+01  0.58603618028E+02 -0.33025695159E+02  0.67740327330E+02  0.00000000000E+00 0. -1.
        -14    1    6    6    0    0 -0.27934346334E+02  0.11397897940E+02 -0.11404413319E+03  0.11796738574E+03  0.00000000000E+00 0.  1.
</event>
<event>
12    1  0.9962621E-001  0.3731144E+03  0.7818608E-02  0.1053641E+00
         21   -1    0    0  503  502  0.00000000000E+00  0.00000000000E+00  0.40282382765E+03  0.40282382765E+03  0.00000000000E+00 0. -1.
         21   -1    0    0  501  503 -0.00000000000E+00 -0.00000000000E+00 -0.34579561916E+03  0.34579561916E+03  0.00000000000E+00 0. -1.
          6    2    1    2  501    0  0.17779519522E+03  0.27938438275E+03  0.53078446602E+02  0.37548409432E+03  0.16883192478E+03 0.  0.
         24    2    3    3    0    0  0.10307906000E+03  0.26465830606E+03  0.43252158186E+02  0.29855552913E+03  0.81211718440E+02 0.  0.
         -6    2    1    2    0  502 -0.17779519522E+03 -0.27938438275E+03  0.39497618823E+01  0.37313535249E+03  0.17189422880E+03 0.  0.
        -24    2    5    5    0    0 -0.10840524634E+03 -0.12573168693E+03 -0.53499281065E+02  0.19495960086E+03  0.87102918199E+02 0.  0.
          5    1    3    3  501    0  0.74716135221E+02  0.14726076685E+02  0.98262884160E+01  0.76928565182E+02  0.47000000000E+01 0. -1.
        -11    1    4    4    0    0  0.77342741104E+01  0.11285565388E+03  0.37597770510E+02  0.11920490743E+03  0.00000000000E+00 0.  1.
         12    1    4    4    0    0  0.95344785885E+02  0.15180265218E+03  0.56543876762E+01  0.17935062170E+03  0.00000000000E+00 0. -1.
         -5    1    5    5    0  502 -0.69389948881E+02 -0.15365269581E+03  0.57449042947E+02  0.17817575164E+03  0.47000000000E+01 0.  1.
         13    1    6    6    0    0 -0.82812434249E+02 -0.43092194516E+02 -0.21217236704E+00  0.93353529722E+02  0.00000000000E+00 0. -1.
        -14    1    6    6    0    0 -0.25592812086E+02 -0.82639492419E+02 -0.53287108698E+02  0.10160607113E+03  0.00000000000E+00 0.  1.
</event>
<event>
12    1  0.9962621E-001  0.1796457E+03  0.7818608E-02  0.1168553E+00
         21   -1    0    0  501  502  0.00000000000E+00  0.00000000000E+00  0.12923940142E+03  0.12923940142E+03  0.00000000000E+00 0. -1.
         21   -1    0    0  502  503 -0.00000000000E+00 -0.00000000000E+00 -0.74872612917E+03  0.74872612917E+03  0.00000000000E+00 0. -1.
         -6    2    1    2    0  503 -0.49958421837E+02 -0.47371799983E+01  0.49942065704E+02  0.18485120280E+03  0.17075559277E+03 0.  0.
        -24    2    3    3    0    0  0.22046601376E+02 -0.42899941439E+02  0.44001037751E+02  0.10300680444E+03  0.79673413576E+02 0.  0.
          6    2    1    2  501    0  0.49958421837E+02  0.47371799983E+01 -0.66942879346E+03  0.69311432779E+03  0.17249428133E+03 0.  0.
         24    2    5    5    0    0  0.94772664798E+02 -0.24132913207E+02 -0.49101796160E+03  0.50685023147E+03  0.78957349465E+02 0.  0.
          5    1    5    5  501    0 -0.44814242961E+02  0.28870093205E+02 -0.17841083186E+03  0.18626409633E+03  0.47000000000E+01 0. -1.
        -11    1    6    6    0    0  0.22721677779E+02 -0.33764916386E+02 -0.83388951148E+02  0.92790416495E+02  0.00000000000E+00 0.  1.
         12    1    6    6    0    0  0.72050987019E+02  0.96320031788E+01 -0.40762901045E+03  0.41405981497E+03  0.00000000000E+00 0. -1.
         -5    1    3    3    0  503 -0.72005023213E+02  0.38162761440E+02  0.59410279532E+01  0.81844398353E+02  0.47000000000E+01 0.  1.
         13    1    4    4    0    0  0.23276088082E+02  0.15003829953E+02  0.34623096740E+02  0.44335651766E+02  0.00000000000E+00 0. -1.
        -14    1    4    4    0    0 -0.12294867057E+01 -0.57903771392E+02  0.93779410115E+01  0.58671152678E+02  0.00000000000E+00 0.  1.
</event>
<event>
12    1  0.9962621E-001  0.1809003E+03  0.7818608E-02  0.1167297E+00
         21   -1    0    0  501  502  0.00000000000E+00  0.00000000000E+00  0.95450631644E+02  0.95450631644E+02  0.00000000000E+00 0.  1.
         21   -1    0    0  502  503 -0.00000000000E+00 -0.00000000000E+00 -0.38564989920E+03  0.38564989920E+03  0.00000000000E+00 0.  1.
         -6    2    1    2    0  503  0.52338523438E+02 -0.25358050108E+02 -0.62878592759E+02  0.19151666633E+03  0.17129671425E+03 0.  0.
        -24    2    3    3    0    0 -0.78118975726E+01  0.94464615123E+01 -0.85906040873E+02  0.11815604649E+03  0.80191907846E+02 0.  0.
          6    2    1    2  501    0 -0.52338523438E+02  0.25358050108E+02 -0.22732067479E+03  0.28958386451E+03  0.16971085309E+03 0.  0.
         24    2    5    5    0    0 -0.49148011134E+02  0.73493794135E+02 -0.14870153089E+03  0.19722430080E+03  0.94701714668E+02 0.  0.
          5    1    5    5  501    0 -0.31905123039E+01 -0.48135744027E+02 -0.78619143900E+02  0.92359563713E+02  0.47000000000E+01 0. -1.
        -11    1    6    6    0    0 -0.70452144962E+02  0.31141178188E+02 -0.11740111021E+03  0.14041473708E+03  0.00000000000E+00 0.  1.
         12    1    6    6    0    0  0.21304133829E+02  0.42352615947E+02 -0.31300420681E+02  0.56809563724E+02  0.00000000000E+00 0. -1.
         -5    1    3    3    0  503  0.60150421010E+02 -0.34804511620E+02  0.23027448114E+02  0.73360619841E+02  0.47000000000E+01 0.  1.
         11    1    4    4    0    0  0.17650517220E+02  0.11868804451E+02 -0.89799414943E+02  0.92284040881E+02  0.00000000000E+00 0. -1.
        -12    1    4    4    0    0 -0.25462414793E+02 -0.24223429391E+01  0.38933740695E+01  0.25872005605E+02  0.00000000000E+00 0.  1.
</event>
<event>
12    1  0.9962621E-001  0.3104000E+03  0.7818608E-02  0.1080419E+00
         21   -1    0    0  501  502  0.00000000000E+00  0.00000000000E+00  0.46379948681E+03  0.46379948681E+03  0.00000000000E+00 0.  1.
         21   -1    0    0  502  503 -0.00000000000E+00 -0.00000000000E+00 -0.21468349773E+03  0.21468349773E+03  0.00000000000E+00 0.  1.
         -6    2    1    2    0  503  0.25438206429E+03 -0.27631258733E+02  0.19131853403E+03  0.36274785016E+03  0.17178329441E+03 0.  0.
        -24    2    3    3    0    0  0.13405476354E+03  0.13710305143E+02  0.38411415316E+02  0.16377433141E+03  0.84781735693E+02 0.  0.
          6    2    1    2  501    0 -0.25438206429E+03  0.27631258733E+02  0.57797455058E+02  0.31573513438E+03  0.17571114985E+03 0.  0.
         24    2    5    5    0    0 -0.31783581297E+02  0.13251525475E+02  0.45499496565E+01  0.86357175130E+02  0.79063649593E+02 0.  0.
          5    1    5    5  501    0 -0.22259848300E+03  0.14379733258E+02  0.53247505402E+02  0.22937795925E+03  0.47000000000E+01 0. -1.
        -11    1    6    6    0    0  0.18547093384E+02  0.13735994400E+02  0.23157597669E+02  0.32694747972E+02  0.00000000000E+00 0.  1.
         12    1    6    6    0    0 -0.50330674681E+02 -0.48446892487E+00 -0.18607648012E+02  0.53662427158E+02  0.00000000000E+00 0. -1.
         -5    1    3    3    0  503  0.12032730076E+03 -0.41341563875E+02  0.15290711871E+03  0.19897351875E+03  0.47000000000E+01 0.  1.
         13    1    4    4    0    0  0.90675124396E+02 -0.25947219049E+02  0.45240684990E+02  0.10460380461E+03  0.00000000000E+00 0. -1.
        -14    1    4    4    0    0  0.43379639140E+02  0.39657524192E+02 -0.68292696746E+01  0.59170526796E+02  0.00000000000E+00 0.  1.
</event>
<event>
12    1  0.9962621E-001  0.2528640E+03  0.7818608E-02  0.1111606E+00
         21   -1    0    0  501  502  0.00000000000E+00  0.00000000000E+00  0.92112553668E+02  0.92112553668E+02  0.00000000000E+00 0. -1.
         21   -1    0    0  502  503 -0.00000000000E+00 -0.00000000000E+00 -0.72857782535E+03  0.72857782535E+03  0.00000000000E+00 0. -1.
         -6    2    1    2    0  503  0.11809803922E+03  0.14487986145E+03 -0.22644341580E+03  0.33896625917E+03  0.16936405515E+03 0.  0.
        -24    2    3    3    0    0  0.24210047557E+02  0.91501230221E+01 -0.56597505757E+02  0.10209659030E+03  0.80935683969E+02 0.  0.
          6    2    1    2  501    0 -0.11809803922E+03 -0.14487986145E+03 -0.41002185588E+03  0.48172411984E+03  0.17030233180E+03 0.  0.
         24    2    5    5    0    0 -0.46846618878E+02 -0.10425838776E+03 -0.35987816614E+03  0.38547782824E+03  0.77565742987E+02 0.  0.
          5    1    5    5  501    0 -0.71251420341E+02 -0.40621473693E+02 -0.50143689745E+02  0.96246291600E+02  0.47000000000E+01 0. -1.
        -11    1    6    6    0    0 -0.35603602142E+02 -0.30114829852E+02 -0.23684248499E+03  0.24138948229E+03  0.00000000000E+00 0.  1.
         12    1    6    6    0    0 -0.11243016736E+02 -0.74143557909E+02 -0.12303568115E+03  0.14408834595E+03  0.00000000000E+00 0. -1.
         -5    1    3    3    0  503  0.93887991662E+02  0.13572973843E+03 -0.16984591004E+03  0.23686966887E+03  0.47000000000E+01 0.  1.
         13    1    4    4    0    0 -0.14534079435E+01  0.33185564176E+02  0.25200869298E+01  0.33312833901E+02  0.00000000000E+00 0. -1.
        -14    1    4    4    0    0  0.25663455501E+02 -0.24035441154E+02 -0.59117592686E+02  0.68783756402E+02  0.00000000000E+00 0.  1.
</event>
<event>
12    1  0.9962621E-001  0.1727838E+03  0.7818608E-02  0.1175486E+00
         21   -1    0    0  503  502  0.00000000000E+00  0.00000000000E+00  0.41484687297E+03  0.41484687297E+03  0.00000000000E+00 0. -1.
         21   -1    0    0  501  503 -0.00000000000E+00 -0.00000000000E+00 -0.17230665286E+03  0.17230665286E+03  0.00000000000E+00 0. -1.
          6    2    1    2  501    0  0.11926476067E+01  0.96090753057E+01 -0.10339116648E+03  0.20135535555E+03  0.17251228700E+03 0.  0.
         24    2    3    3    0    0 -0.43642018473E+02  0.56710318200E+02 -0.71820724316E+02  0.12891602105E+03  0.79626867792E+02 0.  0.
         -6    2    1    2    0  502 -0.11926476067E+01 -0.96090753057E+01  0.34593138659E+03  0.38579817028E+03  0.17052257101E+03 0.  0.
        -24    2    5    5    0    0  0.37688799341E+02  0.48069683459E+02  0.20150191187E+03  0.22542183381E+03  0.80503680721E+02 0.  0.
          5    1    3    3  501    0  0.44834666079E+02 -0.47101242894E+02 -0.31570442167E+02  0.72439334503E+02  0.47000000000E+01 0. -1.
        -11    1    4    4    0    0  0.10124472363E+01  0.57434871516E+02 -0.59239647003E+02  0.82517424175E+02  0.00000000000E+00 0.  1.
         12    1    4    4    0    0 -0.44654465709E+02 -0.72455331555E+00 -0.12581077313E+02  0.46398596871E+02  0.00000000000E+00 0. -1.
         -5    1    5    5    0  502 -0.38881446948E+02 -0.57678758765E+02  0.14442947473E+03  0.16037633647E+03  0.47000000000E+01 0.  1.
         13    1    6    6    0    0 -0.13464863539E+02  0.47923885162E+02  0.93869869836E+02  0.10625231189E+03  0.00000000000E+00 0. -1.
        -14    1    6    6    0    0  0.51153662880E+02  0.14579829721E+00  0.10763204203E+03  0.11916952192E+03  0.00000000000E+00 0.  1.
</event>
<event>
12    1  0.9962621E-001  0.2002957E+03  0.7818608E-02  0.1153854E+00
         21   -1    0    0  501  502  0.00000000000E+00  0.00000000000E+00  0.35236092251E+03  0.35236092251E+03  0.00000000000E+00 0. -1.
         21   -1    0    0  502  503 -0.00000000000E+00 -0.00000000000E+00 -0.11551967296E+03  0.11551967296E+03  0.00000000000E+00 0. -1.
         -6    2    1    2    0  503  0.94297515581E+02  0.35916363499E+02  0.20085500382E+03  0.28365664513E+03  0.17302125059E+03 0.  0.
        -24    2    3    3    0    0  0.11160968298E+03  0.73345525531E+02  0.17552310446E+03  0.23503105068E+03  0.81209279856E+02 0.  0.
          6    2    1    2  501    0 -0.94297515581E+02 -0.35916363499E+02  0.35986245734E+02  0.18422395034E+03  0.14987143619E+03 0.  0.
         24    2    5    5    0    0 -0.37447262430E+02  0.47784712900E+01  0.63365869107E+02  0.10899260955E+03  0.80243531306E+02 0.  0.
          5    1    5    5  501    0 -0.56850253151E+02 -0.40694834789E+02 -0.27379623373E+02  0.75231340796E+02  0.47000000000E+01 0. -1.
        -11    1    6    6    0    0 -0.79301480965E+01 -0.20434229714E+01  0.75802850927E+02  0.76243918019E+02  0.00000000000E+00 0.  1.
         12    1    6    6    0    0 -0.29517114333E+02  0.68218942614E+01 -0.12436981820E+02  0.32748691526E+02  0.00000000000E+00 0. -1.
         -5    1    3    3    0  503 -0.17312167395E+02 -0.37429162032E+02  0.25331899358E+02  0.48625594448E+02  0.47000000000E+01 0.  1.
         11    1    4    4    0    0  0.30709265611E+02  0.79474292863E+01  0.10414811656E+03  0.10887171722E+03  0.00000000000E+00 0. -1.
        -12    1    4    4    0    0  0.80900417365E+02  0.65398096245E+02  0.71374987902E+02  0.12615933346E+03  0.00000000000E+00 0.  1.
</event>
<event>
12    1  0.9962621E-001  0.2250346E+03  0.7818608E-02  0.1130731E+00
         21   -1    0    0  503  502  0.00000000000E+00  0.00000000000E+00  0.33382938138E+02  0.33382938138E+02  0.00000000000E+00 0. -1.
         21   -1    0    0  501  503 -0.00000000000E+00 -0.00000000000E+00 -0.17862485574E+04  0.17862485574E+04  0.00000000000E+00 0. -1.
          6    2    1    2  501    0 -0.13790127218E+03  0.10251458077E+02 -0.51513318991E+03  0.56214125485E+03  0.17753516213E+03 0.  0.
         24    2    3    3    0    0 -0.10510721740E+03 -0.40904314620E+02 -0.45916390835E+03  0.47939457160E+03  0.79164199282E+02 0.  0.
         -6    2    1    2    0  502  0.13790127218E+03 -0.10251458077E+02 -0.12377324294E+04  0.12574902407E+04  0.17371898429E+03 0.  0.
        -24    2    5    5    0    0  0.13703888252E+03  0.45575913462E+02 -0.95499903653E+03  0.96925821515E+03  0.81126497879E+02 0.  0.
          5    1    3    3  501    0 -0.32794054785E+02  0.51155772698E+02 -0.55969281563E+02  0.82746683246E+02  0.47000000000E+01 0. -1.
        -11    1    4    4    0    0 -0.11204949057E+03 -0.38532147094E+02 -0.34093653799E+03  0.36093979780E+03  0.00000000000E+00 0.  1.
         12    1    4    4    0    0  0.69422731714E+01 -0.23721675268E+01 -0.11822737036E+03  0.11845477381E+03  0.00000000000E+00 0. -1.
         -5    1    5    5    0  502  0.86238966017E+00 -0.55827371539E+02 -0.28273339282E+03  0.28823202554E+03  0.47000000000E+01 0.  1.
         11    1    6    6    0    0  0.28245837061E+02  0.34004719922E+02 -0.46989784475E+03  0.47197259749E+03  0.00000000000E+00 0. -1.
        -12    1    6    6    0    0  0.10879304546E+03  0.11571193540E+02 -0.48510119178E+03  0.49728561766E+03  0.00000000000E+00 0.  1.
</event>
<event>
12    1  0.9962621E-001  0.1837953E+03  0.7818608E-02  0.1164288E+00
         21   -1    0    0  503  502  0.00000000000E+00  0.00000000000E+00  0.20655907062E+02  0.20655907062E+02  0.00000000000E+00 0. -1.
         21   -1    0    0  501  503 -0.00000000000E+00 -0.00000000000E+00 -0.24456540517E+04  0.24456540517E+04  0.00000000000E+00 0. -1.
          6    2    1    2  501    0  0.26414037583E+01 -0.64595849690E+02 -0.50193388622E+03  0.53452626880E+03  0.17204971691E+03 0.  0.
         24    2    3    3    0    0  0.18524734332E+01 -0.29487951810E+02 -0.10724546102E+03  0.13825082181E+03  0.82089767087E+02 0.  0.
         -6    2    1    2    0  502 -0.26414037583E+01  0.64595849690E+02 -0.19230642584E+04  0.19317836900E+04  0.17155897525E+03 0.  0.
        -24    2    5    5    0    0  0.57170906119E+02  0.48095371750E+02 -0.89756768908E+03  0.90440105340E+03  0.82047739886E+02 0.  0.
          5    1    3    3  501    0  0.78893032518E+00 -0.35107897880E+02 -0.39468842519E+03  0.39627544699E+03  0.47000000000E+01 0. -1.
        -11    1    4    4    0    0 -0.82937769297E+00  0.28839215158E+02 -0.34763706106E+02  0.45176359532E+02  0.00000000000E+00 0.  1.
         12    1    4    4    0    0  0.26818511261E+01 -0.58327166968E+02 -0.72481754916E+02  0.93074462274E+02  0.00000000000E+00 0. -1.
         -5    1    5    5    0  502 -0.59812309877E+02  0.16500477940E+02 -0.10254965693E+04  0.10273826365E+04  0.47000000000E+01 0.  1.
         11    1    6    6    0    0  0.28458624926E+01 -0.18803274157E+02 -0.30586539503E+03  0.30645603589E+03  0.00000000000E+00 0. -1.
        -12    1    6    6    0    0  0.54325043626E+02  0.66898645907E+02 -0.59170229405E+03  0.59794501752E+03  0.00000000000E+00 0.  1.
</event>
<event>
12    1  0.9962621E-001  0.1843270E+03  0.7818608E-02  0.1163792E+00
         21   -1    0    0  501  502  0.00000000000E+00  0.00000000000E+00  0.68819396116E+03  0.68819396116E+03  0.00000000000E+00 0. -1.
         21   -1    0    0  502  503 -0.00000000000E+00 -0.00000000000E+00 -0.49662435792E+02  0.49662435792E+02  0.00000000000E+00 0. -1.
         -6    2    1    2    0  503 -0.25798907561E+02  0.59571248052E+02  0.35278107069E+03  0.39781263871E+03  0.17200608843E+03 0.  0.
        -24    2    3    3    0    0  0.47839043377E+02  0.39748112843E+02  0.15005475675E+03  0.18116649203E+03  0.80227060681E+02 0.  0.
          6    2    1    2  501    0  0.25798907561E+02 -0.59571248052E+02  0.28575045468E+03  0.34004375824E+03  0.17251700769E+03 0.  0.
         24    2    5    5    0    0 -0.17040582882E+02 -0.96740155292E+02  0.20928147596E+03  0.24472144022E+03  0.80254644800E+02 0.  0.
          5    1    5    5  501    0  0.42839490444E+02  0.37168907239E+02  0.76468978718E+02  0.95322318022E+02  0.47000000000E+01 0. -1.
        -13    1    6    6    0    0 -0.32345294104E+02 -0.25518149426E+02  0.29298704911E+02  0.50555000844E+02  0.00000000000E+00 0.  1.
         14    1    6    6    0    0  0.15304711222E+02 -0.71222005866E+02  0.17998277105E+03  0.19416643938E+03  0.00000000000E+00 0. -1.
         -5    1    3    3    0  503 -0.73637950939E+02  0.19823135210E+02  0.20272631394E+03  0.21664614668E+03  0.47000000000E+01 0.  1.
         13    1    4    4    0    0  0.49749858026E+01  0.30262387969E+02  0.12878110082E+03  0.13238253109E+03  0.00000000000E+00 0. -1.
        -14    1    4    4    0    0  0.42864057575E+02  0.94857248732E+01  0.21273655924E+02  0.48783960935E+02  0.00000000000E+00 0.  1.
</event>
<event>
12    1  0.9962621E-001  0.1814916E+03  0.7818608E-02  0.1167765E+00
         21   -1    0    0  501  502  0.00000000000E+00  0.00000000000E+00  0.64961141066E+02  0.64961141066E+02  0.00000000000E+00 0.  1.
         21   -1    0    0  502  503 -0.00000000000E+00 -0.00000000000E+00 -0.60986773528E+03  0.60986773528E+03  0.00000000000E+00 0.  1.
         -6    2    1    2    0  503  0.33905076263E+02  0.50387754544E+01 -0.12712404240E+03  0.22158453525E+03  0.17822525256E+03 0.  0.
        -24    2    3    3    0    0  0.60743587006E+02 -0.53763982844E+02 -0.62602829548E+02  0.13013429222E+03  0.80221384497E+02 0.  0.
          6    2    1    2  501    0 -0.33905076263E+02 -0.50387754544E+01 -0.41778255182E+03  0.45324434110E+03  0.17237525542E+03 0.  0.
         24    2    5    5    0    0 -0.55129689755E+02 -0.57108027162E+02 -0.33184696861E+03  0.35044013081E+03  0.79907854745E+02 0.  0.
          5    1    5    5  501    0  0.21224613492E+02  0.52069251707E+02 -0.85935583208E+02  0.10280421029E+03  0.47000000000E+01 0. -1.
        -13    1    6    6    0    0 -0.50128364447E+02 -0.28185752419E+01 -0.95580178760E+02  0.10796466024E+03  0.00000000000E+00 0.  1.
         14    1    6    6    0    0 -0.50013253079E+01 -0.54289451920E+02 -0.23626678985E+03  0.24247547058E+03  0.00000000000E+00 0. -1.
         -5    1    3    3    0  503 -0.26838510743E+02  0.58802758298E+02 -0.64521212852E+02  0.91450243030E+02  0.47000000000E+01 0.  1.
         11    1    4    4    0    0 -0.44995553073E+01 -0.15077682090E+02  0.14914787925E+02  0.21680253551E+02  0.00000000000E+00 0. -1.
        -12    1    4    4    0    0  0.65243142313E+02 -0.38686300754E+02 -0.77517617473E+02  0.10845403867E+03  0.00000000000E+00 0.  1.
</event>
<event>
12    1  0.9962621E-001  0.2363729E+03  0.7818608E-02  0.1122351E+00
         21   -1    0    0  503  502  0.00000000000E+00  0.00000000000E+00  0.23794530006E+02  0.23794530006E+02  0.00000000000E+00 0.  1.
         21   -1    0    0  501  503 -0.00000000000E+00 -0.00000000000E+00 -0.23901824270E+04  0.23901824270E+04  0.00000000000E+00 0.  1.
          6    2    1    2  501    0 -0.14523688510E+03  0.67293994919E+02 -0.13576247234E+04  0.13780482656E+04  0.17392497822E+03 0.  0.
         24    2    3    3    0    0 -0.12450887153E+03 -0.10960578860E+02 -0.68914319868E+03  0.70466645130E+03  0.77549119452E+02 0.  0.
         -6    2    1    2    0  502  0.14523688510E+03 -0.67293994919E+02 -0.10087631735E+04  0.10359286914E+04  0.17298230787E+03 0.  0.
        -24    2    5    5    0    0  0.77019550042E+02 -0.55804830278E+02 -0.88864113715E+03  0.89723118121E+03  0.79338084977E+02 0.  0.
          5    1    3    3  501    0 -0.20728013571E+02  0.78254573779E+02 -0.66848152476E+03  0.67338181428E+03  0.47000000000E+01 0. -1.
        -11    1    4    4    0    0 -0.31644890173E+02 -0.32580343268E+02 -0.32879749172E+03  0.33191967161E+03  0.00000000000E+00 0.  1.
         12    1    4    4    0    0 -0.92863981355E+02  0.21619764408E+02 -0.36034570696E+03  0.37274677969E+03  0.00000000000E+00 0. -1.
         -5    1    5    5    0  502  0.68217335056E+02 -0.11489164641E+02 -0.12012203636E+03  0.13869751016E+03  0.47000000000E+01 0.  1.
         11    1    6    6    0    0  0.70004197255E+02 -0.27797244505E+02 -0.35964496253E+03  0.36744764730E+03  0.00000000000E+00 0. -1.
        -12    1    6    6    0    0  0.70153527874E+01 -0.28007585773E+02 -0.52899617462E+03  0.52978353390E+03  0.00000000000E+00 0.  1.
</event>
<event>
12    1  0.9962621E-001  0.2071719E+03  0.7818608E-02  0.1144393E+00
         21   -1    0    0  503  502  0.00000000000E+00  0.00000000000E+00  0.37569652283E+03  0.37569652283E+03  0.00000000000E+00 0.  1.
         21   -1    0    0  501  503 -0.00000000000E+00 -0.00000000000E+00 -0.12937526880E+03  0.12937526880E+03  0.00000000000E+00 0.  1.
          6    2    1    2  501    0  0.95978133881E+02 -0.59952998002E+02  0.31778604134E+02  0.20682900139E+03  0.17018281929E+03 0.  0.
         24    2    3    3    0    0  0.27326550194E+02 -0.59048207840E+02 -0.37574425102E+02  0.10912643616E+03  0.79141079428E+02 0.  0.
         -6    2    1    2    0  502 -0.95978133881E+02  0.59952998002E+02  0.21454264989E+03  0.29824279024E+03  0.17353400000E+03 0.  0.
        -24    2    5    5    0    0 -0.10418902952E+03  0.99795893847E+02  0.16353736452E+03  0.23283251359E+03  0.81559398526E+02 0.  0.
          5    1    3    3  501    0  0.68651583687E+02 -0.90479016181E+00  0.69353029235E+02  0.97702565228E+02  0.47000000000E+01 0. -1.
        -13    1    4    4    0    0  0.25636680007E+02  0.95291817406E+01 -0.29217063754E+02  0.40021012991E+02  0.00000000000E+00 0.  1.
         14    1    4    4    0    0  0.16898701874E+01 -0.68577389581E+02 -0.83573613477E+01  0.69105423171E+02  0.00000000000E+00 0. -1.
         -5    1    5    5    0  502  0.82108956360E+01 -0.39842895845E+02  0.51005285368E+02  0.65410276654E+02  0.47000000000E+01 0.  1.
         11    1    6    6    0    0 -0.63322169729E+02  0.72760375046E+02  0.15577665213E+03  0.18322154542E+03  0.00000000000E+00 0. -1.
        -12    1    6    6    0    0 -0.40866859788E+02  0.27035518801E+02  0.77607123894E+01  0.49610968168E+02  0.00000000000E+00 0.  1.
</event>
<event>
12    1  0.9962621E-001  0.2536630E+03  0.7818608E-02  0.1111031E+00
         21   -1    0    0  503  502  0.00000000000E+00  0.00000000000E+00  0.94284132272E+02  0.94284132272E+02  0.00000000000E+00 0. -1.
         21   -1    0    0  501  503 -0.00000000000E+00 -0.00000000000E+00 -0.68232906976E+03  0.68232906976E+03  0.00000000000E+00 0. -1.
          6    2    1    2  501    0  0.16312048764E+03  0.88291045120E+02 -0.28727425629E+03  0.38323805694E+03  0.17303556809E+03 0.  0.
         24    2    3    3    0    0  0.81924517350E+02  0.12029248329E+03 -0.19874039678E+03  0.25883061377E+03  0.79458374217E+02 0.  0.
         -6    2    1    2    0  502 -0.16312048764E+03 -0.88291045120E+02 -0.30077068120E+03  0.39337514509E+03  0.17285080264E+03 0.  0.
        -24    2    5    5    0    0 -0.18632710111E+03 -0.51163898938E+02 -0.23598233335E+03  0.31503874290E+03  0.78906366719E+02 0.  0.
          5    1    3    3  501    0  0.81195970290E+02 -0.32001438168E+02 -0.88533859507E+02  0.12440744317E+03  0.47000000000E+01 0. -1.
        -11    1    4    4    0    0  0.27148963730E+02  0.27953257915E+02 -0.77478741449E+01  0.39730094556E+02  0.00000000000E+00 0.  1.
         12    1    4    4    0    0  0.54775553620E+02  0.92339225373E+02 -0.19099252264E+03  0.21910051922E+03  0.00000000000E+00 0. -1.
         -5    1    5    5    0  502  0.23206613471E+02 -0.37127146182E+02 -0.64788347849E+02  0.78336402198E+02  0.47000000000E+01 0.  1.
         11    1    6    6    0    0 -0.34672445587E+02 -0.23770439950E+02 -0.13034891856E+02  0.44012733432E+02  0.00000000000E+00 0. -1.
        -12    1    6    6    0    0 -0.15165465552E+03 -0.27393458988E+02 -0.22294744149E+03  0.27102600946E+03  0.00000000000E+00 0.  1.
</event>
<event>
12    1  0.9962621E-001  0.1951354E+03  0.7818608E-02  0.1155210E+00
         21   -1    0    0  503  502  0.00000000000E+00  0.00000000000E+00  0.19141865659E+04  0.19141865659E+04  0.00000000000E+00 0. -1.
         21   -1    0    0  501  503 -0.00000000000E+00 -0.00000000000E+00 -0.21385378168E+02  0.21385378168E+02  0.00000000000E+00 0. -1.
          6    2    1    2  501    0 -0.53407522219E+02  0.56889341169E+02  0.12356786983E+04  0.12500883305E+04  0.17242455735E+03 0.  0.
         24    2    3    3    0    0 -0.66481895877E+02  0.59229565840E+02  0.12283840418E+04  0.12342227100E+04  0.80314133144E+02 0.  0.
         -6    2    1    2    0  502  0.53407522219E+02 -0.56889341169E+02  0.65712248938E+03  0.68548361355E+03  0.17885485128E+03 0.  0.
        -24    2    5    5    0    0  0.13751291563E+02  0.32774566766E+01  0.55342276095E+03  0.55911754267E+03  0.78331567328E+02 0.  0.
          5    1    3    3  501    0  0.13074373658E+02 -0.23402246712E+01  0.72946565715E+01  0.15865620459E+02  0.47000000000E+01 0. -1.
        -13    1    4    4    0    0  0.10980780624E+02  0.35581515032E+02  0.29736392297E+03  0.29968637680E+03  0.00000000000E+00 0.  1.
         14    1    4    4    0    0 -0.77462676502E+02  0.23648050808E+02  0.93102011879E+03  0.93453633324E+03  0.00000000000E+00 0. -1.
         -5    1    5    5    0  502  0.39656230657E+02 -0.60166797845E+02  0.10369972843E+03  0.12636607088E+03  0.47000000000E+01 0.  1.
         11    1    6    6    0    0  0.20731487664E+02  0.29785567939E+02  0.46798810039E+03  0.46939305144E+03  0.00000000000E+00 0. -1.
        -12    1    6    6    0    0 -0.69801961015E+01 -0.26508111263E+02  0.85434660567E+02  0.89724491231E+02  0.00000000000E+00 0.  1.
</event>
<event>
12    1  0.9962621E-001  0.2712656E+03  0.7818608E-02  0.1100634E+00
         21   -1    0    0  501  502  0.00000000000E+00  0.00000000000E+00  0.60318503548E+03  0.60318503548E+03  0.00000000000E+00 0. -1.
         21   -1    0    0  502  503 -0.00000000000E+00 -0.00000000000E+00 -0.16136199496E+03  0.16136199496E+03  0.00000000000E+00 0. -1.
         -6    2    1    2    0  503 -0.12461988843E+03  0.16804765576E+03  0.31677362363E+02  0.27310889673E+03  0.17266986706E+03 0.  0.
        -24    2    3    3    0    0 -0.18321272307E+02  0.12817370830E+03 -0.85365115481E+01  0.15257436587E+03  0.80261426428E+02 0.  0.
          6    2    1    2  501    0  0.12461988843E+03 -0.16804765576E+03  0.41014567815E+03  0.49143813372E+03  0.17181918043E+03 0.  0.
         24    2    5    5    0    0  0.64618939553E+01 -0.11506974060E+03  0.18645239256E+03  0.23292556696E+03  0.78784667143E+02 0.  0.
          5    1    5    5  501    0  0.11815799447E+03 -0.52977915164E+02  0.22369328559E+03  0.25851256676E+03  0.47000000000E+01 0. -1.
        -11    1    6    6    0    0  0.35366604543E+02 -0.47589807169E+02  0.48280073641E+02  0.76462748931E+02  0.00000000000E+00 0.  1.
         12    1    6    6    0    0 -0.28904710588E+02 -0.67479933426E+02  0.13817231892E+03  0.15646281803E+03  0.00000000000E+00 0. -1.
         -5    1    3    3    0  503 -0.10629861612E+03  0.39873947455E+02  0.40213873912E+02  0.12053453086E+03  0.47000000000E+01 0.  1.
         11    1    4    4    0    0 -0.31034172295E+02  0.90183475351E+01  0.12637741428E+01  0.32342658632E+02  0.00000000000E+00 0. -1.
        -12    1    4    4    0    0  0.12712899988E+02  0.11915536077E+03 -0.98002856909E+01  0.12023170724E+03  0.00000000000E+00 0.  1.
</event>
<event>
12    1  0.9962621E-001  0.3056289E+03  0.7818608E-02  0.1082566E+00
         21   -1    0    0  501  502  0.00000000000E+00  0.00000000000E+00  0.86693198326E+02  0.86693198326E+02  0.00000000000E+00 0.  1.
         21   -1    0    0  502  503 -0.00000000000E+00 -0.00000000000E+00 -0.11153616852E+04  0.11153616852E+04  0.00000000000E+00 0. -1.
         -6    2    1    2    0  503  0.30778438495E+02  0.25019585553E+03 -0.62880417379E+03  0.69876522666E+03  0.17126842851E+03 0.  0.
        -24    2    3    3    0    0  0.51390583973E+01  0.44729050000E+02 -0.17008611514E+03  0.19545783220E+03  0.85131543907E+02 0.  0.
          6    2    1    2  501    0 -0.30778438495E+02 -0.25019585553E+03 -0.39986431305E+03  0.50328965684E+03  0.17281125956E+03 0.  0.
         24    2    5    5    0    0  0.46540204172E+02 -0.12195901912E+03 -0.23718418899E+03  0.28213411999E+03  0.79393508590E+02 0.  0.
          5    1    5    5  501    0 -0.77318642668E+02 -0.12823683640E+03 -0.16268012406E+03  0.22115553685E+03  0.47000000000E+01 0. -1.
        -11    1    6    6    0    0  0.14032508729E+02 -0.11934727909E+03 -0.18732072217E+03  0.22255277415E+03  0.00000000000E+00 0.  1.
         12    1    6    6    0    0  0.32507695443E+02 -0.26117400347E+01 -0.49863466822E+02  0.59581345844E+02  0.00000000000E+00 0. -1.
         -5    1    3    3    0  503  0.25639380098E+02  0.20546680553E+03 -0.45871805865E+03  0.50330739446E+03  0.47000000000E+01 0.  1.
         11    1    4    4    0    0 -0.24987008077E+02  0.57821123515E+02 -0.10240025199E+03  0.12022247920E+03  0.00000000000E+00 0. -1.
        -12    1    4    4    0    0  0.30126066474E+02 -0.13092073514E+02 -0.67685863148E+02  0.75235352994E+02  0.00000000000E+00 0.  1.
</event>
<event>
12    1  0.9962621E-001  0.4285240E+03  0.7818608E-02  0.1034333E+00
         21   -1    0    0  501  502  0.00000000000E+00  0.00000000000E+00  0.41536175347E+03  0.41536175347E+03  0.00000000000E+00 0. -1.
         21   -1    0    0  502  503 -0.00000000000E+00 -0.00000000000E+00 -0.44981538189E+03  0.44981538189E+03  0.00000000000E+00 0. -1.
         -6    2    1    2    0  503  0.28760407821E+03 -0.26713992429E+03  0.39677406777E+02  0.43028834845E+03  0.17173794354E+03 0.  0.
        -24    2    3    3    0    0  0.11544416314E+03 -0.97305507319E+02  0.55837960726E+02  0.18787131306E+03  0.96860909835E+02 0.  0.
          6    2    1    2  501    0 -0.28760407821E+03  0.26713992429E+03 -0.74131035203E+02  0.43488878691E+03  0.17190986490E+03 0.  0.
         24    2    5    5    0    0 -0.12019076196E+03  0.50190938633E+02 -0.89382150122E+01  0.15316858061E+03  0.80098519445E+02 0.  0.
          5    1    5    5  501    0 -0.16741331625E+03  0.21694898566E+03 -0.65192820191E+02  0.28172020630E+03  0.47000000000E+01 0. -1.
        -13    1    6    6    0    0 -0.29478955313E+02  0.49802722913E+02  0.14120644976E+02  0.59571072094E+02  0.00000000000E+00 0.  1.
         14    1    6    6    0    0 -0.90711806645E+02  0.38821571958E+00 -0.23058859988E+02  0.93597508515E+02  0.00000000000E+00 0. -1.
         -5    1    3    3    0  503  0.17215991506E+03 -0.16983441697E+03 -0.16160553948E+02  0.24241703539E+03  0.47000000000E+01 0.  1.
         11    1    4    4    0    0 -0.13895512646E+01 -0.36096218539E+02 -0.13861488552E+02  0.38691196808E+02  0.00000000000E+00 0. -1.
        -12    1    4    4    0    0  0.11683371441E+03 -0.61209288780E+02  0.69699449277E+02  0.14918011625E+03  0.00000000000E+00 0.  1.
</event>
<event>
12    1  0.9962621E-001  0.2180485E+03  0.7818608E-02  0.1136134E+00
         21   -1    0    0  503  502  0.00000000000E+00  0.00000000000E+00  0.12828540852E+04  0.12828540852E+04  0.00000000000E+00 0. -1.
         21   -1    0    0  501  503 -0.00000000000E+00 -0.00000000000E+00 -0.41230003686E+02  0.41230003686E+02  0.00000000000E+00 0.  1.
          6    2    1    2  501    0  0.12424357617E+03  0.27615293220E+02  0.39859541264E+03  0.45433849376E+03  0.17704827956E+03 0.  0.
         24    2    3    3    0    0  0.12237114822E+03  0.27505395503E+02  0.41306557217E+03  0.43900899342E+03  0.79840370053E+02 0.  0.
         -6    2    1    2    0  502 -0.12424357617E+03 -0.27615293220E+02  0.84302866890E+03  0.86974559516E+03  0.17193310636E+03 0.  0.
        -24    2    5    5    0    0 -0.13662206810E+03 -0.36516622522E+02  0.83706847513E+03  0.85271401756E+03  0.80240329390E+02 0.  0.
          5    1    3    3  501    0  0.18724279459E+01  0.10989771637E+00 -0.14470159529E+02  0.15329500341E+02  0.47000000000E+01 0. -1.
        -13    1    4    4    0    0 -0.72734502024E+01 -0.92639643429E+01  0.59036768205E+02  0.60200200276E+02  0.00000000000E+00 0.  1.
         14    1    4    4    0    0  0.12964459843E+03  0.36769359846E+02  0.35402880397E+03  0.37880879315E+03  0.00000000000E+00 0. -1.
         -5    1    5    5    0  502  0.12378491929E+02  0.89013293020E+01  0.59601937681E+01  0.17031577600E+02  0.47000000000E+01 0.  1.
         13    1    6    6    0    0 -0.70412899579E+01  0.17520182832E+02  0.55194589218E+02  0.58335060210E+02  0.00000000000E+00 0. -1.
        -14    1    6    6    0    0 -0.12958077814E+03 -0.54036805354E+02  0.78187388592E+03  0.79437895735E+03  0.00000000000E+00 0.  1.
</event>
<event>
12    1  0.9962621E-001  0.1949924E+03  0.7818608E-02  0.1154077E+00
         21   -1    0    0  501  502  0.00000000000E+00  0.00000000000E+00  0.15686882313E+02  0.15686882313E+02  0.00000000000E+00 0. -1.
         21   -1    0    0  502  503 -0.00000000000E+00 -0.00000000000E+00 -0.24722677760E+04  0.24722677760E+04  0.00000000000E+00 0. -1.
         -6    2    1    2    0  503 -0.48127535180E+01 -0.91418932260E+02 -0.10504315755E+04  0.10683765933E+04  0.17216697259E+03 0.  0.
        -24    2    3    3    0    0 -0.64541337544E+01  0.96794850121E+01 -0.67351716293E+03  0.67810726510E+03  0.77902156222E+02 0.  0.
          6    2    1    2  501    0  0.48127535180E+01  0.91418932260E+02 -0.14061493182E+04  0.14195780650E+04  0.17194590418E+03 0.  0.
         24    2    5    5    0    0  0.64736436717E+02  0.63031811518E+02 -0.10858151804E+04  0.10924195007E+04  0.78879299567E+02 0.  0.
          5    1    5    5  501    0 -0.59923683198E+02  0.28387120742E+02 -0.32033413771E+03  0.32715856433E+03  0.47000000000E+01 0. -1.
        -11    1    6    6    0    0  0.23351814338E+02  0.52384570247E+01 -0.67330287773E+02  0.71457094235E+02  0.00000000000E+00 0.  1.
         12    1    6    6    0    0  0.41384622378E+02  0.57793354493E+02 -0.10184848927E+04  0.10209624065E+04  0.00000000000E+00 0. -1.
         -5    1    3    3    0  503  0.16413802364E+01 -0.10109841727E+03 -0.37691441261E+03  0.39026932820E+03  0.47000000000E+01 0.  1.
         13    1    4    4    0    0 -0.22118888356E+02 -0.28699738177E+02 -0.37055360874E+03  0.37232095985E+03  0.00000000000E+00 0. -1.
        -14    1    4    4    0    0  0.15664754602E+02  0.38379223189E+02 -0.30296355419E+03  0.30578630524E+03  0.00000000000E+00 0.  1.
</event>
<event>
12    1  0.9962621E-001  0.2001417E+03  0.7818608E-02  0.1150960E+00
         21   -1    0    0  503  502  0.00000000000E+00  0.00000000000E+00  0.43211922552E+03  0.43211922552E+03  0.00000000000E+00 0.  1.
         21   -1    0    0  501  503 -0.00000000000E+00 -0.00000000000E+00 -0.98107159256E+02  0.98107159256E+02  0.00000000000E+00 0.  1.
          6    2    1    2  501    0 -0.85497694016E+02 -0.26965577599E+02  0.92410411404E+02  0.22044587008E+03  0.17894049134E+03 0.  0.
         24    2    3    3    0    0 -0.11785889134E+03 -0.51366378830E+02  0.46290121779E+02  0.15886813621E+03  0.81037560357E+02 0.  0.
         -6    2    1    2    0  502  0.85497694016E+02  0.26965577599E+02  0.24160165486E+03  0.30978051470E+03  0.17191744996E+03 0.  0.
        -24    2    5    5    0    0  0.19203237476E+02 -0.51454415957E+01  0.21679922587E+03  0.23191317234E+03  0.79916051398E+02 0.  0.
          5    1    3    3  501    0  0.32361197320E+02  0.24400801231E+02  0.46120289625E+02  0.61577733863E+02  0.47000000000E+01 0. -1.
        -13    1    4    4    0    0 -0.66166348884E+02  0.14961775545E+02  0.22599761976E+02  0.71502375440E+02  0.00000000000E+00 0.  1.
         14    1    4    4    0    0 -0.51692542451E+02 -0.66328154375E+02  0.23690359802E+02  0.87365760773E+02  0.00000000000E+00 0. -1.
         -5    1    5    5    0  502  0.66294456539E+02  0.32111019195E+02  0.24802428991E+02  0.77867342355E+02  0.47000000000E+01 0.  1.
         13    1    6    6    0    0 -0.65838344267E+01 -0.22073986017E+02  0.14375576165E+02  0.27152622793E+02  0.00000000000E+00 0. -1.
        -14    1    6    6    0    0  0.25787071903E+02  0.16928544422E+02  0.20242364970E+03  0.20476054955E+03  0.00000000000E+00 0.  1.
</event>
<event>
12    1  0.9962621E-001  0.2749979E+03  0.7818608E-02  0.1098559E+00
         21   -1    0    0  501  502  0.00000000000E+00  0.00000000000E+00  0.13858632524E+03  0.13858632524E+03  0.00000000000E+00 0. -1.
         21   -1    0    0  502  503 -0.00000000000E+00 -0.00000000000E+00 -0.63428991621E+03  0.63428991621E+03  0.00000000000E+00 0. -1.
         -6    2    1    2    0  503 -0.70254061060E+02  0.20448917624E+03 -0.10248532300E+03  0.29347420236E+03  0.16991883275E+03 0.  0.
        -24    2    3    3    0    0 -0.31221483345E+02  0.17629712440E+03 -0.19269559089E+02  0.19721784011E+03  0.80424520236E+02 0.  0.
          6    2    1    2  501    0  0.70254061060E+02 -0.20448917624E+03 -0.39321826797E+03  0.47940203910E+03  0.16868388345E+03 0.  0.
         24    2    5    5    0    0 -0.21748001641E+02 -0.10563977362E+03 -0.15383742923E+03  0.20451868221E+03  0.80803461532E+02 0.  0.
          5    1    5    5  501    0  0.92002062701E+02 -0.98849402614E+02 -0.23938083874E+03  0.27488335689E+03  0.47000000000E+01 0. -1.
        -13    1    6    6    0    0 -0.18184120008E+02 -0.11447567167E+03 -0.15638380747E+03  0.19465671544E+03  0.00000000000E+00 0.  1.
         14    1    6    6    0    0 -0.35638816331E+01  0.88358980445E+01  0.25463782444E+01  0.98619667770E+01  0.00000000000E+00 0. -1.
         -5    1    3    3    0  503 -0.39032577715E+02  0.28192051834E+02 -0.83215763909E+02  0.96256362245E+02  0.47000000000E+01 0.  1.
         11    1    4    4    0    0  0.61082671801E+00  0.59552691334E+01  0.18855375965E+02  0.19782910365E+02  0.00000000000E+00 0. -1.
        -12    1    4    4    0    0 -0.31832310063E+02  0.17034185527E+03 -0.38124935055E+02  0.17743492975E+03  0.00000000000E+00 0.  1.
</event>
<event>
12    1  0.9962621E-001  0.2824430E+03  0.7818608E-02  0.1094518E+00
         21   -1    0    0  503  502  0.00000000000E+00  0.00000000000E+00  0.12094674814E+04  0.12094674814E+04  0.00000000000E+00 0. -1.
         21   -1    0    0  501  503 -0.00000000000E+00 -0.00000000000E+00 -0.69978692235E+02  0.69978692235E+02  0.00000000000E+00 0. -1.
          6    2    1    2  501    0  0.16430771314E+03  0.15125227703E+03  0.72921948473E+03  0.78200710036E+03  0.17291550597E+03 0.  0.
         24    2    3    3    0    0  0.46284415245E+02  0.16324328769E+02  0.16564913011E+03  0.19059465150E+03  0.80485750722E+02 0.  0.
         -6    2    1    2    0  502 -0.16430771314E+03 -0.15125227703E+03  0.41026930440E+03  0.49743907324E+03  0.17102763972E+03 0.  0.
        -24    2    5    5    0    0 -0.58469945690E+02 -0.44183974455E+01  0.15392900699E+03  0.18360112255E+03  0.81098558719E+02 0.  0.
          5    1    3    3  501    0  0.11802329789E+03  0.13492794826E+03  0.56357035461E+03  0.59141244886E+03  0.47000000000E+01 0. -1.
        -13    1    4    4    0    0  0.49927239422E+02  0.43717587558E+02  0.11015095740E+03  0.12859700663E+03  0.00000000000E+00 0.  1.
         14    1    4    4    0    0 -0.36428241771E+01 -0.27393258788E+02  0.55498172715E+02  0.61997644872E+02  0.00000000000E+00 0. -1.
         -5    1    5    5    0  502 -0.10583776745E+03 -0.14683387958E+03  0.25634029741E+03  0.31383795068E+03  0.47000000000E+01 0.  1.
         11    1    6    6    0    0  0.99818918108E+01 -0.23129599906E+02  0.20514193733E+02  0.32487669976E+02  0.00000000000E+00 0. -1.
        -12    1    6    6    0    0 -0.68451837501E+02  0.18711202460E+02  0.13341481325E+03  0.15111345258E+03  0.00000000000E+00 0.  1.
</event>
<event>
12    1  0.9962621E-001  0.1873393E+03  0.7818608E-02  0.1164038E+00
         21   -1    0    0  501  502  0.00000000000E+00  0.00000000000E+00  0.31510406282E+02  0.31510406282E+02  0.00000000000E+00 0. -1.
         21   -1    0    0  502  503 -0.00000000000E+00 -0.00000000000E+00 -0.12204025089E+04  0.12204025089E+04  0.00000000000E+00 0. -1.
         -6    2    1    2    0  503 -0.25242990941E+02 -0.90266637437E+01 -0.37013799121E+03  0.41484711465E+03  0.18541118289E+03 0.  0.
        -24    2    3    3    0    0  0.43157445991E+02  0.36340449366E+02 -0.25662406163E+03  0.27468900060E+03  0.80093349518E+02 0.  0.
          6    2    1    2  501    0  0.25242990941E+02  0.90266637437E+01 -0.81875411144E+03  0.83706580057E+03  0.17205281235E+03 0.  0.
         24    2    5    5    0    0  0.65933649310E+02  0.38394874283E+02 -0.38555880132E+03  0.40094828409E+03  0.79262379220E+02 0.  0.
          5    1    5    5  501    0 -0.40690658369E+02 -0.29368210539E+02 -0.43319531012E+03  0.43611751648E+03  0.47000000000E+01 0. -1.
        -13    1    6    6    0    0  0.48380275662E+01  0.31419707476E+02 -0.25099069672E+03  0.25299591769E+03  0.00000000000E+00 0.  1.
         14    1    6    6    0    0  0.61095621744E+02  0.69751668072E+01 -0.13456810460E+03  0.14795236640E+03  0.00000000000E+00 0. -1.
         -5    1    3    3    0  503 -0.68400436931E+02 -0.45367113109E+02 -0.11351392958E+03  0.14015811405E+03  0.47000000000E+01 0.  1.
         11    1    4    4    0    0 -0.49914747458E+01 -0.21619695964E+02 -0.48180196721E+02  0.53043919819E+02  0.00000000000E+00 0. -1.
        -12    1    4    4    0    0  0.48148920736E+02  0.57960145330E+02 -0.20844386491E+03  0.22164508078E+03  0.00000000000E+00 0.  1.
</event>
<event>
12    1  0.9962621E-001  0.1782643E+03  0.7818608E-02  0.1170123E+00
         21   -1    0    0  501  502  0.00000000000E+00  0.00000000000E+00  0.15733868554E+03  0.15733868554E+03  0.00000000000E+00 0. -1.
         21   -1    0    0  502  503 -0.00000000000E+00 -0.00000000000E+00 -0.22457057280E+03  0.22457057280E+03  0.00000000000E+00 0. -1.
         -6    2    1    2    0  503 -0.33171424649E+02 -0.34042656413E+02 -0.98142167087E+02  0.20349458752E+03  0.17181069909E+03 0.  0.
        -24    2    3    3    0    0 -0.63313148042E+02  0.18143722147E+02 -0.47267325380E+02  0.12448647962E+03  0.94471869837E+02 0.  0.
          6    2    1    2  501    0  0.33171424649E+02  0.34042656413E+02  0.30910279832E+02  0.17841467082E+03  0.16916590524E+03 0.  0.
         24    2    5    5    0    0 -0.24478464102E+02 -0.30121084527E+01 -0.36143720929E+02  0.82420429897E+02  0.69846193165E+02 0.  0.
          5    1    5    5  501    0  0.57649888750E+02  0.37054764866E+02  0.67054000761E+02  0.95994240922E+02  0.47000000000E+01 0. -1.
        -13    1    6    6    0    0 -0.32160200988E+02  0.12033681675E+02  0.79113497503E+01  0.35237444248E+02  0.00000000000E+00 0.  1.
         14    1    6    6    0    0  0.76817368862E+01 -0.15045790128E+02 -0.44055070680E+02  0.47182985649E+02  0.00000000000E+00 0. -1.
         -5    1    3    3    0  503  0.30141723393E+02 -0.52186378560E+02 -0.50874841708E+02  0.79008107907E+02  0.47000000000E+01 0.  1.
         11    1    4    4    0    0 -0.29087813759E+02 -0.37128357308E+02 -0.61517871952E+01  0.47565326776E+02  0.00000000000E+00 0. -1.
        -12    1    4    4    0    0 -0.34225334283E+02  0.55272079455E+02 -0.41115538185E+02  0.76921152840E+02  0.00000000000E+00 0.  1.
</event>
<event>
12    1  0.9962621E-001  0.1867676E+03  0.7818608E-02  0.1162195E+00
         21   -1    0    0  501  502  0.00000000000E+00  0.00000000000E+00  0.68305245842E+03  0.68305245842E+03  0.00000000000E+00 0.  1.
         21   -1    0    0  502  503 -0.00000000000E+00 -0.00000000000E+00 -0.90079652898E+02  0.90079652898E+02  0.00000000000E+00 0.  1.
         -6    2    1    2    0  503 -0.10331374284E+02  0.66008467186E+02  0.55234746235E+03  0.58199717553E+03  0.17078974828E+03 0.  0.
        -24    2    3    3    0    0 -0.49177392833E+02 -0.62168479059E+01  0.37574432062E+03  0.38722482388E+03  0.79386425695E+02 0.  0.
          6    2    1    2  501    0  0.10331374284E+02 -0.66008467186E+02  0.40625343165E+02  0.19113493579E+03  0.17440840042E+03 0.  0.
         24    2    5    5    0    0  0.55665833256E+02  0.57968893161E+00 -0.35689027833E+01  0.99132669074E+02  0.81948325055E+02 0.  0.
          5    1    5    5  501    0 -0.45334458972E+02 -0.66588156117E+02  0.44194245948E+02  0.92002266713E+02  0.47000000000E+01 0. -1.
        -13    1    6    6    0    0  0.62718395572E+02 -0.81230479808E+01  0.25339563270E+02  0.68129835743E+02  0.00000000000E+00 0.  1.
         14    1    6    6    0    0 -0.70525623163E+01  0.87027369124E+01 -0.28908466053E+02  0.31002833331E+02  0.00000000000E+00 0. -1.
         -5    1    3    3    0  503  0.38846018549E+02  0.72225315091E+02  0.17660314173E+03  0.19477235165E+03  0.47000000000E+01 0.  1.
         13    1    4    4    0    0 -0.23480375968E+02  0.33601357378E+02  0.11220556353E+03  0.11945906311E+03  0.00000000000E+00 0. -1.
        -14    1    4    4    0    0 -0.25697016865E+02 -0.39818205284E+02  0.26353875710E+03  0.26776576077E+03  0.00000000000E+00 0.  1.
</event>
<event>
12    1  0.9962621E-001  0.2840151E+03  0.7818608E-02  0.1093526E+00
         21   -1    0    0  503  502  0.00000000000E+00  0.00000000000E+00  0.18972934657E+03  0.18972934657E+03  0.00000000000E+00 0.  1.
         21   -1    0    0  501  503 -0.00000000000E+00 -0.00000000000E+00 -0.46643589711E+03  0.46643589711E+03  0.00000000000E+00 0.  1.
          6    2    1    2  501    0 -0.37106158152E+00  0.22571733394E+03 -0.40597757221E+02  0.28682534682E+03  0.17225605695E+03 0.  0.
         24    2    3    3    0    0 -0.25443565211E+02  0.12807100121E+03  0.42155958768E+02  0.15631211284E+03  0.74878537633E+02 0.  0.
         -6    2    1    2    0  502  0.37106158152E+00 -0.22571733394E+03 -0.23610879332E+03  0.36933989686E+03  0.17238371327E+03 0.  0.
        -24    2    5    5    0    0  0.32519275987E+02 -0.23751114214E+03 -0.21234239919E+03  0.32739310805E+03  0.68028720099E+02 0.  0.
          5    1    3    3  501    0  0.25072503629E+02  0.97646332730E+02 -0.82753715989E+02  0.13051323398E+03  0.47000000000E+01 0. -1.
        -13    1    4    4    0    0 -0.14041936078E+02  0.50496738465E+01 -0.14125998658E+02  0.20547968582E+02  0.00000000000E+00 0.  1.
         14    1    4    4    0    0 -0.11401629132E+02  0.12302132737E+03  0.56281957426E+02  0.13576414426E+03  0.00000000000E+00 0. -1.
         -5    1    5    5    0  502 -0.32148214405E+02  0.11793808194E+02 -0.23766394131E+02  0.41946788806E+02  0.47000000000E+01 0.  1.
         11    1    6    6    0    0 -0.75145959987E+01 -0.84388997625E+02 -0.11028909970E+03  0.13907428801E+03  0.00000000000E+00 0. -1.
        -12    1    6    6    0    0  0.40033871985E+02 -0.15312214451E+03 -0.10205329949E+03  0.18831882004E+03  0.00000000000E+00 0.  1.
</event>
<event>
12    1  0.9962621E-001  0.3292371E+03  0.7818608E-02  0.1071530E+00
         21   -1    0    0  503  502  0.00000000000E+00  0.00000000000E+00  0.18480155756E+03  0.18480155756E+03  0.00000000000E+00 0.  1.
         21   -1    0    0  501  503 -0.00000000000E+00 -0.00000000000E+00 -0.62400293529E+03  0.62400293529E+03  0.00000000000E+00 0.  1.
          6    2    1    2  501    0  0.99449403159E+01  0.27873154151E+03 -0.11952345575E+03  0.35026126200E+03  0.17494833841E+03 0.  0.
         24    2    3    3    0    0  0.34795545561E+02  0.16878259464E+03 -0.13883868472E+03  0.23579951481E+03  0.81405998335E+02 0.  0.
         -6    2    1    2    0  502 -0.99449403159E+01 -0.27873154151E+03 -0.31967792197E+03  0.45854323085E+03  0.17400501916E+03 0.  0.
        -24    2    5    5    0    0 -0.24763088790E+02 -0.27356900483E+03 -0.33186593552E+03  0.43812591018E+03  0.79787862717E+02 0.  0.
          5    1    3    3  501    0 -0.24850605245E+02  0.10994894687E+03  0.19315228972E+02  0.11446174719E+03  0.47000000000E+01 0. -1.
        -13    1    4    4    0    0  0.35789071801E+02  0.21870907607E+02 -0.44777035660E+02  0.61352890579E+02  0.00000000000E+00 0.  1.
         14    1    4    4    0    0 -0.99352624025E+00  0.14691168703E+03 -0.94061649065E+02  0.17444662423E+03  0.00000000000E+00 0. -1.
         -5    1    5    5    0  502  0.14818148474E+02 -0.51625366799E+01  0.12188013552E+02  0.20417320674E+02  0.47000000000E+01 0.  1.
         11    1    6    6    0    0 -0.32513348900E+02 -0.16769249364E+03 -0.14895305139E+03  0.22663826199E+03  0.00000000000E+00 0. -1.
        -12    1    6    6    0    0  0.77502601100E+01 -0.10587651119E+03 -0.18291288413E+03  0.21148764819E+03  0.00000000000E+00 0.  1.
</event>
<event>
12    1  0.9962621E-001  0.1757932E+03  0.7818608E-02  0.1172009E+00
         21   -1    0    0  501  502  0.00000000000E+00  0.00000000000E+00  0.13164232923E+03  0.13164232923E+03  0.00000000000E+00 0. -1.
         21   -1    0    0  502  503 -0.00000000000E+00 -0.00000000000E+00 -0.23530330575E+03  0.23530330575E+03  0.00000000000E+00 0. -1.
         -6    2    1    2    0  503  0.30518985749E+02  0.15079613109E+02 -0.40328554930E+02  0.18035975015E+03  0.17246577605E+03 0.  0.
        -24    2    3    3    0    0  0.42752147952E+02  0.55438557976E+02 -0.68856416028E+02  0.12922831611E+03  0.84009355376E+02 0.  0.
          6    2    1    2  501    0 -0.30518985749E+02 -0.15079613109E+02 -0.63332421591E+02  0.18658588484E+03  0.17217576361E+03 0.  0.
         24    2    5    5    0    0 -0.62236337723E+02 -0.50525988626E+02 -0.78621493697E+02  0.13640340105E+03  0.77448765562E+02 0.  0.
          5    1    5    5  501    0  0.31717351974E+02  0.35446375517E+02  0.15289072107E+02  0.50182483791E+02  0.47000000000E+01 0. -1.
        -13    1    6    6    0    0  0.14446526630E+01 -0.27529248590E+02 -0.60237526590E+02  0.66245801067E+02  0.00000000000E+00 0.  1.
         14    1    6    6    0    0 -0.63680990386E+02 -0.22996740037E+02 -0.18383967107E+02  0.70157599984E+02  0.00000000000E+00 0. -1.
         -5    1    3    3    0  503 -0.12233162203E+02 -0.40358944867E+02  0.28527861098E+02  0.51131434040E+02  0.47000000000E+01 0.  1.
         11    1    4    4    0    0 -0.16022683487E+02  0.45304256306E+02 -0.19683695598E+02  0.51929277849E+02  0.00000000000E+00 0. -1.
        -12    1    4    4    0    0  0.58774831440E+02  0.10134301670E+02 -0.49172720430E+02  0.77299038258E+02  0.00000000000E+00 0.  1.
</event>
<event>
12    1  0.9962621E-001  0.2899935E+03  0.7818608E-02  0.1090645E+00
         21   -1    0    0  501  502  0.00000000000E+00  0.00000000000E+00  0.30964638195E+03  0.30964638195E+03  0.00000000000E+00 0.  1.
         21   -1    0    0  502  503 -0.00000000000E+00 -0.00000000000E+00 -0.27097664826E+03  0.27097664826E+03  0.00000000000E+00 0.  1.
         -6    2    1    2    0  503  0.11367485707E+01  0.23357575709E+03 -0.21362999816E+01  0.28777265812E+03  0.16807621035E+03 0.  0.
        -24    2    3    3    0    0 -0.44845741678E+02  0.22065652934E+03 -0.93805764077E+01  0.23923540031E+03  0.80281610958E+02 0.  0.
          6    2    1    2  501    0 -0.11367485707E+01 -0.23357575709E+03  0.40806033670E+02  0.29285037209E+03  0.17186413691E+03 0.  0.
         24    2    5    5    0    0  0.28665785143E+02 -0.54267517242E+02 -0.15577047520E+02  0.10248026484E+03  0.80578344522E+02 0.  0.
          5    1    5    5  501    0 -0.29802533714E+02 -0.17930823985E+03  0.56383081190E+02  0.19037010726E+03  0.47000000000E+01 0. -1.
        -11    1    6    6    0    0 -0.98577699321E+01  0.11269697535E+02  0.14389421787E+02  0.20766250743E+02  0.00000000000E+00 0.  1.
         12    1    6    6    0    0  0.38523555075E+02 -0.65537214777E+02 -0.29966469307E+02  0.81714014092E+02  0.00000000000E+00 0. -1.
         -5    1    3    3    0  503  0.45982490249E+02  0.12919227747E+02  0.72442764262E+01  0.48537257813E+02  0.47000000000E+01 0. -1.
         13    1    4    4    0    0  0.17718470978E+02  0.52627817672E+02  0.16844909328E+02  0.58029151097E+02  0.00000000000E+00 0. -1.
        -14    1    4    4    0    0 -0.62564212656E+02  0.16802871167E+03 -0.26225485735E+02  0.18120624921E+03  0.00000000000E+00 0.  1.
</event>
<event>
12    1  0.9962621E-001  0.2191957E+03  0.7818608E-02  0.1134904E+00
         21   -1    0    0  501  502  0.00000000000E+00  0.00000000000E+00  0.60888110926E+02  0.60888110926E+02  0.00000000000E+00 0. -1.
         21   -1    0    0  502  503 -0.00000000000E+00 -0.00000000000E+00 -0.89893473345E+03  0.89893473345E+03  0.00000000000E+00 0. -1.
         -6    2    1    2    0  503 -0.80160744629E+02 -0.11089427904E+03 -0.24712353996E+03  0.33032834666E+03  0.17124101874E+03 0.  0.
        -24    2    3    3    0    0 -0.73972451605E+02 -0.14595279033E+03 -0.18048222193E+03  0.25462795398E+03  0.74077134880E+02 0.  0.
          6    2    1    2  501    0  0.80160744629E+02  0.11089427904E+03 -0.59092308256E+03  0.62949449772E+03  0.16837442515E+03 0.  0.
         24    2    5    5    0    0  0.23700394246E+02  0.11341003935E+03 -0.28129987947E+03  0.31472042301E+03  0.80596381775E+02 0.  0.
          5    1    5    5  501    0  0.56460350383E+02 -0.25157603065E+01 -0.30962320309E+03  0.31477407471E+03  0.47000000000E+01 0. -1.
        -11    1    6    6    0    0  0.40047779454E+02  0.96939213848E+02 -0.26840886416E+03  0.28817417334E+03  0.00000000000E+00 0.  1.
         12    1    6    6    0    0 -0.16347385208E+02  0.16470825501E+02 -0.12891015318E+02  0.26546249674E+02  0.00000000000E+00 0. -1.
         -5    1    3    3    0  503 -0.61882930237E+01  0.35058511282E+02 -0.66641318028E+02  0.75700392683E+02  0.47000000000E+01 0.  1.
         11    1    4    4    0    0  0.53909540499E+01 -0.54396304978E+01 -0.39827958105E+02  0.40557591303E+02  0.00000000000E+00 0. -1.
        -12    1    4    4    0    0 -0.79363405655E+02 -0.14051315983E+03 -0.14065426383E+03  0.21407036267E+03  0.00000000000E+00 0.  1.
</event>
<event>
12    1  0.9962621E-001  0.1797631E+03  0.7818608E-02  0.1168213E+00
         21   -1    0    0  501  502  0.00000000000E+00  0.00000000000E+00  0.12953984677E+03  0.12953984677E+03  0.00000000000E+00 0.  1.
         21   -1    0    0  502  503 -0.00000000000E+00 -0.00000000000E+00 -0.25929320346E+03  0.25929320346E+03  0.00000000000E+00 0.  1.
         -6    2    1    2    0  503 -0.29721504554E+02  0.39764702016E+02 -0.10479840141E+03  0.20808046322E+03  0.17277203153E+03 0.  0.
        -24    2    3    3    0    0  0.33421253049E+02  0.52561420982E+02 -0.21810300406E+02  0.10291450503E+03  0.78968493787E+02 0.  0.
          6    2    1    2  501    0  0.29721504554E+02 -0.39764702016E+02 -0.24954955281E+02  0.18075258700E+03  0.17200043185E+03 0.  0.
         24    2    5    5    0    0  0.33159648384E+02  0.42560882596E+02 -0.17780507960E+02  0.97910053189E+02  0.79744849638E+02 0.  0.
          5    1    5    5  501    0 -0.34381438296E+01 -0.82325584612E+02 -0.71744473205E+01  0.82842533816E+02  0.47000000000E+01 0. -1.
        -13    1    6    6    0    0  0.22919329886E+02  0.72222024242E+01  0.29469283043E+02  0.38024919899E+02  0.00000000000E+00 0.  1.
         14    1    6    6    0    0  0.10240318498E+02  0.35338680172E+02 -0.47249791003E+02  0.59885133289E+02  0.00000000000E+00 0. -1.
         -5    1    3    3    0  503 -0.63142757603E+02 -0.12796718966E+02 -0.82988101004E+02  0.10516595819E+03  0.47000000000E+01 0.  1.
         11    1    4    4    0    0  0.25438456165E+02 -0.13008168676E+02  0.91007468285E+01  0.29985848282E+02  0.00000000000E+00 0. -1.
        -12    1    4    4    0    0  0.79827968834E+01  0.65569589659E+02 -0.30911047234E+02  0.72928656749E+02  0.00000000000E+00 0.  1.
</event>
<event>
12    1  0.9962621E-001  0.2508692E+03  0.7818608E-02  0.1112873E+00
         21   -1    0    0  503  502  0.00000000000E+00  0.00000000000E+00  0.23780056924E+03  0.23780056924E+03  0.00000000000E+00 0.  1.
         21   -1    0    0  501  503 -0.00000000000E+00 -0.00000000000E+00 -0.26545510918E+03  0.26545510918E+03  0.00000000000E+00 0.  1.
          6    2    1    2  501    0  0.37962259207E+02 -0.17789276907E+03 -0.33242242964E+02  0.25306205953E+03  0.17276686269E+03 0.  0.
         24    2    3    3    0    0  0.71861943904E+01 -0.10980518869E+03 -0.83963875424E+02  0.16263054529E+03  0.85381151501E+02 0.  0.
         -6    2    1    2    0  502 -0.37962259207E+02  0.17789276907E+03  0.55877030195E+01  0.25019361889E+03  0.17169348880E+03 0.  0.
        -24    2    5    5    0    0  0.33068434522E+02  0.77266503305E+02 -0.28777766771E+02  0.12223237348E+03  0.83958081036E+02 0.  0.
          5    1    3    3  501    0  0.30776064817E+02 -0.68087580379E+02  0.50721632460E+02  0.90431514235E+02  0.47000000000E+01 0. -1.
        -13    1    4    4    0    0 -0.19262966605E+02 -0.98437968021E+02 -0.35768422982E+02  0.10649166875E+03  0.00000000000E+00 0.  1.
         14    1    4    4    0    0  0.26449160995E+02 -0.11367220671E+02 -0.48195452442E+02  0.56138876541E+02  0.00000000000E+00 0. -1.
         -5    1    5    5    0  502 -0.71030693729E+02  0.10062626577E+03  0.34365469790E+02  0.12796124541E+03  0.47000000000E+01 0.  1.
         13    1    6    6    0    0 -0.11288632607E+02  0.58184501210E+01 -0.35659859975E+02  0.37853839982E+02  0.00000000000E+00 0. -1.
        -14    1    6    6    0    0  0.44357067129E+02  0.71448053184E+02  0.68820932049E+01  0.84378533496E+02  0.00000000000E+00 0.  1.
</event>
<event>
12    1  0.9962621E-001  0.1879711E+03  0.7818608E-02  0.1160334E+00
         21   -1    0    0  503  502  0.00000000000E+00  0.00000000000E+00  0.22589036218E+02  0.22589036218E+02  0.00000000000E+00 0.  1.
         21   -1    0    0  501  503 -0.00000000000E+00 -0.00000000000E+00 -0.15672603169E+04  0.15672603169E+04  0.00000000000E+00 0.  1.
          6    2    1    2  501    0  0.74873438725E+02 -0.16706185418E+02 -0.81310340629E+03  0.83451849460E+03  0.17146089951E+03 0.  0.
         24    2    3    3    0    0  0.53633626540E+02  0.53851444691E+02 -0.40360425403E+03  0.41841615804E+03  0.79994646396E+02 0.  0.
         -6    2    1    2    0  502 -0.74873438725E+02  0.16706185418E+02 -0.73156787436E+03  0.75533085848E+03  0.17160426137E+03 0.  0.
        -24    2    5    5    0    0  0.12813191632E+02  0.45728768436E+02 -0.43229836474E+03  0.44209678489E+03  0.79450568988E+02 0.  0.
          5    1    3    3  501    0  0.21239812184E+02 -0.70557630108E+02 -0.40949915226E+03  0.41610233656E+03  0.47000000000E+01 0. -1.
        -13    1    4    4    0    0 -0.10853669908E+02  0.18398071838E+02 -0.25723294541E+02  0.33436194159E+02  0.00000000000E+00 0.  1.
         14    1    4    4    0    0  0.64487296448E+02  0.35453372853E+02 -0.37788095949E+03  0.38497996388E+03  0.00000000000E+00 0. -1.
         -5    1    5    5    0  502 -0.87686630357E+02 -0.29022583019E+02 -0.29926950962E+03  0.31323407359E+03  0.47000000000E+01 0.  1.
         11    1    6    6    0    0  0.39988365197E+01 -0.22578120554E+02 -0.85216465793E+02  0.88247426384E+02  0.00000000000E+00 0. -1.
        -12    1    6    6    0    0  0.88143551124E+01  0.68306888990E+02 -0.34708189895E+03  0.35384935851E+03  0.00000000000E+00 0.  1.
</event>
<event>
12    1  0.9962621E-001  0.3711756E+03  0.7818608E-02  0.1054356E+00
         21   -1    0    0  501  502  0.00000000000E+00  0.00000000000E+00  0.36725487480E+03  0.36725487480E+03  0.00000000000E+00 0. -1.
         21   -1    0    0  502  503 -0.00000000000E+00 -0.00000000000E+00 -0.42356645324E+03  0.42356645324E+03  0.00000000000E+00 0. -1.
         -6    2    1    2    0  503  0.16191280325E+01 -0.32923316890E+03  0.10713452672E+03  0.38632771119E+03  0.17138900937E+03 0.  0.
        -24    2    3    3    0    0 -0.16469091334E+02 -0.23887470152E+03  0.10957797364E+02  0.25304646878E+03  0.81117741847E+02 0.  0.
          6    2    1    2  501    0 -0.16191280325E+01  0.32923316890E+03 -0.16344610516E+03  0.40449361685E+03  0.16882936859E+03 0.  0.
         24    2    5    5    0    0 -0.32186367466E+01  0.32587684903E+03 -0.18412492740E+03  0.38296393965E+03  0.80952515843E+02 0.  0.
          5    1    5    5  501    0  0.15995087142E+01  0.33563198710E+01  0.20678822242E+02  0.21529677205E+02  0.47000000000E+01 0. -1.
        -11    1    6    6    0    0 -0.39016540953E+02  0.12088443024E+03 -0.58087146744E+02  0.13967624193E+03  0.00000000000E+00 0.  1.
         12    1    6    6    0    0  0.35797904207E+02  0.20499241879E+03 -0.12603778066E+03  0.24328769772E+03  0.00000000000E+00 0. -1.
         -5    1    3    3    0  503  0.18088219366E+02 -0.90358467382E+02  0.96176729360E+02  0.13328124241E+03  0.47000000000E+01 0.  1.
         11    1    4    4    0    0 -0.26477505959E+02 -0.24099187451E+03  0.12156259440E+02  0.24274660975E+03  0.00000000000E+00 0. -1.
        -12    1    4    4    0    0  0.10008414625E+02  0.21171729846E+01 -0.11984620755E+01  0.10299859033E+02  0.00000000000E+00 0.  1.
</event>
<event>
12    1  0.9962621E-001  0.1937574E+03  0.7818608E-02  0.1155140E+00
         21   -1    0    0  501  502  0.00000000000E+00  0.00000000000E+00  0.14072398136E+03  0.14072398136E+03  0.00000000000E+00 0. -1.
         21   -1    0    0  502  503 -0.00000000000E+00 -0.00000000000E+00 -0.26943165739E+03  0.26943165739E+03  0.00000000000E+00 0. -1.
         -6    2    1    2    0  503 -0.90120531286E+02 -0.93758366421E+01 -0.85280117210E+02  0.21159109383E+03  0.17113876277E+03 0.  0.
        -24    2    3    3    0    0 -0.20026323937E+02 -0.42885308049E+01 -0.10945429548E+03  0.13712258048E+03  0.80018211254E+02 0.  0.
          6    2    1    2  501    0  0.90120531286E+02  0.93758366421E+01 -0.43427558824E+02  0.19856454493E+03  0.17126677776E+03 0.  0.
         24    2    5    5    0    0 -0.97658872031E+01 -0.80896329087E+01  0.13762977516E+02  0.82051941867E+02  0.79889216422E+02 0.  0.
          5    1    5    5  501    0  0.99886418489E+02  0.17465469551E+02 -0.57190536340E+02  0.11651260306E+03  0.47000000000E+01 0. -1.
        -13    1    6    6    0    0  0.11845428624E+02  0.17330015211E+02 -0.23850791606E+02  0.31772690581E+02  0.00000000000E+00 0.  1.
         14    1    6    6    0    0 -0.21611315827E+02 -0.25419648120E+02  0.37613769122E+02  0.50279251286E+02  0.00000000000E+00 0. -1.
         -5    1    3    3    0  503 -0.70094207349E+02 -0.50873058371E+01  0.24174178269E+02  0.74468513343E+02  0.47000000000E+01 0.  1.
         13    1    4    4    0    0 -0.43019319754E+02 -0.68938591148E+01 -0.10483236600E+03  0.11352538098E+03  0.00000000000E+00 0. -1.
        -14    1    4    4    0    0  0.22992995816E+02  0.26053283099E+01 -0.46219294791E+01  0.23597199502E+02  0.00000000000E+00 0.  1.
</event>
<event>
12    1  0.9962621E-001  0.2461492E+03  0.7818608E-02  0.1115766E+00
         21   -1    0    0  503  502  0.00000000000E+00  0.00000000000E+00  0.30717331843E+03  0.30717331843E+03  0.00000000000E+00 0.  1.
         21   -1    0    0  501  503 -0.00000000000E+00 -0.00000000000E+00 -0.24159723245E+03  0.24159723245E+03  0.00000000000E+00 0.  1.
          6    2    1    2  501    0 -0.16749095848E+03  0.53340548326E+02  0.15036769980E+03  0.28844390527E+03  0.17231078341E+03 0.  0.
         24    2    3    3    0    0 -0.42112773077E+02  0.64151485540E+02  0.30887174918E+02  0.11485170624E+03  0.79674325220E+02 0.  0.
         -6    2    1    2    0  502  0.16749095848E+03 -0.53340548326E+02 -0.84791613825E+02  0.26032664561E+03  0.17228438515E+03 0.  0.
        -24    2    5    5    0    0  0.11106794539E+03 -0.20674776278E+02 -0.12292303494E+03  0.18465165406E+03  0.78883622889E+02 0.  0.
          5    1    3    3  501    0 -0.12537818541E+03 -0.10810937214E+02  0.11948052488E+03  0.17359219903E+03  0.47000000000E+01 0. -1.
        -11    1    4    4    0    0 -0.34057795477E+02  0.70697290191E+02  0.50038020663E+02  0.93069026991E+02  0.00000000000E+00 0.  1.
         12    1    4    4    0    0 -0.80549775997E+01 -0.65458046509E+01 -0.19150845745E+02  0.21782679252E+02  0.00000000000E+00 0. -1.
         -5    1    5    5    0  502  0.56423013090E+02 -0.32665772048E+02  0.38131421113E+02  0.75674991548E+02  0.47000000000E+01 0.  1.
         13    1    6    6    0    0  0.48414509790E+02  0.87962760282E+01 -0.10045371975E+03  0.11185834364E+03  0.00000000000E+00 0. -1.
        -14    1    6    6    0    0  0.62653435602E+02 -0.29471052306E+02 -0.22469315190E+02  0.72793310420E+02  0.00000000000E+00 0.  1.
</event>
<event>
12    1  0.9962621E-001  0.2181732E+03  0.7818608E-02  0.1135265E+00
         21   -1    0    0  503  502  0.00000000000E+00  0.00000000000E+00  0.78877885485E+03  0.78877885485E+03  0.00000000000E+00 0. -1.
         21   -1    0    0  501  503 -0.00000000000E+00 -0.00000000000E+00 -0.15353765495E+03  0.15353765495E+03  0.00000000000E+00 0. -1.
          6    2    1    2  501    0  0.13218796178E+03 -0.23376120015E+02 -0.49503235980E+02  0.22365492279E+03  0.17190361802E+03 0.  0.
         24    2    3    3    0    0  0.76980520837E+02  0.26146827985E+02 -0.83887915930E+02  0.14177220099E+03  0.80327562716E+02 0.  0.
         -6    2    1    2    0  502 -0.13218796178E+03  0.23376120015E+02  0.68474443589E+03  0.71866158701E+03  0.17198672607E+03 0.  0.
        -24    2    5    5    0    0 -0.47852415413E+01 -0.12367843156E+02  0.24118813707E+03  0.25576487688E+03  0.84071949568E+02 0.  0.
          5    1    3    3  501    0  0.55207440941E+02 -0.49522948000E+02  0.34384679950E+02  0.81882721799E+02  0.47000000000E+01 0. -1.
        -11    1    4    4    0    0  0.15600091704E+01  0.51946555689E+01  0.14827370044E+02  0.15788254416E+02  0.00000000000E+00 0.  1.
         12    1    4    4    0    0  0.75420511667E+02  0.20952172417E+02 -0.98715285974E+02  0.12598394657E+03  0.00000000000E+00 0. -1.
         -5    1    5    5    0  502 -0.12740272024E+03  0.35743963171E+02  0.44355629882E+03  0.46289671013E+03  0.47000000000E+01 0.  1.
         11    1    6    6    0    0  0.12851214123E+01 -0.31063026015E+02  0.23198862765E+03  0.23406256959E+03  0.00000000000E+00 0. -1.
        -12    1    6    6    0    0 -0.60703629536E+01  0.18695182859E+02  0.91995094182E+01  0.21702307298E+02  0.00000000000E+00 0.  1.
</event>
<event>
12    1  0.9962621E-001  0.4378127E+03  0.7818608E-02  0.1031479E+00
         21   -1    0    0  501  502  0.00000000000E+00  0.00000000000E+00  0.34887708994E+03  0.34887708994E+03  0.00000000000E+00 0. -1.
         21   -1    0    0  502  503 -0.00000000000E+00 -0.00000000000E+00 -0.11871003847E+04  0.11871003847E+04  0.00000000000E+00 0.  1.
         -6    2    1    2    0  503 -0.12732636938E+02 -0.40196387551E+03  0.14401842979E+03  0.46089180188E+03  0.17304007532E+03 0.  0.
        -24    2    3    3    0    0 -0.37671002273E+02 -0.20015266740E+03  0.12780825407E+02  0.21882758605E+03  0.79006127854E+02 0.  0.
          6    2    1    2  501    0  0.12732636938E+02  0.40196387551E+03 -0.98224172451E+03  0.10750856727E+04  0.17109447990E+03 0.  0.
         24    2    5    5    0    0 -0.31468980532E+01  0.97504753476E+02 -0.37756139498E+03  0.39787971620E+03  0.78984692600E+02 0.  0.
          5    1    5    5  501    0  0.15879534991E+02  0.30445912203E+03 -0.60468032952E+03  0.67720595651E+03  0.47000000000E+01 0. -1.
        -13    1    6    6    0    0  0.25336090935E+02  0.73294778758E+01 -0.45259100130E+02  0.52383441032E+02  0.00000000000E+00 0.  1.
         14    1    6    6    0    0 -0.28482988988E+02  0.90175275600E+02 -0.33230229485E+03  0.34549627517E+03  0.00000000000E+00 0. -1.
         -5    1    3    3    0  503  0.24938365335E+02 -0.20181120811E+03  0.13123760438E+03  0.24206421583E+03  0.47000000000E+01 0.  1.
         11    1    4    4    0    0  0.15436981484E+02 -0.92156340161E+02 -0.16700757572E+02  0.94921055266E+02  0.00000000000E+00 0. -1.
        -12    1    4    4    0    0 -0.53107983757E+02 -0.10799632724E+03  0.29481582979E+02  0.12390653078E+03  0.00000000000E+00 0.  1.
</event>
<event>
12    1  0.9962621E-001  0.1929036E+03  0.7818608E-02  0.1155937E+00
         21   -1    0    0  503  502  0.00000000000E+00  0.00000000000E+00  0.43769050913E+03  0.43769050913E+03  0.00000000000E+00 0.  1.
         21   -1    0    0  501  503 -0.00000000000E+00 -0.00000000000E+00 -0.19227448489E+03  0.19227448489E+03  0.00000000000E+00 0.  1.
          6    2    1    2  501    0  0.66131345685E+02 -0.55696803266E+02  0.35815459428E+03  0.40680032208E+03  0.17244216381E+03 0.  0.
         24    2    3    3    0    0  0.41834144248E+02  0.17785084671E+02  0.28914655712E+03  0.30300176213E+03  0.78344951992E+02 0.  0.
         -6    2    1    2    0  502 -0.66131345685E+02  0.55696803266E+02 -0.11273857004E+03  0.22316467195E+03  0.17209589436E+03 0.  0.
        -24    2    5    5    0    0 -0.42191855893E+02  0.10409143092E+03 -0.78271545059E+02  0.15893691340E+03  0.80742361736E+02 0.  0.
          5    1    3    3  501    0  0.24297201436E+02 -0.73481887937E+02  0.69008037165E+02  0.10379855994E+03  0.47000000000E+01 0. -1.
        -11    1    4    4    0    0  0.14963322853E+02 -0.25332046893E+02  0.18268637763E+03  0.18504033669E+03  0.00000000000E+00 0.  1.
         12    1    4    4    0    0  0.26870821395E+02  0.43117131563E+02  0.10646017948E+03  0.11796142544E+03  0.00000000000E+00 0. -1.
         -5    1    5    5    0  502 -0.23939489792E+02 -0.48394627657E+02 -0.34467024977E+02  0.64227758550E+02  0.47000000000E+01 0.  1.
         11    1    6    6    0    0 -0.13789103020E+02 -0.27406085263E+01  0.10183657023E+02  0.17359641918E+02  0.00000000000E+00 0. -1.
        -12    1    6    6    0    0 -0.28402752873E+02  0.10683203945E+03 -0.88455202082E+02  0.14157727148E+03  0.00000000000E+00 0.  1.
</event>
<event>
12    1  0.9962621E-001  0.4942644E+03  0.7818608E-02  0.1015309E+00
         21   -1    0    0  503  502  0.00000000000E+00  0.00000000000E+00  0.84079185315E+03  0.84079185315E+03  0.00000000000E+00 0.  1.
         21   -1    0    0  501  503 -0.00000000000E+00 -0.00000000000E+00 -0.31523365032E+03  0.31523365032E+03  0.00000000000E+00 0. -1.
          6    2    1    2  501    0  0.20644139888E+03  0.41455318932E+03  0.10048558584E+03  0.50437548364E+03  0.17269880598E+03 0.  0.
         24    2    3    3    0    0  0.35032873797E+02  0.16153541621E+03  0.74369360554E+02  0.19761332299E+03  0.78735193518E+02 0.  0.
         -6    2    1    2    0  502 -0.20644139888E+03 -0.41455318932E+03  0.42507261699E+03  0.65165001984E+03  0.17172251075E+03 0.  0.
        -24    2    5    5    0    0 -0.83714951381E+02 -0.23571864312E+03  0.15387170176E+03  0.30435244966E+03  0.79890182207E+02 0.  0.
          5    1    3    3  501    0  0.17140852509E+03  0.25301777311E+03  0.26116225282E+02  0.30676216064E+03  0.47000000000E+01 0. -1.
        -13    1    4    4    0    0  0.50757827710E+02  0.15711723306E+03  0.74818628713E+02  0.18127329974E+03  0.00000000000E+00 0.  1.
         14    1    4    4    0    0 -0.15724953912E+02  0.44181831543E+01 -0.44926815938E+00  0.16340023250E+02  0.00000000000E+00 0. -1.
         -5    1    5    5    0  502 -0.12272644750E+03 -0.17883454620E+03  0.27120091524E+03  0.34729757019E+03  0.47000000000E+01 0.  1.
         13    1    6    6    0    0 -0.32835401302E+02 -0.12311478933E+03  0.33275672491E+02  0.13169162961E+03  0.00000000000E+00 0. -1.
        -14    1    6    6    0    0 -0.50879550078E+02 -0.11260385379E+03  0.12059602927E+03  0.17266082005E+03  0.00000000000E+00 0.  1.
</event>
<event>
12    1  0.9962621E-001  0.1902661E+03  0.7818608E-02  0.1159775E+00
         21   -1    0    0  501  502  0.00000000000E+00  0.00000000000E+00  0.86061312567E+02  0.86061312567E+02  0.00000000000E+00 0. -1.
         21   -1    0    0  502  503 -0.00000000000E+00 -0.00000000000E+00 -0.65560685090E+03  0.65560685090E+03  0.00000000000E+00 0. -1.
         -6    2    1    2    0  503  0.62966255663E+02  0.18895823785E+02 -0.52702865973E+02  0.19091637820E+03  0.17131745350E+03 0.  0.
        -24    2    3    3    0    0  0.38114333392E+02  0.77796988722E+02 -0.41334632304E+02  0.12581421227E+03  0.81336279225E+02 0.  0.
          6    2    1    2  501    0 -0.62966255663E+02 -0.18895823785E+02 -0.51684267237E+03  0.55075178527E+03  0.17854797533E+03 0.  0.
         24    2    5    5    0    0 -0.15168626374E+01 -0.60598419385E+02 -0.39841168539E+03  0.41088355064E+03  0.80118361366E+02 0.  0.
          5    1    5    5  501    0 -0.61449393026E+02  0.41702595600E+02 -0.11843098697E+03  0.13986823463E+03  0.47000000000E+01 0. -1.
        -11    1    6    6    0    0  0.22691073899E+01 -0.99221349988E+01 -0.99028228174E+00  0.10226351758E+02  0.00000000000E+00 0.  1.
         12    1    6    6    0    0 -0.37859700273E+01 -0.50676284387E+02 -0.39742140311E+03  0.40065719889E+03  0.00000000000E+00 0. -1.
         -5    1    3    3    0  503  0.24851922271E+02 -0.58901164937E+02 -0.11368233669E+02  0.65102165926E+02  0.47000000000E+01 0.  1.
         11    1    4    4    0    0 -0.21005745906E+02  0.15508150380E+01 -0.55945277994E+00  0.21070343513E+02  0.00000000000E+00 0. -1.
        -12    1    4    4    0    0  0.59120079298E+02  0.76246173684E+02 -0.40775179524E+02  0.10474386876E+03  0.00000000000E+00 0.  1.
</event>
<event>
12    1  0.9962621E-001  0.2505064E+03  0.7818608E-02  0.1113289E+00
         21   -1    0    0  501  502  0.00000000000E+00  0.00000000000E+00  0.48903817840E+03  0.48903817840E+03  0.00000000000E+00 0. -1.
         21   -1    0    0  502  503 -0.00000000000E+00 -0.00000000000E+00 -0.13275007962E+03  0.13275007962E+03  0.00000000000E+00 0. -1.
         -6    2    1    2    0  503  0.10068530457E+03  0.14707602765E+03  0.24157193548E+03  0.34800925149E+03  0.17602428992E+03 0.  0.
        -24    2    3    3    0    0  0.38696281621E+02  0.69034405237E+02  0.22036297744E+03  0.24600413546E+03  0.75465498867E+02 0.  0.
          6    2    1    2  501    0 -0.10068530457E+03 -0.14707602765E+03  0.11471616330E+03  0.27377900654E+03  0.17328086401E+03 0.  0.
         24    2    5    5    0    0 -0.92979590411E+02 -0.47423186802E+02  0.11508164736E+03  0.17371757392E+03  0.77716452881E+02 0.  0.
          5    1    5    5  501    0 -0.77057141606E+01 -0.99652840847E+02 -0.36548405788E+00  0.10006143262E+03  0.47000000000E+01 0. -1.
        -13    1    6    6    0    0 -0.48990764210E+02 -0.22586393209E+02  0.11053544072E+03  0.12299725115E+03  0.00000000000E+00 0.  1.
         14    1    6    6    0    0 -0.43988826201E+02 -0.24836793593E+02  0.45462066434E+01  0.50720322765E+02  0.00000000000E+00 0. -1.
         -5    1    3    3    0  503  0.61989022951E+02  0.78041622412E+02  0.21208958048E+02  0.10200511603E+03  0.47000000000E+01 0.  1.
         13    1    4    4    0    0  0.95039896114E+01 -0.13563707798E+02  0.13539358080E+02  0.21391919151E+02  0.00000000000E+00 0. -1.
        -14    1    4    4    0    0  0.29192292009E+02  0.82598113035E+02  0.20682361936E+03  0.22461221631E+03  0.00000000000E+00 0.  1.
</event>
<event>
12    1  0.9962621E-001  0.2169598E+03  0.7818608E-02  0.1136259E+00
         21   -1    0    0  501  502  0.00000000000E+00  0.00000000000E+00  0.13933070365E+03  0.13933070365E+03  0.00000000000E+00 0.  1.
         21   -1    0    0  502  503 -0.00000000000E+00 -0.00000000000E+00 -0.48904806180E+03  0.48904806180E+03  0.00000000000E+00 0.  1.
         -6    2    1    2    0  503  0.31689864106E+02  0.12928636331E+03 -0.35011568673E+03  0.41188901689E+03  0.17132529561E+03 0.  0.
        -24    2    3    3    0    0 -0.25052683828E+02  0.13430760473E+03 -0.22259861583E+03  0.27214774531E+03  0.76472752354E+02 0.  0.
          6    2    1    2  501    0 -0.31689864106E+02 -0.12928636331E+03  0.39832857475E+00  0.21648974855E+03  0.17072914613E+03 0.  0.
         24    2    5    5    0    0  0.25200972598E+02 -0.13095070869E+02  0.13397461899E+02  0.86381904026E+02  0.80472178154E+02 0.  0.
          5    1    5    5  501    0 -0.56890836704E+02 -0.11619129244E+03 -0.12999133325E+02  0.13010784453E+03  0.47000000000E+01 0. -1.
        -11    1    6    6    0    0 -0.72277551780E+01 -0.17771312981E+02  0.39879152274E+02  0.44253890181E+02  0.00000000000E+00 0.  1.
         12    1    6    6    0    0  0.32428727776E+02  0.46762421125E+01 -0.26481690375E+02  0.42128013845E+02  0.00000000000E+00 0. -1.
         -5    1    3    3    0  503  0.56742547935E+02 -0.50212414208E+01 -0.12751707090E+03  0.13974127158E+03  0.47000000000E+01 0.  1.
         11    1    4    4    0    0  0.27204371955E+02  0.57015079746E+02 -0.94602679555E+02  0.11375616094E+03  0.00000000000E+00 0. -1.
        -12    1    4    4    0    0 -0.52257055784E+02  0.77292524988E+02 -0.12799593628E+03  0.15839158438E+03  0.00000000000E+00 0.  1.
</event>
<event>
12    1  0.1560327E+000  0.4561784E+03  0.7818608E-02  0.1026591E+00
         21   -1    0    0  503  502  0.00000000000E+00  0.00000000000E+00  0.46268806030E+03  0.46268806030E+03  0.00000000000E+00 0.  1.
         21   -1    0    0  501  503 -0.00000000000E+00 -0.00000000000E+00 -0.72746553453E+03  0.72746553453E+03  0.00000000000E+00 0. -1.
          6    2    1    2  501    0  0.23724877666E+03  0.33802191589E+03  0.24214418564E+03  0.50819444325E+03  0.17053441841E+03 0.  0.
         24    2    3    3    0    0  0.13380844235E+03  0.16516829076E+03  0.55651818470E+02  0.23364067530E+03  0.79407661711E+02 0.  0.
         -6    2    1    2    0  502 -0.23724877666E+03 -0.33802191589E+03 -0.50692165987E+03  0.68195915158E+03  0.19378575163E+03 0.  0.
        -24    2    5    5    0    0 -0.21339878120E+03 -0.22138374543E+03 -0.44812300995E+03  0.54909585220E+03  0.78372318400E+02 0.  0.
          5    1    3    3  501    0  0.10344033432E+03  0.17285362512E+03  0.18649236717E+03  0.27455376795E+03  0.47000000000E+01 0. -1.
        -13    1    4    4    0    0  0.27559273155E+02  0.50781473706E+02 -0.18688895170E+02  0.60725171151E+02  0.00000000000E+00 0.  1.
         14    1    4    4    0    0  0.10624916919E+03  0.11438681706E+03  0.74340713640E+02  0.17291550415E+03  0.00000000000E+00 0. -1.
         -5    1    5    5    0  502 -0.23849995460E+02 -0.11663817046E+03 -0.58798649914E+02  0.13286329938E+03  0.47000000000E+01 0.  1.
         13    1    6    6    0    0 -0.51390124041E+02 -0.93083008580E+02 -0.19708720562E+03  0.22393918361E+03  0.00000000000E+00 0. -1.
        -14    1    6    6    0    0 -0.16200865716E+03 -0.12830073685E+03 -0.25103580433E+03  0.32515666859E+03  0.00000000000E+00 0.  1.
</event>
<event>
12    1  0.9962621E-001  0.2112767E+03  0.7818608E-02  0.1140796E+00
         21   -1    0    0  503  502  0.00000000000E+00  0.00000000000E+00  0.20950911523E+03  0.20950911523E+03  0.00000000000E+00 0.  1.
         21   -1    0    0  501  503 -0.00000000000E+00 -0.00000000000E+00 -0.30973695938E+03  0.30973695938E+03  0.00000000000E+00 0.  1.
          6    2    1    2  501    0  0.98050957131E+02 -0.68208138206E+02 -0.19616407575E+03  0.28830227132E+03  0.17427425145E+03 0.  0.
         24    2    3    3    0    0  0.13147840814E+02  0.60546528309E+01 -0.27867963743E+02  0.85646966401E+02  0.79682212014E+02 0.  0.
         -6    2    1    2    0  502 -0.98050957131E+02  0.68208138206E+02  0.95936231598E+02  0.23094380329E+03  0.17281475468E+03 0.  0.
        -24    2    5    5    0    0  0.14456714419E+01  0.76280380287E+02  0.40855935979E+02  0.11683565654E+03  0.78489341643E+02 0.  0.
          5    1    3    3  501    0  0.84903116318E+02 -0.74262791037E+02 -0.16829611201E+03  0.20265530492E+03  0.47000000000E+01 0. -1.
        -13    1    4    4    0    0  0.50715058897E+00 -0.11243150762E+02 -0.52100187455E+02  0.53301924671E+02  0.00000000000E+00 0.  1.
         14    1    4    4    0    0  0.12640690225E+02  0.17297803593E+02  0.24232223712E+02  0.32345041730E+02  0.00000000000E+00 0. -1.
         -5    1    5    5    0  502 -0.99496628573E+02 -0.80722420813E+01  0.55080295620E+02  0.11410814675E+03  0.47000000000E+01 0.  1.
         11    1    6    6    0    0 -0.11659113203E+02 -0.98950480134E+01  0.23376818729E+02  0.27934254058E+02  0.00000000000E+00 0. -1.
        -12    1    6    6    0    0  0.13104784645E+02  0.86175428301E+02  0.17479117250E+02  0.88901402482E+02  0.00000000000E+00 0.  1.
</event>
<event>
12    1  0.9962621E-001  0.2253196E+03  0.7818608E-02  0.1130033E+00
         21   -1    0    0  501  502  0.00000000000E+00  0.00000000000E+00  0.11622209264E+04  0.11622209264E+04  0.00000000000E+00 0.  1.
         21   -1    0    0  502  503 -0.00000000000E+00 -0.00000000000E+00 -0.57114102795E+02  0.57114102795E+02  0.00000000000E+00 0.  1.
         -6    2    1    2    0  503  0.14863739039E+02  0.14389993730E+03  0.84856871744E+03  0.87789580725E+03  0.17234865092E+03 0.  0.
        -24    2    3    3    0    0 -0.42202016491E+01  0.27175737566E+02  0.55468765739E+03  0.56107266565E+03  0.79798546774E+02 0.  0.
          6    2    1    2  501    0 -0.14863739039E+02 -0.14389993730E+03  0.25653810621E+03  0.34143922199E+03  0.17274495560E+03 0.  0.
         24    2    5    5    0    0 -0.11670884600E+02 -0.48008621020E+02  0.22083787772E+03  0.23896027210E+03  0.76756798826E+02 0.  0.
          5    1    5    5  501    0 -0.31928544385E+01 -0.95891316276E+02  0.35700228489E+02  0.10247894989E+03  0.47000000000E+01 0. -1.
        -11    1    6    6    0    0  0.33560651046E+01  0.52367737876E+01 -0.40135519155E+01  0.74024031008E+01  0.00000000000E+00 0.  1.
         12    1    6    6    0    0 -0.15026949705E+02 -0.53245394808E+02  0.22485142964E+03  0.23155786900E+03  0.00000000000E+00 0. -1.
         -5    1    3    3    0  503  0.19083940688E+02  0.11672419973E+03  0.29388106005E+03  0.31682314160E+03  0.47000000000E+01 0.  1.
         11    1    4    4    0    0  0.33235940046E+02 -0.42161942301E+01  0.28820485087E+03  0.29014554980E+03  0.00000000000E+00 0. -1.
        -12    1    4    4    0    0 -0.37456141695E+02  0.31391931796E+02  0.26648280652E+03  0.27092711585E+03  0.00000000000E+00 0.  1.
</event>
<event>
12    1  0.9962621E-001  0.1935260E+03  0.7818608E-02  0.1155654E+00
         21   -1    0    0  503  502  0.00000000000E+00  0.00000000000E+00  0.10390097097E+03  0.10390097097E+03  0.00000000000E+00 0. -1.
         21   -1    0    0  501  503 -0.00000000000E+00 -0.00000000000E+00 -0.46178207710E+03  0.46178207710E+03  0.00000000000E+00 0. -1.
          6    2    1    2  501    0  0.43622164379E+02  0.72491562156E+02 -0.31271231745E+03  0.36695576974E+03  0.17236479818E+03 0.  0.
         24    2    3    3    0    0 -0.47946644688E+01 -0.25354138964E+02 -0.11078037798E+03  0.13735487967E+03  0.76995127463E+02 0.  0.
         -6    2    1    2    0  502 -0.43622164379E+02 -0.72491562156E+02 -0.45168788685E+02  0.19872727833E+03  0.17405284218E+03 0.  0.
        -24    2    5    5    0    0 -0.68433434407E+02  0.92763977601E+01 -0.41241548546E+02  0.11305866328E+03  0.79449414825E+02 0.  0.
          5    1    3    3  501    0  0.48416828847E+02  0.97845701120E+02 -0.20193193948E+03  0.22960089008E+03  0.47000000000E+01 0. -1.
        -13    1    4    4    0    0  0.26366363876E+02  0.79423253406E+01 -0.15201277800E+02  0.31453847501E+02  0.00000000000E+00 0.  1.
         14    1    4    4    0    0 -0.31161028345E+02 -0.33296464305E+02 -0.95579100178E+02  0.10590103216E+03  0.00000000000E+00 0. -1.
         -5    1    5    5    0  502  0.24811270029E+02 -0.81767959916E+02 -0.39272401389E+01  0.85668615049E+02  0.47000000000E+01 0.  1.
         13    1    6    6    0    0 -0.66806713695E+02  0.67899828632E+01  0.44240929784E+01  0.67296459496E+02  0.00000000000E+00 0. -1.
        -14    1    6    6    0    0 -0.16267207123E+01  0.24864148969E+01 -0.45665641525E+02  0.45762203784E+02  0.00000000000E+00 0.  1.
</event>
<event>
12    1  0.9962621E-001  0.1914696E+03  0.7818608E-02  0.1157234E+00
         21   -1    0    0  501  502  0.00000000000E+00  0.00000000000E+00  0.42814943993E+03  0.42814943993E+03  0.00000000000E+00 0.  1.
         21   -1    0    0  502  503 -0.00000000000E+00 -0.00000000000E+00 -0.93323941165E+02  0.93323941165E+02  0.00000000000E+00 0.  1.
         -6    2    1    2    0  503  0.63218383546E+02  0.57955419718E+02  0.91475404641E+02  0.21182861694E+03  0.17072849384E+03 0.  0.
        -24    2    3    3    0    0  0.23836339221E+02  0.99680453963E+02  0.52153471182E+02  0.14211327897E+03  0.83497518123E+02 0.  0.
          6    2    1    2  501    0 -0.63218383546E+02 -0.57955419718E+02  0.24335009413E+03  0.30964476415E+03  0.17118766592E+03 0.  0.
         24    2    5    5    0    0 -0.71747721405E+02  0.16970052670E+02  0.18356611033E+03  0.21329752374E+03  0.79772166559E+02 0.  0.
          5    1    5    5  501    0  0.85293378588E+01 -0.74925472388E+02  0.59783983800E+02  0.96347240416E+02  0.47000000000E+01 0. -1.
        -13    1    6    6    0    0 -0.29844647150E+02 -0.97727273648E+01  0.10312818342E+02  0.33053946599E+02  0.00000000000E+00 0.  1.
         14    1    6    6    0    0 -0.41903074256E+02  0.26742780035E+02  0.17325329198E+03  0.18024357714E+03  0.00000000000E+00 0. -1.
         -5    1    3    3    0  503  0.39382044326E+02 -0.41725034246E+02  0.39321933459E+02  0.69715337975E+02  0.47000000000E+01 0.  1.
         11    1    4    4    0    0 -0.25034679536E+02  0.75674517895E+01  0.15254115836E+01  0.26197869886E+02  0.00000000000E+00 0. -1.
        -12    1    4    4    0    0  0.48871018757E+02  0.92113002174E+02  0.50628059598E+02  0.11591540908E+03  0.00000000000E+00 0.  1.
</event>
<event>
12    1  0.9962621E-001  0.3237508E+03  0.7818608E-02  0.1073987E+00
         21   -1    0    0  501  502  0.00000000000E+00  0.00000000000E+00  0.11838039602E+04  0.11838039602E+04  0.00000000000E+00 0. -1.
         21   -1    0    0  502  503 -0.00000000000E+00 -0.00000000000E+00 -0.95028550745E+02  0.95028550745E+02  0.00000000000E+00 0. -1.
         -6    2    1    2    0  503  0.16945107814E+03 -0.21553678837E+03  0.71270071767E+03  0.78259994667E+03  0.17132013466E+03 0.  0.
        -24    2    3    3    0    0  0.12069930959E+03 -0.85613036010E+02  0.51041069896E+03  0.53724253792E+03  0.78819716182E+02 0.  0.
          6    2    1    2  501    0 -0.16945107814E+03  0.21553678837E+03  0.37607469176E+03  0.49623256425E+03  0.17217667965E+03 0.  0.
         24    2    5    5    0    0 -0.14429937542E+03  0.23800107646E+03  0.34108231964E+03  0.44740830291E+03  0.79813649178E+02 0.  0.
          5    1    5    5  501    0 -0.25151702721E+02 -0.22464288092E+02  0.34992372121E+02  0.48824261345E+02  0.47000000000E+01 0. -1.
        -11    1    6    6    0    0 -0.15333990489E+02  0.16366464832E+02  0.73283773265E+02  0.76638788217E+02  0.00000000000E+00 0.  1.
         12    1    6    6    0    0 -0.12896538493E+03  0.22163461163E+03  0.26779854638E+03  0.37076951469E+03  0.00000000000E+00 0. -1.
         -5    1    3    3    0  503  0.48751768552E+02 -0.12992375236E+03  0.20229001871E+03  0.24535740876E+03  0.47000000000E+01 0.  1.
         11    1    4    4    0    0  0.83067797614E+02 -0.18056301945E+02  0.19943797772E+03  0.21679897600E+03  0.00000000000E+00 0. -1.
        -12    1    4    4    0    0  0.37631511973E+02 -0.67556734064E+02  0.31097272125E+03  0.32044356191E+03  0.00000000000E+00 0.  1.
</event>
<event>
12    1  0.9962621E-001  0.2037370E+03  0.7818608E-02  0.1146766E+00
         21   -1    0    0  501  502  0.00000000000E+00  0.00000000000E+00  0.44406664537E+03  0.44406664537E+03  0.00000000000E+00 0. -1.
         21   -1    0    0  502  503 -0.00000000000E+00 -0.00000000000E+00 -0.12252715346E+03  0.12252715346E+03  0.00000000000E+00 0. -1.
         -6    2    1    2    0  503 -0.10660145368E+03  0.10828194088E+02  0.29926066836E+03  0.36164227657E+03  0.17247338596E+03 0.  0.
        -24    2    3    3    0    0 -0.11692233517E+03 -0.42923416673E+02  0.22463535951E+03  0.26897738044E+03  0.79840680647E+02 0.  0.
          6    2    1    2  501    0  0.10660145368E+03 -0.10828194088E+02  0.22278823556E+02  0.20495152226E+03  0.17328491217E+03 0.  0.
         24    2    5    5    0    0  0.63384395082E+02 -0.64150471389E+02 -0.25597878573E+02  0.12113476966E+03  0.76717120080E+02 0.  0.
          5    1    5    5  501    0  0.43217058599E+02  0.53322277301E+02  0.47876702129E+02  0.83816752605E+02  0.47000000000E+01 0. -1.
        -11    1    6    6    0    0  0.23252998011E+02 -0.66353276536E+02  0.51972516635E+01  0.70501564865E+02  0.00000000000E+00 0.  1.
         12    1    6    6    0    0  0.40131397071E+02  0.22028051465E+01 -0.30795130236E+02  0.50633204793E+02  0.00000000000E+00 0. -1.
         -5    1    3    3    0  503  0.10320881490E+02  0.53751610760E+02  0.74625308849E+02  0.92664896131E+02  0.47000000000E+01 0.  1.
         13    1    4    4    0    0 -0.63798818415E+02 -0.33890617796E+02  0.54446746627E+02  0.90461657204E+02  0.00000000000E+00 0. -1.
        -14    1    4    4    0    0 -0.53123516755E+02 -0.90327988770E+01  0.17018861288E+03  0.17851572324E+03  0.00000000000E+00 0.  1.
</event>
<event>
12    1  0.9962621E-001  0.2412436E+03  0.7818608E-02  0.1119078E+00
         21   -1    0    0  501  502  0.00000000000E+00  0.00000000000E+00  0.33166990254E+03  0.33166990254E+03  0.00000000000E+00 0.  1.
         21   -1    0    0  502  503 -0.00000000000E+00 -0.00000000000E+00 -0.25851079505E+03  0.25851079505E+03  0.00000000000E+00 0. -1.
         -6    2    1    2    0  503 -0.90800949769E+02 -0.14277708599E+03 -0.13112094459E+03  0.27457451316E+03  0.17195450679E+03 0.  0.
        -24    2    3    3    0    0  0.22711705559E+02 -0.15107376502E+02 -0.44428587931E+02  0.82943794481E+02  0.64511388322E+02 0.  0.
          6    2    1    2  501    0  0.90800949769E+02  0.14277708599E+03  0.20428005208E+03  0.31560618443E+03  0.17101700270E+03 0.  0.
         24    2    5    5    0    0  0.21215947588E+02  0.75529910993E+02  0.18608731205E+03  0.21702971227E+03  0.79489146543E+02 0.  0.
          5    1    5    5  501    0  0.69585002181E+02  0.67247174993E+02  0.18192740029E+02  0.98576472157E+02  0.47000000000E+01 0. -1.
        -11    1    6    6    0    0  0.41390702695E+02  0.11193402485E+02  0.56247785028E+02  0.70726910362E+02  0.00000000000E+00 0.  1.
         12    1    6    6    0    0 -0.20174755107E+02  0.64336508509E+02  0.12983952702E+03  0.14630280191E+03  0.00000000000E+00 0. -1.
         -5    1    3    3    0  503 -0.11351265533E+03 -0.12766970948E+03 -0.86692356659E+02  0.19163071868E+03  0.47000000000E+01 0.  1.
         13    1    4    4    0    0  0.53934616692E+01 -0.32424379623E+02 -0.48018653583E+02  0.58191244312E+02  0.00000000000E+00 0. -1.
        -14    1    4    4    0    0  0.17318243890E+02  0.17317003120E+02  0.35900656517E+01  0.24752550169E+02  0.00000000000E+00 0.  1.
</event>
<event>
12    1  0.9962621E-001  0.2001377E+03  0.7818608E-02  0.1149694E+00
         21   -1    0    0  503  502  0.00000000000E+00  0.00000000000E+00  0.44133549999E+03  0.44133549999E+03  0.00000000000E+00 0.  1.
         21   -1    0    0  501  503 -0.00000000000E+00 -0.00000000000E+00 -0.20289278268E+03  0.20289278268E+03  0.00000000000E+00 0.  1.
          6    2    1    2  501    0 -0.18669143111E+02  0.99672931751E+02  0.35880594116E+03  0.41068510720E+03  0.17215494078E+03 0.  0.
         24    2    3    3    0    0 -0.10740412049E+02 -0.14247582206E+02  0.10802045135E+03  0.13508358293E+03  0.79125257781E+02 0.  0.
         -6    2    1    2    0  502  0.18669143111E+02 -0.99672931751E+02 -0.12036322386E+03  0.23354317548E+03  0.17254529529E+03 0.  0.
        -24    2    5    5    0    0 -0.24527575072E+02 -0.12455386665E+03 -0.87470494581E+02  0.17363458659E+03  0.79891267368E+02 0.  0.
          5    1    3    3  501    0 -0.79287310614E+01  0.11392051396E+03  0.25078548982E+03  0.27560152427E+03  0.47000000000E+01 0. -1.
        -13    1    4    4    0    0 -0.22107365008E+02 -0.67994257755E+01  0.11669246002E+03  0.11896259077E+03  0.00000000000E+00 0.  1.
         14    1    4    4    0    0  0.11366952959E+02 -0.74481564301E+01 -0.86720086713E+01  0.16120992158E+02  0.00000000000E+00 0. -1.
         -5    1    5    5    0  502  0.43196718183E+02  0.24880934900E+02 -0.32892729274E+02  0.59908588886E+02  0.47000000000E+01 0.  1.
         13    1    6    6    0    0 -0.16728640412E+02 -0.13522735222E+03 -0.83601456667E+02  0.15986083872E+03  0.00000000000E+00 0. -1.
        -14    1    6    6    0    0 -0.77989346601E+01  0.10673485571E+02 -0.38690379146E+01  0.13773747872E+02  0.00000000000E+00 0.  1.
</event>
<event>
12    1  0.9962621E-001  0.3556504E+03  0.7818608E-02  0.1060356E+00
         21   -1    0    0  501  502  0.00000000000E+00  0.00000000000E+00  0.49710783289E+02  0.49710783289E+02  0.00000000000E+00 0. -1.
         21   -1    0    0  502  503 -0.00000000000E+00 -0.00000000000E+00 -0.28047518016E+04  0.28047518016E+04  0.00000000000E+00 0. -1.
         -6    2    1    2    0  503 -0.30674820302E+03  0.59595021271E+02 -0.94120842357E+03  0.10061612607E+04  0.16982685129E+03 0.  0.
        -24    2    3    3    0    0 -0.85899332676E+02 -0.26626413505E+01 -0.43380890276E+03  0.44927114250E+03  0.79174556237E+02 0.  0.
          6    2    1    2  501    0  0.30674820302E+03 -0.59595021271E+02 -0.18138325947E+04  0.18483013241E+04  0.16906530234E+03 0.  0.
         24    2    5    5    0    0  0.20601529937E+03  0.29568646809E+01 -0.14154761589E+04  0.14326454613E+04  0.80307003588E+02 0.  0.
          5    1    5    5  501    0  0.10073290365E+03 -0.62551885952E+02 -0.39835643583E+03  0.41565586280E+03  0.47000000000E+01 0. -1.
        -11    1    6    6    0    0  0.14439862439E+03 -0.27005651629E+01 -0.71491390079E+03  0.72935597709E+03  0.00000000000E+00 0.  1.
         12    1    6    6    0    0  0.61616674982E+02  0.56574298438E+01 -0.70056225811E+03  0.70328948423E+03  0.00000000000E+00 0. -1.
         -5    1    3    3    0  503 -0.22084887034E+03  0.62257662621E+02 -0.50739952080E+03  0.55689011824E+03  0.47000000000E+01 0.  1.
         13    1    4    4    0    0 -0.52857190497E+02  0.11702368930E+02 -0.38399804828E+03  0.38779547329E+03  0.00000000000E+00 0. -1.
        -14    1    4    4    0    0 -0.33042142179E+02 -0.14365010281E+02 -0.49810854489E+02  0.61475669212E+02  0.00000000000E+00 0.  1.
</event>
<event>
12    1  0.9962621E-001  0.1737863E+03  0.7818608E-02  0.1174179E+00
         21   -1    0    0  501  502  0.00000000000E+00  0.00000000000E+00  0.13861736648E+03  0.13861736648E+03  0.00000000000E+00 0. -1.
         21   -1    0    0  502  503 -0.00000000000E+00 -0.00000000000E+00 -0.21715539298E+03  0.21715539298E+03  0.00000000000E+00 0. -1.
         -6    2    1    2    0  503  0.30921243348E+02 -0.40214006889E+01 -0.31973602804E+02  0.17670308390E+03  0.17096600138E+03 0.  0.
        -24    2    3    3    0    0 -0.77487827201E+01 -0.30639981480E+02  0.36685450652E+02  0.93395969069E+02  0.79863212120E+02 0.  0.
          6    2    1    2  501    0 -0.30921243348E+02  0.40214006889E+01 -0.46564423693E+02  0.17906967556E+03  0.17007471357E+03 0.  0.
         24    2    5    5    0    0  0.39351345455E+02  0.14213657074E+02 -0.56304039990E+02  0.10724301649E+03  0.81119438051E+02 0.  0.
          5    1    5    5  501    0 -0.70272588803E+02 -0.10192256385E+02  0.97396162976E+01  0.71826659069E+02  0.47000000000E+01 0. -1.
        -11    1    6    6    0    0  0.14473794641E+02 -0.12784696736E+02  0.16697900242E+02  0.25529572547E+02  0.00000000000E+00 0.  1.
         12    1    6    6    0    0  0.24877550814E+02  0.26998353810E+02 -0.73001940233E+02  0.81713443941E+02  0.00000000000E+00 0. -1.
         -5    1    3    3    0  503  0.38670026068E+02  0.26618580791E+02 -0.68659053456E+02  0.83307114828E+02  0.47000000000E+01 0.  1.
         13    1    4    4    0    0 -0.27039953641E+02  0.18723555385E+02  0.14213404270E+02  0.35829477810E+02  0.00000000000E+00 0. -1.
        -14    1    4    4    0    0  0.19291170921E+02 -0.49363536865E+02  0.22472046382E+02  0.57566491260E+02  0.00000000000E+00 0.  1.
</event>
<event>
12    1  0.9962621E-001  0.2022582E+03  0.7818608E-02  0.1147990E+00
         21   -1    0    0  503  502  0.00000000000E+00  0.00000000000E+00  0.10266790916E+03  0.10266790916E+03  0.00000000000E+00 0.  1.
         21   -1    0    0  501  503 -0.00000000000E+00 -0.00000000000E+00 -0.41789133011E+03  0.41789133011E+03  0.00000000000E+00 0.  1.
          6    2    1    2  501    0  0.42368472589E+02 -0.95722798121E+02 -0.21591710392E+03  0.29585226065E+03  0.17306190458E+03 0.  0.
         24    2    3    3    0    0  0.77033959474E+02 -0.62038942992E+02 -0.21198135038E+03  0.24712979937E+03  0.79711877833E+02 0.  0.
         -6    2    1    2    0  502 -0.42368472589E+02  0.95722798121E+02 -0.99306317026E+02  0.22470697862E+03  0.17226009431E+03 0.  0.
        -24    2    5    5    0    0 -0.90232120064E+01  0.11209834721E+03 -0.12100615514E+03  0.18142836975E+03  0.75008705945E+02 0.  0.
          5    1    3    3  501    0 -0.34665486884E+02 -0.33683855129E+02 -0.39357535419E+01  0.48722461280E+02  0.47000000000E+01 0. -1.
        -13    1    4    4    0    0  0.22008983017E+02  0.17789110835E+02 -0.32177712517E+02  0.42851522500E+02  0.00000000000E+00 0.  1.
         14    1    4    4    0    0  0.55024976457E+02 -0.79828053828E+02 -0.17980363786E+03  0.20427827687E+03  0.00000000000E+00 0. -1.
         -5    1    5    5    0  502 -0.33345260583E+02 -0.16375549085E+02  0.21699838119E+02  0.43278608868E+02  0.47000000000E+01 0.  1.
         13    1    6    6    0    0 -0.40562318378E+02  0.82274552331E+02 -0.79978688514E+02  0.12170042831E+03  0.00000000000E+00 0. -1.
        -14    1    6    6    0    0  0.31539106372E+02  0.29823794875E+02 -0.41027466631E+02  0.59727941448E+02  0.00000000000E+00 0.  1.
</event>
<event>
12    1  0.9962621E-001  0.2156251E+03  0.7818608E-02  0.1137678E+00
         21   -1    0    0  501  502  0.00000000000E+00  0.00000000000E+00  0.12433831384E+03  0.12433831384E+03  0.00000000000E+00 0. -1.
         21   -1    0    0  502  503 -0.00000000000E+00 -0.00000000000E+00 -0.40383911855E+03  0.40383911855E+03  0.00000000000E+00 0. -1.
         -6    2    1    2    0  503 -0.95831489890E+02 -0.85993179196E+02 -0.21749029021E+03  0.30626167527E+03  0.17296151618E+03 0.  0.
        -24    2    3    3    0    0 -0.49693047750E+02 -0.46731283465E+02 -0.22169875380E+03  0.24535146705E+03  0.79961197439E+02 0.  0.
          6    2    1    2  501    0  0.95831489890E+02  0.85993179196E+02 -0.62010514500E+02  0.22191575713E+03  0.16977278354E+03 0.  0.
         24    2    5    5    0    0  0.10099167896E+03  0.80066305193E+02 -0.10078125694E+03  0.18207838955E+03  0.79910861242E+02 0.  0.
          5    1    5    5  501    0 -0.51601890669E+01  0.59268740035E+01  0.38770742436E+02  0.39837367580E+02  0.47000000000E+01 0. -1.
        -11    1    6    6    0    0  0.53956682810E+02  0.48877676782E+02 -0.76799252871E+01  0.73207459728E+02  0.00000000000E+00 0.  1.
         12    1    6    6    0    0  0.47034996148E+02  0.31188628411E+02 -0.93101331649E+02  0.10887092982E+03  0.00000000000E+00 0. -1.
         -5    1    3    3    0  503 -0.46138442141E+02 -0.39261895731E+02  0.42084635896E+01  0.60910208219E+02  0.47000000000E+01 0.  1.
         11    1    4    4    0    0  0.10638627006E+02  0.13036071680E+02 -0.64742859656E+02  0.66893627693E+02  0.00000000000E+00 0. -1.
        -12    1    4    4    0    0 -0.60331674756E+02 -0.59767355146E+02 -0.15695589415E+03  0.17845783936E+03  0.00000000000E+00 0.  1.
</event>
<event>
12    1  0.9962621E-001  0.1894860E+03  0.7818608E-02  0.1159307E+00
         21   -1    0    0  501  502  0.00000000000E+00  0.00000000000E+00  0.10207543955E+04  0.10207543955E+04  0.00000000000E+00 0.  1.
         21   -1    0    0  502  503 -0.00000000000E+00 -0.00000000000E+00 -0.38350895532E+02  0.38350895532E+02  0.00000000000E+00 0.  1.
         -6    2    1    2    0  503  0.15446612803E+02  0.78098742402E+02  0.33351527829E+03  0.38358492682E+03  0.17195041094E+03 0.  0.
        -24    2    3    3    0    0  0.67330275774E+02  0.68710708858E+02  0.27628790600E+03  0.30562909448E+03  0.88428552209E+02 0.  0.
          6    2    1    2  501    0 -0.15446612803E+02 -0.78098742402E+02  0.64888822171E+03  0.67552036424E+03  0.17009946153E+03 0.  0.
         24    2    5    5    0    0 -0.70114061520E+02 -0.59774875590E+02  0.33986382674E+03  0.36112815579E+03  0.80106846181E+02 0.  0.
          5    1    5    5  501    0  0.54667448717E+02 -0.18323866812E+02  0.30902439497E+03  0.31439220845E+03  0.47000000000E+01 0. -1.
        -11    1    6    6    0    0  0.63286217438E+01 -0.49646766632E+01  0.14005843872E+03  0.14028922169E+03  0.00000000000E+00 0.  1.
         12    1    6    6    0    0 -0.76442683264E+02 -0.54810198927E+02  0.19980538802E+03  0.22083893410E+03  0.00000000000E+00 0. -1.
         -5    1    3    3    0  503 -0.51883662971E+02  0.93880335447E+01  0.57227372291E+02  0.77955832344E+02  0.47000000000E+01 0.  1.
         13    1    4    4    0    0  0.41330500779E+02  0.84630712027E+02  0.24235467384E+03  0.26001222210E+03  0.00000000000E+00 0. -1.
        -14    1    4    4    0    0  0.25999774995E+02 -0.15920003169E+02  0.33933232160E+02  0.45616872378E+02  0.00000000000E+00 0.  1.
</event>
<event>
12    1  0.9962621E-001  0.1748689E+03  0.7818608E-02  0.1172888E+00
         21   -1    0    0  503  502  0.00000000000E+00  0.00000000000E+00  0.66215317747E+02  0.66215317747E+02  0.00000000000E+00 0.  1.
         21   -1    0    0  501  503 -0.00000000000E+00 -0.00000000000E+00 -0.46712256944E+03  0.46712256944E+03  0.00000000000E+00 0.  1.
          6    2    1    2  501    0  0.33151656023E+02  0.13169075297E+02 -0.17139248506E+03  0.24485614101E+03  0.17119196539E+03 0.  0.
         24    2    3    3    0    0 -0.15076029910E+02  0.62183844028E+02 -0.76579340803E+02  0.12763848207E+03  0.79580585134E+02 0.  0.
         -6    2    1    2    0  502 -0.33151656023E+02 -0.13169075297E+02 -0.22951476664E+03  0.28848174618E+03  0.17109129999E+03 0.  0.
        -24    2    5    5    0    0 -0.52862298713E+02  0.36742261047E+01 -0.51053421847E+02  0.10808566024E+03  0.79171557426E+02 0.  0.
          5    1    3    3  501    0  0.48227685933E+02 -0.49014768731E+02 -0.94813144259E+02  0.11721765894E+03  0.47000000000E+01 0. -1.
        -13    1    4    4    0    0 -0.21291371162E+02 -0.13425406624E+02 -0.27512694968E+02  0.37289575130E+02  0.00000000000E+00 0.  1.
         14    1    4    4    0    0  0.62153412515E+01  0.75609250652E+02 -0.49066645835E+02  0.90348906936E+02  0.00000000000E+00 0. -1.
         -5    1    5    5    0  502  0.19710642690E+02 -0.16843301401E+02 -0.17846134479E+03  0.18039608594E+03  0.47000000000E+01 0.  1.
         13    1    6    6    0    0 -0.16242139574E+02  0.61459199761E+01  0.20983298464E+02  0.27237441963E+02  0.00000000000E+00 0. -1.
        -14    1    6    6    0    0 -0.36620159139E+02 -0.24716938714E+01 -0.72036720311E+02  0.80848218281E+02  0.00000000000E+00 0.  1.
</event>
<event>
12    1  0.1180557E+000  0.2575789E+03  0.7818608E-02  0.1109481E+00
         21   -1    0    0  501  502  0.00000000000E+00  0.00000000000E+00  0.16885030638E+03  0.16885030638E+03  0.00000000000E+00 0.  1.
         21   -1    0    0  502  503 -0.00000000000E+00 -0.00000000000E+00 -0.78034181664E+03  0.78034181664E+03  0.00000000000E+00 0.  1.
         -6    2    1    2    0  503  0.91406183580E+02 -0.15947825932E+03  0.34021906995E+02  0.25418530392E+03  0.17223319360E+03 0.  0.
        -24    2    3    3    0    0  0.69913519903E+02 -0.18241375011E+03  0.45705853621E+01  0.21085584886E+03  0.79225136494E+02 0.  0.
          6    2    1    2  501    0 -0.91406183580E+02  0.15947825932E+03 -0.64551341726E+03  0.69500681910E+03  0.18043974380E+03 0.  0.
         24    2    5    5    0    0 -0.11049192616E+03  0.48803860612E+02 -0.34371498196E+03  0.37295484558E+03  0.79781235009E+02 0.  0.
          5    1    5    5  501    0  0.19085742581E+02  0.11067439871E+03 -0.30179843530E+03  0.32205197352E+03  0.47000000000E+01 0. -1.
        -13    1    6    6    0    0 -0.35622301654E+02 -0.18532638874E+02 -0.14102121257E+03  0.14662670109E+03  0.00000000000E+00 0.  1.
         14    1    6    6    0    0 -0.74869624507E+02  0.67336499486E+02 -0.20269376939E+03  0.22632814449E+03  0.00000000000E+00 0. -1.
         -5    1    3    3    0  503  0.21492663677E+02  0.22935490789E+02  0.29451321633E+02  0.43329455058E+02  0.47000000000E+01 0.  1.
         13    1    4    4    0    0  0.81370545669E+02 -0.12101290034E+03  0.18104569011E+02  0.14694578309E+03  0.00000000000E+00 0. -1.
        -14    1    4    4    0    0 -0.11457025766E+02 -0.61400849778E+02 -0.13533983649E+02  0.63910065767E+02  0.00000000000E+00 0.  1.
</event>
<event>
12    1  0.9962621E-001  0.1828371E+03  0.7818608E-02  0.1165200E+00
         21   -1    0    0  501  502  0.00000000000E+00  0.00000000000E+00  0.11769874424E+04  0.11769874424E+04  0.00000000000E+00 0. -1.
         21   -1    0    0  502  503 -0.00000000000E+00 -0.00000000000E+00 -0.28635681880E+02  0.28635681880E+02  0.00000000000E+00 0. -1.
         -6    2    1    2    0  503  0.30370291060E+02 -0.52805019217E+02  0.51237576240E+03  0.54402051520E+03  0.17239105091E+03 0.  0.
        -24    2    3    3    0    0 -0.33994615787E+02 -0.52329125884E+02  0.20486914004E+03  0.22981440370E+03  0.83362607269E+02 0.  0.
          6    2    1    2  501    0 -0.30370291060E+02  0.52805019217E+02  0.63597599815E+03  0.66160260911E+03  0.17187733277E+03 0.  0.
         24    2    5    5    0    0  0.43026302704E+02  0.49316835455E+02  0.44796564248E+03  0.45968873826E+03  0.79731463397E+02 0.  0.
          5    1    5    5  501    0 -0.73396593764E+02  0.34881837618E+01  0.18801035567E+03  0.20191387085E+03  0.47000000000E+01 0. -1.
        -11    1    6    6    0    0 -0.91014243651E+01  0.50134388525E+02  0.22957450796E+03  0.23516110976E+03  0.00000000000E+00 0.  1.
         12    1    6    6    0    0  0.52127727069E+02 -0.81755306968E+00  0.21839113452E+03  0.22452762850E+03  0.00000000000E+00 0. -1.
         -5    1    3    3    0  503  0.64364906847E+02 -0.47589333285E+00  0.30750662236E+03  0.31420611150E+03  0.47000000000E+01 0.  1.
         13    1    4    4    0    0 -0.57942651304E+02 -0.18014624251E+02  0.14045782648E+03  0.15300417820E+03  0.00000000000E+00 0. -1.
        -14    1    4    4    0    0  0.23948035517E+02 -0.34314501633E+02  0.64411313553E+02  0.76810225498E+02  0.00000000000E+00 0.  1.
</event>
<event>
12    1  0.9962621E-001  0.2707223E+03  0.7818608E-02  0.1101110E+00
         21   -1    0    0  501  502  0.00000000000E+00  0.00000000000E+00  0.10526592377E+04  0.10526592377E+04  0.00000000000E+00 0. -1.
         21   -1    0    0  502  503 -0.00000000000E+00 -0.00000000000E+00 -0.10292619699E+03  0.10292619699E+03  0.00000000000E+00 0.  1.
         -6    2    1    2    0  503 -0.88755609748E+02  0.18839211312E+03  0.80466543105E+03  0.84844509754E+03  0.17030408411E+03 0.  0.
        -24    2    3    3    0    0 -0.65532578008E+02  0.58992781807E+02  0.23169147686E+03  0.26056352926E+03  0.80235560966E+02 0.  0.
          6    2    1    2  501    0  0.88755609748E+02 -0.18839211312E+03  0.14506760968E+03  0.30714033716E+03  0.17297811650E+03 0.  0.
         24    2    5    5    0    0  0.91394864682E+02 -0.93752848737E+02  0.26294476052E+02  0.15517750190E+03  0.79031890326E+02 0.  0.
          5    1    5    5  501    0 -0.26392549340E+01 -0.94639264379E+02  0.11877313362E+03  0.15196283526E+03  0.47000000000E+01 0. -1.
        -11    1    6    6    0    0  0.23058807787E+02 -0.48493723953E+01 -0.22782235316E+02  0.32775833707E+02  0.00000000000E+00 0.  1.
         12    1    6    6    0    0  0.68336056894E+02 -0.88903476341E+02  0.49076711369E+02  0.12240166819E+03  0.00000000000E+00 0. -1.
         -5    1    3    3    0  503 -0.23223031740E+02  0.12939933131E+03  0.57297395419E+03  0.58788156828E+03  0.47000000000E+01 0.  1.
         13    1    4    4    0    0 -0.92853254573E+01 -0.13297273792E+02  0.92683801098E+02  0.94092091831E+02  0.00000000000E+00 0. -1.
        -14    1    4    4    0    0 -0.56247252550E+02  0.72290055598E+02  0.13900767576E+03  0.16647143743E+03  0.00000000000E+00 0.  1.
</event>
<event>
12    1  0.9962621E-001  0.2376990E+03  0.7818608E-02  0.1121672E+00
         21   -1    0    0  503  502  0.00000000000E+00  0.00000000000E+00  0.10526068053E+03  0.10526068053E+03  0.00000000000E+00 0. -1.
         21   -1    0    0  501  503 -0.00000000000E+00 -0.00000000000E+00 -0.10483402316E+04  0.10483402316E+04  0.00000000000E+00 0. -1.
          6    2    1    2  501    0  0.40119233482E+02  0.15581177681E+03 -0.65852236518E+02  0.24473978244E+03  0.17226195565E+03 0.  0.
         24    2    3    3    0    0 -0.25867018553E+02  0.54148417001E+02  0.11825844637E+02  0.10070645825E+03  0.80004914965E+02 0.  0.
         -6    2    1    2    0  502 -0.40119233482E+02 -0.15581177681E+03 -0.87722731458E+03  0.90886112972E+03  0.17496836566E+03 0.  0.
        -24    2    5    5    0    0 -0.39961179546E+02 -0.18951986407E+02 -0.47666927241E+03  0.48554155498E+03  0.81122948001E+02 0.  0.
          5    1    3    3  501    0  0.65986252035E+02  0.10166335981E+03 -0.77678081154E+02  0.14403332419E+03  0.47000000000E+01 0. -1.
        -11    1    4    4    0    0  0.20670491122E+02  0.19533378394E+02 -0.19791812369E+02  0.34648779366E+02  0.00000000000E+00 0.  1.
         12    1    4    4    0    0 -0.46537509675E+02  0.34615038607E+02  0.31617657006E+02  0.66057678880E+02  0.00000000000E+00 0. -1.
         -5    1    5    5    0  502 -0.15805393646E+00 -0.13685979040E+03 -0.40055804216E+03  0.42331957473E+03  0.47000000000E+01 0.  1.
         13    1    6    6    0    0  0.33618772682E+01  0.24460162449E+02 -0.23168685215E+03  0.23299871078E+03  0.00000000000E+00 0. -1.
        -14    1    6    6    0    0 -0.43323056814E+02 -0.43412148856E+02 -0.24498242026E+03  0.25254284420E+03  0.00000000000E+00 0.  1.
</event>
<event>
12    1  0.9962621E-001  0.2924252E+03  0.7818608E-02  0.1089104E+00
         21   -1    0    0  501  502  0.00000000000E+00  0.00000000000E+00  0.67101034241E+02  0.67101034241E+02  0.00000000000E+00 0. -1.
         21   -1    0    0  502  503 -0.00000000000E+00 -0.00000000000E+00 -0.16256198036E+04  0.16256198036E+04  0.00000000000E+00 0.  1.
         -6    2    1    2    0  503  0.22128186254E+03 -0.83373772426E+02 -0.38545114958E+03  0.48375428536E+03  0.17183937638E+03 0.  0.
        -24    2    3    3    0    0  0.22674937259E+03 -0.38809774538E+02 -0.35047126248E+03  0.42664451320E+03  0.79208321890E+02 0.  0.
          6    2    1    2  501    0 -0.22128186254E+03  0.83373772426E+02 -0.11730676198E+04  0.12089665525E+04  0.17203382175E+03 0.  0.
         24    2    5    5    0    0 -0.69530458387E+02  0.76904712301E+02 -0.64498089155E+03  0.65945038354E+03  0.90142323373E+02 0.  0.
          5    1    5    5  501    0 -0.15175140415E+03  0.64690601248E+01 -0.52808672824E+03  0.54951616896E+03  0.47000000000E+01 0. -1.
        -11    1    6    6    0    0 -0.14609327308E+02 -0.20686068072E+02 -0.11066962340E+03  0.11353022241E+03  0.00000000000E+00 0.  1.
         12    1    6    6    0    0 -0.54921131079E+02  0.97590780373E+02 -0.53431126815E+03  0.54592016113E+03  0.00000000000E+00 0. -1.
         -5    1    3    3    0  503 -0.54675100501E+01 -0.44563997888E+02 -0.34979887101E+02  0.57109772154E+02  0.47000000000E+01 0.  1.
         13    1    4    4    0    0  0.15300140838E+03 -0.63018762003E+02 -0.23019477414E+03  0.28349678900E+03  0.00000000000E+00 0. -1.
        -14    1    4    4    0    0  0.73747964207E+02  0.24208987465E+02 -0.12027648833E+03  0.14314772420E+03  0.00000000000E+00 0.  1.
</event>
<event>
12    1  0.9962621E-001  0.2598722E+03  0.7818608E-02  0.1107238E+00
         21   -1    0    0  503  502  0.00000000000E+00  0.00000000000E+00  0.16001958335E+03  0.16001958335E+03  0.00000000000E+00 0. -1.
         21   -1    0    0  501  503 -0.00000000000E+00 -0.00000000000E+00 -0.44843184836E+03  0.44843184836E+03  0.00000000000E+00 0.  1.
          6    2    1    2  501    0  0.19477191330E+03  0.89898749748E+00 -0.70091522079E+02  0.26904387546E+03  0.17185714727E+03 0.  0.
         24    2    3    3    0    0  0.10212036660E+03  0.58114223990E+02 -0.70968344392E+02  0.16004501671E+03  0.82292582667E+02 0.  0.
         -6    2    1    2    0  502 -0.19477191330E+03 -0.89898749748E+00 -0.21832074293E+03  0.33940755625E+03  0.17203672879E+03 0.  0.
        -24    2    5    5    0    0 -0.93356779161E+02  0.10971787219E+02 -0.19625923862E+03  0.23483822662E+03  0.88291764106E+02 0.  0.
          5    1    3    3  501    0  0.92651546702E+02 -0.57215236493E+02  0.87682231260E+00  0.10899885876E+03  0.47000000000E+01 0. -1.
        -13    1    4    4    0    0  0.90396644231E+02  0.69784746317E+02 -0.33380082592E+02  0.11897770388E+03  0.00000000000E+00 0.  1.
         14    1    4    4    0    0  0.11723722369E+02 -0.11670522327E+02 -0.37588261800E+02  0.41067312825E+02  0.00000000000E+00 0. -1.
         -5    1    5    5    0  502 -0.10141513414E+03 -0.11870774716E+02 -0.22061504312E+02  0.10456932962E+03  0.47000000000E+01 0.  1.
         13    1    6    6    0    0 -0.67105931537E+02 -0.30905048963E+02 -0.14969483333E+03  0.16693373303E+03  0.00000000000E+00 0. -1.
        -14    1    6    6    0    0 -0.26250847624E+02  0.41876836182E+02 -0.46564405297E+02  0.67904493593E+02  0.00000000000E+00 0.  1.
</event>
<event>
12    1  0.9962621E-001  0.2877536E+03  0.7818608E-02  0.1091696E+00
         21   -1    0    0  501  502  0.00000000000E+00  0.00000000000E+00  0.27860278056E+02  0.27860278056E+02  0.00000000000E+00 0.  1.
         21   -1    0    0  502  503 -0.00000000000E+00 -0.00000000000E+00 -0.29675920595E+04  0.29675920595E+04  0.00000000000E+00 0.  1.
         -6    2    1    2    0  503  0.12518269848E+03  0.19257292369E+03 -0.13920796586E+04  0.14215090221E+04  0.17334095016E+03 0.  0.
        -24    2    3    3    0    0  0.89182568985E+02  0.21479594422E+03 -0.11517977086E+04  0.11774857087E+04  0.75787891035E+02 0.  0.
          6    2    1    2  501    0 -0.12518269848E+03 -0.19257292369E+03 -0.15476521228E+04  0.15739433155E+04  0.17121748766E+03 0.  0.
         24    2    5    5    0    0 -0.64551524911E+02 -0.13962965047E+03 -0.65756703433E+03  0.68021366722E+03  0.81442555108E+02 0.  0.
          5    1    5    5  501    0 -0.60631173567E+02 -0.52943273224E+02 -0.89008508849E+03  0.89372964824E+03  0.47000000000E+01 0. -1.
        -13    1    6    6    0    0 -0.60136990350E+02 -0.10071748540E+03 -0.32833682829E+03  0.34866250484E+03  0.00000000000E+00 0.  1.
         14    1    6    6    0    0 -0.44145345603E+01 -0.38912165073E+02 -0.32923020604E+03  0.33155116238E+03  0.00000000000E+00 0. -1.
         -5    1    3    3    0  503  0.36000129492E+02 -0.22223020529E+02 -0.24028195001E+03  0.24402331337E+03  0.47000000000E+01 0.  1.
         13    1    4    4    0    0  0.69212695242E+02  0.15461645600E+03 -0.65056674276E+03  0.67226016723E+03  0.00000000000E+00 0. -1.
        -14    1    4    4    0    0  0.19969873743E+02  0.60179488222E+02 -0.50123096583E+03  0.50522554148E+03  0.00000000000E+00 0.  1.
</event>
<event>
12    1  0.9962621E-001  0.1730990E+03  0.7818608E-02  0.1174687E+00
         21   -1    0    0  503  502  0.00000000000E+00  0.00000000000E+00  0.31802011561E+02  0.31802011561E+02  0.00000000000E+00 0.  1.
         21   -1    0    0  501  503 -0.00000000000E+00 -0.00000000000E+00 -0.10522022883E+04  0.10522022883E+04  0.00000000000E+00 0.  1.
          6    2    1    2  501    0 -0.17090632892E+02  0.20544035130E+01 -0.33420944114E+03  0.37631712918E+03  0.17211136179E+03 0.  0.
         24    2    3    3    0    0 -0.83970502431E+02 -0.22260042624E+02 -0.20843333997E+03  0.23172865500E+03  0.52030352289E+02 0.  0.
         -6    2    1    2    0  502  0.17090632892E+02 -0.20544035130E+01 -0.68619083557E+03  0.70768717065E+03  0.17224098926E+03 0.  0.
        -24    2    5    5    0    0 -0.13871752023E+02 -0.36526796686E+02 -0.62293855429E+03  0.62913810154E+03  0.78966296707E+02 0.  0.
          5    1    3    3  501    0  0.66879869539E+02  0.24314446137E+02 -0.12577610117E+03  0.14458847418E+03  0.47000000000E+01 0. -1.
        -11    1    4    4    0    0 -0.36718912987E+02 -0.36590948143E+02 -0.11022574473E+03  0.12180677674E+03  0.00000000000E+00 0.  1.
         12    1    4    4    0    0 -0.47251589444E+02  0.14330905519E+02 -0.98207595235E+02  0.10992187826E+03  0.00000000000E+00 0. -1.
         -5    1    5    5    0  502  0.30962384915E+02  0.34472393173E+02 -0.63252281280E+02  0.78549069108E+02  0.47000000000E+01 0.  1.
         13    1    6    6    0    0  0.91699749222E+01 -0.55136770728E+02 -0.32934171312E+03  0.33405106785E+03  0.00000000000E+00 0. -1.
        -14    1    6    6    0    0 -0.23041726945E+02  0.18609974042E+02 -0.29359684116E+03  0.29508703370E+03  0.00000000000E+00 0.  1.
</event>
<event>
12    1  0.9962621E-001  0.4349090E+03  0.7818608E-02  0.1032321E+00
         21   -1    0    0  501  502  0.00000000000E+00  0.00000000000E+00  0.45570318224E+03  0.45570318224E+03  0.00000000000E+00 0.  1.
         21   -1    0    0  502  503 -0.00000000000E+00 -0.00000000000E+00 -0.60427316919E+03  0.60427316919E+03  0.00000000000E+00 0.  1.
         -6    2    1    2    0  503  0.38783286648E+03 -0.96189606056E+02 -0.37085718063E+03  0.57156005299E+03  0.17169470904E+03 0.  0.
        -24    2    3    3    0    0  0.92128006100E+02 -0.27824299483E+02 -0.71273095203E+02  0.14507688352E+03  0.81888258522E+02 0.  0.
          6    2    1    2  501    0 -0.38783286648E+03  0.96189606056E+02  0.22228719368E+03  0.48841629844E+03  0.17167443452E+03 0.  0.
         24    2    5    5    0    0 -0.93081857121E+02  0.19676856833E+02  0.10214747041E+03  0.16102051132E+03  0.80262622280E+02 0.  0.
          5    1    5    5  501    0 -0.29475100936E+03  0.76512749223E+02  0.12013972327E+03  0.32739578712E+03  0.47000000000E+01 0. -1.
        -11    1    6    6    0    0 -0.62569826735E+02 -0.27445502097E+02  0.55050582178E+02  0.87742836750E+02  0.00000000000E+00 0.  1.
         12    1    6    6    0    0 -0.30512030386E+02  0.47122358930E+02  0.47096888232E+02  0.73277674571E+02  0.00000000000E+00 0. -1.
         -5    1    3    3    0  503  0.29570486038E+03 -0.68365306574E+02 -0.29958408543E+03  0.42648316947E+03  0.47000000000E+01 0.  1.
         11    1    4    4    0    0  0.73939404657E+02  0.14127730423E+02 -0.63940400851E+02  0.98767419674E+02  0.00000000000E+00 0. -1.
        -12    1    4    4    0    0  0.18188601442E+02 -0.41952029906E+02 -0.73326943514E+01  0.46309463850E+02  0.00000000000E+00 0.  1.
</event>
<event>
12    1  0.9962621E-001  0.2434795E+03  0.7818608E-02  0.1117535E+00
         21   -1    0    0  503  502  0.00000000000E+00  0.00000000000E+00  0.71742465714E+03  0.71742465714E+03  0.00000000000E+00 0.  1.
         21   -1    0    0  501  503 -0.00000000000E+00 -0.00000000000E+00 -0.17866810054E+03  0.17866810054E+03  0.00000000000E+00 0.  1.
          6    2    1    2  501    0  0.77546730368E+02 -0.15356664753E+03 -0.59305457196E+02  0.25036801094E+03  0.17196160335E+03 0.  0.
         24    2    3    3    0    0 -0.22772175233E+02 -0.65372560727E+02 -0.81017237266E+01  0.10723872642E+03  0.81500692359E+02 0.  0.
         -6    2    1    2    0  502 -0.77546730368E+02  0.15356664753E+03  0.59806201380E+03  0.64572474673E+03  0.17229644677E+03 0.  0.
        -24    2    5    5    0    0 -0.87031489577E+02  0.17129697729E+03  0.44781702434E+03  0.49406732981E+03  0.81518737039E+02 0.  0.
          5    1    3    3  501    0  0.10031890560E+03 -0.88194086804E+02 -0.51203733469E+02  0.14312928453E+03  0.47000000000E+01 0. -1.
        -11    1    4    4    0    0 -0.21385423463E+02 -0.81683336096E+01 -0.36711332412E+02  0.43264072140E+02  0.00000000000E+00 0.  1.
         12    1    4    4    0    0 -0.13867517703E+01 -0.57204227118E+02  0.28609608686E+02  0.63974654276E+02  0.00000000000E+00 0. -1.
         -5    1    5    5    0  502  0.94847592092E+01 -0.17730329759E+02  0.15024498946E+03  0.15165741693E+03  0.47000000000E+01 0.  1.
         11    1    6    6    0    0  0.11799378604E+02  0.37058737433E+01  0.14390609235E+02  0.18974943210E+02  0.00000000000E+00 0. -1.
        -12    1    6    6    0    0 -0.98830868181E+02  0.16759110355E+03  0.43342641510E+03  0.47509238660E+03  0.00000000000E+00 0.  1.
</event>
<event>
12    1  0.9962621E-001  0.1754872E+03  0.7818608E-02  0.1172406E+00
         21   -1    0    0  501  502  0.00000000000E+00  0.00000000000E+00  0.93323003962E+02  0.93323003962E+02  0.00000000000E+00 0. -1.
         21   -1    0    0  502  503 -0.00000000000E+00 -0.00000000000E+00 -0.41108441548E+03  0.41108441548E+03  0.00000000000E+00 0. -1.
         -6    2    1    2    0  503 -0.25194687052E+02  0.22388194121E+02 -0.45791772229E+02  0.18073589625E+03  0.17155924428E+03 0.  0.
        -24    2    3    3    0    0  0.29649066068E+02  0.62936073683E+02 -0.31175280412E+02  0.11082381128E+03  0.80436326044E+02 0.  0.
          6    2    1    2  501    0  0.25194687052E+02 -0.22388194121E+02 -0.27196963929E+03  0.32367152319E+03  0.17222011130E+03 0.  0.
         24    2    5    5    0    0 -0.15097282588E+01 -0.63083899690E+02 -0.25168329711E+03  0.27072917787E+03  0.77252495272E+02 0.  0.
          5    1    5    5  501    0  0.26704415311E+02  0.40695705569E+02 -0.20286342180E+02  0.52942345319E+02  0.47000000000E+01 0. -1.
        -13    1    6    6    0    0  0.50519436693E+01 -0.25935108310E+02 -0.13678316300E+02  0.29753122772E+02  0.00000000000E+00 0.  1.
         14    1    6    6    0    0 -0.65616719281E+01 -0.37148791380E+02 -0.23800498081E+03  0.24097605510E+03  0.00000000000E+00 0. -1.
         -5    1    3    3    0  503 -0.54843753120E+02 -0.40547879561E+02 -0.14616491816E+02  0.69912084980E+02  0.47000000000E+01 0.  1.
         11    1    4    4    0    0  0.19445981640E+02 -0.10942945183E+02  0.11283744951E+02  0.25004342650E+02  0.00000000000E+00 0. -1.
        -12    1    4    4    0    0  0.10203084428E+02  0.73879018865E+02 -0.42459025363E+02  0.85819468625E+02  0.00000000000E+00 0.  1.
</event>
<event>
12    1  0.9962621E-001  0.2015324E+03  0.7818608E-02  0.1148667E+00
         21   -1    0    0  501  502  0.00000000000E+00  0.00000000000E+00  0.10640391233E+03  0.10640391233E+03  0.00000000000E+00 0.  1.
         21   -1    0    0  502  503 -0.00000000000E+00 -0.00000000000E+00 -0.41925510250E+03  0.41925510250E+03  0.00000000000E+00 0. -1.
         -6    2    1    2    0  503  0.10197412274E+03  0.28489172882E+01 -0.75407862608E+02  0.21421937130E+03  0.17261736663E+03 0.  0.
        -24    2    3    3    0    0  0.19068238293E+02  0.52477406549E+02 -0.64786170498E+02  0.11689885463E+03  0.79690767452E+02 0.  0.
          6    2    1    2  501    0 -0.10197412274E+03 -0.28489172882E+01 -0.23744332756E+03  0.31143964353E+03  0.17380586791E+03 0.  0.
         24    2    5    5    0    0 -0.11497980453E+03  0.47740415582E+02 -0.19031277666E+03  0.24092860051E+03  0.79549574818E+02 0.  0.
          5    1    5    5  501    0  0.13005681794E+02 -0.50589332871E+02 -0.47130550907E+02  0.70511043022E+02  0.47000000000E+01 0. -1.
        -13    1    6    6    0    0 -0.52740324866E+02  0.39443464079E+02 -0.37657886583E+02  0.75864650183E+02  0.00000000000E+00 0.  1.
         14    1    6    6    0    0 -0.62239479666E+02  0.82969515032E+01 -0.15265489007E+03  0.16506395032E+03  0.00000000000E+00 0. -1.
         -5    1    3    3    0  503  0.82905884445E+02 -0.49628489260E+02 -0.10621692110E+02  0.97320516672E+02  0.47000000000E+01 0.  1.
         11    1    4    4    0    0  0.17470163039E+02  0.67780283176E+02 -0.25142590196E+02  0.74374210758E+02  0.00000000000E+00 0. -1.
        -12    1    4    4    0    0  0.15980752537E+01 -0.15302876628E+02 -0.39643580302E+02  0.42524643875E+02  0.00000000000E+00 0.  1.
</event>
<event>
12    1  0.9962621E-001  0.2880461E+03  0.7818608E-02  0.1091541E+00
         21   -1    0    0  501  502  0.00000000000E+00  0.00000000000E+00  0.11254071248E+04  0.11254071248E+04  0.00000000000E+00 0.  1.
         21   -1    0    0  502  503 -0.00000000000E+00 -0.00000000000E+00 -0.11623177448E+03  0.11623177448E+03  0.00000000000E+00 0. -1.
         -6    2    1    2    0  503  0.18446947165E+03  0.13822170464E+03  0.12701992662E+03  0.31364713081E+03  0.17060549611E+03 0.  0.
        -24    2    3    3    0    0  0.25951344032E+02  0.23942067271E+02  0.18934101523E+02  0.90280911596E+02  0.80903942770E+02 0.  0.
          6    2    1    2  501    0 -0.18446947165E+03 -0.13822170464E+03  0.88215542368E+03  0.92799176846E+03  0.17273188818E+03 0.  0.
         24    2    5    5    0    0 -0.20297773662E+03 -0.14972077797E+03  0.79354772255E+03  0.83662328779E+03  0.81266627783E+02 0.  0.
          5    1    5    5  501    0  0.18508264969E+02  0.11499073337E+02  0.88607701126E+02  0.91368480663E+02  0.47000000000E+01 0. -1.
        -11    1    6    6    0    0 -0.17684168180E+03 -0.15031335295E+03  0.75634165140E+03  0.79115091996E+03  0.00000000000E+00 0.  1.
         12    1    6    6    0    0 -0.26136054815E+02  0.59257498151E+00  0.37206071148E+02  0.45472367837E+02  0.00000000000E+00 0. -1.
         -5    1    3    3    0  503  0.15851812762E+03  0.11427963737E+03  0.10808582510E+03  0.22336621922E+03  0.47000000000E+01 0.  1.
         13    1    4    4    0    0 -0.22808510917E+02  0.31509368499E+02  0.95420490057E+01  0.40051456561E+02  0.00000000000E+00 0. -1.
        -14    1    4    4    0    0  0.48759854949E+02 -0.75673012280E+01  0.93920525178E+01  0.50229455035E+02  0.00000000000E+00 0.  1.
</event>
<event>
12    1  0.9962621E-001  0.2128694E+03  0.7818608E-02  0.1139713E+00
         21   -1    0    0  503  502  0.00000000000E+00  0.00000000000E+00  0.70062797131E+02  0.70062797131E+02  0.00000000000E+00 0. -1.
         21   -1    0    0  501  503 -0.00000000000E+00 -0.00000000000E+00 -0.79588726606E+03  0.79588726606E+03  0.00000000000E+00 0. -1.
          6    2    1    2  501    0 -0.41191557223E+02 -0.11925955478E+03 -0.17023010195E+03  0.27097234103E+03  0.16890274184E+03 0.  0.
         24    2    3    3    0    0  0.18804885358E+02 -0.94289736741E+02 -0.50945449743E+02  0.13505330930E+03  0.79998620830E+02 0.  0.
         -6    2    1    2    0  502  0.41191557223E+02  0.11925955478E+03 -0.55559436697E+03  0.59497772216E+03  0.17144621155E+03 0.  0.
        -24    2    5    5    0    0  0.27429722565E+01  0.14461010687E+03 -0.46012535634E+03  0.48887698621E+03  0.79785695404E+02 0.  0.
          5    1    3    3  501    0 -0.59996442581E+02 -0.24969818035E+02 -0.11928465221E+03  0.13591903174E+03  0.47000000000E+01 0. -1.
        -13    1    4    4    0    0 -0.21686170637E+02 -0.82836440853E+00 -0.12943975813E+01  0.21740553111E+02  0.00000000000E+00 0.  1.
         14    1    4    4    0    0  0.40491055995E+02 -0.93461372332E+02 -0.49651052161E+02  0.11331275619E+03  0.00000000000E+00 0. -1.
         -5    1    5    5    0  502  0.38448584966E+02 -0.25350552091E+02 -0.95469010632E+02  0.10610073595E+03  0.47000000000E+01 0.  1.
         13    1    6    6    0    0 -0.31995091940E+02  0.67797115203E+02 -0.15281648510E+03  0.17021460824E+03  0.00000000000E+00 0. -1.
        -14    1    6    6    0    0  0.34738064197E+02  0.76812991665E+02 -0.30730887124E+03  0.31866237797E+03  0.00000000000E+00 0.  1.
</event>
<event>
12    1  0.9962621E-001  0.2471341E+03  0.7818608E-02  0.1115806E+00
         21   -1    0    0  501  502  0.00000000000E+00  0.00000000000E+00  0.92309292429E+02  0.92309292429E+02  0.00000000000E+00 0. -1.
         21   -1    0    0  502  503 -0.00000000000E+00 -0.00000000000E+00 -0.86833728241E+03  0.86833728241E+03  0.00000000000E+00 0. -1.
         -6    2    1    2    0  503  0.17704145601E+03 -0.45229624043E+01 -0.14496133922E+03  0.28291478708E+03  0.16632153361E+03 0.  0.
        -24    2    3    3    0    0  0.51632172277E+02 -0.53150258133E+02 -0.77241502014E+02  0.13224903554E+03  0.77670629026E+02 0.  0.
          6    2    1    2  501    0 -0.17704145601E+03  0.45229624043E+01 -0.63106665076E+03  0.67773178776E+03  0.17236915066E+03 0.  0.
         24    2    5    5    0    0 -0.20209706386E+03 -0.40860113384E+01 -0.58772824922E+03  0.62671997578E+03  0.80582345426E+02 0.  0.
          5    1    5    5  501    0  0.25055607851E+02  0.86089737427E+01 -0.43338401540E+02  0.51011811982E+02  0.47000000000E+01 0. -1.
        -11    1    6    6    0    0 -0.14463095726E+03  0.15168182812E+02 -0.49518709638E+03  0.51609926176E+03  0.00000000000E+00 0.  1.
         12    1    6    6    0    0 -0.57466106601E+02 -0.19254194151E+02 -0.92541152838E+02  0.11062071401E+03  0.00000000000E+00 0. -1.
         -5    1    3    3    0  503  0.12540928373E+03  0.48627295729E+02 -0.67719837205E+02  0.15066575154E+03  0.47000000000E+01 0.  1.
         13    1    4    4    0    0  0.22131420704E+02 -0.37000098487E+02 -0.87112946375E+02  0.97198109532E+02  0.00000000000E+00 0. -1.
        -14    1    4    4    0    0  0.29500751574E+02 -0.16150159646E+02  0.98714443612E+01  0.35050926005E+02  0.00000000000E+00 0.  1.
</event>
<event>
12    1  0.9962621E-001  0.1719118E+03  0.7818608E-02  0.1176767E+00
         21   -1    0    0  501  502  0.00000000000E+00  0.00000000000E+00  0.13971125569E+03  0.13971125569E+03  0.00000000000E+00 0. -1.
         21   -1    0    0  502  503 -0.00000000000E+00 -0.00000000000E+00 -0.22833152179E+03  0.22833152179E+03  0.00000000000E+00 0. -1.
         -6    2    1    2    0  503  0.96168374972E+01 -0.19052767519E+01 -0.99749119497E+02  0.19577117129E+03  0.16816762775E+03 0.  0.
        -24    2    3    3    0    0  0.29244953838E+01 -0.51429280717E+02 -0.11001253694E+03  0.14453795795E+03  0.78325854071E+02 0.  0.
          6    2    1    2  501    0 -0.96168374972E+01  0.19052767519E+01  0.11128853403E+02  0.17227160619E+03  0.17163199375E+03 0.  0.
         24    2    5    5    0    0 -0.30489574446E+02  0.60107541994E+02 -0.15386911891E+02  0.10483014538E+03  0.78804007315E+02 0.  0.
          5    1    5    5  501    0  0.20872736949E+02 -0.58202265242E+02  0.26515765294E+02  0.67441460810E+02  0.47000000000E+01 0. -1.
        -11    1    6    6    0    0 -0.29948799113E+02  0.54493127257E+02  0.22799993330E+02  0.66228930102E+02  0.00000000000E+00 0.  1.
         12    1    6    6    0    0 -0.54077533307E+00  0.56144147370E+01 -0.38186905221E+02  0.38601215281E+02  0.00000000000E+00 0. -1.
         -5    1    3    3    0  503  0.66923421134E+01  0.49524003965E+02  0.10263417439E+02  0.51233213341E+02  0.47000000000E+01 0.  1.
         13    1    4    4    0    0  0.22713076796E+02  0.51114694534E+01 -0.52618248362E+01  0.23868342593E+02  0.00000000000E+00 0. -1.
        -14    1    4    4    0    0 -0.19788581413E+02 -0.56540750170E+02 -0.10475071210E+03  0.12066961535E+03  0.00000000000E+00 0.  1.
</event>
